Membrane in water
40155
    1TCq1    O1    1   1.370   1.424  10.600 -0.0568 -0.2392 -0.8479
    1TCq1    C1    2   1.360   1.323  10.692  0.1407 -1.0696 -0.2078
    1TCq1    O2    3   1.274   1.318  10.783  0.1354 -0.3021  0.2839
    1TCq1    C2    4   1.491   1.257  10.696 -0.0315  0.8196 -0.1739
    1TCq1    C3    5   1.576   1.266  10.588  0.1479  0.1115  0.1245
    1TCq1    C4    6   1.709   1.261  10.612 -0.0430 -0.0353 -0.4184
    1TCq1    C5    7   1.748   1.251  10.742 -0.0771  0.5763 -0.9119
    1TCq1    C6    8   1.669   1.241  10.848 -0.6259 -0.8914  0.3891
    1TCq1    C7    9   1.533   1.238  10.822 -0.0117 -0.2048  0.1424
    1TCq1    C8   10   1.708   1.198  10.978 -0.5565  0.0871  0.2685
    1TCq1    O4   11   1.625   1.205  11.068 -0.0681 -0.4373 -0.2570
    1TCq1    C9   12   1.810   1.271  10.509 -0.1963 -0.2091 -0.1724
    1TCq1    O5   13   1.929   1.285  10.539  0.1037 -0.2648  0.1600
    1TCq1    O6   14   1.776   1.274  10.390  0.2676 -0.4684  0.2600
    1TCq1    H1   15   1.448   1.422  10.540 -0.0409  0.2916 -0.8412
    1TCq1    H2   16   1.536   1.271  10.487 -0.5468 -0.5579  0.3737
    1TCq1    H3   17   1.854   1.245  10.764 -0.0423  2.3051 -0.6161
    1TCq1    H4   18   1.459   1.235  10.902  0.5835  0.8240  0.7201
    2MPD2     C   19   2.085   0.980  11.267 -0.2418  0.2441 -0.3974
    2MPD2    C1   20   1.955   1.020  11.298 -0.8110  0.2336  0.1854
    2MPD2    C2   21   1.881   1.076  11.201  0.5222 -0.6227 -0.7306
    2MPD2    C3   22   1.927   1.099  11.075 -0.5380  0.0352  0.2806
    2MPD2    C4   23   2.049   1.048  11.038  0.0618 -0.3122 -0.3260
    2MPD2    C5   24   2.126   0.989  11.134  0.2311  0.9633 -0.5163
    2MPD2     H   25   1.783   1.117  11.226  0.7627 -0.0159 -0.7720
    2MPD2    H1   26   2.086   1.049  10.936 -2.5447  0.0046 -1.2611
    2MPD2    H2   27   2.150   0.935  11.341  0.9638 -0.0737 -1.6553
    2MPD2    H3   28   2.223   0.946  11.118  0.8295  1.5068  1.6277
    2MPD2     N   29   1.840   1.157  10.976 -0.8588  0.4034 -0.4309
    2MPD2    H5   30   1.879   1.155  10.882 -1.3828  1.9524 -0.6798
    2MPD2    N1   31   1.895   0.996  11.429  0.0089  0.1962  0.1264
    2MPD2    H7   32   1.811   1.048  11.450 -0.0650 -0.5719  1.7328
    3TCq1    O1   33   0.643   1.966  10.388 -0.1781 -0.1092 -0.0243
    3TCq1    C1   34   0.763   2.022  10.399 -0.3103  0.8396 -0.0262
    3TCq1    O2   35   0.805   2.108  10.324 -0.5800  0.0452 -0.6088
    3TCq1    C2   36   0.805   2.024  10.541 -0.2045  0.4390  0.2441
    3TCq1    C3   37   0.944   2.018  10.565  0.1134  0.6884 -0.1127
    3TCq1    C4   38   0.990   2.058  10.683 -0.2244  0.0637  0.0025
    3TCq1    C5   39   0.908   2.117  10.781  1.0078  0.8188  0.0795
    3TCq1    C6   40   0.775   2.141  10.743  0.2488 -0.1891 -0.7244
    3TCq1    C7   41   0.722   2.084  10.626 -0.4003  1.2690 -0.4237
    3TCq1    C8   42   0.674   2.196  10.831 -0.4395 -0.4068  0.0829
    3TCq1    O4   43   0.559   2.173  10.798  0.0897 -0.4689  0.2987
    3TCq1    C9   44   1.132   2.051  10.698  0.6432  1.1227  0.0487
    3TCq1    O5   45   1.186   2.119  10.791  0.3218  0.1251  0.0538
    3TCq1    O6   46   1.191   1.981  10.612 -0.2205  0.2402  0.0488
    3TCq1    H1   47   0.631   1.893  10.452 -2.8542  0.1123 -0.2515
    3TCq1    H2   48   1.004   1.986  10.481 -1.3025  0.5544 -1.0789
    3TCq1    H3   49   0.939   2.134  10.883  0.3592  0.7671  0.2844
    3TCq1    H4   50   0.621   2.096  10.590 -0.9622 -0.2445  0.6520
    4MPD2     C   51   0.480   2.467  11.214 -1.0032 -0.1508  0.0099
    4MPD2    C1   52   0.610   2.511  11.205  0.9126  0.5107 -0.4295
    4MPD2    C2   53   0.696   2.431  11.128 -0.0531  0.5451 -0.4791
    4MPD2    C3   54   0.641   2.332  11.041 -0.1791  0.5518  0.5840
    4MPD2    C4   55   0.514   2.291  11.053 -0.6618 -1.0403 -0.2377
    4MPD2    C5   56   0.434   2.362  11.135  0.4439 -0.0881  0.4752
    4MPD2     H   57   0.799   2.461  11.113  0.1653 -0.4718 -1.0752
    4MPD2    H1   58   0.464   2.213  10.996  1.5445 -1.1135 -2.1010
    4MPD2    H2   59   0.404   2.515  11.275 -3.1436 -0.8457 -2.1434
    4MPD2    H3   60   0.327   2.346  11.143  0.3497  0.1341 -0.2731
    4MPD2     N   61   0.719   2.271  10.938 -0.5334  0.2930 -0.5363
    4MPD2    H5   62   0.819   2.285  10.954 -0.6844 -1.2396  1.7230
    4MPD2    N1   63   0.662   2.624  11.263  1.0008 -0.5626  0.2958
    4MPD2    H7   64   0.753   2.646  11.224  1.5350 -1.8379  0.8060
    5TCq1    O1   65   2.660   4.030   9.368  0.2087 -0.3139  0.4956
    5TCq1    C1   66   2.544   3.968   9.354  0.8088 -0.2873  0.3116
    5TCq1    O2   67   2.528   3.848   9.367 -0.2499  0.0531 -0.0262
    5TCq1    C2   68   2.446   4.056   9.415 -0.2589  0.2808 -0.3234
    5TCq1    C3   69   2.489   4.156   9.496 -1.2405  0.5882  0.6036
    5TCq1    C4   70   2.417   4.191   9.609  0.2355 -0.6226 -0.0680
    5TCq1    C5   71   2.300   4.120   9.640  0.6848  0.3955  0.0124
    5TCq1    C6   72   2.268   4.019   9.560  0.6162  0.0221 -0.2568
    5TCq1    C7   73   2.338   3.982   9.448  0.0222 -0.2569 -0.0491
    5TCq1    C8   74   2.180   3.917   9.629 -0.4457 -0.6312 -0.4471
    5TCq1    O4   75   2.169   3.911   9.748  0.4709  0.1531 -0.2854
    5TCq1    C9   76   2.468   4.294   9.699  0.4228 -0.0963  0.5276
    5TCq1    O5   77   2.414   4.293   9.809 -0.0401  0.1971 -0.3851
    5TCq1    O6   78   2.574   4.357   9.663  0.3766 -0.2871 -0.7015
    5TCq1    H1   79   2.653   4.127   9.358  1.7456 -0.2284  0.2653
    5TCq1    H2   80   2.572   4.221   9.472  1.8386 -3.3646  0.6461
    5TCq1    H3   81   2.237   4.141   9.726 -1.0850 -0.2598 -1.1272
    5TCq1    H4   82   2.303   3.907   9.379  1.6942  0.9672 -2.2460
    6MPD2     C   83   2.024   3.640   9.453 -0.7119  0.8783 -0.0500
    6MPD2    C1   84   2.058   3.709   9.565 -0.1972  0.0670  0.0178
    6MPD2    C2   85   2.028   3.653   9.690 -0.4037 -0.6202  0.2365
    6MPD2    C3   86   1.964   3.532   9.699 -0.0378  0.4397 -0.2420
    6MPD2    C4   87   1.923   3.464   9.589  0.0092  0.0864  0.3071
    6MPD2    C5   88   1.966   3.510   9.470 -0.1870  0.1604  0.7939
    6MPD2     H   89   2.054   3.710   9.778  0.1718 -0.2479 -0.1706
    6MPD2    H1   90   1.881   3.364   9.585  0.2523 -0.0503  1.2294
    6MPD2    H2   91   2.059   3.675   9.357  0.8214 -0.9573 -0.1653
    6MPD2    H3   92   1.952   3.455   9.377  3.2506  0.6720 -0.0324
    6MPD2     N   93   1.941   3.483   9.832 -0.1819  0.0277  0.3901
    6MPD2    H5   94   1.992   3.534   9.904 -0.1864 -1.0140  1.1227
    6MPD2    N1   95   2.130   3.828   9.538 -0.7326 -0.2278  0.5770
    6MPD2    H7   96   2.151   3.850   9.441 -0.7224  3.6032  1.4628
    7TCq1    O1   97   3.345   3.683  13.043  0.6539  0.0336 -0.4433
    7TCq1    C1   98   3.308   3.640  12.920  0.4628  0.7225 -0.2120
    7TCq1    O2   99   3.262   3.712  12.832  0.0037  0.1631 -0.2370
    7TCq1    C2  100   3.376   3.510  12.902 -0.0049  0.3740 -0.0542
    7TCq1    C3  101   3.327   3.426  12.813  0.6626  0.0974 -0.4625
    7TCq1    C4  102   3.388   3.311  12.788  0.0637  0.0202 -0.6895
    7TCq1    C5  103   3.490   3.271  12.868  0.4924 -0.0326 -0.2969
    7TCq1    C6  104   3.547   3.364  12.955  0.2222  1.1570 -0.2241
    7TCq1    C7  105   3.487   3.482  12.978 -0.7738  0.7839  0.5340
    7TCq1    C8  106   3.644   3.301  13.053 -0.7028  0.2831  0.0840
    7TCq1    O4  107   3.706   3.200  13.012 -0.4133  0.4937  0.0843
    7TCq1    C9  108   3.337   3.233  12.677  0.1398 -0.7998  0.6580
    7TCq1    O5  109   3.403   3.133  12.648 -0.2820 -0.0452  0.3183
    7TCq1    O6  110   3.225   3.262  12.632 -0.2395  0.2076 -0.3975
    7TCq1    H1  111   3.380   3.614  13.104 -2.6896 -2.1070 -0.9568
    7TCq1    H2  112   3.242   3.457  12.753  1.3066 -2.2331 -2.5749
    7TCq1    H3  113   3.538   3.179  12.837  0.5141 -0.1770  0.1644
    7TCq1    H4  114   3.534   3.560  13.037  0.2459  1.9929 -1.8979
    8MPD2     C  115   3.909   3.271  13.497 -0.6891 -0.3852 -0.0215
    8MPD2    C1  116   3.917   3.192  13.383 -0.2653  0.5241 -0.3593
    8MPD2    C2  117   3.837   3.227  13.269  0.2217 -0.2320  0.2449
    8MPD2    C3  118   3.741   3.329  13.278 -0.1133 -0.0378 -0.2440
    8MPD2    C4  119   3.731   3.400  13.401  0.4997 -0.6040 -0.2515
    8MPD2    C5  120   3.809   3.364  13.504 -0.4208 -0.1800  0.3358
    8MPD2     H  121   3.839   3.168  13.178  1.3252 -2.5766  1.7914
    8MPD2    H1  122   3.654   3.472  13.425  0.7961 -0.3415 -0.0876
    8MPD2    H2  123   3.979   3.251  13.577  1.8736  1.4463 -1.8428
    8MPD2    H3  124   3.802   3.424  13.594  1.3737 -0.6491  0.7790
    8MPD2     N  125   3.652   3.367  13.170 -0.4635 -0.4117  0.8153
    8MPD2    H5  126   3.571   3.423  13.196 -0.9094 -0.6608 -0.0315
    8MPD2    N1  127   3.989   3.073  13.409  0.6387  0.2287 -0.8758
    8MPD2    H7  128   4.019   3.053  13.504  0.0567 -0.2580 -0.7949
    9TCq1    O1  129   1.153   2.015  11.016 -0.4218  0.1980 -0.3461
    9TCq1    C1  130   1.241   1.964  11.107  0.3673  0.2546  0.0272
    9TCq1    O2  131   1.215   1.948  11.224 -0.4184 -0.0256 -0.8677
    9TCq1    C2  132   1.371   2.010  11.067  0.2994 -0.1365  0.2656
    9TCq1    C3  133   1.415   1.981  10.937  0.1258  1.0412  0.0015
    9TCq1    C4  134   1.552   1.995  10.911 -0.0268  1.0182  0.2114
    9TCq1    C5  135   1.638   2.024  11.021  0.0411 -0.4175 -0.2252
    9TCq1    C6  136   1.581   2.040  11.144  0.4110  0.0213  0.2518
    9TCq1    C7  137   1.450   2.036  11.176  0.1880 -0.0542  0.1994
    9TCq1    C8  138   1.669   2.100  11.244  0.2231  0.3730 -0.5579
    9TCq1    O4  139   1.774   2.139  11.206  0.9114 -0.3228 -0.1885
    9TCq1    C9  140   1.606   1.962  10.783  0.1156  0.2832  0.8821
    9TCq1    O5  141   1.519   1.963  10.687  0.1662 -0.1803 -0.6268
    9TCq1    O6  142   1.731   1.958  10.766 -0.0188 -0.0054 -0.4471
    9TCq1    H1  143   1.192   2.056  10.937  0.3525  0.9311  0.4138
    9TCq1    H2  144   1.345   1.950  10.860  1.4598 -1.1037 -0.3478
    9TCq1    H3  145   1.744   2.030  11.000 -0.0098 -0.7475 -0.5577
    9TCq1    H4  146   1.399   2.075  11.264  0.3582  0.3241  0.1321
   10MPD2     C  147   1.783   2.239  11.467  0.1156 -0.1301 -0.1697
   10MPD2    C1  148   1.671   2.166  11.480  0.4691 -0.3295  0.8895
   10MPD2    C2  149   1.607   2.155  11.602 -0.1325 -0.1505  0.8452
   10MPD2    C3  150   1.662   2.210  11.714 -0.4460 -0.3118 -0.9413
   10MPD2    C4  151   1.788   2.254  11.705 -0.2345 -0.4759 -0.0915
   10MPD2    C5  152   1.839   2.283  11.586  0.4483  0.1077 -0.1940
   10MPD2     H  153   1.517   2.096  11.615 -0.4042 -0.1132 -0.8038
   10MPD2    H1  154   1.844   2.295  11.789 -3.8855  1.6358  1.2982
   10MPD2    H2  155   1.813   2.275  11.370  0.7272  2.6570  1.0303
   10MPD2    H3  156   1.931   2.337  11.570  1.9159 -2.2838  0.3026
   10MPD2     N  157   1.600   2.194  11.845 -0.6153  0.1277 -0.5312
   10MPD2    H5  158   1.659   2.204  11.927  1.4189 -0.7442 -1.8935
   10MPD2    N1  159   1.615   2.100  11.369  0.0528  0.0681 -0.3092
   10MPD2    H7  160   1.531   2.046  11.383  1.2045 -1.4680  0.6057
   11TCq1    O1  161   1.694   2.490  14.457  0.9475 -0.1514  0.1824
   11TCq1    C1  162   1.816   2.488  14.508  0.1322 -0.7834  0.1263
   11TCq1    O2  163   1.861   2.526  14.615  0.0806 -0.0907  0.2044
   11TCq1    C2  164   1.900   2.425  14.404 -0.0820  0.3924 -0.1121
   11TCq1    C3  165   2.007   2.351  14.440 -0.0322  0.0834 -0.3963
   11TCq1    C4  166   2.104   2.312  14.347  0.2221  0.0187 -0.1854
   11TCq1    C5  167   2.097   2.349  14.212 -0.0489 -0.3224  0.0216
   11TCq1    C6  168   1.982   2.417  14.179 -0.3068 -1.1106  0.3705
   11TCq1    C7  169   1.894   2.462  14.274  0.0560 -0.0622  0.1316
   11TCq1    C8  170   1.947   2.432  14.041  0.5787 -0.8424  0.1625
   11TCq1    O4  171   1.878   2.523  14.001 -0.1887  0.4898  0.3439
   11TCq1    C9  172   2.224   2.237  14.389 -0.3795 -0.9219 -0.1345
   11TCq1    O5  173   2.328   2.236  14.318  0.2864  0.1616  0.1491
   11TCq1    O6  174   2.223   2.207  14.512  0.3218  0.3709  0.0444
   11TCq1    H1  175   1.683   2.429  14.381 -1.9236 -1.6665  1.7786
   11TCq1    H2  176   2.024   2.329  14.545  2.5413  1.2088 -0.5869
   11TCq1    H3  177   2.171   2.309  14.144 -0.7207  0.5652 -1.2120
   11TCq1    H4  178   1.830   2.544  14.243 -1.5908 -0.8572  1.3955
   12MPD2     C  179   1.890   2.406  13.750 -1.0962 -0.5413  0.9914
   12MPD2    C1  180   1.939   2.302  13.830 -0.1001  0.9495 -0.2247
   12MPD2    C2  181   1.941   2.169  13.778  0.1824  0.1069  0.0183
   12MPD2    C3  182   1.879   2.141  13.657  0.6982 -0.1093 -0.2128
   12MPD2    C4  183   1.834   2.242  13.586 -0.0119 -0.2395 -0.2551
   12MPD2    C5  184   1.845   2.372  13.629 -0.4841  0.2380 -0.1714
   12MPD2     H  185   1.991   2.100  13.845  0.7614 -0.4634 -0.9981
   12MPD2    H1  186   1.788   2.227  13.489  0.9620  1.2431 -0.9472
   12MPD2    H2  187   1.903   2.508  13.783 -1.9366  0.0325 -0.4178
   12MPD2    H3  188   1.821   2.449  13.556  1.5113  0.0418 -1.0346
   12MPD2     N  189   1.851   2.008  13.604  0.0869 -0.3414 -0.1646
   12MPD2    H5  190   1.818   1.990  13.510 -0.6672 -0.0417  0.0409
   12MPD2    N1  191   1.981   2.321  13.964 -0.1509 -0.2512  0.2611
   12MPD2    H7  192   2.014   2.245  14.023 -2.1650 -0.9171  0.5166
   13TCq1    O1  193   1.898   1.629  11.081  0.1716 -0.2086  0.0353
   13TCq1    C1  194   1.779   1.580  11.120  0.0264  0.4487 -0.8639
   13TCq1    O2  195   1.771   1.514  11.226  0.3477  0.7509  1.1138
   13TCq1    C2  196   1.701   1.574  10.996 -0.4132 -0.5825 -0.0634
   13TCq1    C3  197   1.762   1.592  10.870 -0.4517  0.3459  0.0803
   13TCq1    C4  198   1.682   1.623  10.761 -0.4715 -0.3176 -0.0080
   13TCq1    C5  199   1.544   1.630  10.770 -0.3104  0.5605 -0.2489
   13TCq1    C6  200   1.491   1.613  10.897 -0.2687  0.2445 -0.0460
   13TCq1    C7  201   1.566   1.595  11.010 -0.5048  0.3424  0.3019
   13TCq1    C8  202   1.351   1.644  10.924  0.1710  0.1504 -0.3591
   13TCq1    O4  203   1.329   1.689  11.034  0.6197 -0.1317 -0.0449
   13TCq1    C9  204   1.745   1.628  10.634  0.3123  0.0140  0.5067
   13TCq1    O5  205   1.869   1.611  10.613  0.3638 -0.5749 -0.2524
   13TCq1    O6  206   1.666   1.664  10.540  0.0690 -0.3755  0.1314
   13TCq1    H1  207   1.889   1.701  11.014 -0.1652 -0.5697 -0.3064
   13TCq1    H2  208   1.869   1.584  10.853 -0.2726 -1.3810  2.1185
   13TCq1    H3  209   1.483   1.640  10.682 -0.8570 -1.5462 -0.1269
   13TCq1    H4  210   1.514   1.596  11.105 -0.7314 -0.9923  0.1815
   14MPD2     C  211   1.060   1.634  10.683 -0.3948  0.7223  0.1238
   14MPD2    C1  212   1.134   1.665  10.799 -0.8444  0.1987 -0.1935
   14MPD2    C2  213   1.063   1.728  10.900 -0.4995 -0.2750  0.1621
   14MPD2    C3  214   0.934   1.775  10.884 -0.5539  0.3522 -0.2163
   14MPD2    C4  215   0.870   1.752  10.762 -0.0847  0.4388 -0.2743
   14MPD2    C5  216   0.932   1.678  10.668  0.4638 -0.3215 -0.0180
   14MPD2     H  217   1.114   1.757  10.991 -0.1170  0.5022 -0.3032
   14MPD2    H1  218   0.774   1.795  10.737 -0.4463 -1.0928 -1.4720
   14MPD2    H2  219   1.110   1.575  10.606 -2.3720 -1.3948  0.4600
   14MPD2    H3  220   0.879   1.663  10.574  1.7355 -0.9723 -0.6214
   14MPD2     N  221   0.878   1.837  11.002  0.4045  0.0338 -0.5464
   14MPD2    H5  222   0.929   1.844  11.089  1.6314  2.0615 -1.4205
   14MPD2    N1  223   1.270   1.616  10.815 -0.3283 -1.0028 -0.1859
   14MPD2    H7  224   1.314   1.570  10.736 -1.3733 -0.6539 -0.9759
   15TCq1    O1  225   3.880   1.910   2.442 -0.0857  0.3394 -0.0010
   15TCq1    C1  226   3.801   1.989   2.363  0.9192  0.6422 -0.0367
   15TCq1    O2  227   3.779   2.107   2.390 -0.3444 -0.2873  0.5029
   15TCq1    C2  228   3.704   1.899   2.312 -0.1854 -0.5285 -0.1697
   15TCq1    C3  229   3.573   1.930   2.342  0.0938  0.1420 -0.2347
   15TCq1    C4  230   3.482   1.837   2.319  0.5134  0.1089 -0.4542
   15TCq1    C5  231   3.510   1.714   2.260 -0.2321  0.5111  0.3661
   15TCq1    C6  232   3.641   1.701   2.218 -0.3366 -0.6999  0.4887
   15TCq1    C7  233   3.745   1.788   2.250  0.0282 -0.0571 -0.3508
   15TCq1    C8  234   3.683   1.592   2.129 -0.4716 -0.4574  0.3788
   15TCq1    O4  235   3.802   1.568   2.110 -0.0566 -0.3980  0.3601
   15TCq1    C9  236   3.342   1.881   2.346 -0.8317  0.1086 -0.6494
   15TCq1    O5  237   3.331   1.993   2.406  0.5060 -0.5851 -0.0863
   15TCq1    O6  238   3.252   1.801   2.315  0.2528 -0.0691  0.1054
   15TCq1    H1  239   3.885   1.813   2.430  1.0694  0.2843  0.9752
   15TCq1    H2  240   3.549   2.024   2.390 -1.1134 -0.8076  1.0096
   15TCq1    H3  241   3.429   1.643   2.250  1.5611 -1.6987  1.3872
   15TCq1    H4  242   3.845   1.775   2.210  0.5446  1.9344  0.3163
   16MPD2     C  243   3.459   1.378   1.946  0.0038 -0.3553  0.0863
   16MPD2    C1  244   3.584   1.425   1.987  0.2577  0.8049 -0.1110
   16MPD2    C2  245   3.697   1.349   1.963  0.5007  0.1656  0.3163
   16MPD2    C3  246   3.686   1.232   1.892 -0.2992 -0.2404  0.1534
   16MPD2    C4  247   3.559   1.191   1.858  0.0983  0.1699  0.1862
   16MPD2    C5  248   3.444   1.265   1.873 -0.2720 -0.5243 -1.1477
   16MPD2     H  249   3.797   1.379   1.993  0.1734  2.9059 -1.2981
   16MPD2    H1  250   3.545   1.094   1.812  0.0870  0.1971  0.1320
   16MPD2    H2  251   3.374   1.438   1.976 -0.5071 -0.9897 -0.0901
   16MPD2    H3  252   3.346   1.229   1.845 -0.5834 -0.8864  0.4653
   16MPD2     N  253   3.806   1.156   1.870 -0.0768  0.1075 -0.4549
   16MPD2    H5  254   3.892   1.202   1.897 -1.2167 -0.2700  3.8292
   16MPD2    N1  255   3.578   1.543   2.055 -1.0986  0.9727  0.1923
   16MPD2    H7  256   3.490   1.592   2.053 -1.7876 -0.2338  0.4990
   17TCq1    O1  257   1.244   0.961  11.033 -0.0606 -0.2183 -0.7751
   17TCq1    C1  258   1.251   0.987  10.898  0.3259 -0.2112  0.1584
   17TCq1    O2  259   1.163   1.041  10.832 -0.3973  0.7812  0.3620
   17TCq1    C2  260   1.374   0.933  10.838 -0.5621  0.6453  0.5445
   17TCq1    C3  261   1.385   0.936  10.699 -0.1692 -0.0190 -0.7322
   17TCq1    C4  262   1.502   0.903  10.636  0.1599  0.4077  0.1591
   17TCq1    C5  263   1.600   0.850  10.711 -1.0253  0.0975 -0.5399
   17TCq1    C6  264   1.590   0.846  10.850  0.3504 -0.5661  0.1604
   17TCq1    C7  265   1.481   0.895  10.914  0.2844  0.2071  0.1537
   17TCq1    C8  266   1.698   0.800  10.934 -0.4597 -0.2309  0.7924
   17TCq1    O4  267   1.666   0.777  11.047 -0.5968  0.3470 -0.4684
   17TCq1    C9  268   1.503   0.899  10.492  0.0956  0.4427 -0.1701
   17TCq1    O5  269   1.571   0.807  10.445  0.2685 -0.2151 -0.1149
   17TCq1    O6  270   1.407   0.953  10.432 -0.2419  0.1795  0.3114
   17TCq1    H1  271   1.310   0.898  11.068  3.0312  3.0405 -0.6955
   17TCq1    H2  272   1.303   0.970  10.637 -0.4664  0.3806 -0.1285
   17TCq1    H3  273   1.684   0.806  10.657 -2.1116  0.1493 -2.2670
   17TCq1    H4  274   1.487   0.898  11.022  1.9039  1.9094  0.0300
   18MPD2     C  275   1.922   0.663  11.043  0.3159 -0.4540  0.5135
   18MPD2    C1  276   1.940   0.737  10.933  0.3097 -0.1091  0.1674
   18MPD2    C2  277   2.057   0.746  10.866 -0.3826  0.1529 -0.4197
   18MPD2    C3  278   2.167   0.692  10.928  0.8814 -0.0030 -0.0204
   18MPD2    C4  279   2.158   0.625  11.051  0.4154  0.6396 -0.6916
   18MPD2    C5  280   2.036   0.616  11.107 -0.8426  0.0814 -0.0443
   18MPD2     H  281   2.066   0.801  10.773 -0.2369  0.8831  0.0241
   18MPD2    H1  282   2.245   0.591  11.104 -0.7258  0.0567  0.8074
   18MPD2    H2  283   1.835   0.639  11.104 -0.3425  3.3790  1.0295
   18MPD2    H3  284   2.030   0.555  11.196  0.4837 -1.0958 -0.7572
   18MPD2     N  285   2.291   0.719  10.862 -0.4930 -0.0045 -0.0663
   18MPD2    H5  286   2.295   0.771  10.774  1.6427 -1.7363 -0.9714
   18MPD2    N1  287   1.820   0.800  10.873  0.9208 -0.0298  0.2978
   18MPD2    H7  288   1.820   0.855  10.788 -0.2081 -0.6726 -0.1171
   19TMC2    C1  289   3.014   1.422  13.664 -0.5237  0.0833 -0.0254
   19TMC2    C2  290   3.010   1.446  13.530  0.2024  0.7707  0.1683
   19TMC2    C3  291   2.884   1.455  13.472  0.2665 -0.4465 -0.5148
   19TMC2    C4  292   2.901   1.407  13.738  0.3077  0.1317  0.0211
   19TMC2    C5  293   2.778   1.418  13.676  0.5368 -0.0753 -0.2689
   19TMC2    C6  294   2.769   1.434  13.538  0.0768  0.3636  1.1236
   19TMC2     C  295   3.141   1.364  13.715 -0.8505 -0.5429 -0.9797
   19TMC2     O  296   3.225   1.328  13.631  0.7016  0.1258 -0.0147
   19TMC2     H  297   3.102   1.449  13.473 -0.3625 -1.3657 -0.8394
   19TMC2    H1  298   2.913   1.379  13.842  1.9638  0.9138  0.0409
   19TMC2    H2  299   2.676   1.443  13.483  1.5911  2.4961 -1.1392
   19TMC2    C7  300   2.665   1.376  13.748 -1.1084 -0.2414 -0.9787
   19TMC2    C8  301   2.879   1.433  13.328  1.0939 -0.1598  0.3430
   19TMC2    O1  302   2.677   1.284  13.825 -0.0352 -0.0174 -0.0216
   19TMC2    O2  303   2.827   1.329  13.293  0.1677 -0.2062 -0.5814
   19TMC2    O5  304   2.986   1.496  13.269  0.3897  0.0613  0.2638
   19TMC2    H5  305   3.025   1.572  13.317  0.6950 -1.0969  1.9009
   20MPD2     C  306   3.367   1.259  13.891 -0.6435 -1.3153 -0.0533
   20MPD2    C1  307   3.260   1.330  13.936 -0.3024  0.9331 -0.6015
   20MPD2    C2  308   3.249   1.358  14.069 -0.3204 -0.3120 -0.0509
   20MPD2    C3  309   3.352   1.328  14.162  0.9059 -0.3647  0.1812
   20MPD2    C4  310   3.469   1.263  14.108  0.3165  0.0566  0.2287
   20MPD2    C5  311   3.473   1.231  13.976 -0.1853 -0.0598  0.0027
   20MPD2     H  312   3.164   1.401  14.120 -0.4738 -0.3555 -0.2707
   20MPD2    H1  313   3.558   1.240  14.165 -0.7963  1.4813  2.5706
   20MPD2    H2  314   3.376   1.234  13.786  0.1728 -1.2812  0.0080
   20MPD2    H3  315   3.557   1.183  13.927 -1.1318 -1.4545 -0.2576
   20MPD2     N  316   3.348   1.348  14.302 -0.6303 -0.3803 -0.3951
   20MPD2    H5  317   3.429   1.316  14.353 -1.0953 -1.6028 -0.4135
   20MPD2    N1  318   3.152   1.368  13.853  0.2201  0.6011 -0.8326
   20MPD2    H7  319   3.085   1.435  13.890  0.9852  1.7991 -1.6145
   21MPD2     C  320   1.322   2.358  14.305  0.2699  0.0595  0.2356
   21MPD2    C1  321   1.343   2.237  14.230 -0.3032  0.1809  0.0637
   21MPD2    C2  322   1.235   2.155  14.199 -0.0258  0.0344  0.1904
   21MPD2    C3  323   1.109   2.181  14.258  0.2333 -0.5185  0.0076
   21MPD2    C4  324   1.087   2.304  14.327 -0.5944 -0.0562  0.4880
   21MPD2    C5  325   1.197   2.380  14.348 -0.3230 -0.2240 -0.0059
   21MPD2     H  326   1.246   2.071  14.132  0.7027 -2.2935  3.2284
   21MPD2    H1  327   0.993   2.332  14.372  1.1070  1.7219  2.9281
   21MPD2    H2  328   1.408   2.418  14.334  1.8894 -3.1681  2.0165
   21MPD2    H3  329   1.183   2.466  14.412 -0.8680 -1.0372  0.9799
   21MPD2     N  330   1.001   2.087  14.255 -0.0173 -0.1191  0.2529
   21MPD2    H5  331   0.922   2.108  14.314 -0.5584 -2.3921  0.3527
   21MPD2    N1  332   1.463   2.199  14.169 -0.3097 -0.0153  0.6807
   21MPD2    H7  333   1.447   2.120  14.107 -0.5737  0.6361 -0.0763
   22TCq2    C1  334   0.989   1.979  14.170  0.8636  1.0162 -0.0670
   22TCq2    O2  335   1.077   1.928  14.105  0.7250 -0.0183 -0.7978
   22TCq2    C2  336   0.863   1.902  14.188  0.0080 -0.2006  0.1430
   22TCq2    C3  337   0.856   1.778  14.145  0.1330 -0.0561  0.5973
   22TCq2    C4  338   0.806   1.679  14.225 -0.7922 -0.2469 -0.0024
   22TCq2    C5  339   0.744   1.699  14.343  0.3863  0.0854 -0.0711
   22TCq2    C6  340   0.723   1.826  14.378 -1.1403  0.2512  0.1255
   22TCq2    C7  341   0.789   1.925  14.305  0.6305 -0.0685 -0.4809
   22TCq2    C8  342   0.641   1.862  14.490 -0.3183 -0.1605 -0.0685
   22TCq2    O4  343   0.634   1.783  14.586  0.2061 -0.1759  0.5181
   22TCq2    C9  344   0.823   1.543  14.180 -0.6288 -1.0714 -0.6816
   22TCq2    O5  345   0.875   1.527  14.066 -0.1776  0.0732  0.4612
   22TCq2    O6  346   0.812   1.449  14.268 -0.1199 -0.0872 -0.1502
   22TCq2    H2  347   0.910   1.749  14.055  1.2663 -2.0405  1.9110
   22TCq2    H3  348   0.709   1.611  14.396 -1.2626  1.5493  1.3042
   22TCq2    H4  349   0.777   2.028  14.336  1.4981  0.2986 -1.3699
   23MPD2     C  350   2.242   3.347  15.053  0.1530  0.2011  0.6453
   23MPD2    C1  351   2.137   3.271  15.098  1.2662  0.7235 -0.0368
   23MPD2    C2  352   2.024   3.269  15.023  0.3316 -0.4236  0.3159
   23MPD2    C3  353   2.018   3.340  14.899 -0.5024 -0.0910 -0.8810
   23MPD2    C4  354   2.124   3.407  14.858 -0.0359 -0.3662  0.2518
   23MPD2    C5  355   2.234   3.413  14.931 -0.2298 -0.0138  0.2080
   23MPD2     H  356   1.945   3.207  15.064  1.8968 -0.5581  3.0786
   23MPD2    H1  357   2.120   3.470  14.770 -3.8944 -0.4756  0.3629
   23MPD2    H2  358   2.337   3.349  15.106  1.1782 -1.6710 -1.0971
   23MPD2    H3  359   2.318   3.473  14.899  0.2209 -0.0778  1.2559
   23MPD2     N  360   1.901   3.349  14.815  0.0868 -0.5778 -0.3304
   23MPD2    H5  361   1.905   3.401  14.728  1.0151 -0.4163 -0.1822
   23MPD2    N1  362   2.153   3.182  15.207 -0.7572  0.2871 -0.6915
   23MPD2    H7  363   2.079   3.112  15.212  0.6539 -0.9356  3.0803
   24TCq2    C1  364   1.784   3.274  14.830 -0.1930 -0.2714  0.6157
   24TCq2    O2  365   1.761   3.192  14.920 -0.3140  0.7012 -0.3553
   24TCq2    C2  366   1.687   3.308  14.728  0.0275  0.2766  0.0786
   24TCq2    C3  367   1.671   3.446  14.702  0.4823 -0.0165 -0.3371
   24TCq2    C4  368   1.559   3.484  14.633 -0.1051  0.1091 -0.1376
   24TCq2    C5  369   1.460   3.397  14.601  0.0623 -0.1635  0.3312
   24TCq2    C6  370   1.487   3.267  14.622 -0.4974 -0.2778  0.3018
   24TCq2    C7  371   1.599   3.213  14.690  0.5914  0.2157 -0.5474
   24TCq2    C8  372   1.394   3.162  14.579  0.3316 -0.1033  0.2991
   24TCq2    O4  373   1.420   3.046  14.601 -0.7615  0.4381 -0.4754
   24TCq2    C9  374   1.540   3.628  14.606 -0.5056 -0.7060 -0.4423
   24TCq2    O5  375   1.461   3.658  14.514 -0.3237 -0.0653 -0.3185
   24TCq2    O6  376   1.632   3.698  14.645 -0.3551 -0.2575  0.1805
   24TCq2    H2  377   1.742   3.516  14.743  0.5557 -0.7540  0.7986
   24TCq2    H3  378   1.377   3.435  14.543 -0.9809 -0.6138  1.5367
   24TCq2    H4  379   1.600   3.114  14.734 -2.1401 -0.1468 -1.2968
   25TMC2    C1  380   1.557   0.276  11.415 -0.0749 -0.3130  0.1297
   25TMC2    C2  381   1.662   0.335  11.476  0.9686 -0.2763 -0.2605
   25TMC2    C3  382   1.641   0.457  11.533 -0.0776 -0.3973  0.2420
   25TMC2    C4  383   1.428   0.329  11.433 -1.0114 -0.6156  0.3221
   25TMC2    C5  384   1.414   0.441  11.513 -0.4027  0.0454 -0.2680
   25TMC2    C6  385   1.520   0.510  11.557  0.0182  0.2752  0.2459
   25TMC2     C  386   1.582   0.139  11.360 -0.2638  0.4317 -0.1722
   25TMC2     O  387   1.690   0.077  11.377 -0.2436  0.2084  0.0502
   25TMC2     H  388   1.758   0.284  11.478  0.8490 -0.5848 -2.4085
   25TMC2    H1  389   1.338   0.273  11.409 -1.5096  0.2052  0.2667
   25TMC2    H2  390   1.497   0.596  11.619  1.7821  1.1118 -0.2761
   25TMC2    C7  391   1.284   0.469  11.589  0.3172  0.2631  0.5638
   25TMC2    C8  392   1.767   0.526  11.588 -0.4604  0.0795 -0.7367
   25TMC2    O1  393   1.296   0.512  11.702 -0.5844  0.2879  0.3012
   25TMC2    O2  394   1.743   0.621  11.661  0.4494 -0.1128  0.1029
   25TMC2    O5  395   1.853   0.529  11.487  0.8364  0.1755  0.3106
   25TMC2    H5  396   1.846   0.450  11.429  1.2219  0.2611  0.1455
   26MPD2     C  397   1.379   4.437  11.188 -0.2701  0.0581 -0.7513
   26MPD2    C1  398   1.281   4.536  11.182  0.3889  0.1729  0.0281
   26MPD2    C2  399   1.318   4.666  11.202 -0.6261 -0.1378  0.4130
   26MPD2    C3  400   1.448   4.693  11.244 -0.4412 -0.1003 -0.0081
   26MPD2    C4  401   1.540   4.600  11.247 -0.7248  0.0521 -0.3475
   26MPD2    C5  402   1.503   4.473  11.235 -0.3990  0.1239  0.2753
   26MPD2     H  403   1.246   0.020  11.181 -1.0166 -1.0420 -1.5350
   26MPD2    H1  404   1.646   4.608  11.271 -1.0669 -1.5680  1.6712
   26MPD2    H2  405   1.354   4.334  11.162  0.4553 -0.4088  0.4080
   26MPD2    H3  406   1.574   4.392  11.243 -0.3587  0.0504 -0.7828
   26MPD2     N  407   1.472   0.100  11.297 -0.0781 -0.1157  0.0888
   26MPD2    H5  408   1.399   0.171  11.292 -1.1602 -1.0754  2.1597
   26MPD2    N1  409   1.149   4.491  11.155 -0.2554  0.0427 -0.1065
   26MPD2    H7  410   1.133   4.393  11.133  1.0267 -0.7701  2.5773
   27TMC2    C1  411   0.011   2.154  12.322 -0.0252  0.0719  0.0806
   27TMC2    C2  412   4.663   2.084  12.230 -0.2189 -0.2827 -0.0607
   27TMC2    C3  413   4.619   2.149  12.118  0.0874  0.4638 -0.4088
   27TMC2    C4  414   0.023   2.287  12.307  0.3641 -0.3511 -0.2098
   27TMC2    C5  415   4.684   2.343  12.201 -0.0246 -0.4740  0.4993
   27TMC2    C6  416   4.617   2.284  12.099  0.5069 -0.6676 -0.0884
   27TMC2     C  417   0.011   2.110  12.455 -0.4557  0.5375  0.4252
   27TMC2     O  418   0.001   1.988  12.480  0.4508 -0.3144 -0.5201
   27TMC2     H  419   4.648   1.977  12.235 -0.9837 -0.1483  0.5716
   27TMC2    H1  420   0.082   2.346  12.376  0.3149 -1.9341  1.1908
   27TMC2    H2  421   4.568   2.333  12.015  1.4718 -0.4037 -0.5048
   27TMC2    C7  422   4.653   2.474  12.239  0.2524 -0.1616 -0.3333
   27TMC2    C8  423   4.561   2.071  12.005 -1.3829 -0.4766  0.0501
   27TMC2    O1  424   4.636   2.472  12.360  0.6620 -0.3445  0.5413
   27TMC2    O2  425   4.471   2.126  11.945  0.6437 -0.0237  0.2773
   27TMC2    O5  426   4.678   2.023  11.946 -0.6769  0.1181  0.4622
   27TMC2    H5  427   4.721   1.972  12.018  0.2722 -0.3800 -0.4769
   28MPD2     C  428   4.564   2.188  12.923 -0.4313 -0.1974 -0.0382
   28MPD2    C1  429   4.528   2.297  12.851 -0.3059 -0.1143  0.2214
   28MPD2    C2  430   4.577   2.304  12.721 -0.1185 -0.0500  0.3387
   28MPD2    C3  431   4.658   2.202  12.672  1.0954  0.1411 -0.4478
   28MPD2    C4  432   4.694   2.090  12.742  0.0280 -0.3135  0.0320
   28MPD2    C5  433   4.640   2.083  12.870  0.1149 -0.7549 -0.2248
   28MPD2     H  434   4.555   2.387  12.655 -0.9659 -0.5309  0.0024
   28MPD2    H1  435   0.033   2.014  12.697  0.7255  0.4092 -0.2242
   28MPD2    H2  436   4.542   2.177  13.028 -1.0681 -1.1422 -0.2737
   28MPD2    H3  437   4.674   2.004  12.937 -3.6467 -1.2906  1.0652
   28MPD2     N  438   4.702   2.214  12.540  0.1052  0.5193 -0.1464
   28MPD2    H5  439   4.698   2.306  12.497  1.8572  1.4025  1.5838
   28MPD2    N1  440   4.446   2.386  12.918 -0.4776  0.6018  0.1309
   28MPD2    H7  441   4.432   2.375  13.018  2.1021 -0.5811  0.3491
   29MPD2     C  442   3.731   0.104  14.185 -0.0470 -0.3580 -0.7492
   29MPD2    C1  443   3.827   0.071  14.281 -0.0525  0.1436  0.6894
   29MPD2    C2  444   3.879   0.175  14.350 -0.0121  0.2239 -0.2571
   29MPD2    C3  445   3.847   0.306  14.317 -0.3144  0.0602 -0.3460
   29MPD2    C4  446   3.781   0.334  14.198 -0.7949  0.0813 -0.5262
   29MPD2    C5  447   3.717   0.232  14.136  0.0398  0.4223 -0.5778
   29MPD2     H  448   3.940   0.159  14.439  0.4043 -0.5325 -0.6732
   29MPD2    H1  449   3.758   0.432  14.158 -0.4831  0.3074 -0.1465
   29MPD2    H2  450   3.673   0.028  14.133  1.1451 -0.9676 -1.1854
   29MPD2    H3  451   3.664   0.251  14.043 -0.1035 -1.1080 -0.7992
   29MPD2     N  452   3.899   0.421  14.373 -0.1498 -0.2473  0.3711
   29MPD2    H5  453   3.882   0.503  14.315 -0.6394 -0.4753  0.1887
   29MPD2    N1  454   3.856   4.665  14.321  0.0521  0.1249  0.3562
   29MPD2    H7  455   3.933   4.659  14.387 -1.2507 -1.1135  1.7340
   30TCq2    C1  456   3.960   0.431  14.495 -0.5711  0.5033 -0.8190
   30TCq2    O2  457   3.960   0.342  14.584 -0.6484  0.2066 -0.0877
   30TCq2    C2  458   3.992   0.568  14.535 -0.0793 -0.0391 -0.2680
   30TCq2    C3  459   4.014   0.598  14.666 -0.6919 -0.1888  0.1934
   30TCq2    C4  460   4.063   0.722  14.693 -0.4452  1.0445 -0.3627
   30TCq2    C5  461   4.080   0.824  14.604  0.2084 -0.2375 -0.4068
   30TCq2    C6  462   4.052   0.790  14.474 -0.3333 -0.0951  0.2648
   30TCq2    C7  463   4.008   0.664  14.438 -0.3585 -0.1878 -0.1510
   30TCq2    C8  464   4.023   0.896  14.379 -0.1234 -0.6329  1.0100
   30TCq2    O4  465   3.931   0.880  14.299  0.1251 -0.0766  0.0529
   30TCq2    C9  466   4.082   0.748  14.831 -0.2091  0.6012  0.4599
   30TCq2    O5  467   4.120   0.863  14.861  0.4350  0.0796  0.3046
   30TCq2    O6  468   4.031   0.670  14.914 -0.2279  0.3455  0.2948
   30TCq2    H2  469   4.013   0.518  14.740  0.3016  0.6003  1.0637
   30TCq2    H3  470   4.099   0.922  14.648 -0.6554 -0.1504 -0.2323
   30TCq2    H4  471   3.987   0.649  14.333  1.6396  3.7480 -1.0931
   31MPD2     C  472   2.526   4.099  14.973 -0.2467 -0.6985 -0.0704
   31MPD2    C1  473   2.446   4.019  14.889 -0.5333  0.5814 -0.2480
   31MPD2    C2  474   2.365   3.923  14.939  0.5775  0.3496 -0.3602
   31MPD2    C3  475   2.375   3.886  15.072  0.1627 -0.5295  0.4249
   31MPD2    C4  476   2.463   3.960  15.151 -0.2003 -0.1331 -0.1908
   31MPD2    C5  477   2.525   4.069  15.106  0.3752 -0.3193  0.0176
   31MPD2     H  478   2.286   3.880  14.880 -0.5081  3.7999 -1.3918
   31MPD2    H1  479   2.478   3.938  15.256 -1.1212 -1.1139 -0.2731
   31MPD2    H2  480   2.589   4.178  14.935 -0.2412  0.0528  1.5276
   31MPD2    H3  481   2.581   4.134  15.172 -0.7784  0.8759 -0.1914
   31MPD2     N  482   2.294   3.786  15.134 -0.2473  0.2782 -0.2807
   31MPD2    H5  483   2.325   3.772  15.230  0.3458  0.8809 -0.3838
   31MPD2    N1  484   2.433   4.066  14.756 -0.2255  0.2410  0.1081
   31MPD2    H7  485   2.459   4.162  14.736  2.5648 -0.4594  0.3863
   32TCq2    C1  486   2.177   3.730  15.085 -0.2808 -0.1233  0.1032
   32TCq2    O2  487   2.118   3.776  14.988  0.1886  0.2578 -0.5320
   32TCq2    C2  488   2.117   3.636  15.180  1.3149 -0.4146 -0.6454
   32TCq2    C3  489   1.991   3.594  15.144 -0.6267 -0.3968 -0.8971
   32TCq2    C4  490   1.927   3.511  15.235 -0.1562 -0.0189 -0.4948
   32TCq2    C5  491   1.962   3.496  15.363  0.4340  0.4825 -0.1303
   32TCq2    C6  492   2.088   3.542  15.399 -0.2447  0.6012  0.2979
   32TCq2    C7  493   2.168   3.610  15.307 -0.6685 -0.1510  0.3860
   32TCq2    C8  494   2.137   3.486  15.529 -0.0652  0.3213 -0.4247
   32TCq2    O4  495   2.076   3.393  15.580  0.5580  0.3451  0.4468
   32TCq2    C9  496   1.804   3.440  15.200 -0.0354  0.1592 -0.3407
   32TCq2    O5  497   1.747   3.492  15.097  0.1059 -0.1387  0.2310
   32TCq2    O6  498   1.763   3.346  15.276  0.2075 -0.0313  0.2203
   32TCq2    H2  499   1.954   3.602  15.043  0.4633  0.3216 -1.2259
   32TCq2    H3  500   1.901   3.435  15.428  0.5667  0.1874 -0.2834
   32TCq2    H4  501   2.271   3.627  15.336 -1.1287 -2.2987  3.2380
   33MPD2     C  502   2.900   1.269  10.619 -0.1005 -0.3651  0.0725
   33MPD2    C1  503   2.790   1.244  10.692  0.2336 -0.5368  0.0690
   33MPD2    C2  504   2.753   1.341  10.787  0.5825 -0.1992  0.2159
   33MPD2    C3  505   2.805   1.467  10.792  0.4840 -0.2665  0.3003
   33MPD2    C4  506   2.901   1.499  10.702  0.5822  0.2947  1.1454
   33MPD2    C5  507   2.943   1.397  10.617  0.6309  0.1441 -0.3229
   33MPD2     H  508   2.665   1.322  10.847 -0.9264  2.0043 -1.3325
   33MPD2    H1  509   2.947   1.597  10.694  2.6410 -0.8356 -1.1554
   33MPD2    H2  510   2.938   1.194  10.551 -0.4494 -0.8803  0.4385
   33MPD2    H3  511   3.029   1.432  10.561  0.8478 -0.2031 -0.2072
   33MPD2     N  512   2.753   1.577  10.872 -0.5339 -0.4150 -0.0801
   33MPD2    H5  513   2.787   1.671  10.853 -0.1350 -0.3065  1.1704
   33MPD2    N1  514   2.742   1.115  10.677 -0.3836 -0.1129  0.6982
   33MPD2    H7  515   2.793   1.058  10.610 -1.8827 -2.2145  1.3245
   34TCq2    C1  516   2.660   1.564  10.971  0.9817 -0.1326 -0.4046
   34TCq2    O2  517   2.612   1.464  11.027  0.1009 -0.3726  0.1497
   34TCq2    C2  518   2.607   1.692  11.013 -0.2283  0.1846 -0.7448
   34TCq2    C3  519   2.553   1.701  11.139 -0.2634  0.6082 -0.2319
   34TCq2    C4  520   2.483   1.813  11.168 -0.1771  0.4290 -0.4619
   34TCq2    C5  521   2.474   1.913  11.077  0.1330 -0.7260 -0.1959
   34TCq2    C6  522   2.536   1.904  10.955 -0.3305 -0.5713  0.1027
   34TCq2    C7  523   2.599   1.791  10.919 -0.0601 -0.2500  0.0208
   34TCq2    C8  524   2.547   2.024  10.882 -0.0798  0.5571  0.7799
   34TCq2    O4  525   2.659   2.045  10.827 -0.3105  0.2557  0.4081
   34TCq2    C9  526   2.424   1.822  11.302  0.1995 -0.2947 -0.0542
   34TCq2    O5  527   2.461   1.730  11.380 -0.3235 -0.1149 -0.1322
   34TCq2    O6  528   2.351   1.921  11.324  0.1466 -0.3042  0.1797
   34TCq2    H2  529   2.552   1.621  11.212  2.2641  1.4637  0.7642
   34TCq2    H3  530   2.439   2.009  11.113 -1.0171 -0.9577 -0.7081
   34TCq2    H4  531   2.658   1.793  10.828  1.4113  0.4574  0.9970
   35MPD2     C  532   3.877   3.271  12.011  0.0097 -0.9640 -0.0676
   35MPD2    C1  533   3.879   3.140  12.046 -0.0688  0.5088 -0.4330
   35MPD2    C2  534   3.798   3.055  11.972 -0.6975  0.8461  0.1216
   35MPD2    C3  535   3.741   3.097  11.855 -0.2353  0.5914  0.3387
   35MPD2    C4  536   3.760   3.222  11.809  1.0458 -0.2503 -1.4909
   35MPD2    C5  537   3.829   3.309  11.889  0.3800 -1.0898  0.1372
   35MPD2     H  538   3.765   2.958  12.006 -2.8050  1.6164  0.2788
   35MPD2    H1  539   3.722   3.253  11.713  0.0860  1.2175 -0.6375
   35MPD2    H2  540   3.937   3.339  12.070  0.2146  0.3759 -1.8308
   35MPD2    H3  541   3.836   3.415  11.872 -0.3430 -1.2340 -1.0293
   35MPD2     N  542   3.653   2.998  11.796 -0.0473  0.0886  0.8121
   35MPD2    H5  543   3.647   2.906  11.839 -3.0787 -0.1302 -0.0880
   35MPD2    N1  544   3.926   3.093  12.168 -0.0732 -0.4773  0.4532
   35MPD2    H7  545   3.960   3.161  12.234  0.7764 -2.6021  2.2143
   36TCq2    C1  546   3.597   3.012  11.670  0.5161  0.2061  0.3501
   36TCq2    O2  547   3.587   3.113  11.605  0.8023 -0.1098 -0.4741
   36TCq2    C2  548   3.524   2.897  11.626 -0.4219  0.2656  0.1201
   36TCq2    C3  549   3.471   2.900  11.501  0.0008  0.4904  0.3959
   36TCq2    C4  550   3.396   2.797  11.456  0.3241  0.4510  0.2424
   36TCq2    C5  551   3.382   2.678  11.526  0.5246  1.1574 -0.1878
   36TCq2    C6  552   3.440   2.675  11.643 -0.1218 -0.0436  0.6360
   36TCq2    C7  553   3.504   2.782  11.705 -0.1378 -0.1232  0.2068
   36TCq2    C8  554   3.412   2.553  11.717  0.0411 -0.0884  0.6944
   36TCq2    O4  555   3.306   2.500  11.689  0.4721 -0.0702  0.0996
   36TCq2    C9  556   3.355   2.802  11.322  0.9232 -0.9741 -0.0586
   36TCq2    O5  557   3.279   2.709  11.290  0.5664  0.2201 -0.3446
   36TCq2    O6  558   3.408   2.883  11.243  0.2171 -0.0528 -0.5019
   36TCq2    H2  559   3.495   2.988  11.442  0.2573 -0.4179 -0.8498
   36TCq2    H3  560   3.343   2.586  11.483 -0.9727  0.4528  2.6972
   36TCq2    H4  561   3.519   2.787  11.812  2.2220  0.9800 -0.1686
   37TMC2    C1  562   0.975   2.899  11.730  0.6138  0.2084 -0.3949
   37TMC2    C2  563   0.947   2.808  11.635  0.1577  0.0161 -0.2766
   37TMC2    C3  564   1.049   2.781  11.551  0.5771 -0.3119 -1.1537
   37TMC2    C4  565   1.103   2.959  11.741 -0.1596 -0.5609 -0.0145
   37TMC2    C5  566   1.196   2.930  11.650 -0.1141  0.5190 -0.3951
   37TMC2    C6  567   1.176   2.841  11.552  0.4225 -0.0285  0.5853
   37TMC2     C  568   0.870   2.922  11.829  0.6123 -0.1778  0.3628
   37TMC2     O  569   0.756   2.893  11.789  0.0493 -0.4729  0.8518
   37TMC2     H  570   0.850   2.761  11.626  1.7976 -3.1655 -1.3690
   37TMC2    H1  571   1.131   3.024  11.824 -2.7521 -0.3150  0.6876
   37TMC2    H2  572   1.256   2.809  11.485 -0.0967  1.0616 -0.5510
   37TMC2    C7  573   1.331   2.954  11.691 -0.8631  0.2550 -0.3431
   37TMC2    C8  574   1.030   2.655  11.478 -0.4024 -0.6835 -0.3453
   37TMC2    O1  575   1.347   2.958  11.810  0.1824  0.1232  0.3886
   37TMC2    O2  576   0.958   2.567  11.529 -0.1910  0.0561  0.1552
   37TMC2    O5  577   1.030   2.693  11.352  0.0108 -0.1086 -0.2881
   37TMC2    H5  578   1.050   2.787  11.331 -0.7123  0.7609  2.9526
   38MPD2     C  579   0.742   2.971  12.328 -0.6614  1.1358 -0.3731
   38MPD2    C1  580   0.878   2.946  12.318  0.7171  0.8467  0.3174
   38MPD2    C2  581   0.931   2.931  12.189 -0.5108 -0.5822 -0.4236
   38MPD2    C3  582   0.852   2.941  12.074 -0.5904  0.9474  0.3181
   38MPD2    C4  583   0.719   2.959  12.090 -0.1094 -1.0991  0.5962
   38MPD2    C5  584   0.664   2.978  12.217 -0.7085  0.1600  0.5289
   38MPD2     H  585   1.039   2.918  12.191 -0.9630 -4.2747 -0.1720
   38MPD2    H1  586   0.659   2.982  12.002 -0.9949 -1.0022  1.2196
   38MPD2    H2  587   0.693   2.983  12.424  0.4436  2.3910  0.0305
   38MPD2    H3  588   0.557   2.999  12.221 -0.4497  1.2310  2.2228
   38MPD2     N  589   0.923   2.936  11.953 -0.0956 -0.4385 -0.2205
   38MPD2    H5  590   1.021   2.912  11.960  0.1382  1.3097  2.3372
   38MPD2    N1  591   0.960   2.933  12.431  0.1425  0.4254 -0.1395
   38MPD2    H7  592   1.049   2.892  12.402  0.9155  0.7867  1.7162
   39MPD2     C  593   4.100   0.383   1.886 -0.3590 -0.1973  0.4430
   39MPD2    C1  594   4.021   0.500   1.905 -0.0592  0.1738  0.1173
   39MPD2    C2  595   3.889   0.514   1.853  0.5083 -0.2832 -0.3163
   39MPD2    C3  596   3.843   0.408   1.779 -0.0532  0.0009 -0.0668
   39MPD2    C4  597   3.927   0.298   1.754 -0.5405 -0.1663  0.2545
   39MPD2    C5  598   4.056   0.288   1.797 -0.0819 -0.9168  0.0731
   39MPD2     H  599   3.837   0.608   1.868  2.1984  0.8185 -1.4072
   39MPD2    H1  600   3.897   0.222   1.683 -0.1241  0.4233 -0.5506
   39MPD2    H2  601   4.201   0.379   1.925  0.4453  0.4144 -1.5816
   39MPD2    H3  602   4.123   0.209   1.766 -0.9978 -2.1704  1.3227
   39MPD2     N  603   3.720   0.403   1.720 -0.8497  0.1521  0.3070
   39MPD2    H5  604   3.706   0.320   1.662 -3.4862  0.9059 -0.1384
   39MPD2    N1  605   4.083   0.599   1.977  0.1497 -0.0936  0.1280
   39MPD2    H7  606   4.184   0.601   1.987  0.3378 -1.8597 -1.4904
   40TCq2    C1  607   4.019   0.703   2.038  0.0880  0.4497 -0.9633
   40TCq2    O2  608   3.903   0.726   2.059 -0.5468 -0.2333  0.5174
   40TCq2    C2  609   4.112   0.798   2.096 -0.0189 -0.0436  0.3221
   40TCq2    C3  610   4.060   0.891   2.183  0.1841 -0.1151 -0.1311
   40TCq2    C4  611   4.134   1.001   2.220  0.8282  0.2085 -0.2517
   40TCq2    C5  612   4.258   1.028   2.165 -0.1121  0.1448 -0.0889
   40TCq2    C6  613   4.303   0.938   2.072 -0.6368 -0.5457  0.3657
   40TCq2    C7  614   4.234   0.822   2.038 -0.3154 -0.2135  0.3045
   40TCq2    C8  615   4.401   0.980   1.974  0.6486  0.5508  0.3818
   40TCq2    O4  616   4.450   0.892   1.907  0.4274 -0.4801 -0.4093
   40TCq2    C9  617   4.089   1.090   2.320 -0.0603  0.2832 -0.2698
   40TCq2    O5  618   3.975   1.059   2.368  0.1821  0.4528  0.1930
   40TCq2    O6  619   4.146   1.201   2.323 -0.5319  0.1815  0.1442
   40TCq2    H2  620   3.963   0.869   2.225  0.4316  0.3041  0.6575
   40TCq2    H3  621   4.318   1.112   2.200  1.0678 -0.9822  0.6028
   40TCq2    H4  622   4.261   0.763   1.951 -1.8639 -1.4020  0.6167
   41TMC2    C1  623   2.331   3.185  13.787 -0.0138  0.1163 -0.0392
   41TMC2    C2  624   2.465   3.174  13.824 -0.7999  0.3141 -0.6874
   41TMC2    C3  625   2.558   3.206  13.733 -0.4773  0.3332 -0.2939
   41TMC2    C4  626   2.296   3.210  13.661 -0.6591  0.2437 -0.1676
   41TMC2    C5  627   2.392   3.248  13.573 -0.0061  0.3305 -0.5488
   41TMC2    C6  628   2.527   3.231  13.599 -0.0055  0.6886 -0.2886
   41TMC2     C  629   2.220   3.137  13.872 -0.7007  0.0318 -0.1061
   41TMC2     O  630   2.107   3.120  13.832 -0.3743  0.0332  0.0534
   41TMC2     H  631   2.502   3.153  13.924 -2.5287  0.5885  0.0149
   41TMC2    H1  632   2.193   3.216  13.627 -0.1977  3.1411 -1.0777
   41TMC2    H2  633   2.607   3.251  13.529 -1.1355  0.9810 -1.4994
   41TMC2    C7  634   2.350   3.244  13.430 -0.1241 -0.4583 -0.1575
   41TMC2    C8  635   2.697   3.173  13.759  0.4409  0.4564  0.5015
   41TMC2    O1  636   2.229   3.266  13.410 -0.0325 -0.6322  0.2893
   41TMC2    O2  637   2.756   3.202  13.865 -0.4739 -0.0546  0.0457
   41TMC2    O5  638   2.708   3.044  13.712  0.4582 -0.0749  0.1141
   41TMC2    H5  639   2.635   3.006  13.658  0.8218 -1.8945  0.9096
   42MPD2     C  640   2.072   2.990  14.086  0.5547  1.0279 -0.1001
   42MPD2    C1  641   2.205   3.033  14.100 -0.3522  0.8402  0.1781
   42MPD2    C2  642   2.272   2.997  14.215  0.2943 -0.5072  0.5088
   42MPD2    C3  643   2.223   2.908  14.306  0.3116  0.0275  0.0338
   42MPD2    C4  644   2.094   2.865  14.294 -0.2036  0.3598 -0.0651
   42MPD2    C5  645   2.017   2.907  14.184 -0.0828 -0.3165 -0.4516
   42MPD2     H  646   2.375   3.031  14.213 -0.1897  0.8820 -0.5125
   42MPD2    H1  647   2.033   2.813  14.368  0.6261 -0.5723 -0.0279
   42MPD2    H2  648   2.006   3.013  14.003 -0.3500  1.5946  0.7801
   42MPD2    H3  649   1.915   2.876  14.164 -0.2237  0.0940 -0.3678
   42MPD2     N  650   2.298   2.870  14.412 -0.4945 -0.1915 -0.7536
   42MPD2    H5  651   2.265   2.787  14.461  1.8916 -0.1294  0.9680
   42MPD2    N1  652   2.270   3.102  13.994 -0.2784  0.2733  0.2633
   42MPD2    H7  653   2.366   3.132  14.006  0.0435 -0.4906 -0.4744
   43MPD2     C  654   4.033   1.279   0.418  0.2179 -0.0356  0.0093
   43MPD2    C1  655   4.150   1.245   0.476 -0.9645  0.1547  0.5938
   43MPD2    C2  656   4.188   1.299   0.595  0.5191 -0.9992  0.0746
   43MPD2    C3  657   4.103   1.390   0.657  0.3203  0.1768  0.4240
   43MPD2    C4  658   3.984   1.432   0.595 -0.0743 -0.5090  0.8719
   43MPD2    C5  659   3.953   1.375   0.471 -0.5498 -0.7880  0.6720
   43MPD2     H  660   4.268   1.245   0.645  0.8774 -0.9814 -0.4733
   43MPD2    H1  661   3.926   1.505   0.650 -1.6130 -2.0172  1.2534
   43MPD2    H2  662   4.002   1.234   0.324 -1.1810 -0.8160  0.8375
   43MPD2    H3  663   3.859   1.406   0.426 -0.7087 -0.6342  1.1128
   43MPD2     N  664   4.140   1.443   0.776 -0.2844  0.0296 -0.0990
   43MPD2    H5  665   4.074   1.513   0.811 -0.5891  0.7176 -2.0737
   43MPD2    N1  666   4.233   1.144   0.425  0.0856 -0.5066  0.3829
   43MPD2    H7  667   4.316   1.124   0.480  0.9362  2.9505  0.3735
   44TCq2    C1  668   4.514   1.640   1.192  0.1771  0.1389 -0.2799
   44TCq2    O2  669   4.603   1.662   1.111 -0.3024 -0.3701  0.0188
   44TCq2    C2  670   4.406   1.545   1.146 -0.2101 -0.7814  0.0034
   44TCq2    C3  671   4.298   1.527   1.231  0.4215  0.4303  0.5792
   44TCq2    C4  672   4.178   1.487   1.178  0.9027  0.4973 -0.4872
   44TCq2    C5  673   4.166   1.452   1.043  0.2701  0.5158  0.1371
   44TCq2    C6  674   4.277   1.471   0.962  0.2663 -0.1644 -0.1190
   44TCq2    C7  675   4.392   1.511   1.014  0.0376 -0.0749 -0.1747
   44TCq2    C8  676   4.268   1.441   0.818  0.4645  0.8088 -1.2329
   44TCq2    O4  677   4.371   1.429   0.750 -0.4668 -0.1489 -0.4676
   44TCq2    C9  678   4.053   1.500   1.258  0.1490  0.4297 -0.4721
   44TCq2    O5  679   4.067   1.507   1.381 -0.3388  0.5367  0.0876
   44TCq2    O6  680   3.945   1.487   1.196  0.5478  0.3660  0.5886
   44TCq2    H2  681   4.305   1.547   1.337  2.8840  1.7579  0.1635
   44TCq2    H3  682   4.068   1.427   1.005  1.4660 -0.3149 -2.4235
   44TCq2    H4  683   4.476   1.529   0.948 -1.1887  1.6236 -1.2466
   45TMC2    C1  684   0.379   3.725   9.241 -1.3043  0.3372  0.0340
   45TMC2    C2  685   0.348   3.759   9.112  0.1245  0.3214 -0.7136
   45TMC2    C3  686   0.433   3.858   9.061  0.2711  0.1579  0.3866
   45TMC2    C4  687   0.467   3.785   9.324  0.1157  0.5164 -0.0317
   45TMC2    C5  688   0.529   3.897   9.272  0.4789 -0.1173 -0.0415
   45TMC2    C6  689   0.515   3.932   9.142 -0.7953 -0.2116  0.1331
   45TMC2     C  690   0.302   3.618   9.306 -0.2966  0.7905  0.4017
   45TMC2     O  691   0.348   3.542   9.389 -0.1154 -0.1701  0.3152
   45TMC2     H  692   0.285   3.697   9.049 -1.4985  2.0301 -0.7991
   45TMC2    H1  693   0.474   3.758   9.429 -3.4827 -0.6067 -0.0789
   45TMC2    H2  694   0.562   4.019   9.099  0.0981 -0.1806  1.1675
   45TMC2    C7  695   0.571   4.007   9.360 -0.2285 -0.5654  0.0798
   45TMC2    C8  696   0.403   3.913   8.937  0.2532  0.1820 -0.7247
   45TMC2    O1  697   0.591   4.119   9.316 -0.4643 -0.3005  0.1370
   45TMC2    O2  698   0.492   3.935   8.858 -0.7476  0.3175 -0.0103
   45TMC2    O5  699   0.277   3.870   8.907  0.3756  0.6342  0.0547
   45TMC2    H5  700   0.225   3.874   8.990 -1.0988  2.7854 -0.9830
   46MPD2     C  701   0.123   3.394   9.310  0.4961  0.1453 -0.2187
   46MPD2    C1  702   0.079   3.520   9.279 -0.0801 -0.4326  0.1993
   46MPD2    C2  703   4.663   3.544   9.265 -0.8048 -0.4697 -0.4892
   46MPD2    C3  704   4.576   3.441   9.268  0.2404 -0.4840 -1.0282
   46MPD2    C4  705   4.626   3.313   9.300  0.7377  0.4768 -0.3148
   46MPD2    C5  706   0.033   3.289   9.325 -0.2899 -0.3380  0.8767
   46MPD2     H  707   4.621   3.641   9.240 -0.2738  0.2063  1.2888
   46MPD2    H1  708   4.559   3.227   9.306  0.9447  0.4121  1.0504
   46MPD2    H2  709   0.224   3.360   9.329  0.5980  0.1851 -0.6826
   46MPD2    H3  710   0.058   3.186   9.350  0.3767 -0.5742 -0.7755
   46MPD2     N  711   4.438   3.475   9.263  0.3668 -0.1060 -1.0683
   46MPD2    H5  712   4.436   3.576   9.250  1.0839  0.0860  0.3079
   46MPD2    N1  713   0.167   3.630   9.273  0.2860  0.1962  0.0183
   46MPD2    H7  714   0.143   3.707   9.212 -1.2286  0.8650  1.4713
   47TMC2    C1  715   2.652   3.755   9.089 -0.1567  0.1935 -0.6675
   47TMC2    C2  716   2.579   3.657   9.148 -1.2030 -0.0103 -0.3198
   47TMC2    C3  717   2.444   3.668   9.131 -0.3366 -0.3224  0.4540
   47TMC2    C4  718   2.593   3.856   9.017 -0.6320  0.2203  0.1745
   47TMC2    C5  719   2.455   3.859   9.007 -0.4513 -0.0198  0.3524
   47TMC2    C6  720   2.382   3.771   9.069  0.1793  0.0914 -0.2443
   47TMC2     C  721   2.794   3.739   9.065 -0.1129 -1.0240 -0.7967
   47TMC2     O  722   2.843   3.779   8.959  0.7354  0.3388  0.1191
   47TMC2     H  723   2.621   3.577   9.208 -0.9779  0.8688  0.6979
   47TMC2    H1  724   2.646   3.943   8.979 -1.8548  1.3159  0.9596
   47TMC2    H2  725   2.275   3.782   9.072  0.0049 -2.3432  1.8377
   47TMC2    C7  726   2.390   3.983   8.971 -0.1366 -0.0404 -0.4464
   47TMC2    C8  727   2.353   3.593   9.213  0.5701 -0.6716  0.1564
   47TMC2    O1  728   2.270   3.989   8.980 -0.4005  0.3129 -0.1257
   47TMC2    O2  729   2.243   3.558   9.183  0.6691  0.3061 -0.2163
   47TMC2    O5  730   2.377   3.643   9.339  0.2913  0.0674  0.4403
   47TMC2    H5  731   2.454   3.703   9.347 -0.7325  1.4477 -0.2298
   48MPD2     C  732   3.087   3.663   9.086  0.2008 -0.0325 -0.3753
   48MPD2    C1  733   2.993   3.637   9.179 -0.6683 -0.3693 -0.6533
   48MPD2    C2  734   3.035   3.568   9.290  0.0918 -0.1403  0.2995
   48MPD2    C3  735   3.171   3.544   9.322  0.3174 -0.5183  0.4151
   48MPD2    C4  736   3.259   3.588   9.228 -0.6236  0.1489 -0.2944
   48MPD2    C5  737   3.217   3.639   9.112  0.3389 -0.0549  0.4268
   48MPD2     H  738   2.956   3.533   9.356  0.6964 -1.6121  0.2445
   48MPD2    H1  739   3.364   3.577   9.251 -0.8816  0.5206  1.0343
   48MPD2    H2  740   3.046   3.716   9.001  0.4028  1.0186  0.1735
   48MPD2    H3  741   3.291   3.673   9.041  0.6503 -0.2766  0.6463
   48MPD2     N  742   3.198   3.472   9.436  0.0623 -0.2427  0.7888
   48MPD2    H5  743   3.117   3.450   9.493 -2.2439  0.8988 -1.9815
   48MPD2    N1  744   2.856   3.676   9.172 -0.7186  0.1922 -0.1545
   48MPD2    H7  745   2.803   3.657   9.256  0.0158 -1.1384  0.0133
   49MPD2     C  746   0.584   0.298   9.968 -0.2855  0.1803 -0.6918
   49MPD2    C1  747   0.570   0.433  10.001  0.3448 -0.4363  0.1750
   49MPD2    C2  748   0.629   0.474  10.117 -0.4729 -0.3749  0.7854
   49MPD2    C3  749   0.689   0.386  10.207 -0.2924  0.4812 -0.5127
   49MPD2    C4  750   0.710   0.253  10.168 -0.5362 -0.0907 -0.2779
   49MPD2    C5  751   0.655   0.210  10.047  0.3106 -0.3360 -0.4421
   49MPD2     H  752   0.622   0.576  10.152 -0.9598 -0.5322  1.1531
   49MPD2    H1  753   0.762   0.183  10.233 -1.3754 -0.4913 -0.0314
   49MPD2    H2  754   0.540   0.259   9.876  0.0353 -0.1270 -0.7160
   49MPD2    H3  755   0.668   0.108  10.014 -0.5797 -0.1511 -1.3691
   49MPD2     N  756   0.744   0.422  10.329  0.4042 -0.5070  0.5490
   49MPD2    H5  757   0.787   0.354  10.390 -0.2896 -1.0122  0.4786
   49MPD2    N1  758   0.503   0.526   9.922  0.6979 -0.9940  1.1144
   49MPD2    H7  759   0.503   0.624   9.949  1.8223  0.2867 -3.4939
   50TCq2    C1  760   0.424   0.495   9.810  0.0408 -0.3006  0.1757
   50TCq2    O2  761   0.392   0.385   9.762  0.7790  1.0010  0.1785
   50TCq2    C2  762   0.368   0.611   9.737 -0.2689 -0.3377  0.8150
   50TCq2    C3  763   0.423   0.734   9.758  0.3057  0.9131  0.3471
   50TCq2    C4  764   0.416   0.829   9.654  1.0733  0.2621 -0.1697
   50TCq2    C5  765   0.351   0.803   9.535 -0.1414  1.0814 -0.5818
   50TCq2    C6  766   0.292   0.679   9.516  0.3138  0.3166  0.3433
   50TCq2    C7  767   0.299   0.580   9.615 -0.1881 -0.5018  0.2718
   50TCq2    C8  768   0.190   0.658   9.413 -0.1689  0.2838  0.1962
   50TCq2    O4  769   0.099   0.582   9.450 -0.1167 -0.2266  0.3485
   50TCq2    C9  770   0.466   0.961   9.686  0.5926  0.0704  0.0490
   50TCq2    O5  771   0.573   0.964   9.750  0.1156 -0.4111 -0.3276
   50TCq2    O6  772   0.443   1.051   9.599 -0.2286 -0.0881 -0.2184
   50TCq2    H2  773   0.477   0.761   9.849 -0.2211 -1.7428  1.4317
   50TCq2    H3  774   0.346   0.884   9.463 -1.4108  0.5451 -1.0821
   50TCq2    H4  775   0.233   0.495   9.611 -2.1718  1.0097  0.8378
   51MPD2     C  776   0.784   0.202   1.106  0.4115 -0.1361 -0.0195
   51MPD2    C1  777   0.852   0.100   1.053  0.0754  0.9257 -0.1789
   51MPD2    C2  778   0.966   0.053   1.110 -0.4214 -0.1327 -0.7745
   51MPD2    C3  779   1.017   0.113   1.225  0.3771  0.5211 -0.6583
   51MPD2    C4  780   0.944   0.210   1.282  0.8037  0.0025 -0.0238
   51MPD2    C5  781   0.826   0.254   1.227  0.4828 -0.0055  0.1362
   51MPD2     H  782   1.017   4.692   1.065 -0.6901 -1.1977  0.9241
   51MPD2    H1  783   0.977   0.263   1.371 -1.8958  0.4805  0.6850
   51MPD2    H2  784   0.686   0.240   1.078  0.5315  0.3006  0.1486
   51MPD2    H3  785   0.773   0.339   1.267 -1.1641 -0.7652 -0.4527
   51MPD2     N  786   1.143   0.082   1.283 -0.6998 -0.4373  0.3762
   51MPD2    H5  787   1.176   0.143   1.358 -1.8129  0.4081  0.1768
   51MPD2    N1  788   0.819   0.038   0.926 -0.5195  0.5211 -0.1906
   51MPD2    H7  789   0.874   4.682   0.894  0.8475  1.9864 -1.4807
   52TCq2    C1  790   1.235   4.722   1.225  0.5495 -0.5015  0.1032
   52TCq2    O2  791   1.230   4.629   1.145 -0.0697 -0.6198  0.1107
   52TCq2    C2  792   1.374   0.038   1.251  0.5776  0.6030 -0.6296
   52TCq2    C3  793   1.459   4.667   1.208 -0.3281 -0.0559  0.1205
   52TCq2    C4  794   1.589   4.685   1.212 -0.2758 -0.2708 -0.2114
   52TCq2    C5  795   1.633   0.091   1.233 -0.1278  0.5538 -0.6021
   52TCq2    C6  796   1.538   0.194   1.262 -0.3440  0.2900 -0.1351
   52TCq2    C7  797   1.408   0.168   1.273 -0.0641  0.4856 -0.0503
   52TCq2    C8  798   1.588   0.325   1.300  0.5956 -0.5657  0.1420
   52TCq2    O4  799   1.501   0.412   1.294 -0.1859 -0.0243 -0.2360
   52TCq2    C9  800   1.684   4.593   1.168 -0.7216 -0.1453 -0.0889
   52TCq2    O5  801   1.650   4.482   1.118  0.4237 -0.1326 -0.4057
   52TCq2    O6  802   1.797   4.619   1.207  0.0461  0.8077  0.1693
   52TCq2    H2  803   1.434   4.566   1.176 -1.9621  0.0244  1.1304
   52TCq2    H3  804   1.737   0.110   1.208 -0.1641 -1.2602 -2.1855
   52TCq2    H4  805   1.330   0.241   1.291 -0.4689 -0.1806  0.9531
   53TMC2    C1  806   1.968   3.033  12.052 -0.5117  0.4152  0.5261
   53TMC2    C2  807   2.081   2.991  12.114 -0.5845 -0.1169  0.4693
   53TMC2    C3  808   2.087   3.011  12.248 -0.3882 -0.1959  0.5208
   53TMC2    C4  809   1.868   3.105  12.114  0.4353  0.4353  0.2600
   53TMC2    C5  810   1.885   3.136  12.248 -0.5131  0.1504  0.8251
   53TMC2    C6  811   1.995   3.089  12.316 -0.5131  0.0499 -0.2624
   53TMC2     C  812   1.950   3.010  11.905  0.5103  0.1867  0.2397
   53TMC2     O  813   2.043   2.949  11.852  0.5571  0.1147 -0.3049
   53TMC2     H  814   2.140   2.915  12.064  0.1955  1.1254 -0.5201
   53TMC2    H1  815   1.778   3.128  12.059  0.6227 -1.7580 -0.9614
   53TMC2    H2  816   2.007   3.100  12.423  1.3473 -2.4044 -0.2121
   53TMC2    C7  817   1.773   3.202  12.319  0.5459  0.3833  1.0461
   53TMC2    C8  818   2.208   2.971  12.326 -0.0127  0.3472  0.2955
   53TMC2    O1  819   1.686   3.239  12.243  0.1424  0.9855 -0.0904
   53TMC2    O2  820   2.195   3.012  12.442 -0.1104  0.2884  0.0215
   53TMC2    O5  821   2.252   2.849  12.286 -0.0710 -0.0799  0.1518
   53TMC2    H5  822   2.228   2.826  12.194  0.7634 -0.9713  0.1592
   54MPD2     C  823   1.835   2.966  11.625 -0.2430 -0.2464 -0.3221
   54MPD2    C1  824   1.760   2.988  11.739 -0.0556  0.5565  0.5253
   54MPD2    C2  825   1.620   2.976  11.727 -0.0021  1.1786  0.3814
   54MPD2    C3  826   1.562   2.960  11.606  0.0585  0.1347  0.9295
   54MPD2    C4  827   1.640   2.945  11.494  0.3426 -0.6238 -0.4388
   54MPD2    C5  828   1.776   2.945  11.507  0.0797  0.3079 -0.5775
   54MPD2     H  829   1.572   2.992  11.823 -0.8314  0.7201  0.0398
   54MPD2    H1  830   1.600   2.931  11.394 -0.4102  0.6569 -0.3175
   54MPD2    H2  831   1.943   2.967  11.618 -0.2303  1.4428  0.2087
   54MPD2    H3  832   1.831   2.929  11.415 -0.3002  0.6829 -0.8755
   54MPD2     N  833   1.419   2.949  11.588 -0.5114  0.4397 -0.3929
   54MPD2    H5  834   1.381   2.943  11.495 -1.2405  0.3636 -0.0930
   54MPD2    N1  835   1.814   3.015  11.864 -0.5820  0.2348 -0.2433
   54MPD2    H7  836   1.747   3.045  11.934 -2.2081 -2.4970 -0.6395
   55MPD2     C  837   1.994   1.161   1.103  0.6601  0.8432 -0.1543
   55MPD2    C1  838   1.895   1.065   1.106  0.2742  0.6445 -0.9830
   55MPD2    C2  839   1.762   1.112   1.091 -0.5854  0.0937  0.3116
   55MPD2    C3  840   1.728   1.250   1.073 -0.8733  0.1766 -0.5322
   55MPD2    C4  841   1.829   1.341   1.073  0.1132 -0.3820 -0.0238
   55MPD2    C5  842   1.961   1.297   1.101 -0.3556  0.3220  0.4484
   55MPD2     H  843   1.682   1.040   1.089  0.8222 -1.4266 -1.2596
   55MPD2    H1  844   1.811   1.447   1.056  1.0143 -0.5293 -1.9972
   55MPD2    H2  845   2.097   1.128   1.097  1.0812  1.8897  1.2052
   55MPD2    H3  846   2.045   1.365   1.105 -1.1839  1.4402 -1.1489
   55MPD2     N  847   1.597   1.281   1.051  0.2394 -0.2031  0.4130
   55MPD2    H5  848   1.538   1.200   1.034 -0.0789  0.2883 -0.8456
   55MPD2    N1  849   1.933   0.926   1.111  0.5477 -0.0968  0.5080
   55MPD2    H7  850   2.030   0.905   1.131  1.0714  2.6084  0.7704
   56TCq2    C1  851   1.861   0.821   1.076 -0.0868 -0.1308  0.3146
   56TCq2    O2  852   1.744   0.818   1.045 -0.2605  0.0243 -0.4080
   56TCq2    C2  853   1.932   0.693   1.101 -0.3651  0.0921  0.5502
   56TCq2    C3  854   2.058   0.694   1.156  0.0590  0.2252 -0.3572
   56TCq2    C4  855   2.137   0.580   1.158 -0.3513  0.3590  0.0603
   56TCq2    C5  856   2.088   0.476   1.096  0.0710 -0.3541  0.7648
   56TCq2    C6  857   1.970   0.474   1.029 -0.3739  0.2149  0.7668
   56TCq2    C7  858   1.887   0.583   1.039  0.3093  0.2917 -0.1439
   56TCq2    C8  859   1.920   0.343   0.984  0.2550 -0.4922 -0.3401
   56TCq2    O4  860   1.997   0.253   0.957  0.0490  0.0468 -0.0883
   56TCq2    C9  861   2.278   0.575   1.207  0.5872  0.2312 -0.2565
   56TCq2    O5  862   2.324   0.687   1.253  0.1487 -0.2875 -0.2544
   56TCq2    O6  863   2.319   0.463   1.243  0.2075 -0.1418  0.1242
   56TCq2    H2  864   2.102   0.774   1.215 -0.7898  0.0544  0.5014
   56TCq2    H3  865   2.152   0.391   1.078  1.6583  0.4058  2.7924
   56TCq2    H4  866   1.800   0.592   0.975  0.0110  1.0449  0.3610
   57TMC2    C1  867   1.657   2.413  13.207  0.2820 -0.2302 -0.9033
   57TMC2    C2  868   1.636   2.543  13.187 -0.1098  0.4468  0.0821
   57TMC2    C3  869   1.679   2.597  13.072 -0.0149  1.4243  0.3742
   57TMC2    C4  870   1.713   2.333  13.114  0.6812 -0.5000 -0.2015
   57TMC2    C5  871   1.754   2.385  12.996 -0.1235  0.4030  0.0356
   57TMC2    C6  872   1.738   2.518  12.971  0.2913 -0.2548  0.2617
   57TMC2     C  873   1.575   2.362  13.320 -0.0323  0.1050  0.0856
   57TMC2     O  874   1.549   2.435  13.412 -0.6616  0.3200 -0.0298
   57TMC2     H  875   1.585   2.603  13.262 -0.6497 -0.2423  0.2617
   57TMC2    H1  876   1.751   2.239  13.152  1.1355 -0.0242  0.5349
   57TMC2    H2  877   1.766   2.573  12.882 -1.3289  0.7144  0.3499
   57TMC2    C7  878   1.850   2.324  12.908 -0.3863  0.1749 -0.7456
   57TMC2    C8  879   1.643   2.733  13.048  0.5038  0.3213  0.9900
   57TMC2    O1  880   1.917   2.399  12.841  0.6458 -0.0709 -0.2445
   57TMC2    O2  881   1.636   2.815  13.137 -0.5394  0.0216  0.0982
   57TMC2    O5  882   1.605   2.739  12.915 -0.0524 -0.0263 -0.2994
   57TMC2    H5  883   1.593   2.652  12.872  0.1102 -0.5410  0.6881
   58MPD2     C  884   1.250   2.015  13.549 -0.2964 -0.3406 -0.0477
   58MPD2    C1  885   1.296   2.129  13.604 -0.0607 -0.2193 -0.0986
   58MPD2    C2  886   1.384   2.207  13.527  0.0311 -0.5596 -0.9509
   58MPD2    C3  887   1.424   2.164  13.400 -0.7733 -0.3127 -1.1687
   58MPD2    C4  888   1.387   2.042  13.361  0.4099  0.0691 -0.0815
   58MPD2    C5  889   1.289   1.975  13.426 -0.5207 -0.7186  0.3781
   58MPD2     H  890   1.423   2.296  13.576 -1.9700  0.1666 -0.6638
   58MPD2    H1  891   1.423   1.997  13.269  1.0904  0.0570  0.1917
   58MPD2    H2  892   1.185   1.950  13.607  2.4363 -0.2344  3.0861
   58MPD2    H3  893   1.246   1.889  13.374 -0.1066 -1.2201  0.8601
   58MPD2     N  894   1.524   2.229  13.315  0.8761 -0.1019 -0.2242
   58MPD2    H5  895   1.544   2.175  13.231  0.9767 -0.3079 -0.0666
   58MPD2    N1  896   1.243   2.188  13.719  0.3940  0.8809  0.1958
   58MPD2    H7  897   1.274   2.281  13.743  0.9864  0.2343  1.9578
   59MPD2     C  898   4.046   2.051  13.364 -0.4286  0.3686 -0.1020
   59MPD2    C1  899   4.104   2.105  13.255  0.1744 -0.3461 -0.1285
   59MPD2    C2  900   4.190   2.210  13.267  0.8952  0.9600  0.2571
   59MPD2    C3  901   4.234   2.266  13.390  0.0077 -0.1987  0.0676
   59MPD2    C4  902   4.190   2.191  13.501 -0.0583  0.1642  0.7937
   59MPD2    C5  903   4.091   2.090  13.490 -0.3082  0.3617  0.6609
   59MPD2     H  904   4.233   2.251  13.177 -0.3984 -0.7625 -1.1444
   59MPD2    H1  905   4.223   2.219  13.600 -2.0269  0.6298  1.3228
   59MPD2    H2  906   3.970   1.974  13.356 -1.4609  1.2066  1.5044
   59MPD2    H3  907   4.054   2.034  13.575 -1.2228  1.6286  1.1000
   59MPD2     N  908   4.311   2.386  13.409 -0.7489  0.2677 -0.0911
   59MPD2    H5  909   4.308   2.408  13.508  0.2426  2.6133 -0.5663
   59MPD2    N1  910   4.055   2.069  13.126 -0.7621 -1.0365  0.2582
   59MPD2    H7  911   4.081   2.130  13.050  1.5077  0.4801  2.2733
   60TCq2    C1  912   3.989   1.953  13.096  0.0516  0.8271 -0.5462
   60TCq2    O2  913   3.941   1.873  13.169 -0.4926  0.0504  0.2434
   60TCq2    C2  914   3.982   1.920  12.947  0.0134  0.2724  0.1262
   60TCq2    C3  915   3.898   1.820  12.899  0.7746 -0.5037 -0.5105
   60TCq2    C4  916   3.920   1.782  12.769  0.9152 -0.2411 -0.2891
   60TCq2    C5  917   4.015   1.839  12.686  0.7030  0.4008  0.1277
   60TCq2    C6  918   4.099   1.943  12.735 -0.1781 -0.2557 -0.2903
   60TCq2    C7  919   4.080   1.975  12.871  0.4920  0.0784  0.2188
   60TCq2    C8  920   4.175   2.030  12.645  0.2383 -0.4331  0.2681
   60TCq2    O4  921   4.224   1.982  12.540 -0.2241 -0.1114 -0.0163
   60TCq2    C9  922   3.849   1.664  12.723 -0.4188 -0.5330  0.3575
   60TCq2    O5  923   3.743   1.626  12.787 -0.1944 -0.1281  0.2597
   60TCq2    O6  924   3.893   1.611  12.618 -0.1298  0.3442  0.0676
   60TCq2    H2  925   3.830   1.769  12.966  0.2736  0.8399 -0.0057
   60TCq2    H3  926   4.021   1.802  12.585  0.2793  0.8821 -0.0703
   60TCq2    H4  927   4.136   2.059  12.910  0.3048 -1.4438  3.7523
   61MPD2     C  928   3.042   3.455  14.688 -0.4119 -0.0715 -0.2742
   61MPD2    C1  929   3.055   3.585  14.727  0.3866  0.3550  0.4547
   61MPD2    C2  930   2.956   3.673  14.690  0.1126  0.6016  0.0755
   61MPD2    C3  931   2.843   3.632  14.617  0.1189  0.0439 -0.5045
   61MPD2    C4  932   2.842   3.503  14.575  0.3165 -0.3047  0.2341
   61MPD2    C5  933   2.934   3.417  14.616  0.6141  0.1632 -0.0773
   61MPD2     H  934   2.970   3.778  14.715  0.5057 -0.3005  3.7199
   61MPD2    H1  935   2.760   3.482  14.507  0.3396  2.6516 -0.7483
   61MPD2    H2  936   3.108   3.374  14.718 -1.0988 -0.6766 -0.3959
   61MPD2    H3  937   2.938   3.318  14.571  3.3509 -0.1419  0.8105
   61MPD2     N  938   2.737   3.714  14.571 -0.3415 -0.0682 -0.1244
   61MPD2    H5  939   2.689   3.687  14.486  0.0656 -1.1289 -0.0208
   61MPD2    N1  940   3.157   3.637  14.808 -0.0518  0.1005  0.1009
   61MPD2    H7  941   3.141   3.730  14.844  2.2623  0.5809 -0.0980
   62TCq2    C1  942   3.265   3.564  14.856  0.2136  0.0867  0.2603
   62TCq2    O2  943   3.300   3.456  14.817 -0.5629 -0.0728  0.2891
   62TCq2    C2  944   3.326   3.634  14.964 -0.1744  0.8420 -0.4932
   62TCq2    C3  945   3.446   3.581  15.013  0.0090 -0.7010 -0.1490
   62TCq2    C4  946   3.508   3.629  15.124  0.1586  0.0410 -0.4221
   62TCq2    C5  947   3.453   3.738  15.178  0.1333 -0.3267 -0.5322
   62TCq2    C6  948   3.329   3.778  15.144  0.9365  0.2255 -0.4572
   62TCq2    C7  949   3.256   3.722  15.040  0.4944  0.2822 -0.2543
   62TCq2    C8  950   3.287   3.916  15.202  0.0714  0.6017 -0.4801
   62TCq2    O4  951   3.366   4.005  15.203  0.0581  0.3256  0.5950
   62TCq2    C9  952   3.645   3.598  15.146  0.6726  0.4128  0.0738
   62TCq2    O5  953   3.713   3.658  15.225  0.2893 -0.2848 -0.2478
   62TCq2    O6  954   3.694   3.503  15.080  0.0989  0.2593  0.1130
   62TCq2    H2  955   3.503   3.508  14.957  1.3484  0.5332 -0.3902
   62TCq2    H3  956   3.509   3.799  15.248  0.4080 -0.1757 -0.8822
   62TCq2    H4  957   3.160   3.764  15.014  0.7268 -0.0091 -1.5884
   63TMC2    C1  958   2.738   3.842  10.312 -0.1764  0.7801 -0.7994
   63TMC2    C2  959   2.852   3.865  10.390 -0.7689 -0.8445 -0.6805
   63TMC2    C3  960   2.979   3.859  10.339  0.5473  0.0441  0.7212
   63TMC2    C4  961   2.759   3.823  10.173  0.4529 -0.0354 -0.0294
   63TMC2    C5  962   2.886   3.815  10.124 -0.5512 -0.2413 -0.4991
   63TMC2    C6  963   3.000   3.836  10.201 -0.1003 -0.1685 -0.6918
   63TMC2     C  964   2.620   3.773  10.364  0.6202 -0.3003  0.1947
   63TMC2     O  965   2.509   3.809  10.329  0.9245  0.1703 -0.1067
   63TMC2     H  966   2.836   3.870  10.497 -1.1602  0.0809 -0.7788
   63TMC2    H1  967   2.686   3.781  10.106  0.6463 -1.2493  0.5254
   63TMC2    H2  968   3.101   3.815  10.165  0.6493  0.6786  0.9341
   63TMC2    C7  969   2.909   3.764   9.992 -0.3513 -0.5407  0.0414
   63TMC2    C8  970   3.065   3.797  10.438 -0.4329  0.6835 -0.0225
   63TMC2    O1  971   2.827   3.687   9.942  0.4636  0.1555 -0.3363
   63TMC2    O2  972   3.190   3.798  10.422 -0.2044 -0.3907 -0.0414
   63TMC2    O5  973   2.992   3.686  10.455 -0.6063  0.6720  0.9959
   63TMC2    H5  974   2.940   3.673  10.373  0.4027 -2.9588  0.9362
   64MPD2     C  975   2.428   3.418  10.683 -0.2083 -0.4698 -0.8975
   64MPD2    C1  976   2.565   3.405  10.679  0.3227 -0.3882 -0.4937
   64MPD2    C2  977   2.643   3.489  10.603  0.7646 -0.1855  0.3177
   64MPD2    C3  978   2.579   3.584  10.526 -0.3130  0.1690 -0.4300
   64MPD2    C4  979   2.436   3.596  10.528 -0.2194 -0.0924 -0.2735
   64MPD2    C5  980   2.364   3.517  10.611 -0.3456  0.3785  0.2301
   64MPD2     H  981   2.751   3.490  10.605  0.7503  1.5607  0.1044
   64MPD2    H1  982   2.378   3.664  10.466 -0.5238 -0.8374 -0.7971
   64MPD2    H2  983   2.366   3.359  10.750  0.9862  0.8601  1.3841
   64MPD2    H3  984   2.257   3.531  10.622 -0.5569 -0.4827 -0.7317
   64MPD2     N  985   2.660   3.672  10.450 -0.0156 -0.4014  0.7142
   64MPD2    H5  986   2.758   3.646  10.455  0.6730  2.3050  1.2391
   64MPD2    N1  987   2.634   3.292  10.739 -0.0154  0.7282  0.8075
   64MPD2    H7  988   2.732   3.294  10.714  0.1417 -2.4175  1.1142
   65MPD2     C  989   3.853   3.003  15.991  0.6221  0.2207  0.1719
   65MPD2    C1  990   3.851   2.955  15.864 -0.0686 -0.2271  0.5517
   65MPD2    C2  991   3.749   2.861  15.831 -0.0457 -0.2745  0.2534
   65MPD2    C3  992   3.653   2.829  15.928  0.2220 -0.7871  0.5714
   65MPD2    C4  993   3.658   2.877  16.052 -0.0354 -0.5698  0.6550
   65MPD2    C5  994   3.763   2.958  16.088  0.3735 -0.6866  0.8389
   65MPD2     H  995   3.757   2.813  15.734 -0.0662 -0.1831  0.2070
   65MPD2    H1  996   3.596   2.823  16.124 -0.2215  1.5976  2.1147
   65MPD2    H2  997   3.927   3.074  16.027  0.5468  0.4499 -0.1258
   65MPD2    H3  998   3.758   3.003  16.187 -0.3803 -0.5674  0.7458
   65MPD2     N  999   3.561   2.722  15.903 -0.4654  0.3496 -0.9016
   65MPD2    H5 1000   3.519   2.670  15.979 -0.0062  1.0672 -0.1490
   65MPD2    N1 1001   3.940   2.993  15.758  0.1205  0.2699 -0.2931
   65MPD2    H7 1002   3.919   2.963  15.663  0.6602  0.5042 -0.4820
   66TCq2    C1 1003   4.047   3.084  15.783 -0.5709  0.3937 -0.4734
   66TCq2    O2 1004   4.081   3.144  15.881  0.1250  0.6114  0.0946
   66TCq2    C2 1005   4.111   3.132  15.660  0.7649  0.4873  0.0684
   66TCq2    C3 1006   4.096   3.066  15.544 -0.0526  0.5132 -0.4754
   66TCq2    C4 1007   4.112   3.129  15.423  0.0679 -0.4085  0.4974
   66TCq2    C5 1008   4.157   3.262  15.423  1.1931  0.5818 -0.0680
   66TCq2    C6 1009   4.169   3.330  15.546 -0.1774 -0.1441  0.4669
   66TCq2    C7 1010   4.143   3.260  15.666 -0.1561  0.0220  0.6056
   66TCq2    C8 1011   4.174   3.475  15.543 -0.1862  0.1981  0.5670
   66TCq2    O4 1012   4.207   3.527  15.438  0.4406  0.3501  0.2986
   66TCq2    C9 1013   4.050   3.067  15.309 -0.2260  0.4948 -0.0789
   66TCq2    O5 1014   4.066   3.135  15.203 -0.1694  0.0757  0.0901
   66TCq2    O6 1015   3.984   2.961  15.325  0.2694 -0.0362 -0.3373
   66TCq2    H2 1016   4.052   2.967  15.550  1.4449 -0.1482 -0.3463
   66TCq2    H3 1017   4.155   3.324  15.334 -0.2100 -0.6774 -0.9353
   66TCq2    H4 1018   4.156   3.309  15.762  0.1694 -1.3906  1.2854
   67MPD2     C 1019   4.149   2.283  14.067  0.0701 -0.4513 -0.3819
   67MPD2    C1 1020   4.094   2.395  14.128  0.0527  0.0944  0.3118
   67MPD2    C2 1021   4.008   2.476  14.058 -0.7139 -1.0411 -0.3155
   67MPD2    C3 1022   3.974   2.440  13.931  0.2750  0.0623 -0.2903
   67MPD2    C4 1023   4.030   2.328  13.866 -0.5552  0.2889 -0.6461
   67MPD2    C5 1024   4.118   2.260  13.939 -0.3167  0.2309  0.0741
   67MPD2     H 1025   3.976   2.564  14.114  1.4414 -1.3901  1.4772
   67MPD2    H1 1026   4.016   2.297  13.764 -1.2632 -0.5228 -0.2961
   67MPD2    H2 1027   4.219   2.214  14.112 -2.7671 -2.5850  0.7241
   67MPD2    H3 1028   4.166   2.178  13.886  3.0986  1.7338  0.8315
   67MPD2     N 1029   3.873   2.525  13.875 -0.4985 -0.2285 -0.0651
   67MPD2    H5 1030   3.846   2.602  13.936 -0.6814  0.1893 -0.6739
   67MPD2    N1 1031   4.117   2.436  14.265  0.4184 -0.3424  1.0230
   67MPD2    H7 1032   4.085   2.530  14.287 -1.0895 -0.7503  0.5611
   68TCq2    C1 1033   4.201   2.382  14.351 -0.7322 -0.9297  0.3477
   68TCq2    O2 1034   4.263   2.279  14.330  0.2641  0.3117  0.5489
   68TCq2    C2 1035   4.232   2.468  14.460  0.7770 -0.8620  0.3122
   68TCq2    C3 1036   4.188   2.591  14.477 -0.3756 -0.1624 -0.0425
   68TCq2    C4 1037   4.200   2.645  14.607 -0.2160  0.5950 -0.9689
   68TCq2    C5 1038   4.245   2.574  14.716  0.1248 -0.1786 -1.0222
   68TCq2    C6 1039   4.301   2.458  14.691 -0.3341  0.2628 -0.5048
   68TCq2    C7 1040   4.290   2.401  14.564  0.9042 -0.1270 -0.5780
   68TCq2    C8 1041   4.372   2.380  14.796  1.2700  0.2438  0.2371
   68TCq2    O4 1042   4.444   2.287  14.763 -0.1100 -0.0852 -0.2545
   68TCq2    C9 1043   4.144   2.777  14.634  0.1395 -0.0770 -1.1089
   68TCq2    O5 1044   4.107   2.806  14.751  0.8914  0.2331 -0.2520
   68TCq2    O6 1045   4.122   2.848  14.527 -0.6355 -0.5255  0.6786
   68TCq2    H2 1046   4.135   2.653  14.405 -0.0297  0.2973  0.0962
   68TCq2    H3 1047   4.260   2.617  14.814 -1.4865  0.3685 -1.0255
   68TCq2    H4 1048   4.340   2.306  14.551 -1.0995 -1.2730  0.1201
   69TMC2    C1 1049   1.365   3.614  12.111  0.1797  0.2116  0.4216
   69TMC2    C2 1050   1.233   3.629  12.104  0.0142  0.0619  0.1782
   69TMC2    C3 1051   1.175   3.650  11.980 -0.3266 -0.3041 -0.3993
   69TMC2    C4 1052   1.441   3.627  11.996  0.1432 -0.6033 -0.8324
   69TMC2    C5 1053   1.377   3.641  11.873 -0.2419 -0.5552 -0.0958
   69TMC2    C6 1054   1.240   3.654  11.866  0.2930 -0.6435 -0.2289
   69TMC2     C 1055   1.421   3.593  12.244 -0.1689  0.3954  0.2180
   69TMC2     O 1056   1.342   3.539  12.322  0.5237 -0.4387 -0.0034
   69TMC2     H 1057   1.175   3.620  12.195  0.6982  1.9856  0.8120
   69TMC2    H1 1058   1.546   3.598  11.995  1.1775  3.1946 -0.4357
   69TMC2    H2 1059   1.185   3.667  11.774  0.5185 -1.0352 -0.4214
   69TMC2    C7 1060   1.448   3.650  11.747  0.4239  0.9314 -0.5131
   69TMC2    C8 1061   1.043   3.704  11.978  0.3106 -0.8453  0.0053
   69TMC2    O1 1062   1.569   3.641  11.744  0.0124 -0.4635 -0.1512
   69TMC2    O2 1063   0.965   3.661  11.893 -0.3446  0.3802 -0.1725
   69TMC2    O5 1064   1.022   3.764  12.096  0.2656 -0.1478  0.2428
   69TMC2    H5 1065   1.104   3.809  12.124  0.1359  0.8235 -0.9256
   70MPD2     C 1066   1.764   3.626  12.366 -0.1083 -0.3346 -0.0838
   70MPD2    C1 1067   1.628   3.623  12.378  0.0684 -1.2496 -0.0844
   70MPD2    C2 1068   1.571   3.609  12.507  0.4470  0.1957 -0.1129
   70MPD2    C3 1069   1.652   3.578  12.623 -0.1720  0.3372  0.5208
   70MPD2    C4 1070   1.784   3.569  12.594  0.1755 -0.3311  0.3844
   70MPD2    C5 1071   1.840   3.589  12.471  0.8238  0.2535 -0.4024
   70MPD2     H 1072   1.463   3.608  12.511  0.4312  2.4646 -0.2365
   70MPD2    H1 1073   1.861   3.550  12.668  0.5109  0.8026  0.3290
   70MPD2    H2 1074   1.811   3.633  12.269 -0.3025  1.1417 -0.0672
   70MPD2    H3 1075   1.945   3.567  12.454  1.3103 -0.7210  3.8179
   70MPD2     N 1076   1.610   3.557  12.751 -0.0416  0.4899  1.1333
   70MPD2    H5 1077   1.674   3.523  12.822  0.3405  1.1225  1.0957
   70MPD2    N1 1078   1.548   3.644  12.257  0.5217  0.1260  0.1935
   70MPD2    H7 1079   1.601   3.663  12.172 -2.1750 -0.1169 -1.5302
   71TMC2    C1 1080   4.060   3.993   2.147  0.2646  0.1010  0.9966
   71TMC2    C2 1081   3.999   4.084   2.230 -0.3055  0.5689 -0.3363
   71TMC2    C3 1082   3.865   4.089   2.236  0.1587 -0.8754  0.1443
   71TMC2    C4 1083   3.978   3.906   2.072 -0.8069 -0.1845  0.0628
   71TMC2    C5 1084   3.838   3.916   2.090  0.0570  0.4047  0.3816
   71TMC2    C6 1085   3.778   4.007   2.170 -0.5969 -0.2061  0.1803
   71TMC2     C 1086   4.168   4.062   2.069 -0.2378 -0.0654 -0.1705
   71TMC2     O 1087   4.156   4.050   1.950 -0.1823  0.2021  0.0325
   71TMC2     H 1088   4.062   4.145   2.293 -1.4006  1.5888 -0.2154
   71TMC2    H1 1089   4.031   3.832   2.014  0.9678 -0.0887  1.5315
   71TMC2    H2 1090   3.670   4.009   2.172 -0.5842 -1.4432  1.9161
   71TMC2    C7 1091   3.764   3.842   1.992 -0.2123 -0.0957 -0.6668
   71TMC2    C8 1092   3.812   4.189   2.325 -0.5849 -0.3260  0.5620
   71TMC2    O1 1093   3.825   3.746   1.941  0.0827  0.4342  0.8141
   71TMC2    O2 1094   3.873   4.293   2.349 -0.4242 -0.1755  0.0268
   71TMC2    O5 1095   3.719   4.130   2.401 -0.0440  0.3630  0.3433
   71TMC2    H5 1096   3.693   4.039   2.374 -0.4316  0.1789  1.3131
   72MPD2     C 1097   4.511   4.448   2.035 -0.6691  0.2094  0.2656
   72MPD2    C1 1098   4.410   4.415   1.948 -0.3314  0.2363 -0.6142
   72MPD2    C2 1099   4.330   4.304   1.991 -0.9859  0.2806 -0.1046
   72MPD2    C3 1100   4.349   4.236   2.111 -0.7410 -0.1781 -0.1835
   72MPD2    C4 1101   4.440   4.292   2.201 -0.0198 -0.3241  0.1880
   72MPD2    C5 1102   4.523   4.380   2.155 -0.6751  0.4739  0.2846
   72MPD2     H 1103   4.262   4.263   1.918 -0.6879  0.4666 -0.4898
   72MPD2    H1 1104   4.460   4.256   2.301  0.1640  0.1063  0.3029
   72MPD2    H2 1105   4.587   4.518   2.002  0.5557 -0.5260  1.5376
   72MPD2    H3 1106   4.599   4.420   2.222 -1.8899  1.2250  1.2011
   72MPD2     N 1107   4.260   4.130   2.154  0.4952 -0.1774  0.4963
   72MPD2    H5 1108   4.258   4.103   2.252 -0.6059 -0.6798  0.3400
   72MPD2    N1 1109   4.381   4.485   1.826  0.0960 -0.2930  0.6470
   72MPD2    H7 1110   4.296   4.460   1.776  0.6386  0.2415 -0.5337
   73TMC2    C1 1111   2.910   1.017  14.075  0.2662 -0.4731  0.7452
   73TMC2    C2 1112   2.855   1.147  14.086 -0.6326 -0.4138 -0.0239
   73TMC2    C3 1113   2.899   1.228  14.194  0.3145 -0.1645  0.3867
   73TMC2    C4 1114   2.984   0.969  14.186 -0.8340 -1.0359  0.1677
   73TMC2    C5 1115   3.024   1.053  14.287 -0.8289 -0.1480 -0.3150
   73TMC2    C6 1116   2.989   1.182  14.290  0.1420 -0.4220 -0.0513
   73TMC2     C 1117   2.968   0.973  13.952 -0.3399 -0.1445  0.2286
   73TMC2     O 1118   3.066   0.902  13.960  0.0458  0.2460 -0.0531
   73TMC2     H 1119   2.789   1.185  14.009 -0.2392  0.0508 -0.1278
   73TMC2    H1 1120   3.024   0.869  14.178 -2.3595 -1.4037 -2.7718
   73TMC2    H2 1121   3.021   1.247  14.371  2.3196  0.3202 -1.5198
   73TMC2    C7 1122   3.159   1.021  14.328 -0.6488  0.1382  0.1229
   73TMC2    C8 1123   2.871   1.371  14.198  0.2572  1.2604  0.9121
   73TMC2    O1 1124   3.206   1.067  14.430  0.1821 -0.1552  0.2943
   73TMC2    O2 1125   2.953   1.458  14.179  0.3762 -0.7419  0.2842
   73TMC2    O5 1126   2.740   1.387  14.193 -0.3774 -0.1029  0.1724
   73TMC2    H5 1127   2.693   1.301  14.194  2.9710 -1.9042  0.4551
   74MPD2     C 1128   3.053   1.012  13.458 -0.0063 -0.7789  1.1925
   74MPD2    C1 1129   3.142   0.977  13.555  0.0582  0.0686  0.8258
   74MPD2    C2 1130   3.095   0.980  13.683 -0.5078 -0.1790 -0.0437
   74MPD2    C3 1131   2.962   1.015  13.710 -0.0175 -0.0458  0.2485
   74MPD2    C4 1132   2.876   1.039  13.612  0.3637 -0.6662  0.2295
   74MPD2    C5 1133   2.924   1.040  13.480 -0.1800  0.0273 -0.0282
   74MPD2     H 1134   3.163   0.955  13.763 -0.9065  1.3933  0.7806
   74MPD2    H1 1135   2.775   1.073  13.630  0.9473 -0.5108  3.2266
   74MPD2    H2 1136   3.081   1.010  13.353 -1.8609  1.2152  0.6804
   74MPD2    H3 1137   2.863   1.071  13.397  0.1666 -3.2107 -1.4960
   74MPD2     N 1138   2.909   1.024  13.839 -0.0832  0.0871 -0.3246
   74MPD2    H5 1139   2.813   1.058  13.845 -0.5413 -1.0107 -1.4617
   74MPD2    N1 1140   3.273   0.935  13.529 -0.0088  0.7901  0.3630
   74MPD2    H7 1141   3.303   0.931  13.432  2.7127  0.1457  1.2374
   75TCq2    C1 1142   3.808   2.517  13.751  0.1794 -0.0466  0.3015
   75TCq2    O2 1143   3.832   2.450  13.652 -0.5972 -0.0649  0.2566
   75TCq2    C2 1144   3.697   2.604  13.743  0.7332 -0.4064  0.4935
   75TCq2    C3 1145   3.621   2.628  13.858  0.0598 -0.4760 -0.0769
   75TCq2    C4 1146   3.507   2.700  13.848 -0.1782  0.5290 -0.0190
   75TCq2    C5 1147   3.454   2.738  13.726 -0.6733 -0.0855 -0.0719
   75TCq2    C6 1148   3.523   2.696  13.617  0.6643 -0.1161  0.1738
   75TCq2    C7 1149   3.639   2.624  13.619 -0.3150 -0.2589 -0.1752
   75TCq2    C8 1150   3.454   2.696  13.493 -0.2935  0.0310 -0.3369
   75TCq2    O4 1151   3.515   2.665  13.388 -0.3860  0.0636  0.1693
   75TCq2    C9 1152   3.441   2.735  13.976  0.2292  0.6582 -0.5505
   75TCq2    O5 1153   3.464   2.664  14.075 -0.0760 -0.1946 -0.2632
   75TCq2    O6 1154   3.330   2.792  13.960  0.1863  0.3848  0.4499
   75TCq2    H2 1155   3.652   2.597  13.957 -1.5438  2.1827  1.2577
   75TCq2    H3 1156   3.360   2.793  13.727 -0.5749  0.0331  2.2444
   75TCq2    H4 1157   3.700   2.610  13.530  2.2873 -0.4900  1.6521
   76MPD2     C 1158   2.089   3.289  11.678 -0.5572 -0.4431  0.1365
   76MPD2    C1 1159   2.128   3.222  11.565  0.0342 -0.4579 -0.3356
   76MPD2    C2 1160   2.232   3.135  11.576  0.3752 -0.5130 -0.7340
   76MPD2    C3 1161   2.300   3.130  11.697  0.7377  0.0589 -0.3342
   76MPD2    C4 1162   2.252   3.190  11.811  0.4602 -0.3349  0.4636
   76MPD2    C5 1163   2.152   3.276  11.798  0.2587 -0.6007 -1.0301
   76MPD2     H 1164   2.274   3.086  11.489 -1.1645  1.0364 -2.3477
   76MPD2    H1 1165   2.301   3.183  11.907  0.2577 -2.4375  0.4141
   76MPD2    H2 1166   2.001   3.353  11.674 -1.4765 -1.7774 -0.8922
   76MPD2    H3 1167   2.112   3.336  11.879  1.1870 -2.5707  0.8704
   76MPD2     N 1168   2.413   3.047  11.719 -0.5740 -0.6132  0.4630
   76MPD2    H5 1169   2.434   3.052  11.819  0.2832  2.5584  0.1485
   76MPD2    N1 1170   2.044   3.237  11.448 -0.3997  0.2029  0.0178
   76MPD2    H7 1171   1.970   3.305  11.463 -1.8797 -1.6721  1.1514
   77TCq2    C1 1172   2.476   2.965  11.624  0.6447  0.3307 -0.1513
   77TCq2    O2 1173   2.447   2.934  11.509 -0.2020  0.1545 -0.8789
   77TCq2    C2 1174   2.595   2.894  11.682  0.1154  0.2023 -0.3266
   77TCq2    C3 1175   2.641   2.778  11.634  0.4892  0.1496  0.7523
   77TCq2    C4 1176   2.743   2.711  11.698  0.7639  0.7591  0.1567
   77TCq2    C5 1177   2.809   2.770  11.802  0.3286  0.6046 -0.4588
   77TCq2    C6 1178   2.766   2.894  11.846  0.7834 -0.2445 -0.3360
   77TCq2    C7 1179   2.659   2.959  11.789 -0.3480 -0.0140  0.7599
   77TCq2    C8 1180   2.861   2.982  11.918 -0.5224  0.3871 -0.5055
   77TCq2    O4 1181   2.886   3.091  11.868  0.4209 -0.0593  0.2830
   77TCq2    C9 1182   2.784   2.576  11.662 -0.1097 -0.2619 -0.4398
   77TCq2    O5 1183   2.713   2.521  11.576 -0.1619  0.0097 -0.4922
   77TCq2    O6 1184   2.881   2.522  11.722  0.2689 -0.2094  0.1509
   77TCq2    H2 1185   2.590   2.739  11.546  0.3934  3.2442 -0.5598
   77TCq2    H3 1186   2.889   2.724  11.859  0.0966  0.6018 -0.1399
   77TCq2    H4 1187   2.643   3.061  11.820 -0.2278  0.2307  0.0203
   78MPD1     C 1188   2.907   0.379   1.606 -0.3442 -0.6234  0.1923
   78MPD1    C1 1189   3.019   0.348   1.684  0.4991 -0.1352 -0.2646
   78MPD1    C2 1190   3.112   0.264   1.634  0.3000 -0.0193  0.4597
   78MPD1    C3 1191   3.107   0.208   1.507 -0.1117 -0.0751 -0.7060
   78MPD1    C4 1192   2.999   0.245   1.433 -0.2267 -0.4048 -0.8277
   78MPD1    C5 1193   2.903   0.318   1.485 -0.5765 -0.0634  0.4618
   78MPD1     H 1194   3.185   0.219   1.700  1.6119  0.9983 -0.3230
   78MPD1    H1 1195   2.986   0.213   1.330  1.2672 -0.0703 -1.1258
   78MPD1    H2 1196   2.820   0.429   1.647 -0.1413  1.6110 -2.0959
   78MPD1    H3 1197   2.817   0.340   1.423  0.7219 -0.0339 -1.3177
   78MPD1     N 1198   3.194   0.123   1.454 -0.4892  0.0245  0.2676
   78MPD1    H5 1199   3.196   0.104   1.355 -2.0515  1.8628 -0.1232
   78MPD1    N1 1200   3.033   0.394   1.820 -0.0626 -0.2960  0.2388
   78MPD1    H6 1201   3.128   0.403   1.855  0.0822  1.9386 -0.7524
   78MPD1    H7 1202   2.981   0.480   1.830  0.7484 -0.0206  2.0727
   79TCq2    C1 1203   3.299   0.065   1.522  0.1520 -0.5615 -0.3180
   79TCq2    O2 1204   3.343   0.080   1.640 -0.2944 -0.2604 -0.1536
   79TCq2    C2 1205   3.383   4.694   1.438 -0.6191  0.6536  0.1541
   79TCq2    C3 1206   3.392   4.712   1.303 -0.1816 -0.4893  0.0843
   79TCq2    C4 1207   3.490   4.649   1.235 -0.3879  0.2489 -0.2663
   79TCq2    C5 1208   3.566   4.556   1.294  0.0598  0.7203 -0.5673
   79TCq2    C6 1209   3.564   4.540   1.433 -0.8194  0.3929 -0.0854
   79TCq2    C7 1210   3.471   4.608   1.508 -0.1689 -0.5746  0.5601
   79TCq2    C8 1211   3.642   4.429   1.486  0.0374 -0.1882  0.3279
   79TCq2    O4 1212   3.736   4.389   1.418 -0.2089  0.1253  0.8064
   79TCq2    C9 1213   3.494   4.642   1.085  0.1360  0.1343  0.1738
   79TCq2    O5 1214   3.402   4.716   1.033 -0.0872 -0.1956 -0.2239
   79TCq2    O6 1215   3.593   4.587   1.037  0.9107 -0.0618  0.2954
   79TCq2    H2 1216   3.320   0.045   1.245  0.8907  1.1953  0.3961
   79TCq2    H3 1217   3.628   4.491   1.233 -0.2888 -0.5254  0.4182
   79TCq2    H4 1218   3.457   4.590   1.614  0.2781  1.7018  1.0162
   80MPD2     C 1219   1.839   2.805  12.383 -0.9453 -0.1212 -0.0858
   80MPD2    C1 1220   1.724   2.820  12.316 -0.0452  0.3150 -0.1440
   80MPD2    C2 1221   1.608   2.852  12.387 -0.9648  0.5406 -0.2017
   80MPD2    C3 1222   1.609   2.842  12.528 -0.0244 -0.2795 -0.2640
   80MPD2    C4 1223   1.730   2.830  12.599 -1.0015  0.0195 -0.2210
   80MPD2    C5 1224   1.843   2.814  12.522 -0.0852  1.0214 -1.0944
   80MPD2     H 1225   1.512   2.847  12.336 -0.9153  0.6720 -0.3060
   80MPD2    H1 1226   1.730   2.847  12.706  0.4401 -1.4419  0.0200
   80MPD2    H2 1227   1.933   2.783  12.335 -0.3876  3.8585 -0.8533
   80MPD2    H3 1228   1.942   2.816  12.567 -0.2866 -1.6377 -0.5694
   80MPD2     N 1229   1.491   2.861  12.609 -0.1035 -0.5222  0.5935
   80MPD2    H5 1230   1.503   2.847  12.709  0.1859 -2.4030  0.3110
   80MPD2    N1 1231   1.717   2.791  12.176  0.2363 -0.2449  0.0982
   80MPD2    H7 1232   1.633   2.810  12.123  0.1580  0.8448  0.6011
   81TCq2    C1 1233   1.808   2.725  12.101  0.1033 -0.4622 -0.1473
   81TCq2    O2 1234   1.915   2.676  12.143  0.1394  0.2404  0.6581
   81TCq2    C2 1235   1.763   2.709  11.960 -0.5544  0.0278  0.0036
   81TCq2    C3 1236   1.859   2.689  11.866 -0.0023  0.3665  0.4103
   81TCq2    C4 1237   1.818   2.662  11.731  0.2499 -0.5685  0.5924
   81TCq2    C5 1238   1.688   2.638  11.707  0.5075 -0.7358 -0.3603
   81TCq2    C6 1239   1.595   2.654  11.806 -0.0769  0.7894  0.1046
   81TCq2    C7 1240   1.629   2.688  11.930  0.3983 -0.3297 -0.0806
   81TCq2    C8 1241   1.456   2.613  11.778  0.4641  0.6104  0.0327
   81TCq2    O4 1242   1.424   2.636  11.663  0.7015  0.5648  0.2861
   81TCq2    C9 1243   1.918   2.655  11.626 -0.4558 -0.7652  0.3935
   81TCq2    O5 1244   1.878   2.616  11.517  0.3464  0.3441  0.5741
   81TCq2    O6 1245   2.040   2.666  11.658 -0.0326 -0.2289  0.8311
   81TCq2    H2 1246   1.964   2.695  11.893 -0.4229 -0.1828  2.1506
   81TCq2    H3 1247   1.667   2.600  11.608  0.6271 -0.6054 -0.4360
   81TCq2    H4 1248   1.546   2.716  11.995  0.4157  0.0003 -0.1988
   82MPD2     C 1249   4.235   2.865  10.696  0.0846 -0.3067  0.1387
   82MPD2    C1 1250   4.213   2.766  10.603  0.0597  0.1002  0.6692
   82MPD2    C2 1251   4.264   2.638  10.627 -0.1981 -0.5598  0.0542
   82MPD2    C3 1252   4.345   2.616  10.738 -0.3437  0.1327  0.2669
   82MPD2    C4 1253   4.370   2.721  10.830 -0.3696  0.1889 -0.0184
   82MPD2    C5 1254   4.313   2.849  10.810 -0.0010  0.7252  0.2165
   82MPD2     H 1255   4.266   2.570  10.542  1.8963  2.5123 -2.3520
   82MPD2    H1 1256   4.429   2.688  10.915 -0.1136 -1.3823 -0.8143
   82MPD2    H2 1257   4.182   2.958  10.688 -0.3438 -0.3761  2.0549
   82MPD2    H3 1258   4.341   2.928  10.879  1.9166 -2.1501  2.7597
   82MPD2     N 1259   4.419   2.500  10.753 -0.0588  0.8166 -0.5059
   82MPD2    H5 1260   4.495   2.511  10.820  0.5561  3.7860 -1.6586
   82MPD2    N1 1261   4.148   2.807  10.486 -0.4333 -0.1270 -0.1569
   82MPD2    H7 1262   4.157   2.908  10.481 -2.7075  0.0802  0.1116
   83TCq2    C1 1263   4.384   2.375  10.710 -0.3170  0.6153  0.3192
   83TCq2    O2 1264   4.286   2.341  10.642  0.7931  0.0734 -0.0249
   83TCq2    C2 1265   4.492   2.271  10.740  0.3542  0.3947  0.1398
   83TCq2    C3 1266   4.623   2.306  10.724 -0.1767 -0.0458  0.1117
   83TCq2    C4 1267   4.714   2.203  10.708 -0.1989 -0.2253  0.6003
   83TCq2    C5 1268   4.678   2.078  10.686  0.1011 -0.1676 -0.1345
   83TCq2    C6 1269   4.545   2.048  10.693 -0.0856  0.6061  0.6118
   83TCq2    C7 1270   4.452   2.138  10.728  0.3116  0.4214 -0.1815
   83TCq2    C8 1271   4.519   1.911  10.710 -0.0979 -0.2196  0.2596
   83TCq2    O4 1272   4.590   1.831  10.653 -0.1506  0.0965  0.0923
   83TCq2    C9 1273   0.134   2.239  10.701 -0.4474 -0.5450  0.1472
   83TCq2    O5 1274   0.185   2.347  10.748 -0.2055 -0.6986 -0.3144
   83TCq2    O6 1275   0.212   2.145  10.686  0.2844 -0.3640  0.6331
   83TCq2    H2 1276   4.658   2.408  10.739  0.7830 -0.5792  1.5470
   83TCq2    H3 1277   0.027   2.000  10.664 -1.8646 -1.9058 -0.4756
   83TCq2    H4 1278   4.349   2.104  10.731  0.4817  0.0154  1.3198
   84TCq2    C1 1279   0.730   0.552  10.388  0.8358  0.4166  0.0638
   84TCq2    O2 1280   0.659   0.644  10.351 -0.1300 -0.3804  0.2350
   84TCq2    C2 1281   0.793   0.572  10.519 -1.3281  0.3479  0.3794
   84TCq2    C3 1282   0.873   0.474  10.563  0.2330  0.0377 -0.0844
   84TCq2    C4 1283   0.889   0.461  10.696 -0.0239  0.5468 -0.1671
   84TCq2    C5 1284   0.846   0.562  10.782 -0.4797 -0.3389  0.1341
   84TCq2    C6 1285   0.761   0.659  10.733  0.3294  0.5210 -0.3156
   84TCq2    C7 1286   0.732   0.664  10.600  0.1236  0.3521 -0.9063
   84TCq2    C8 1287   0.709   0.754  10.831 -0.9128  0.0595  0.5361
   84TCq2    O4 1288   0.727   0.722  10.949  0.2585 -0.0931 -0.3272
   84TCq2    C9 1289   0.963   0.344  10.745  0.3092  0.4728 -0.0427
   84TCq2    O5 1290   0.960   0.247  10.664  0.6252  0.0391  0.0863
   84TCq2    O6 1291   1.003   0.342  10.867 -0.2773 -0.6883  0.1627
   84TCq2    H2 1292   0.929   0.408  10.498 -2.2078 -2.1107  0.0286
   84TCq2    H3 1293   0.853   0.548  10.890  0.3970  0.5869  0.1957
   84TCq2    H4 1294   0.664   0.738  10.557 -1.3262  0.2364  1.2201
   85MPD2     C 1295   1.475   4.030  16.324 -0.8719  0.8009  0.4729
   85MPD2    C1 1296   1.401   4.035  16.207 -0.0774 -0.0723 -0.8277
   85MPD2    C2 1297   1.440   4.119  16.103 -0.1716  0.2154  0.1454
   85MPD2    C3 1298   1.554   4.195  16.107  0.3559  0.6003 -0.1858
   85MPD2    C4 1299   1.626   4.191  16.224  0.2298 -0.6041  0.1329
   85MPD2    C5 1300   1.592   4.107  16.326 -0.4164 -0.4008 -0.2941
   85MPD2     H 1301   1.379   4.125  16.013  1.2118  1.6081 -0.6965
   85MPD2    H1 1302   1.715   4.252  16.229 -0.0520 -0.4420  3.5904
   85MPD2    H2 1303   1.441   3.968  16.407 -0.9973  0.3675  0.0974
   85MPD2    H3 1304   1.652   4.108  16.416 -0.9645 -0.0537  0.0689
   85MPD2     N 1305   1.575   4.272  15.995  0.4675  0.1065 -0.2927
   85MPD2    H5 1306   1.513   4.257  15.916  0.5831  1.4760 -0.6376
   85MPD2    N1 1307   1.277   3.963  16.195  1.0893  0.5442 -0.2826
   85MPD2    H7 1308   1.240   3.975  16.102  1.6466 -0.0166 -0.5797
   86TCq2    C1 1309   1.650   4.389  15.989 -0.5847  0.5240 -0.0670
   86TCq2    O2 1310   1.709   4.445  16.083 -0.5260 -0.0439  0.5321
   86TCq2    C2 1311   1.620   4.476  15.880  0.3596 -0.0522 -0.4068
   86TCq2    C3 1312   1.657   4.609  15.896  0.5348 -0.5669  1.1678
   86TCq2    C4 1313   1.683   4.683  15.787  0.2445 -0.2429 -0.2745
   86TCq2    C5 1314   1.681   4.630  15.666 -0.4307  0.7705 -0.3186
   86TCq2    C6 1315   1.647   4.496  15.650  0.5345 -0.0873 -0.6267
   86TCq2    C7 1316   1.603   4.418  15.752 -0.0291  0.1561  0.0653
   86TCq2    C8 1317   1.669   4.431  15.517 -0.3149 -0.1157 -0.0040
   86TCq2    O4 1318   1.623   4.316  15.505  0.0546 -0.7291  0.0747
   86TCq2    C9 1319   1.723   0.102  15.803  0.1832  0.5436  0.0849
   86TCq2    O5 1320   1.769   0.156  15.700 -0.0116 -0.2977 -0.5659
   86TCq2    O6 1321   1.760   0.139  15.917  0.0936 -0.1768 -0.0308
   86TCq2    H2 1322   1.688   4.649  15.993  4.7737  0.3712 -0.5653
   86TCq2    H3 1323   1.703   4.696  15.582  0.0636  0.2513 -0.5984
   86TCq2    H4 1324   1.574   4.315  15.732 -1.0281  0.7073 -1.3442
   87MPD2     C 1325   3.257   2.277   1.427  0.0831  0.4526  0.2678
   87MPD2    C1 1326   3.315   2.404   1.443 -0.6795  0.1878  0.4592
   87MPD2    C2 1327   3.232   2.512   1.411 -0.0081 -0.0718  0.1620
   87MPD2    C3 1328   3.100   2.500   1.368  0.5503  0.0491 -0.4151
   87MPD2    C4 1329   3.045   2.375   1.366 -0.2294  0.8484  0.2709
   87MPD2    C5 1330   3.127   2.269   1.391  0.3597  0.7765  0.1932
   87MPD2     H 1331   3.276   2.610   1.404 -0.7381  0.1321 -1.4656
   87MPD2    H1 1332   2.939   2.356   1.350  0.1318  0.5111 -1.8296
   87MPD2    H2 1333   3.310   2.183   1.436 -0.3526  0.2145  0.3459
   87MPD2    H3 1334   3.087   2.168   1.395 -0.7965  1.2973  1.7051
   87MPD2     N 1335   3.023   2.611   1.328 -0.2637 -0.4179 -0.4552
   87MPD2    H5 1336   2.923   2.602   1.310 -0.5005 -0.7868  1.0709
   87MPD2    N1 1337   3.443   2.415   1.500  0.0312 -0.0909 -1.1623
   87MPD2    H7 1338   3.497   2.330   1.512 -0.2582 -0.2078 -0.6880
   88TCq2    C1 1339   3.496   2.535   1.546 -0.0789  0.5525 -0.2240
   88TCq2    O2 1340   3.450   2.649   1.549 -0.9150 -0.0908 -0.0177
   88TCq2    C2 1341   3.634   2.541   1.552 -0.6050 -0.5067  0.6766
   88TCq2    C3 1342   3.687   2.640   1.629  0.2637  0.0947  0.8468
   88TCq2    C4 1343   3.819   2.666   1.615  0.3610  0.2503  0.6220
   88TCq2    C5 1344   3.900   2.595   1.535 -0.4444 -0.2691 -0.1510
   88TCq2    C6 1345   3.843   2.506   1.448 -0.2873  0.3687  0.5261
   88TCq2    C7 1346   3.710   2.477   1.457  0.1379  0.0535 -0.1292
   88TCq2    C8 1347   3.927   2.450   1.342  0.0184  0.0458  0.6970
   88TCq2    O4 1348   4.030   2.510   1.306 -0.2990 -0.2295 -0.5924
   88TCq2    C9 1349   3.880   2.777   1.685 -0.7087  0.5485 -0.0663
   88TCq2    O5 1350   3.815   2.846   1.769 -0.1736  0.0846 -0.0073
   88TCq2    O6 1351   3.993   2.804   1.636 -0.6208  0.1549 -0.6439
   88TCq2    H2 1352   3.620   2.698   1.692 -0.6608  1.9138 -1.8004
   88TCq2    H3 1353   4.004   2.623   1.526 -1.1977  2.9604  1.3883
   88TCq2    H4 1354   3.659   2.431   1.374  0.0707 -1.0499  0.5182
   89MPD2     C 1355   4.653   1.111   1.870 -0.2062  0.5131 -0.1337
   89MPD2    C1 1356   4.545   1.177   1.931 -0.0580  0.3680 -0.6182
   89MPD2    C2 1357   4.547   1.317   1.940  0.0818 -0.9872 -0.4168
   89MPD2    C3 1358   4.654   1.381   1.881  0.5288 -0.0963  0.5547
   89MPD2    C4 1359   0.033   1.313   1.814 -0.3533 -0.4515  0.4460
   89MPD2    C5 1360   0.031   1.178   1.804 -0.6929  0.1432  0.0712
   89MPD2     H 1361   4.472   1.368   1.999  2.5111  0.6168  1.2893
   89MPD2    H1 1362   0.119   1.362   1.772 -0.6279  1.7286  2.3957
   89MPD2    H2 1363   4.667   1.004   1.875 -0.2707  0.4000 -2.2595
   89MPD2    H3 1364   0.108   1.118   1.759 -0.0040  0.0946  1.3030
   89MPD2     N 1365   4.657   1.525   1.887 -0.3020 -0.2328  1.1148
   89MPD2    H5 1366   4.584   1.573   1.938  0.4188  0.2874  1.6381
   89MPD2    N1 1367   4.430   1.116   1.986 -0.2042 -1.0064  0.2947
   89MPD2    H7 1368   4.374   1.164   2.056 -2.0490 -1.2126 -1.0428
   90TCq2    C1 1369   0.009   1.612   1.811  0.5851  0.7193  0.2994
   90TCq2    O2 1370   0.108   1.590   1.740  0.1309 -0.1116  0.8050
   90TCq2    C2 1371   4.697   1.749   1.838  0.5377  0.8079 -0.3426
   90TCq2    C3 1372   4.567   1.765   1.889  0.0660 -0.0846 -0.3119
   90TCq2    C4 1373   4.552   1.872   1.967  0.4687  0.5934 -0.9282
   90TCq2    C5 1374   4.642   1.981   1.972 -0.4478 -0.2019 -0.3549
   90TCq2    C6 1375   0.035   1.963   1.907 -0.5921 -0.5998  0.3759
   90TCq2    C7 1376   0.063   1.855   1.828 -0.2642  0.5622  0.5849
   90TCq2    C8 1377   0.090   2.092   1.862  0.6178 -0.6925  0.3041
   90TCq2    O4 1378   0.078   2.191   1.932 -0.4622 -0.2592  0.0111
   90TCq2    C9 1379   4.424   1.884   2.040  0.1715 -0.1750 -0.7043
   90TCq2    O5 1380   4.339   1.805   2.000  0.1770  0.1268 -0.7577
   90TCq2    O6 1381   4.429   1.966   2.139  0.6887  0.3398 -0.1909
   90TCq2    H2 1382   4.487   1.694   1.878 -1.2491  1.2739  0.4891
   90TCq2    H3 1383   4.617   2.066   2.035 -0.9769 -0.7439  0.1647
   90TCq2    H4 1384   0.163   1.838   1.789 -0.8995  0.2400 -0.9335
   91TMC2    C1 1385   1.546   0.495  17.026 -0.4551  1.0255 -0.0894
   91TMC2    C2 1386   1.603   0.591  17.102 -0.2551  0.8579 -0.5181
   91TMC2    C3 1387   1.524   0.691  17.153 -0.0002 -0.3468  0.4930
   91TMC2    C4 1388   1.415   0.514  16.979  0.1382  0.5283 -0.5050
   91TMC2    C5 1389   1.343   0.621  17.024 -0.2489 -0.1840 -1.0501
   91TMC2    C6 1390   1.395   0.710  17.111 -0.3503 -0.0726 -1.0889
   91TMC2     C 1391   1.627   0.390  16.966 -0.0601  0.0714  0.2161
   91TMC2     O 1392   1.567   0.305  16.900 -0.1552  0.7050  0.5413
   91TMC2     H 1393   1.686   0.555  17.162 -1.3848 -1.0002 -0.0370
   91TMC2    H1 1394   1.365   0.432  16.928 -0.1842  1.7897 -2.2078
   91TMC2    H2 1395   1.334   0.794  17.143  1.1472  0.2003  1.0351
   91TMC2    C7 1396   1.201   0.627  17.002 -0.0150 -0.2135 -0.4146
   91TMC2    C8 1397   1.581   0.742  17.281 -0.2809  0.2697  0.0910
   91TMC2    O1 1398   1.142   0.676  17.101 -0.1201  0.6231 -0.2998
   91TMC2    O2 1399   1.702   0.756  17.297 -0.0233 -0.2059 -0.7148
   91TMC2    O5 1400   1.502   0.674  17.372 -0.3069  0.1520 -0.9606
   91TMC2    H5 1401   1.447   0.599  17.340 -0.6075  0.1343 -0.3886
   92MPD2     C 1402   1.844   0.206  16.906  0.4952 -0.2390 -0.2627
   92MPD2    C1 1403   1.852   0.342  16.892  0.3064  0.2899  0.3670
   92MPD2    C2 1404   1.967   0.391  16.834  0.1385  0.5027  0.0805
   92MPD2    C3 1405   2.063   0.315  16.771  0.5429 -0.0395 -0.2092
   92MPD2    C4 1406   2.046   0.175  16.780 -0.2629 -0.0618 -0.0381
   92MPD2    C5 1407   1.947   0.127  16.862  0.1173 -0.3214  0.1247
   92MPD2     H 1408   1.977   0.499  16.829  1.1700  0.2441 -3.5330
   92MPD2    H1 1409   2.117   0.114  16.725  1.8520  0.3709  2.1761
   92MPD2    H2 1410   1.772   0.155  16.969  0.5448 -1.0386 -0.8577
   92MPD2    H3 1411   1.922   0.022  16.872 -2.1708  0.2386  0.2405
   92MPD2     N 1412   2.161   0.376  16.690 -0.1172  0.8054  0.0032
   92MPD2    H5 1413   2.167   0.478  16.688 -0.6779  0.7971 -1.6780
   92MPD2    N1 1414   1.759   0.429  16.949  0.5892  0.2638  0.0747
   92MPD2    H7 1415   1.798   0.520  16.969  0.9751  0.1958 -0.3630
   93MPD2     C 1416   3.272   0.059  14.071 -0.0884 -0.2466  0.3252
   93MPD2    C1 1417   3.233   0.113  13.953  0.5502 -1.1357  0.2778
   93MPD2    C2 1418   3.100   0.154  13.929  0.1242 -0.3894  0.5964
   93MPD2    C3 1419   3.005   0.116  14.020  0.1067 -0.5505  0.7675
   93MPD2    C4 1420   3.044   0.045  14.132  0.4081  0.0214  0.2595
   93MPD2    C5 1421   3.177   0.025  14.161  1.0829 -0.3713  0.1763
   93MPD2     H 1422   3.066   0.197  13.836 -2.7677 -0.2045  1.7358
   93MPD2    H1 1423   2.968   0.013  14.203  0.2160  0.7085  0.3704
   93MPD2    H2 1424   3.375   0.036  14.097  0.1302 -0.9790 -1.2082
   93MPD2    H3 1425   3.214   4.698  14.249  0.2559 -0.9918  0.1640
   93MPD2     N 1426   2.864   0.134  14.003 -0.4077 -0.5194  0.3865
   93MPD2    H5 1427   2.795   0.104  14.071  0.1162 -1.5099  0.4742
   93MPD2    N1 1428   3.324   0.148  13.853 -0.2277 -0.1997  0.2169
   93MPD2    H7 1429   3.284   0.210  13.783  1.9886 -0.5427 -1.3516
   94TCq2    C1 1430   3.451   0.112  13.845  0.3798 -0.0875  0.1137
   94TCq2    O2 1431   3.516   0.048  13.926  0.0581  0.1232  0.3624
   94TCq2    C2 1432   3.525   0.187  13.751  0.7795 -0.0326 -1.0314
   94TCq2    C3 1433   3.461   0.255  13.652  0.1246 -0.2010  0.1544
   94TCq2    C4 1434   3.519   0.350  13.579 -0.5166  0.2400  0.3403
   94TCq2    C5 1435   3.642   0.394  13.622 -0.0545  0.3451  0.0274
   94TCq2    C6 1436   3.708   0.332  13.727 -0.4190 -0.5404  0.1275
   94TCq2    C7 1437   3.660   0.217  13.781 -0.1975 -0.0047 -0.3114
   94TCq2    C8 1438   3.834   0.383  13.791 -0.5327  0.0021  0.3352
   94TCq2    O4 1439   3.878   0.314  13.883  0.7530  0.4054  0.0755
   94TCq2    C9 1440   3.450   0.408  13.470 -0.2137 -0.1995 -0.3388
   94TCq2    O5 1441   3.514   0.472  13.385 -0.0101  0.1662  0.2998
   94TCq2    O6 1442   3.324   0.414  13.488 -0.3924 -0.1315 -0.3555
   94TCq2    H2 1443   3.364   0.219  13.620 -0.4449 -0.1698  1.8458
   94TCq2    H3 1444   3.685   0.478  13.569 -1.1441  0.6213 -0.4191
   94TCq2    H4 1445   3.702   0.179  13.873 -1.2609  1.3596  0.7542
   95TMC2    C1 1446   3.129   2.243  16.673  0.4201 -0.0778 -0.1715
   95TMC2    C2 1447   3.075   2.137  16.744 -0.2947 -0.4645  0.2403
   95TMC2    C3 1448   3.069   2.145  16.879 -0.0120 -0.5500 -0.4025
   95TMC2    C4 1449   3.184   2.348  16.738 -1.0722 -0.1824 -0.2913
   95TMC2    C5 1450   3.168   2.351  16.877  0.0468  0.1261  0.2932
   95TMC2    C6 1451   3.115   2.256  16.949  0.5344  0.7231  0.1896
   95TMC2     C 1452   3.127   2.254  16.528 -0.4819  0.6083 -0.1078
   95TMC2     O 1453   3.198   2.341  16.477 -0.4845 -0.7219 -0.2182
   95TMC2     H 1454   3.052   2.043  16.694 -1.2011  0.4357 -1.0353
   95TMC2    H1 1455   3.252   2.407  16.679 -0.0981 -0.5816  0.4390
   95TMC2    H2 1456   3.113   2.248  17.057 -2.1260  1.4213  0.1777
   95TMC2    C7 1457   3.131   2.479  16.927  0.4095  0.3987 -0.2967
   95TMC2    C8 1458   3.010   2.028  16.946  0.2239 -0.2761  0.4722
   95TMC2    O1 1459   3.068   2.483  17.034  0.0490  0.7367 -0.4417
   95TMC2    O2 1460   3.040   1.992  17.061 -0.5757 -0.1818  0.3538
   95TMC2    O5 1461   2.917   1.967  16.866  0.0430 -0.3453 -0.0320
   95TMC2    H5 1462   2.896   2.019  16.785  1.5700 -2.6603 -1.8885
   96MPD2     C 1463   3.008   2.089  16.060  0.2116 -0.1586  0.5135
   96MPD2    C1 1464   3.075   2.195  16.103 -0.3768 -0.5104 -0.1258
   96MPD2    C2 1465   3.085   2.215  16.239  0.1413  0.0697 -0.2492
   96MPD2    C3 1466   3.034   2.135  16.334  0.2962  0.2599 -0.1968
   96MPD2    C4 1467   2.983   2.020  16.289 -0.4319 -0.2858  0.4361
   96MPD2    C5 1468   2.966   2.001  16.158  0.1271  0.4719  0.3158
   96MPD2     H 1469   3.144   2.302  16.268 -0.1891  0.2353 -0.0674
   96MPD2    H1 1470   2.923   1.959  16.357  0.2789  0.2607  1.5568
   96MPD2    H2 1471   2.985   2.069  15.956  0.8605  2.5989 -0.1688
   96MPD2    H3 1472   2.912   1.910  16.134  0.6588  0.1731  0.2423
   96MPD2     N 1473   3.051   2.156  16.472  0.2873  0.5799  0.7527
   96MPD2    H5 1474   3.004   2.088  16.530  2.1461 -1.6520 -0.3845
   96MPD2    N1 1475   3.129   2.277  16.006 -0.5286 -0.0441 -0.1389
   96MPD2    H7 1476   3.113   2.232  15.917  1.1514 -1.7559  0.4302
   97MPD2     C 1477   4.590   4.587   0.740 -0.0265  0.0606 -0.2538
   97MPD2    C1 1478   4.698   4.674   0.743 -0.5462 -0.1090 -0.5968
   97MPD2    C2 1479   0.018   0.001   0.623  0.1098 -0.0147  0.0190
   97MPD2    C3 1480   4.691   4.680   0.503  0.4262 -0.1770 -0.0115
   97MPD2    C4 1481   4.588   4.596   0.505  0.7008  0.7504 -0.4279
   97MPD2    C5 1482   4.538   4.548   0.625  0.3672 -0.4387 -0.4163
   97MPD2     H 1483   0.099   0.073   0.618  1.2236 -1.1407  1.4499
   97MPD2    H1 1484   4.548   4.549   0.415 -0.8580  0.0627  0.6261
   97MPD2    H2 1485   4.549   4.552   0.834 -0.2181 -0.2849 -0.4678
   97MPD2    H3 1486   4.446   4.490   0.628 -0.3934  0.7788 -0.5091
   97MPD2     N 1487   0.023   4.722   0.378 -0.0051 -0.4211 -0.8469
   97MPD2    H5 1488   4.692   4.701   0.295 -2.5489 -0.5222  0.8350
   97MPD2    N1 1489   0.048   4.682   0.864  0.1989 -0.8833 -0.1143
   97MPD2    H7 1490   0.005   4.651   0.951  1.4277 -0.9973  0.4464
   98TCq2    C1 1491   0.156   0.055   0.368 -0.0627  0.5591  0.5267
   98TCq2    O2 1492   0.241   0.071   0.452  0.4388 -0.5679  0.3124
   98TCq2    C2 1493   0.190   0.099   0.232 -0.1042 -0.7725 -0.3194
   98TCq2    C3 1494   0.100   0.066   0.135  0.7027  0.5589 -0.2105
   98TCq2    C4 1495   0.114   0.116   0.009  0.6944 -0.4631 -0.1160
   98TCq2    C5 1496   0.190   0.229  17.688 -0.1486  0.2667 -0.3200
   98TCq2    C6 1497   0.272   0.269   0.096 -0.1633  0.9437 -0.1236
   98TCq2    C7 1498   0.281   0.199   0.214  0.8788  0.1352  0.0389
   98TCq2    C8 1499   0.345   0.392   0.091 -0.4786 -0.0784 -0.2341
   98TCq2    O4 1500   0.408   0.439   0.185  0.3588  0.3568  0.1543
   98TCq2    C9 1501   0.011   0.086  17.614  0.3050 -0.9042  0.3771
   98TCq2    O5 1502   0.042   0.101  17.490 -0.5591  0.7018 -0.2581
   98TCq2    O6 1503   4.630   0.030  17.659  0.0060  0.0972 -0.5930
   98TCq2    H2 1504   0.038   4.702   0.140  2.1253 -0.2689  3.0313
   98TCq2    H3 1505   0.188   0.281  17.594  0.3445  0.0078 -0.4721
   98TCq2    H4 1506   0.350   0.236   0.289  0.5508  1.0561 -0.1183
   99MPD2     C 1507   4.635   2.051   1.468 -0.5603 -0.9275  0.1644
   99MPD2    C1 1508   4.512   2.003   1.516 -0.9182  0.0740 -0.3172
   99MPD2    C2 1509   4.456   1.894   1.458  1.6715 -0.6862 -0.0473
   99MPD2    C3 1510   4.527   1.829   1.355  0.7495 -0.5548  0.2979
   99MPD2    C4 1511   4.646   1.879   1.313  0.2914 -0.6166 -0.3500
   99MPD2    C5 1512   4.701   1.995   1.360  0.2959 -0.4685 -0.6397
   99MPD2     H 1513   4.361   1.865   1.501  2.2977 -0.6860  1.3180
   99MPD2    H1 1514   4.710   1.828   1.243 -0.5385 -1.7739 -0.2631
   99MPD2    H2 1515   4.670   2.141   1.517  0.3027 -1.3396  0.3030
   99MPD2    H3 1516   0.063   2.040   1.312  0.1492 -0.9347 -1.3400
   99MPD2     N 1517   4.466   1.719   1.297  0.0315 -0.5397 -0.4664
   99MPD2    H5 1518   4.384   1.687   1.348  0.4576 -0.0299  0.5438
   99MPD2    N1 1519   4.437   2.069   1.614 -0.1013 -0.1160  0.0294
   99MPD2    H7 1520   4.374   2.013   1.670  0.1279 -1.7995 -1.4034
  100TCq2    C1 1521   4.464   2.193   1.664  0.1138 -0.1193 -0.3282
  100TCq2    O2 1522   4.516   2.285   1.602  0.1820  0.3753 -0.0169
  100TCq2    C2 1523   4.429   2.219   1.798 -0.2205 -0.5588 -0.4334
  100TCq2    C3 1524   4.485   2.332   1.861  0.1190 -0.0221 -0.7140
  100TCq2    C4 1525   4.423   2.379   1.976  0.1271 -0.2675  0.2865
  100TCq2    C5 1526   4.315   2.329   2.032  0.4067 -0.2689  0.5080
  100TCq2    C6 1527   4.263   2.217   1.967 -0.5651 -0.0916  0.1083
  100TCq2    C7 1528   4.304   2.177   1.841 -0.2942 -0.5013 -0.3025
  100TCq2    C8 1529   4.127   2.176   2.013  0.1281 -0.4392  0.9698
  100TCq2    O4 1530   4.071   2.243   2.100  0.2574 -0.4892 -0.3608
  100TCq2    C9 1531   4.481   2.494   2.041 -0.6877  0.1169 -0.4322
  100TCq2    O5 1532   4.431   2.534   2.147 -0.2229  0.4393  0.0802
  100TCq2    O6 1533   4.588   2.542   1.994 -0.5575  0.4064 -0.2834
  100TCq2    H2 1534   4.580   2.363   1.819  0.5397 -1.5666 -0.8797
  100TCq2    H3 1535   4.275   2.365   2.126  0.5930 -1.3958  1.0234
  100TCq2    H4 1536   4.251   2.109   1.774  0.1040 -0.4570 -0.6621
  101MPD2     C 1537   0.365   3.012  13.004 -0.6472 -0.4258  0.6650
  101MPD2    C1 1538   0.257   3.090  13.039 -1.0389  0.9348 -0.3171
  101MPD2    C2 1539   0.165   3.023  13.126  0.4168 -0.2905  1.0202
  101MPD2    C3 1540   0.185   2.892  13.171 -0.0739 -0.2763  0.7299
  101MPD2    C4 1541   0.300   2.830  13.140 -0.2126 -0.3652  0.3870
  101MPD2    C5 1542   0.391   2.888  13.057 -0.0940 -0.5318  0.5388
  101MPD2     H 1543   0.080   3.076  13.166 -0.7043 -0.4504 -1.1643
  101MPD2    H1 1544   0.321   2.728  13.169 -0.0584  0.2782  2.5698
  101MPD2    H2 1545   0.440   3.056  12.939  1.3943 -0.9659  2.6469
  101MPD2    H3 1546   0.482   2.845  13.015 -2.1596 -1.7211 -2.7475
  101MPD2     N 1547   0.078   2.844  13.246 -0.1031  0.3428  0.5205
  101MPD2    H5 1548   0.002   2.904  13.276 -0.5205  0.3820 -0.6117
  101MPD2    N1 1549   0.231   3.209  12.974  0.3828  0.2278 -0.1659
  101MPD2    H7 1550   0.301   3.234  12.905  1.7677 -0.2866  1.0498
  102TCq2    C1 1551   0.305   3.468  12.573 -0.4679  0.5745  0.0787
  102TCq2    O2 1552   0.417   3.481  12.619  0.5506  0.1063  0.2194
  102TCq2    C2 1553   0.197   3.464  12.669 -0.4096 -0.6269 -0.0552
  102TCq2    C3 1554   0.076   3.504  12.627  0.3146 -0.3745  0.6145
  102TCq2    C4 1555   4.694   3.476  12.704 -0.3421 -0.9735 -0.2854
  102TCq2    C5 1556   4.708   3.427  12.829  0.0667 -0.0469  0.5367
  102TCq2    C6 1557   0.110   3.390  12.869  0.3237 -0.2497 -0.7683
  102TCq2    C7 1558   0.219   3.419  12.791 -0.7404 -0.8818  0.0782
  102TCq2    C8 1559   0.114   3.293  12.980 -0.0919  0.0750 -0.0745
  102TCq2    O4 1560   0.032   3.289  13.067 -1.0739 -0.3158  1.0956
  102TCq2    C9 1561   4.571   3.509  12.641  0.5091  0.5797  0.8229
  102TCq2    O5 1562   4.468   3.460  12.692 -0.8408 -0.3422 -0.3451
  102TCq2    O6 1563   4.572   3.598  12.555 -0.8341  0.2377 -0.2577
  102TCq2    H2 1564   0.063   3.556  12.533 -0.0510  0.9838  1.4124
  102TCq2    H3 1565   4.626   3.412  12.898 -0.6767  0.6090 -0.2101
  102TCq2    H4 1566   0.323   3.393  12.810 -0.1641 -0.0773 -2.0501
  103TMC2    C1 1567   2.986   2.988  12.704 -1.0792  0.2476 -0.4338
  103TMC2    C2 1568   3.109   2.993  12.759  0.3324  0.1544  0.4468
  103TMC2    C3 1569   3.119   2.989  12.896 -0.1031  0.1901  0.5077
  103TMC2    C4 1570   2.874   2.988  12.781 -0.3201 -0.4686  0.1235
  103TMC2    C5 1571   2.892   2.989  12.918  0.1613  0.0679  0.2422
  103TMC2    C6 1572   3.018   2.997  12.984 -0.2013 -1.0226 -0.5177
  103TMC2     C 1573   2.965   2.969  12.562  0.0840  0.7041  0.0738
  103TMC2     O 1574   2.855   2.930  12.524  0.1848 -0.2750 -0.1027
  103TMC2     H 1575   3.194   2.975  12.695  0.3503  3.3987 -0.4901
  103TMC2    H1 1576   2.778   2.972  12.732 -0.4557  0.7523 -0.0081
  103TMC2    H2 1577   3.037   2.988  13.091 -0.4235 -0.9647 -0.4723
  103TMC2    C7 1578   2.780   3.017  13.015  0.1114 -0.0128 -0.2253
  103TMC2    C8 1579   3.236   2.924  12.941 -0.4005  0.7134 -0.5483
  103TMC2    O1 1580   2.810   3.036  13.133  0.2669 -0.3150 -0.1937
  103TMC2    O2 1581   3.300   2.843  12.876 -0.4089  0.6210 -0.2107
  103TMC2    O5 1582   3.289   3.005  13.036  0.3768  0.2928 -0.3093
  103TMC2    H5 1583   3.239   3.082  13.071 -0.4487 -0.3469 -0.1016
  104MPD2     C 1584   3.160   3.137  12.299  0.3828 -0.3643  0.8076
  104MPD2    C1 1585   3.069   3.038  12.351 -0.0426  0.0600  0.1053
  104MPD2    C2 1586   2.983   2.974  12.265 -0.0331 -0.3517 -0.0634
  104MPD2    C3 1587   2.987   3.004  12.127 -0.3714  0.2988  0.0996
  104MPD2    C4 1588   3.069   3.103  12.081 -0.2620 -0.7540 -0.1109
  104MPD2    C5 1589   3.148   3.172  12.169 -0.3919  0.1703 -0.2836
  104MPD2     H 1590   2.918   2.899  12.307 -0.8863 -0.2568 -1.2066
  104MPD2    H1 1591   3.078   3.133  11.977 -1.9495  1.5085  0.3902
  104MPD2    H2 1592   3.220   3.192  12.370  0.6522  1.6581 -0.9786
  104MPD2    H3 1593   3.217   3.249  12.138 -0.4061 -0.4469 -1.8443
  104MPD2     N 1594   2.909   2.930  12.036  0.4916  0.5744  0.1636
  104MPD2    H5 1595   2.872   2.839  12.061  1.0595  0.9706  2.4268
  104MPD2    N1 1596   3.068   3.028  12.491 -1.0291  0.2678  0.0532
  104MPD2    H7 1597   3.142   3.073  12.544 -0.4738 -0.9239  0.2868
  105MPD2     C 1598   4.701   2.274  17.666 -0.5038 -0.8554  0.1578
  105MPD2    C1 1599   4.600   2.364  17.659 -0.2174  0.7098  0.5979
  105MPD2    C2 1600   4.542   2.394   0.083 -0.3093  0.5412  0.3553
  105MPD2    C3 1601   4.574   2.340   0.208  0.3933  0.0233 -0.6356
  105MPD2    C4 1602   4.673   2.245   0.209 -0.3606 -0.5603 -0.5560
  105MPD2    C5 1603   0.021   2.219   0.092 -0.3628  0.1894 -0.0403
  105MPD2     H 1604   4.459   2.463   0.079 -0.5539  0.1871 -0.6769
  105MPD2    H1 1605   4.708   2.188   0.294 -0.7035  1.5093  0.9746
  105MPD2    H2 1606   0.026   2.240  17.575  1.6997 -0.6298  1.2407
  105MPD2    H3 1607   0.097   2.143   0.084  0.4929  0.8135  2.1688
  105MPD2     N 1608   4.492   2.364   0.317  0.4397 -0.2989 -0.0144
  105MPD2    H5 1609   4.415   2.429   0.304 -0.6003 -2.0133 -2.2781
  105MPD2    N1 1610   4.547   2.415  17.538 -0.0962  0.4438 -0.6198
  105MPD2    H7 1611   4.464   2.474  17.543 -0.9644 -0.9442  1.5116
  106TCq2    C1 1612   4.501   2.301   0.436  0.1623  0.8778 -0.6109
  106TCq2    O2 1613   4.572   2.212   0.474  0.0574  0.0493 -0.8640
  106TCq2    C2 1614   4.391   2.344   0.525  0.7370  0.7496  0.2547
  106TCq2    C3 1615   4.334   2.471   0.505 -0.3841 -0.2343  0.3228
  106TCq2    C4 1616   4.236   2.518   0.592  0.9509  0.2904 -0.0193
  106TCq2    C5 1617   4.200   2.427   0.695 -0.4846  0.5303 -0.1027
  106TCq2    C6 1618   4.259   2.311   0.706 -0.3224 -0.1566 -0.9191
  106TCq2    C7 1619   4.357   2.261   0.625  0.0354  0.6103  0.5157
  106TCq2    C8 1620   4.209   2.210   0.803 -0.3527 -0.2018  0.5908
  106TCq2    O4 1621   4.227   2.089   0.788  0.1000  0.4101 -0.0503
  106TCq2    C9 1622   4.190   2.653   0.595  0.1837 -0.1270 -0.2438
  106TCq2    O5 1623   4.193   2.712   0.485  0.5229 -0.1035  0.0659
  106TCq2    O6 1624   4.161   2.705   0.706 -0.5239  0.5290  0.6861
  106TCq2    H2 1625   4.372   2.547   0.438 -0.1712 -0.5684  0.0656
  106TCq2    H3 1626   4.133   2.471   0.768  1.5087  1.3046  1.2562
  106TCq2    H4 1627   4.393   2.159   0.627 -0.1019  0.5120 -2.3389
  107TMC2    C1 1628   0.642   1.140  11.631 -0.8242  0.0624 -0.6160
  107TMC2    C2 1629   0.749   1.058  11.626 -0.8306  0.3153 -0.1272
  107TMC2    C3 1630   0.822   1.051  11.513  0.4051 -0.6700  0.7404
  107TMC2    C4 1631   0.587   1.201  11.527  0.5701 -0.0815  0.1357
  107TMC2    C5 1632   0.671   1.201  11.412  0.1105 -0.4099 -0.2222
  107TMC2    C6 1633   0.787   1.123  11.404 -0.5268 -0.6250 -0.1872
  107TMC2     C 1634   0.600   1.181  11.769 -0.6384 -0.4331 -0.4618
  107TMC2     O 1635   0.486   1.220  11.778  0.4068  0.3141  0.4158
  107TMC2     H 1636   0.766   0.984  11.703 -4.6301  0.8622  1.2312
  107TMC2    H1 1637   0.494   1.256  11.529  0.0795 -0.8745 -1.0282
  107TMC2    H2 1638   0.850   1.127  11.316  1.2591  0.4658  1.1459
  107TMC2    C7 1639   0.596   1.228  11.288  0.0971  0.1215 -0.4143
  107TMC2    C8 1640   0.927   0.952  11.512 -0.4191  0.1039 -0.7155
  107TMC2    O1 1641   0.523   1.326  11.274 -0.5634  0.2186  0.1941
  107TMC2    O2 1642   1.008   0.936  11.599 -0.5841  0.4361 -0.0074
  107TMC2    O5 1643   0.925   0.884  11.394 -0.1387 -0.0207 -0.0892
  107TMC2    H5 1644   0.841   0.897  11.345 -0.0506 -0.0881 -0.2616
  108MPD2     C 1645   0.772   1.256  12.086 -0.2921  0.4395 -0.4419
  108MPD2    C1 1646   0.673   1.217  12.001  0.3135  0.1896 -0.2948
  108MPD2    C2 1647   0.550   1.188  12.060  0.0129  0.4480 -0.2264
  108MPD2    C3 1648   0.530   1.192  12.194 -0.0594 -0.3261 -0.1510
  108MPD2    C4 1649   0.628   1.239  12.275  0.2122 -0.8292 -0.1175
  108MPD2    C5 1650   0.749   1.269  12.219 -0.2249  0.7660 -0.8070
  108MPD2     H 1651   0.474   1.145  11.996 -1.1992 -0.9550  2.1538
  108MPD2    H1 1652   0.630   1.236  12.383  1.5865 -2.0761 -0.1766
  108MPD2    H2 1653   0.873   1.272  12.049  0.1617 -1.7855 -0.1429
  108MPD2    H3 1654   0.831   1.297  12.284 -0.3379 -1.9141  0.5171
  108MPD2     N 1655   0.408   1.151  12.256 -0.5056 -0.2454 -0.1264
  108MPD2    H5 1656   0.402   1.154  12.357  0.1960 -0.2709 -0.0837
  108MPD2    N1 1657   0.701   1.185  11.866  0.3511  0.1067 -0.0608
  108MPD2    H7 1658   0.798   1.192  11.837  0.0620 -0.2920 -1.1115
  109MPD2     C 1659   4.288   3.691   2.089 -0.1377 -0.1963  0.5981
  109MPD2    C1 1660   4.322   3.741   1.966 -0.5994 -0.2671  0.1505
  109MPD2    C2 1661   4.420   3.835   1.957  0.4811 -0.4301  0.6660
  109MPD2    C3 1662   4.492   3.871   2.070 -0.9013 -0.0493  0.2789
  109MPD2    C4 1663   4.461   3.815   2.187  0.2092 -0.0163  0.5660
  109MPD2    C5 1664   4.363   3.721   2.197  0.1457 -0.1021 -0.4134
  109MPD2     H 1665   4.440   3.871   1.856  1.5556  0.5600  1.2281
  109MPD2    H1 1666   4.514   3.833   2.280 -0.3731 -0.0157  0.8956
  109MPD2    H2 1667   4.209   3.616   2.092  1.5690 -1.9891  0.7998
  109MPD2    H3 1668   4.327   3.690   2.294  2.0819  0.6166  0.5225
  109MPD2     N 1669   4.600   3.966   2.053 -0.7147 -0.1786 -0.0178
  109MPD2    H5 1670   4.617   3.994   1.957  0.5885 -0.0945  0.2332
  109MPD2    N1 1671   4.243   3.709   1.854 -0.6546  0.3681 -0.0259
  109MPD2    H7 1672   4.155   3.661   1.871 -0.7473  0.3624 -0.5154
  110TCq2    C1 1673   4.699   3.997   2.145 -0.2795 -0.4503  0.3323
  110TCq2    O2 1674   4.722   3.941   2.250  0.0904  0.1667 -0.0425
  110TCq2    C2 1675   0.077   4.075   2.078 -0.0948  0.0121 -1.0968
  110TCq2    C3 1676   0.207   4.061   2.119 -0.8569 -0.5266  0.2936
  110TCq2    C4 1677   0.304   4.130   2.052 -0.1749 -0.2400  0.0734
  110TCq2    C5 1678   0.269   4.214   1.950  0.2794  0.0664  0.1077
  110TCq2    C6 1679   0.138   4.225   1.922 -0.0365 -0.3995  0.2167
  110TCq2    C7 1680   0.033   4.159   1.982  0.3134  0.6508 -1.4088
  110TCq2    C8 1681   0.110   4.309   1.804 -0.4706 -1.0081 -0.0611
  110TCq2    O4 1682   0.210   4.367   1.760 -0.0498  0.5010 -0.5335
  110TCq2    C9 1683   0.446   4.104   2.076  0.1158 -0.0991 -0.0496
  110TCq2    O5 1684   0.520   4.158   1.993  0.1615 -0.4041  0.0788
  110TCq2    O6 1685   0.482   4.025   2.167 -0.2789 -1.0916  0.8542
  110TCq2    H2 1686   0.239   4.009   2.209  0.1447 -3.5782 -1.8454
  110TCq2    H3 1687   0.345   4.277   1.905 -0.3012 -1.3451 -2.8289
  110TCq2    H4 1688   4.654   4.189   1.969 -0.3050 -0.6559  0.3995
  111TMC2    C1 1689   1.126   3.472  11.217  0.1751  0.2230  0.3651
  111TMC2    C2 1690   1.205   3.403  11.133  1.0080 -0.8197 -0.5728
  111TMC2    C3 1691   1.295   3.316  11.181  0.3399  0.1741 -0.1333
  111TMC2    C4 1692   1.138   3.466  11.352 -0.3152  0.0827  0.1553
  111TMC2    C5 1693   1.239   3.386  11.397  0.0691 -0.4668 -0.0013
  111TMC2    C6 1694   1.318   3.310  11.315 -0.5720 -0.0071 -1.1422
  111TMC2     C 1695   1.050   3.588  11.162 -0.2943  0.9802 -0.1314
  111TMC2     O 1696   1.014   3.581  11.041  0.1128  0.0263  0.1848
  111TMC2     H 1697   1.185   3.407  11.027 -1.3463 -1.0911 -0.1290
  111TMC2    H1 1698   1.072   3.521  11.418  0.7350  0.6599  0.7256
  111TMC2    H2 1699   1.389   3.238  11.354  0.1977  2.3068  1.7683
  111TMC2    C7 1700   1.243   3.363  11.536 -0.2713  0.0999 -0.0352
  111TMC2    C8 1701   1.392   3.254  11.090 -0.0626  1.0983 -0.4759
  111TMC2    O1 1702   1.137   3.381  11.594 -0.2944  0.2736  0.2510
  111TMC2    O2 1703   1.511   3.255  11.108  0.0505  0.3243  0.2141
  111TMC2    O5 1704   1.326   3.210  10.985  0.3135  0.0162 -0.1515
  111TMC2    H5 1705   1.229   3.204  11.000  0.5374  0.9215  1.6347
  112MPD2     C 1706   0.789   4.027  11.241 -0.1098 -0.1481 -0.2703
  112MPD2    C1 1707   0.759   3.921  11.153  0.1957 -0.1058  0.9691
  112MPD2    C2 1708   0.850   3.818  11.146 -0.7335  0.3714 -0.2664
  112MPD2    C3 1709   0.957   3.807  11.232 -0.3763  0.7513  0.4495
  112MPD2    C4 1710   0.974   3.906  11.322 -0.0616  0.1989  0.0225
  112MPD2    C5 1711   0.898   4.023  11.322  0.8415 -0.4030  0.1203
  112MPD2     H 1712   0.827   3.730  11.087  0.1102  0.0450 -0.1145
  112MPD2    H1 1713   1.058   3.901  11.391 -1.9755  1.4784  2.4295
  112MPD2    H2 1714   0.731   4.118  11.249  0.9029  0.6158 -1.5947
  112MPD2    H3 1715   0.916   4.106  11.388  1.5609 -1.3270  1.0894
  112MPD2     N 1716   1.039   3.692  11.250 -0.2072 -0.1299  0.2281
  112MPD2    H5 1717   1.098   3.691  11.332 -1.5857  1.6718  1.2439
  112MPD2    N1 1718   0.644   3.918  11.071  0.1492  0.5165 -0.2483
  112MPD2    H7 1719   0.635   3.838  11.010 -2.6341  1.6166 -1.2951
  113MPD2     C 1720   3.544   1.781   1.414  0.0521  0.1193  0.4020
  113MPD2    C1 1721   3.420   1.753   1.371 -0.3708  0.0561  0.5103
  113MPD2    C2 1722   3.393   1.672   1.258 -0.0828  0.3686  0.5499
  113MPD2    C3 1723   3.507   1.617   1.195 -0.6433 -0.0832 -0.6033
  113MPD2    C4 1724   3.635   1.643   1.246  0.2455  0.4301 -0.1839
  113MPD2    C5 1725   3.656   1.724   1.351  0.1706  0.0500 -0.0667
  113MPD2     H 1726   3.296   1.635   1.227 -0.9412  1.4487  1.9693
  113MPD2    H1 1727   3.725   1.612   1.195  1.3346  2.0706  0.7476
  113MPD2    H2 1728   3.572   1.852   1.491 -0.0823  0.1533  0.4209
  113MPD2    H3 1729   3.754   1.761   1.376 -0.7761  2.1347  0.5667
  113MPD2     N 1730   3.500   1.533   1.078 -0.4847  0.0853 -0.0325
  113MPD2    H5 1731   3.586   1.491   1.043 -1.0601 -0.1451 -1.1742
  113MPD2    N1 1732   3.303   1.809   1.429  0.3745  0.2195 -0.5811
  113MPD2    H7 1733   3.216   1.805   1.377 -1.0765  2.0848  1.6951
  114TCq2    C1 1734   3.384   1.507   1.011 -0.3375  0.3064 -0.7128
  114TCq2    O2 1735   3.270   1.540   1.037  0.3348 -0.1676 -0.5701
  114TCq2    C2 1736   3.393   1.416   0.898  0.9730  0.3256  0.4454
  114TCq2    C3 1737   3.481   1.306   0.893 -0.6620 -0.5348 -0.7171
  114TCq2    C4 1738   3.463   1.201   0.809  0.0564  0.7702 -0.2609
  114TCq2    C5 1739   3.355   1.185   0.733 -0.2151 -0.2175  0.0275
  114TCq2    C6 1740   3.254   1.277   0.748 -0.7127  1.4983 -0.5748
  114TCq2    C7 1741   3.275   1.392   0.824  0.1224  0.1224 -0.1194
  114TCq2    C8 1742   3.117   1.230   0.746  0.6024 -0.2502 -0.0181
  114TCq2    O4 1743   3.081   1.181   0.640  0.1322 -0.1581 -0.5704
  114TCq2    C9 1744   3.568   1.101   0.807 -1.2170  0.2764  0.5093
  114TCq2    O5 1745   3.556   1.007   0.728  1.1300 -0.1519 -0.1349
  114TCq2    O6 1746   3.650   1.104   0.903  0.1539  0.0672 -0.1017
  114TCq2    H2 1747   3.559   1.290   0.966 -0.6012 -3.6367 -1.4169
  114TCq2    H3 1748   3.323   1.093   0.687  1.7116 -0.9321  0.1175
  114TCq2    H4 1749   3.185   1.452   0.829 -0.2933 -0.6386  1.4768
  115TMC2    C1 1750   3.821   4.344  17.671  0.1328 -0.0606 -0.0848
  115TMC2    C2 1751   3.926   4.288  17.603  0.1513 -0.2886 -0.0395
  115TMC2    C3 1752   4.004   4.371  17.525 -0.1536  0.8977  0.3068
  115TMC2    C4 1753   3.786   4.469  17.660  0.1739 -0.0826 -0.6925
  115TMC2    C5 1754   3.865   4.547  17.580  0.0064 -0.5711 -0.6590
  115TMC2    C6 1755   3.972   4.502  17.503 -0.2528  0.5839 -0.4181
  115TMC2     C 1756   3.736   4.248   0.041 -0.3282  0.5961  0.8924
  115TMC2     O 1757   3.736   4.133   0.004  0.2219  0.7354  0.3401
  115TMC2     H 1758   3.960   4.191  17.637  1.1103 -0.1947 -0.7159
  115TMC2    H1 1759   3.702   4.506   0.022  1.0206  0.6086  0.0772
  115TMC2    H2 1760   4.045   4.564  17.453  1.1400 -0.6994  0.0325
  115TMC2    C7 1761   3.840   4.687  17.607 -0.3579  0.0815  0.0550
  115TMC2    C8 1762   4.139   4.333  17.476 -0.5935 -0.0427 -0.3058
  115TMC2    O1 1763   3.738   4.702  17.675  0.3691  0.0488 -0.1203
  115TMC2    O2 1764   4.243   4.402  17.476 -0.1216  0.5117  1.0841
  115TMC2    O5 1765   4.129   4.205  17.428 -0.3206  0.2543  0.2398
  115TMC2    H5 1766   4.034   4.187  17.410 -0.1662  0.4367 -0.7378
  116MPD2     C 1767   3.370   4.117   0.381 -0.0533  0.7163 -0.2839
  116MPD2    C1 1768   3.448   4.039   0.302  0.2792 -0.4151 -0.9500
  116MPD2    C2 1769   3.552   4.097   0.226 -0.8256  0.4002  0.2939
  116MPD2    C3 1770   3.569   4.232   0.227  0.1678 -0.2118 -0.5931
  116MPD2    C4 1771   3.502   4.311   0.325 -0.5695  0.2266  0.0180
  116MPD2    C5 1772   3.404   4.248   0.400 -0.8856 -0.2962  0.6236
  116MPD2     H 1773   3.616   4.036   0.162  0.3861  1.0721  0.8682
  116MPD2    H1 1774   3.535   4.413   0.341 -1.0687  0.0998  1.8716
  116MPD2    H2 1775   3.288   4.066   0.432 -0.6573  1.3363 -0.6348
  116MPD2    H3 1776   3.349   4.306   0.474  0.3292  1.2508  0.3134
  116MPD2     N 1777   3.660   4.306   0.140  0.6587  0.1359 -0.6129
  116MPD2    H5 1778   3.671   4.406   0.155 -0.6608  0.4653 -1.8540
  116MPD2    N1 1779   3.402   3.900   0.278  0.0539  0.3086 -0.2018
  116MPD2    H7 1780   3.306   3.884   0.306  1.4937 -2.3468  3.1793
  117TMC2    C1 1781   1.999   0.888  14.093  0.3049  0.4712 -0.3294
  117TMC2    C2 1782   2.048   0.795  14.179  0.7467  0.5488 -0.9242
  117TMC2    C3 1783   2.180   0.800  14.198  0.6505  0.2041  0.3685
  117TMC2    C4 1784   2.077   0.969  14.015  0.4355  0.0657  0.2453
  117TMC2    C5 1785   2.211   0.973  14.037  0.4882 -0.0907 -0.1944
  117TMC2    C6 1786   2.268   0.892  14.134  0.3566 -0.3937  0.0945
  117TMC2     C 1787   1.854   0.890  14.067  0.5762  0.3061 -0.7937
  117TMC2     O 1788   1.786   0.790  14.069 -0.1547  0.1580  0.2744
  117TMC2     H 1789   1.988   0.733  14.244  0.3442  0.2066 -1.6147
  117TMC2    H1 1790   2.043   1.006  13.919  2.0533  3.0497  0.8358
  117TMC2    H2 1791   2.372   0.904  14.161  1.0003 -1.5505 -1.9254
  117TMC2    C7 1792   2.290   1.077  13.983 -0.2749 -0.3277  0.1387
  117TMC2    C8 1793   2.251   0.694  14.269 -0.0018  0.6293  0.1298
  117TMC2    O1 1794   2.410   1.066  13.994 -0.0821 -0.2525 -0.3020
  117TMC2    O2 1795   2.365   0.714  14.305  0.6025 -0.1682 -0.0220
  117TMC2    O5 1796   2.216   0.573  14.205  0.3705 -0.4609  0.0368
  117TMC2    H5 1797   2.124   0.571  14.172  0.0131 -0.7060  1.0389
  118MPD2     C 1798   2.164   1.373  13.816  0.3891  0.0245 -0.3609
  118MPD2    C1 1799   2.258   1.279  13.861  0.1500  0.7725  0.3378
  118MPD2    C2 1800   2.383   1.298  13.822 -0.3972 -1.0823  0.0841
  118MPD2    C3 1801   2.424   1.404  13.745  0.2229  0.5264 -0.3257
  118MPD2    C4 1802   2.329   1.490  13.699 -0.1073  0.1866  0.3235
  118MPD2    C5 1803   2.196   1.481  13.737 -0.1400 -0.1022  0.7377
  118MPD2     H 1804   2.462   1.229  13.850  0.4854 -0.1787 -0.1567
  118MPD2    H1 1805   2.368   1.581  13.655 -2.2626  1.6967  1.5450
  118MPD2    H2 1806   2.062   1.373  13.853  0.0446 -4.5010 -1.2403
  118MPD2    H3 1807   2.126   1.558  13.708  0.7391  0.8855  1.2163
  118MPD2     N 1808   2.554   1.439  13.703  0.4332  0.0057 -0.1682
  118MPD2    H5 1809   2.563   1.525  13.650  0.7032  0.7385  1.0808
  118MPD2    N1 1810   2.211   1.175  13.933  0.9492  0.1121  0.3532
  118MPD2    H7 1811   2.112   1.179  13.953  0.4873  0.7040 -2.0484
  119MPD2     C 1812   1.499   2.554  13.958 -0.3476  0.6288 -0.1297
  119MPD2    C1 1813   1.365   2.555  13.937 -0.2603  0.0970 -0.9529
  119MPD2    C2 1814   1.306   2.572  13.811 -0.0346  0.3834 -0.0294
  119MPD2    C3 1815   1.387   2.567  13.703 -0.6230  0.5351 -0.2697
  119MPD2    C4 1816   1.523   2.566  13.721  0.2152  0.5397  0.3302
  119MPD2    C5 1817   1.579   2.564  13.846  0.2988 -0.0999  0.8382
  119MPD2     H 1818   1.201   2.597  13.801 -0.2044 -0.8775 -1.3862
  119MPD2    H1 1819   1.595   2.561  13.640 -1.7123  0.9729 -1.4078
  119MPD2    H2 1820   1.537   2.548  14.059 -0.5780  0.0572 -0.0756
  119MPD2    H3 1821   1.683   2.587  13.866  0.9413 -0.7731 -1.8487
  119MPD2     N 1822   1.337   2.538  13.573  0.1907 -0.1098  0.2058
  119MPD2    H5 1823   1.409   2.525  13.503 -1.7229 -0.8367 -1.6203
  119MPD2    N1 1824   1.279   2.567  14.052  0.5147  0.1904  0.5885
  119MPD2    H7 1825   1.332   2.609  14.128  0.5901  1.2562 -0.0413
  120TCq2    C1 1826   1.207   2.506  13.556 -0.3283  0.6161  0.5434
  120TCq2    O2 1827   1.112   2.496  13.632  0.0797 -0.2187 -0.6594
  120TCq2    C2 1828   1.166   2.447  13.426  0.5415 -0.3281 -0.5121
  120TCq2    C3 1829   1.239   2.453  13.316 -0.3917  0.4544  0.0886
  120TCq2    C4 1830   1.197   2.376  13.209 -0.1973  0.7146  0.9840
  120TCq2    C5 1831   1.078   2.304  13.199 -0.4274 -0.3237 -0.1009
  120TCq2    C6 1832   1.004   2.303  13.316 -0.2202  0.5599 -0.8291
  120TCq2    C7 1833   1.051   2.365  13.427 -0.0222  0.4443  0.3605
  120TCq2    C8 1834   0.871   2.245  13.324 -0.0643 -0.3219 -1.2529
  120TCq2    O4 1835   0.807   2.280  13.423  0.6235  0.2962 -0.2122
  120TCq2    C9 1836   1.280   2.379  13.093  0.3365  0.1335  0.6788
  120TCq2    O5 1837   1.359   2.475  13.074  0.3954 -0.1140  0.9376
  120TCq2    O6 1838   1.258   2.296  13.001  0.1832 -0.0954  0.5331
  120TCq2    H2 1839   1.317   2.526  13.297 -0.9105  1.1761  0.7050
  120TCq2    H3 1840   1.049   2.249  13.111 -1.7487 -0.4464  0.4164
  120TCq2    H4 1841   0.992   2.344  13.516  0.4456  1.7015  0.9732
  121TMC2    C1 1842   2.415   3.737  14.296 -0.8977  0.4241  0.2309
  121TMC2    C2 1843   2.347   3.689  14.399  0.3919 -0.0945  0.5126
  121TMC2    C3 1844   2.211   3.696  14.405 -0.2323  0.3199 -0.8010
  121TMC2    C4 1845   2.348   3.768  14.181  0.8499 -0.5449  0.4044
  121TMC2    C5 1846   2.210   3.772  14.192  0.4167  0.1035 -0.2659
  121TMC2    C6 1847   2.132   3.736  14.304 -0.3084  0.4260  0.1625
  121TMC2     C 1848   2.550   3.690  14.281 -0.0921 -0.6366 -0.2369
  121TMC2     O 1849   2.585   3.600  14.355  0.2941 -0.1074 -0.4297
  121TMC2     H 1850   2.398   3.647  14.485  0.6662 -0.5456  0.1294
  121TMC2    H1 1851   2.396   3.787  14.086 -2.5212  0.4247 -1.1037
  121TMC2    H2 1852   2.024   3.736  14.309 -0.3699  1.2520 -1.1611
  121TMC2    C7 1853   2.140   3.818  14.076  0.2898 -0.0722 -0.4635
  121TMC2    C8 1854   2.134   3.648  14.523 -0.3362 -0.6688 -0.5932
  121TMC2    O1 1855   2.201   3.875  13.986  0.5742 -0.0851 -0.2028
  121TMC2    O2 1856   2.023   3.609  14.511 -0.1807  0.0687 -0.1718
  121TMC2    O5 1857   2.208   3.646  14.637 -0.0433 -0.6312 -0.3125
  121TMC2    H5 1858   2.282   3.710  14.628  0.5894 -1.3774 -0.3787
  122MPD2     C 1859   2.845   3.677  14.254 -0.6731 -0.0439 -1.3808
  122MPD2    C1 1860   2.766   3.777  14.199  0.5759  0.2765 -0.4900
  122MPD2    C2 1861   2.826   3.877  14.135  0.3170 -0.1355  0.2092
  122MPD2    C3 1862   2.962   3.888  14.113 -0.0269  0.0001  0.0389
  122MPD2    C4 1863   3.036   3.785  14.160 -0.4094  0.2161 -0.7703
  122MPD2    C5 1864   2.977   3.689  14.240  0.5026  0.3079 -0.3968
  122MPD2     H 1865   2.758   3.951  14.094  1.2308 -0.4874 -1.9090
  122MPD2    H1 1866   3.144   3.780  14.151 -0.1641 -0.4031  2.4703
  122MPD2    H2 1867   2.807   3.588  14.302 -0.6189  1.5958  1.6771
  122MPD2    H3 1868   3.044   3.618  14.288  0.1351 -0.7916 -1.4929
  122MPD2     N 1869   3.018   3.983  14.019  0.8030  0.4941 -0.1215
  122MPD2    H5 1870   3.113   3.958  13.993  0.9770 -0.1104  1.1127
  122MPD2    N1 1871   2.627   3.785  14.215  0.0591 -0.3834  0.1612
  122MPD2    H7 1872   2.580   3.866  14.178 -0.2080 -0.9718 -0.7855
  123MPD2     C 1873   0.756   1.538  10.216 -0.0637  0.2876  0.4453
  123MPD2    C1 1874   0.706   1.647  10.155 -0.2530 -0.7046  0.3707
  123MPD2    C2 1875   0.782   1.764  10.153  0.2635 -0.3846  1.1843
  123MPD2    C3 1876   0.912   1.757  10.197  0.6077 -1.2053  0.2092
  123MPD2    C4 1877   0.969   1.649  10.262  0.1723 -0.2806  0.6486
  123MPD2    C5 1878   0.883   1.540  10.265  0.1491  0.2304 -0.1841
  123MPD2     H 1879   0.739   1.857  10.117 -0.0196 -0.7431  0.5922
  123MPD2    H1 1880   1.059   1.649  10.324 -0.5639  2.7075  1.6979
  123MPD2    H2 1881   0.683   1.459  10.223 -0.9961  1.0639 -0.6062
  123MPD2    H3 1882   0.907   1.455  10.327  1.1490 -0.5111 -1.5973
  123MPD2     N 1883   0.980   1.879  10.181  0.3024 -0.7230 -0.1632
  123MPD2    H5 1884   0.925   1.952  10.137 -0.0477 -1.5552 -1.1188
  123MPD2    N1 1885   0.577   1.634  10.088 -0.5924 -0.7361 -0.4827
  123MPD2    H7 1886   0.520   1.550  10.101 -1.5211 -0.1318 -0.6150
  124TCq2    C1 1887   1.114   1.899  10.211  0.1244 -0.0470  0.3668
  124TCq2    O2 1888   1.196   1.817  10.251  0.4651  0.0000  0.5668
  124TCq2    C2 1889   1.158   2.034  10.185  0.2068 -0.0341  0.1270
  124TCq2    C3 1890   1.294   2.045  10.172 -0.1954 -0.5654 -0.2517
  124TCq2    C4 1891   1.351   2.161  10.118  0.2366 -1.1733 -0.6502
  124TCq2    C5 1892   1.268   2.259  10.073  0.8336  0.1113  0.4814
  124TCq2    C6 1893   1.134   2.242  10.094  0.3010  0.1640 -0.8856
  124TCq2    C7 1894   1.068   2.134  10.145  0.1215 -0.2505 -0.1127
  124TCq2    C8 1895   1.060   2.359  10.043  0.0265  0.3463  0.0097
  124TCq2    O4 1896   1.118   2.469  10.057 -0.0009  0.5636  0.2914
  124TCq2    C9 1897   1.495   2.170  10.099  0.0508  0.0140  0.2828
  124TCq2    O5 1898   1.564   2.091  10.167 -0.4516  0.8072 -0.6898
  124TCq2    O6 1899   1.531   2.253  10.016  0.1707 -0.0832  0.0904
  124TCq2    H2 1900   1.359   1.965  10.206  0.9359 -0.1792 -1.4998
  124TCq2    H3 1901   1.310   2.345  10.020 -2.0740  1.6557  0.6465
  124TCq2    H4 1902   0.964   2.146  10.171 -0.0807 -2.6831  0.1455
  125TMC2    C1 1903   1.970   4.643   9.211  0.0603 -0.8703  0.1952
  125TMC2    C2 1904   1.967   0.054   9.227  0.0601  0.2624  0.6340
  125TMC2    C3 1905   2.057   0.136   9.158  0.2743  0.2779  0.2305
  125TMC2    C4 1906   2.054   4.579   9.118  0.7749 -0.1481 -0.9922
  125TMC2    C5 1907   2.138   4.667   9.050  0.6210 -1.1966  0.2584
  125TMC2    C6 1908   2.152   0.078   9.072  0.3947 -0.2334 -0.0951
  125TMC2     C 1909   1.863   4.561   9.270  0.0364  0.0048 -0.0466
  125TMC2     O 1910   1.840   4.450   9.221 -0.3617 -0.1154 -0.3414
  125TMC2     H 1911   1.897   0.105   9.293 -0.0486 -2.2922  2.4951
  125TMC2    H1 1912   2.043   4.475   9.087  1.6519  0.2752 -2.6697
  125TMC2    H2 1913   2.224   0.136   9.015  0.9371 -0.7964  0.0246
  125TMC2    C7 1914   2.225   4.611   8.949  0.9553  0.0951 -1.1984
  125TMC2    C8 1915   2.083   0.256   9.229 -0.6259  0.2587  0.3271
  125TMC2    O1 1916   2.263   4.694   8.869 -0.2071 -0.4584 -0.2463
  125TMC2    O2 1917   2.015   0.285   9.328  0.5425 -0.5233  0.5137
  125TMC2    O5 1918   2.170   0.341   9.167  0.1701 -0.0946  0.0227
  125TMC2    H5 1919   2.173   0.319   9.072 -1.0002 -0.4738  0.0690
  126MPD1     C 1920   1.579   4.382   9.662 -0.1487 -0.0648 -0.1847
  126MPD1    C1 1921   1.661   4.487   9.706  0.2141 -0.0543  0.0663
  126MPD1    C2 1922   1.731   4.567   9.614 -0.3312  0.5982  0.2739
  126MPD1    C3 1923   1.735   4.539   9.479 -0.4967  0.7003 -0.1504
  126MPD1    C4 1924   1.655   4.439   9.433  0.4425  0.1240 -0.1110
  126MPD1    C5 1925   1.573   4.369   9.523  0.0853 -0.8046  0.1781
  126MPD1     H 1926   1.801   4.641   9.652  0.0428 -0.1717  1.0787
  126MPD1    H1 1927   1.648   4.417   9.327 -1.5811  0.2931 -0.0228
  126MPD1    H2 1928   1.511   4.324   9.724  0.7413 -0.6161  0.2814
  126MPD1    H3 1929   1.505   4.295   9.482 -1.0174 -0.2946  1.0925
  126MPD1     N 1930   1.822   4.611   9.391  0.1900 -0.9922 -0.1071
  126MPD1    H5 1931   1.867   4.691   9.434 -2.1923  0.7628 -0.8749
  126MPD1    N1 1932   1.656   4.516   9.837 -0.2875  0.0257  0.0032
  126MPD1    H6 1933   1.727   4.577   9.875 -1.7791  1.0990  1.0802
  126MPD1    H7 1934   1.645   4.441   9.904  1.0158 -1.1139 -1.0488
  127MPD2     C 1935   2.765   2.820  10.016 -0.5194 -0.1472 -0.5257
  127MPD2    C1 1936   2.850   2.869  10.105 -0.2516  0.2007  0.1983
  127MPD2    C2 1937   2.955   2.943  10.053  0.2591  1.0968 -0.4154
  127MPD2    C3 1938   2.970   2.979   9.916  0.0173 -0.4210  0.2182
  127MPD2    C4 1939   2.887   2.916   9.831  0.1833 -0.6280 -0.2380
  127MPD2    C5 1940   2.791   2.828   9.883  0.1263  0.7232 -0.4433
  127MPD2     H 1941   3.026   2.992  10.119  0.6890  0.1046 -0.1373
  127MPD2    H1 1942   2.887   2.937   9.725 -0.1564  3.0572  0.5105
  127MPD2    H2 1943   2.675   2.765  10.044  0.1785 -0.8721  0.3273
  127MPD2    H3 1944   2.721   2.781   9.814 -0.3178  1.3660 -0.4357
  127MPD2     N 1945   3.077   3.067   9.875  0.2152  0.6135 -0.0810
  127MPD2    H5 1946   3.131   3.107   9.950 -0.9886  0.1840  1.0123
  127MPD2    N1 1947   2.837   2.831  10.240 -0.3912 -0.3391  0.1181
  127MPD2    H7 1948   2.760   2.778  10.278 -0.0129 -0.2483  1.0160
  128TCq2    C1 1949   2.923   2.865  10.342 -0.2598 -0.1789 -0.5518
  128TCq2    O2 1950   3.038   2.920  10.336 -0.0244 -0.2116 -0.0247
  128TCq2    C2 1951   2.893   2.801  10.467 -0.5145 -0.3200  0.3044
  128TCq2    C3 1952   2.999   2.760  10.543 -0.0067 -0.0031  0.3649
  128TCq2    C4 1953   2.968   2.672  10.645  0.5761 -0.5398 -0.1190
  128TCq2    C5 1954   2.846   2.619  10.662  0.1317  0.5770  0.5128
  128TCq2    C6 1955   2.748   2.670  10.588  0.1207 -0.1696 -0.2916
  128TCq2    C7 1956   2.760   2.760  10.487  0.5138  0.0273 -0.1872
  128TCq2    C8 1957   2.618   2.609  10.592 -0.5973  0.5916  0.3246
  128TCq2    O4 1958   2.522   2.662  10.537  0.1239 -0.0540  0.1286
  128TCq2    C9 1959   3.070   2.647  10.743 -0.7805 -0.1024 -0.3249
  128TCq2    O5 1960   3.183   2.702  10.719  0.0402 -0.7433 -0.0389
  128TCq2    O6 1961   3.037   2.592  10.848  0.0700 -0.0591  0.2827
  128TCq2    H2 1962   3.100   2.795  10.528 -1.1624  3.6327  1.0888
  128TCq2    H3 1963   2.830   2.561  10.752  0.4142  1.2675  1.0086
  128TCq2    H4 1964   2.678   2.799  10.428 -0.1568  0.3130  0.9372
  129MPD2     C 1965   0.086   4.273   0.903  0.3274  0.5326  0.1125
  129MPD2    C1 1966   0.208   4.289   0.967 -0.5712  0.5768 -0.8022
  129MPD2    C2 1967   0.310   4.368   0.907  0.0527 -0.9784 -0.1244
  129MPD2    C3 1968   0.308   4.405   0.780 -0.5167 -0.1501 -0.4880
  129MPD2    C4 1969   0.203   4.373   0.701 -0.3699  0.2526  0.3911
  129MPD2    C5 1970   0.089   4.311   0.766  0.3138  0.0284 -0.1752
  129MPD2     H 1971   0.393   4.411   0.962  0.0412  1.5272 -2.0782
  129MPD2    H1 1972   0.188   4.405   0.599 -0.7220  1.1985  0.7406
  129MPD2    H2 1973   0.004   4.217   0.947  1.1560  1.1694  2.4972
  129MPD2    H3 1974   4.721   4.301   0.709 -1.0105  0.2888  1.9064
  129MPD2     N 1975   0.419   4.475   0.730  0.2119 -0.3979 -0.4409
  129MPD2    H5 1976   0.488   4.505   0.798  0.0715  2.0881 -1.3793
  129MPD2    N1 1977   0.228   4.246   1.097  0.3038  0.2586  0.5278
  129MPD2    H7 1978   0.323   4.253   1.133  0.7618  1.9600 -1.0619
  130TCq2    C1 1979   0.157   4.149   1.167 -0.3762  0.0807  0.3098
  130TCq2    O2 1980   0.049   4.099   1.133 -0.5383 -0.1865 -0.3111
  130TCq2    C2 1981   0.214   4.116   1.296  0.1278 -0.2506  0.4872
  130TCq2    C3 1982   0.347   4.157   1.321 -0.1135 -0.0813  0.4315
  130TCq2    C4 1983   0.387   4.145   1.452  0.0693 -0.6729 -0.6264
  130TCq2    C5 1984   0.309   4.098   1.548  0.3265  0.1974  0.6292
  130TCq2    C6 1985   0.179   4.060   1.525 -0.5867 -0.3144  0.0447
  130TCq2    C7 1986   0.130   4.072   1.396  0.6372  0.2623  0.2477
  130TCq2    C8 1987   0.111   3.967   1.614  0.0521 -0.7577  0.1329
  130TCq2    O4 1988   4.724   3.926   1.577  0.5404 -0.2346 -0.4374
  130TCq2    C9 1989   0.515   4.204   1.482  0.0151  0.9558 -0.7238
  130TCq2    O5 1990   0.571   4.151   1.582 -0.2611 -1.0627 -0.0922
  130TCq2    O6 1991   0.566   4.285   1.407  0.3723 -0.3115  0.1933
  130TCq2    H2 1992   0.421   4.179   1.244  0.1301  1.5109  1.1247
  130TCq2    H3 1993   0.347   4.094   1.650 -0.4115  1.6111  0.9682
  130TCq2    H4 1994   0.025   4.060   1.371  0.8060  1.7723 -1.1457
  131MPD2     C 1995   0.140   2.454   9.703 -0.1767  0.2853 -0.1179
  131MPD2    C1 1996   0.249   2.423   9.789 -0.3160 -0.0966 -0.9048
  131MPD2    C2 1997   0.264   2.299   9.837  0.3710  0.8963 -0.4463
  131MPD2    C3 1998   0.196   2.192   9.774 -0.3821 -0.2644 -0.7305
  131MPD2    C4 1999   0.106   2.224   9.678  0.0884 -0.0842 -0.5088
  131MPD2    C5 2000   0.069   2.352   9.645 -0.2431  0.8747 -0.6740
  131MPD2     H 2001   0.341   2.274   9.910  0.0096  1.6149  0.1748
  131MPD2    H1 2002   0.060   2.147   9.617 -0.6846 -1.0273  1.2666
  131MPD2    H2 2003   0.119   2.558   9.679 -1.9189  0.0549  0.4592
  131MPD2    H3 2004   4.706   2.370   9.583  0.3117 -0.7110 -1.9260
  131MPD2     N 2005   0.223   2.058   9.813  0.2788 -0.3370  0.2090
  131MPD2    H5 2006   0.302   2.037   9.874 -0.4012  0.7096  1.4439
  131MPD2    N1 2007   0.321   2.535   9.830  0.2220 -0.4322  0.7659
  131MPD2    H7 2008   0.310   2.620   9.775 -1.3167  0.1366  1.9599
  132TCq2    C1 2009   0.561   2.880  10.236 -0.0580 -0.7448 -0.0170
  132TCq2    O2 2010   0.519   2.814  10.329  0.5841  0.6780 -0.2024
  132TCq2    C2 2011   0.510   2.841  10.105 -0.7116  0.0068 -0.9371
  132TCq2    C3 2012   0.517   2.927  10.003 -0.5811  0.5078 -0.7888
  132TCq2    C4 2013   0.510   2.888   9.874 -0.1256  0.1738 -0.3568
  132TCq2    C5 2014   0.476   2.758   9.850  0.0357 -0.0405  0.3189
  132TCq2    C6 2015   0.468   2.671   9.959  0.3533 -0.2583 -0.2094
  132TCq2    C7 2016   0.498   2.706  10.089  0.0332 -0.1882 -0.2977
  132TCq2    C8 2017   0.408   2.536   9.937 -0.1259  0.4007  0.8635
  132TCq2    O4 2018   0.434   2.449  10.020  0.2210 -0.0768 -0.4917
  132TCq2    C9 2019   0.535   2.971   9.759 -0.2137  0.2321 -0.0821
  132TCq2    O5 2020   0.574   3.090   9.778  0.0427  0.2035  0.2131
  132TCq2    O6 2021   0.518   2.912   9.649 -0.2655  0.7300 -0.1503
  132TCq2    H2 2022   0.529   3.034  10.015  1.9522 -0.3185  4.1518
  132TCq2    H3 2023   0.474   2.712   9.752  3.9499 -1.5067  0.9070
  132TCq2    H4 2024   0.496   2.643  10.177 -1.1269  2.4522  1.5479
  133MPD2     C 2025   3.415   3.478   8.901 -0.0931  0.0037 -0.2089
  133MPD2    C1 2026   3.443   3.397   9.011 -0.1440 -0.2903  0.0160
  133MPD2    C2 2027   3.567   3.406   9.076 -0.0625  0.4701  0.3941
  133MPD2    C3 2028   3.653   3.511   9.034 -0.3139  0.3146 -0.2151
  133MPD2    C4 2029   3.622   3.602   8.940  0.1891  0.0105 -0.2359
  133MPD2    C5 2030   3.506   3.575   8.865  0.5393 -0.0388 -0.3853
  133MPD2     H 2031   3.599   3.351   9.164  1.2796 -2.0575 -1.6902
  133MPD2    H1 2032   3.695   3.678   8.913  0.2077  0.1878  0.3012
  133MPD2    H2 2033   3.319   3.477   8.850  0.4888 -3.7346 -1.2739
  133MPD2    H3 2034   3.477   3.651   8.794 -0.3053  0.4071  0.4538
  133MPD2     N 2035   3.778   3.539   9.096  0.0017  0.4974  0.3485
  133MPD2    H5 2036   3.818   3.631   9.079  0.0557  0.5152  0.5756
  133MPD2    N1 2037   3.339   3.319   9.062  0.3226 -0.4306  0.2416
  133MPD2    H7 2038   3.250   3.345   9.020  1.6934  4.0376  0.1017
  134TCq2    C1 2039   3.351   3.228   9.161  0.7896  0.7286  0.1567
  134TCq2    O2 2040   3.451   3.179   9.209  0.0669 -0.7905 -0.8010
  134TCq2    C2 2041   3.228   3.157   9.180 -0.6645 -0.1960 -0.3172
  134TCq2    C3 2042   3.247   3.027   9.221  0.5907  0.8946  0.1768
  134TCq2    C4 2043   3.127   2.960   9.247  0.4266  0.3129  0.1999
  134TCq2    C5 2044   3.009   3.020   9.252 -0.1238  0.7044  0.1008
  134TCq2    C6 2045   3.000   3.150   9.216 -0.0205 -0.8106  0.1293
  134TCq2    C7 2046   3.106   3.221   9.182  0.6047 -0.2428 -0.1869
  134TCq2    C8 2047   2.869   3.212   9.208  1.0036 -0.0947 -0.0059
  134TCq2    O4 2048   2.774   3.155   9.257  0.1089  0.0745  0.2959
  134TCq2    C9 2049   3.137   2.824   9.281 -0.1823  0.6839 -0.3715
  134TCq2    O5 2050   3.060   2.783   9.372  0.8308 -0.4059  0.5851
  134TCq2    O6 2051   3.231   2.762   9.228  0.2753  0.2675  0.4475
  134TCq2    H2 2052   3.340   2.972   9.226 -1.4357 -2.6592 -1.0478
  134TCq2    H3 2053   2.921   2.957   9.258 -0.1032  0.4904 -1.7280
  134TCq2    H4 2054   3.097   3.328   9.162  3.0120 -0.2934 -1.6139
  135MPD2     C 2055   2.360   4.670   9.310  0.5075  0.4644  0.4003
  135MPD2    C1 2056   2.357   4.531   9.316 -0.7704 -0.4005  0.3846
  135MPD2    C2 2057   2.440   4.451   9.240  0.0164 -0.1037  0.4879
  135MPD2    C3 2058   2.534   4.514   9.162 -0.8257 -0.1511  0.0782
  135MPD2    C4 2059   2.531   4.653   9.153 -0.0571 -0.0734  0.1680
  135MPD2    C5 2060   2.453   0.004   9.233  0.2713 -0.0783  0.4957
  135MPD2     H 2061   2.429   4.343   9.239  0.3859 -0.1282 -1.5978
  135MPD2    H1 2062   2.606   4.707   9.097  0.5521 -0.3239  0.7369
  135MPD2    H2 2063   2.302   0.017   9.367  1.2248  0.3279  1.2976
  135MPD2    H3 2064   2.454   0.112   9.223 -3.3892  0.0864  1.5320
  135MPD2     N 2065   2.624   4.441   9.086 -0.3046  0.6061  0.1956
  135MPD2    H5 2066   2.675   4.496   9.018  1.5463  0.8473  1.7869
  135MPD2    N1 2067   2.265   4.459   9.406 -0.4702  0.1515  0.3283
  135MPD2    H7 2068   2.258   4.358   9.401  0.5744 -0.0574  3.1580
  136TCq2    C1 2069   2.171   4.518   9.502 -0.2201 -0.0604  0.0627
  136TCq2    O2 2070   2.162   4.633   9.548  0.1230  1.0228 -0.6571
  136TCq2    C2 2071   2.074   4.428   9.550 -0.0109  0.2186 -0.0520
  136TCq2    C3 2072   2.072   4.412   9.684 -0.4479  0.4397 -0.0966
  136TCq2    C4 2073   2.000   4.301   9.738 -0.1821 -0.4783  0.2520
  136TCq2    C5 2074   1.932   4.215   9.655  0.2873 -0.1831  0.7922
  136TCq2    C6 2075   1.956   4.227   9.520 -0.1959  0.4255  0.2267
  136TCq2    C7 2076   2.033   4.328   9.467  0.4994  0.0076 -0.7959
  136TCq2    C8 2077   1.900   4.133   9.425 -0.2028  0.2919  0.9331
  136TCq2    O4 2078   1.924   4.134   9.306 -0.2509 -0.7549  1.0298
  136TCq2    C9 2079   1.977   4.289   9.884  0.0510  0.4472 -0.4604
  136TCq2    O5 2080   1.903   4.194   9.916 -0.1209 -0.3870 -0.1753
  136TCq2    O6 2081   2.019   4.378   9.958  0.0011  0.2554 -0.8014
  136TCq2    H2 2082   2.123   4.483   9.748 -2.1827  0.3939  1.3230
  136TCq2    H3 2083   1.871   4.140   9.704 -0.8134  1.2946  1.6652
  136TCq2    H4 2084   2.044   4.329   9.359  0.6450  1.6212 -0.7736
  137MPD2     C 2085   1.617   3.611   8.872 -0.3224 -0.3977  0.3325
  137MPD2    C1 2086   1.550   3.576   8.987 -0.0157 -0.6108 -0.0963
  137MPD2    C2 2087   1.581   3.464   9.061  0.1966  0.2217  0.2474
  137MPD2    C3 2088   1.686   3.383   9.016 -0.5118  0.1035 -0.0068
  137MPD2    C4 2089   1.755   3.416   8.900 -0.2812 -1.0794 -0.2762
  137MPD2    C5 2090   1.717   3.530   8.826 -0.6049 -0.4471  0.0203
  137MPD2     H 2091   1.532   3.445   9.156 -0.7958  0.9826 -0.1118
  137MPD2    H1 2092   1.838   3.357   8.863  1.2782  1.2556 -0.5310
  137MPD2    H2 2093   1.602   3.691   8.801  0.1017  0.0391  0.7333
  137MPD2    H3 2094   1.773   3.543   8.735 -1.9201  0.6919 -0.6252
  137MPD2     N 2095   1.729   3.277   9.098 -0.0004  0.7028  0.4511
  137MPD2    H5 2096   1.693   3.273   9.192 -0.4088 -0.0839  0.2695
  137MPD2    N1 2097   1.440   3.667   9.007 -0.6050  0.0840 -1.4496
  137MPD2    H7 2098   1.437   3.750   8.949  0.5202 -0.3313 -2.1036
  138TCq2    C1 2099   1.355   3.651   9.114  0.5332 -0.0113 -0.8643
  138TCq2    O2 2100   1.333   3.555   9.188  0.0593  1.0292 -0.5702
  138TCq2    C2 2101   1.291   3.785   9.139  0.8547  0.4022 -0.3749
  138TCq2    C3 2102   1.257   3.863   9.035 -0.4159  0.9558 -0.1102
  138TCq2    C4 2103   1.232   3.992   9.065  0.0402  0.3344 -0.0635
  138TCq2    C5 2104   1.239   4.042   9.195 -0.2513  0.3979  0.0968
  138TCq2    C6 2105   1.265   3.955   9.295  0.3294  0.3142 -0.6689
  138TCq2    C7 2106   1.293   3.826   9.272 -0.4966 -0.2982  0.1169
  138TCq2    C8 2107   1.313   4.004   9.421 -0.8249 -0.5677  0.2875
  138TCq2    O4 2108   1.359   4.117   9.408 -0.6124  0.0682 -0.0883
  138TCq2    C9 2109   1.218   4.091   8.960  0.1897  0.1476 -0.2247
  138TCq2    O5 2110   1.237   4.209   8.998 -0.5576  0.1436 -0.9173
  138TCq2    O6 2111   1.251   4.050   8.847 -0.3056  0.2760 -0.0396
  138TCq2    H2 2112   1.252   3.819   8.936 -0.9076 -1.2236  0.8766
  138TCq2    H3 2113   1.219   4.145   9.223 -0.8702 -0.7224  3.7039
  138TCq2    H4 2114   1.330   3.757   9.347 -0.7257 -1.0048 -0.4216
  139TMC2    C1 2115   2.357   2.078  12.964 -0.0420 -0.3635  0.3990
  139TMC2    C2 2116   2.480   2.107  12.916 -0.0876 -0.3123 -0.2880
  139TMC2    C3 2117   2.536   2.229  12.945  0.1440  0.3255 -0.1352
  139TMC2    C4 2118   2.275   2.189  12.997  0.6025  0.0101  0.8973
  139TMC2    C5 2119   2.338   2.309  13.034 -0.3390  0.1029 -0.1216
  139TMC2    C6 2120   2.475   2.331  13.010  0.4319  0.7533  0.2477
  139TMC2     C 2121   2.348   1.938  13.022  0.1436 -0.0460 -0.5363
  139TMC2     O 2122   2.437   1.861  12.990 -0.2573 -0.3880 -0.2573
  139TMC2     H 2123   2.537   2.024  12.875  1.7063  0.6960  0.1522
  139TMC2    H1 2124   2.168   2.178  13.014  0.3278  0.1349 -0.7859
  139TMC2    H2 2125   2.522   2.423  13.042 -0.1041  0.9478  0.4884
  139TMC2    C7 2126   2.259   2.379  13.135  0.1890  0.2885 -0.5252
  139TMC2    C8 2127   2.675   2.233  12.907 -0.0394 -0.3927 -0.4923
  139TMC2    O1 2128   2.139   2.386  13.129 -0.5008  0.1129  0.3500
  139TMC2    O2 2129   2.744   2.131  12.914  0.0769 -0.3084 -0.7642
  139TMC2    O5 2130   2.715   2.364  12.908  0.3384 -0.4220 -0.6029
  139TMC2    H5 2131   2.642   2.424  12.883  0.6754 -0.2576 -1.1685
  140MPD2     C 2132   2.038   1.812  13.184  0.1897 -0.3343  0.1696
  140MPD2    C1 2133   2.171   1.815  13.152  0.0688 -0.1896 -0.1521
  140MPD2    C2 2134   2.255   1.712  13.195  0.6176  0.1651 -0.1443
  140MPD2    C3 2135   2.200   1.595  13.248 -0.4791  0.5955  0.7133
  140MPD2    C4 2136   2.061   1.595  13.273 -0.2053  0.2601 -0.5404
  140MPD2    C5 2137   1.984   1.700  13.239 -0.5078 -0.0564 -0.7861
  140MPD2     H 2138   2.361   1.714  13.176  0.4649 -0.4261 -1.0826
  140MPD2    H1 2139   2.014   1.505  13.312 -0.9475  1.1062  0.4923
  140MPD2    H2 2140   1.973   1.890  13.146  2.7974  1.5249 -0.5005
  140MPD2    H3 2141   1.876   1.703  13.253 -0.3550  0.5506  0.2945
  140MPD2     N 2142   2.294   1.505  13.296  0.4438 -1.1498  0.5608
  140MPD2    H5 2143   2.393   1.526  13.283  0.4115 -1.5036 -0.2424
  140MPD2    N1 2144   2.224   1.924  13.079 -0.4563  0.1075  0.4918
  140MPD2    H7 2145   2.164   2.003  13.059 -0.3956  0.1341  0.4134
  141TCq2    C1 2146   2.422   2.924  14.444  0.7208 -0.0974 -0.5104
  141TCq2    O2 2147   2.464   3.033  14.414 -0.1431  0.0859 -0.3783
  141TCq2    C2 2148   2.496   2.847  14.544 -0.6526 -0.6356 -0.1583
  141TCq2    C3 2149   2.527   2.712  14.521  0.1747 -0.9150  0.2025
  141TCq2    C4 2150   2.639   2.659  14.582 -0.1253 -0.1893  1.0020
  141TCq2    C5 2151   2.711   2.735  14.676 -0.4760  0.3812  0.6245
  141TCq2    C6 2152   2.668   2.862  14.708 -0.3569 -0.0681  0.5476
  141TCq2    C7 2153   2.571   2.923  14.635 -0.0131  0.7190 -0.1238
  141TCq2    C8 2154   2.740   2.936  14.814 -0.6299  0.9940  0.0757
  141TCq2    O4 2155   2.803   2.877  14.900 -0.4693 -0.4555 -0.6665
  141TCq2    C9 2156   2.666   2.520  14.562 -0.5024  0.5669  0.3327
  141TCq2    O5 2157   2.596   2.467  14.477 -0.0761  0.8120 -0.1983
  141TCq2    O6 2158   2.732   2.463  14.650  0.5279  0.6440  0.5617
  141TCq2    H2 2159   2.469   2.654  14.450  1.2601 -1.8045  0.0390
  141TCq2    H3 2160   2.797   2.678  14.711 -1.0128  0.2626  1.7204
  141TCq2    H4 2161   2.536   3.024  14.653 -0.4907  1.0286 -2.6746
  142MPD2     C 2162   0.457   1.353   9.706  0.1499 -0.7045  0.1098
  142MPD2    C1 2163   0.343   1.394   9.638 -0.0951  0.3145  0.1083
  142MPD2    C2 2164   0.336   1.522   9.588 -0.6207  0.0908  0.4523
  142MPD2    C3 2165   0.440   1.615   9.616  0.4661  0.6204 -0.0483
  142MPD2    C4 2166   0.551   1.568   9.684 -0.3660  0.0705 -0.2467
  142MPD2    C5 2167   0.556   1.439   9.731  0.4125  0.5712  0.5613
  142MPD2     H 2168   0.246   1.552   9.535 -0.7766 -1.0158  0.0931
  142MPD2    H1 2169   0.635   1.626   9.718 -1.4860  2.2828 -1.2717
  142MPD2    H2 2170   0.469   1.250   9.739  0.9900 -1.0872 -1.4217
  142MPD2    H3 2171   0.632   1.411   9.803  0.0090  0.9481  1.1358
  142MPD2     N 2172   0.443   1.753   9.572  0.4336  0.0804 -0.0186
  142MPD2    H5 2173   0.524   1.810   9.591  1.5714 -1.4207 -0.3682
  142MPD2    N1 2174   0.250   1.290   9.610 -0.0443 -1.0082 -0.0359
  142MPD2    H7 2175   0.288   1.200   9.637  1.0990 -0.0367  1.5646
  143TCq2    C1 2176   0.352   1.820   9.494 -0.8083  0.4782 -0.7687
  143TCq2    O2 2177   0.245   1.777   9.447  0.3171 -0.2867  0.0604
  143TCq2    C2 2178   0.377   1.963   9.490  0.4727  0.1496  0.3094
  143TCq2    C3 2179   0.312   2.029   9.399 -0.9557  0.5026 -0.3704
  143TCq2    C4 2180   0.337   2.159   9.388  0.2497  0.1398  0.2938
  143TCq2    C5 2181   0.423   2.230   9.467  0.0917 -0.0758  0.3239
  143TCq2    C6 2182   0.490   2.152   9.558 -0.6611  0.5212 -0.3978
  143TCq2    C7 2183   0.471   2.013   9.576 -0.1828  0.2845  0.7787
  143TCq2    C8 2184   0.570   2.210   9.668  0.3089 -0.0171  0.4646
  143TCq2    O4 2185   0.590   2.136   9.761 -0.3531 -0.6172  0.3741
  143TCq2    C9 2186   0.258   2.234   9.292  0.3546 -0.3739  0.0878
  143TCq2    O5 2187   0.275   2.362   9.302  0.2951  0.2604 -0.1673
  143TCq2    O6 2188   0.179   2.171   9.215  0.3928  0.3118  0.1407
  143TCq2    H2 2189   0.249   1.975   9.330  0.4944 -0.8096 -0.6684
  143TCq2    H3 2190   0.429   2.338   9.456  3.1519 -0.2237  0.5119
  143TCq2    H4 2191   0.516   1.960   9.660  1.2162 -0.4276 -0.4220
  144MPD2     C 2192   3.175   0.875   1.127  0.9710 -0.7290 -0.4909
  144MPD2    C1 2193   3.228   0.837   1.006 -0.2814  0.3583 -0.2915
  144MPD2    C2 2194   3.360   0.797   0.994 -0.6880 -0.8486 -0.0129
  144MPD2    C3 2195   3.437   0.777   1.107  1.0392  0.0913 -0.0146
  144MPD2    C4 2196   3.386   0.815   1.225  0.3388 -0.0482  0.0356
  144MPD2    C5 2197   3.260   0.863   1.239  0.3739  0.3000 -0.6991
  144MPD2     H 2198   3.397   0.764   0.898  0.3995  0.4039 -0.0263
  144MPD2    H1 2199   3.445   0.801   1.315  0.5649 -0.3736 -0.1642
  144MPD2    H2 2200   3.074   0.911   1.144  1.8261  1.8645 -0.9497
  144MPD2    H3 2201   3.216   0.891   1.334 -0.8831  0.1746 -1.2450
  144MPD2     N 2202   3.560   0.706   1.103 -0.4643  0.3253  0.0480
  144MPD2    H5 2203   3.623   0.699   1.182  0.6185 -1.4311 -0.9466
  144MPD2    N1 2204   3.149   0.842   0.886  0.1497  0.2454 -0.7289
  144MPD2    H7 2205   3.206   0.822   0.805 -0.4080 -2.1274 -0.5200
  145TCq2    C1 2206   3.612   0.644   0.990  0.8599 -0.3030 -0.4536
  145TCq2    O2 2207   3.556   0.608   0.886 -0.0178 -0.2792 -0.1166
  145TCq2    C2 2208   3.744   0.601   1.006  0.0634 -0.0646  0.3727
  145TCq2    C3 2209   3.784   0.476   0.970  0.6676  0.4864 -0.4771
  145TCq2    C4 2210   3.911   0.434   1.011  0.1147  0.7410 -0.1665
  145TCq2    C5 2211   4.005   0.520   1.064 -0.6867 -0.5354  0.3933
  145TCq2    C6 2212   3.965   0.646   1.081 -0.2345 -0.6299  0.4913
  145TCq2    C7 2213   3.838   0.692   1.054 -0.3257  0.7280  0.0653
  145TCq2    C8 2214   4.061   0.733   1.146 -0.7089  0.0551 -0.5335
  145TCq2    O4 2215   4.178   0.696   1.143 -0.1509 -0.4251 -0.4173
  145TCq2    C9 2216   3.947   0.296   0.972  0.3756  0.8996  0.0919
  145TCq2    O5 2217   4.074   0.274   0.974 -0.5593  0.2825 -0.0161
  145TCq2    O6 2218   3.851   0.215   0.968 -0.6723 -0.6294  0.3318
  145TCq2    H2 2219   3.712   0.402   0.939 -1.1369  2.0116  0.0456
  145TCq2    H3 2220   4.108   0.486   1.073 -0.8242 -1.2969 -0.8686
  145TCq2    H4 2221   3.803   0.790   1.083 -0.2150 -0.6413  5.0065
  146TMC2    C1 2222   4.466   4.392  12.425  0.4978 -0.2606  0.5290
  146TMC2    C2 2223   4.379   4.439  12.332 -0.6815 -0.2862 -0.0116
  146TMC2    C3 2224   4.393   4.403  12.199 -0.1658  0.1541  0.2008
  146TMC2    C4 2225   4.562   4.310  12.392  0.0122 -0.9065 -0.2700
  146TMC2    C5 2226   4.569   4.270  12.260  0.2484 -0.2114 -0.1277
  146TMC2    C6 2227   4.493   4.323  12.160 -0.1769 -0.3595 -0.5450
  146TMC2     C 2228   4.483   4.466  12.555  0.3558 -0.6367 -0.0681
  146TMC2     O 2229   4.417   4.571  12.558 -0.3273  0.4108 -0.3254
  146TMC2     H 2230   4.318   4.526  12.353 -1.5644 -0.7534 -0.6655
  146TMC2    H1 2231   4.644   4.282  12.456 -0.1532 -1.4194 -0.2777
  146TMC2    H2 2232   4.489   4.274  12.063 -1.2863  2.2144 -1.7965
  146TMC2    C7 2233   4.673   4.180  12.218 -0.9091 -0.2714 -0.4116
  146TMC2    C8 2234   4.320   4.468  12.098  0.4927  0.2953  0.1715
  146TMC2    O1 2235   4.714   4.188  12.102 -0.3882  0.1824 -0.0832
  146TMC2    O2 2236   4.208   4.511  12.132  0.1209 -0.2516 -0.0686
  146TMC2    O5 2237   4.400   4.499  11.996  0.8138 -0.2611 -0.1568
  146TMC2    H5 2238   4.495   4.486  12.014  0.3499 -1.8194  1.0898
  147MPD2     C 2239   0.294   3.809  12.314  0.4906 -0.8373 -0.1998
  147MPD2    C1 2240   0.243   3.859  12.432 -0.7382 -0.2059  0.2104
  147MPD2    C2 2241   0.146   3.955  12.436  0.1950 -0.1837  0.3774
  147MPD2    C3 2242   0.101   4.007  12.318 -0.4679 -0.0165 -0.0773
  147MPD2    C4 2243   0.158   3.968  12.198 -0.7588 -0.1028 -0.3108
  147MPD2    C5 2244   0.253   3.864  12.192  0.5859 -0.2475 -0.7548
  147MPD2     H 2245   0.123   4.006  12.529  1.4472 -0.6619  0.9420
  147MPD2    H1 2246   0.144   4.023  12.105  0.0343  1.0857  0.2670
  147MPD2    H2 2247   0.381   3.745  12.309  1.9605  1.1735 -0.2118
  147MPD2    H3 2248   0.294   3.832  12.097  2.0102 -0.2678 -0.1314
  147MPD2     N 2249   0.012   4.112  12.322 -0.2431  0.2438  0.2420
  147MPD2    H5 2250   4.689   4.125  12.411  2.2831 -0.2927  1.6624
  147MPD2    N1 2251   0.310   3.812  12.554 -0.0608 -0.9096 -0.3139
  147MPD2    H7 2252   0.389   3.749  12.541  0.0415 -1.0033  0.7898
  148MPD2     C 2253   0.076   2.997  10.875 -0.4325  0.2100 -0.4681
  148MPD2    C1 2254   0.122   2.872  10.831 -0.6234  0.2628  0.2436
  148MPD2    C2 2255   0.057   2.809  10.730 -0.3582  0.0821  0.5669
  148MPD2    C3 2256   4.681   2.868  10.666  0.3863  0.1803 -0.1179
  148MPD2    C4 2257   4.637   2.997  10.706  0.0488  0.7650 -0.2988
  148MPD2    C5 2258   4.692   3.053  10.814  0.4574  0.1453  0.1209
  148MPD2     H 2259   0.097   2.711  10.707  0.1926 -0.0157  1.9052
  148MPD2    H1 2260   4.551   3.042  10.658 -0.4565 -1.6338 -1.6336
  148MPD2    H2 2261   0.120   3.051  10.958  2.2307 -1.1814 -0.9584
  148MPD2    H3 2262   4.658   3.146  10.859  0.0426 -0.6357  1.4380
  148MPD2     N 2263   4.606   2.813  10.562  0.7645  0.6747 -0.2164
  148MPD2    H5 2264   4.528   2.867  10.523 -1.0719 -1.9469 -0.1456
  148MPD2    N1 2265   0.236   2.815  10.881 -0.7730  0.0567  0.1606
  148MPD2    H7 2266   0.265   2.727  10.840 -1.8790  0.1951 -0.9334
  149TCq2    C1 2267   0.330   2.879  10.965  0.6373  0.4808  0.6228
  149TCq2    O2 2268   0.319   2.983  11.029  0.2256  0.7627 -0.1465
  149TCq2    C2 2269   0.457   2.810  10.978 -0.0582 -0.2355  0.3849
  149TCq2    C3 2270   0.560   2.900  11.002  0.0826 -0.2507  0.6530
  149TCq2    C4 2271   0.682   2.869  10.944 -0.2114  0.0978 -0.4510
  149TCq2    C5 2272   0.696   2.767  10.854  0.5906  0.0140  0.0111
  149TCq2    C6 2273   0.597   2.670  10.850 -0.5604 -0.1352  0.0709
  149TCq2    C7 2274   0.475   2.685  10.916  0.3272 -0.0440  0.9175
  149TCq2    C8 2275   0.605   2.558  10.757  1.0066  0.6199  0.8300
  149TCq2    O4 2276   0.506   2.486  10.748 -0.4006  0.2540 -0.4150
  149TCq2    C9 2277   0.772   2.983  10.936  0.7560  0.6678 -0.1230
  149TCq2    O5 2278   0.740   3.093  10.986  0.3016  0.7175 -0.1543
  149TCq2    O6 2279   0.885   2.952  10.888 -0.3873  0.4174 -0.4040
  149TCq2    H2 2280   0.534   2.991  11.055  0.6977  2.0097 -2.9271
  149TCq2    H3 2281   0.790   2.764  10.800  1.3774 -2.5310  1.5332
  149TCq2    H4 2282   0.390   2.623  10.889  1.2290 -0.6911 -0.4614
  150MPD2     C 2283   2.095   1.837  11.969 -0.0326  0.3103 -0.1630
  150MPD2    C1 2284   2.030   1.954  11.998  0.6770  0.0528  0.3257
  150MPD2    C2 2285   2.101   2.076  12.008 -0.5702  0.1449  0.1543
  150MPD2    C3 2286   2.237   2.077  11.980  0.7641  0.5611  0.4034
  150MPD2    C4 2287   2.298   1.961  11.951 -0.8545  0.1555 -0.3400
  150MPD2    C5 2288   2.225   1.845  11.939  0.2817 -0.0096 -0.3122
  150MPD2     H 2289   2.051   2.162  12.052  0.3102  0.8415 -0.2134
  150MPD2    H1 2290   2.405   1.949  11.935 -0.1638 -0.4334  4.7740
  150MPD2    H2 2291   2.051   1.738  11.975 -2.7496  1.4979 -0.4957
  150MPD2    H3 2292   2.270   1.751  11.911  1.0682 -0.2056  1.6333
  150MPD2     N 2293   2.311   2.199  11.998 -0.5045  0.4450  0.6428
  150MPD2    H5 2294   2.258   2.271  12.045 -1.9205 -0.8535  1.0376
  150MPD2    N1 2295   1.894   1.940  12.044  0.0295  0.1974  0.0390
  150MPD2    H7 2296   1.850   1.848  12.046  1.4229 -0.4745 -0.5718
  151TCq2    C1 2297   2.440   2.223  11.981  0.0708 -0.1406  0.0156
  151TCq2    O2 2298   2.529   2.145  11.953 -0.0792 -0.5047 -0.3106
  151TCq2    C2 2299   2.463   2.366  12.001 -0.2202 -0.0790  0.4017
  151TCq2    C3 2300   2.370   2.459  11.964  0.4659  0.5799  0.2527
  151TCq2    C4 2301   2.404   2.589  11.978 -0.6183 -0.7105  0.8466
  151TCq2    C5 2302   2.535   2.631  11.990  0.6176  0.0317 -1.0079
  151TCq2    C6 2303   2.630   2.533  12.020 -0.0285  0.3676 -0.0460
  151TCq2    C7 2304   2.591   2.401  12.022  0.2103 -0.5262 -0.6643
  151TCq2    C8 2305   2.744   2.573  12.095  0.3756  0.4949  0.5993
  151TCq2    O4 2306   2.760   2.692  12.110 -0.0980 -0.3252  0.7438
  151TCq2    C9 2307   2.310   2.690  11.969 -0.6132  0.4963  0.4334
  151TCq2    O5 2308   2.209   2.664  12.040 -0.5150  0.4624 -0.1135
  151TCq2    O6 2309   2.337   2.780  11.887  0.5809 -0.1333  0.4618
  151TCq2    H2 2310   2.263   2.447  11.952  0.6452  0.4642 -1.2226
  151TCq2    H3 2311   2.563   2.736  11.994  1.7193 -0.1756 -3.2661
  151TCq2    H4 2312   2.662   2.321  12.038  1.9303  0.7774 -1.7884
  152MPD2     C 2313   1.757   1.649  12.526  0.3239 -0.0066 -0.0811
  152MPD2    C1 2314   1.753   1.787  12.486  0.3056  0.0895 -0.2438
  152MPD2    C2 2315   1.632   1.849  12.456 -0.0394  0.0818  0.3237
  152MPD2    C3 2316   1.515   1.774  12.473 -0.3441  0.2453 -0.1479
  152MPD2    C4 2317   1.521   1.641  12.514 -0.5520 -0.8996  0.2304
  152MPD2    C5 2318   1.639   1.580  12.548 -0.2403 -0.1128  0.0261
  152MPD2     H 2319   1.631   1.947  12.411 -1.5287  0.5777  1.4470
  152MPD2    H1 2320   1.432   1.580  12.515  0.4524 -2.3248  2.5066
  152MPD2    H2 2321   1.848   1.598  12.555  0.8873  0.0727 -1.7108
  152MPD2    H3 2322   1.639   1.479  12.587  1.0086  0.7730  2.2832
  152MPD2     N 2323   1.398   1.838  12.441  0.0164 -0.2986 -0.3683
  152MPD2    H5 2324   1.423   1.928  12.400 -2.9025  0.1595 -1.0875
  152MPD2    N1 2325   1.878   1.844  12.455  0.1406 -0.1471  0.5669
  152MPD2    H7 2326   1.951   1.774  12.467  0.2821  0.3518  2.5786
  153TCq2    C1 2327   1.905   1.968  12.414  0.0208  0.2990  0.2280
  153TCq2    O2 2328   1.834   2.066  12.398 -0.1851 -0.5074  0.2681
  153TCq2    C2 2329   2.041   1.985  12.370 -0.2638  0.6887  0.2861
  153TCq2    C3 2330   2.138   1.887  12.384  0.0824  0.2217  0.2942
  153TCq2    C4 2331   2.268   1.917  12.369 -0.1932 -0.0895  0.2809
  153TCq2    C5 2332   2.316   2.042  12.341  0.5669  0.8191  0.5269
  153TCq2    C6 2333   2.224   2.141  12.336  0.1303  0.8163 -0.2926
  153TCq2    C7 2334   2.084   2.111  12.345  0.3052  0.1463  0.0493
  153TCq2    C8 2335   2.269   2.284  12.342  0.2998 -0.2007 -0.5933
  153TCq2    O4 2336   2.213   2.358  12.261  0.2772 -0.1126 -0.1845
  153TCq2    C9 2337   2.362   1.813  12.387 -0.1941  0.0291 -0.6507
  153TCq2    O5 2338   2.479   1.844  12.407  0.4614  0.3457 -0.2142
  153TCq2    O6 2339   2.331   1.690  12.408 -0.3531  0.0233 -0.1895
  153TCq2    H2 2340   2.107   1.788  12.415  1.1726 -0.2805 -0.2053
  153TCq2    H3 2341   2.420   2.067  12.320 -0.0789  4.0926  1.2226
  153TCq2    H4 2342   2.016   2.195  12.345  1.5965  1.1838  1.1014
  154MPD2     C 2343   3.600   2.190   0.507  0.2603  0.2914 -0.2077
  154MPD2    C1 2344   3.498   2.259   0.449  0.2927  0.1323  0.7104
  154MPD2    C2 2345   3.372   2.215   0.454  0.0662 -0.5701 -0.5309
  154MPD2    C3 2346   3.346   2.113   0.543 -0.9195 -0.1051 -0.4343
  154MPD2    C4 2347   3.443   2.053   0.616  0.1459  0.3825  0.6942
  154MPD2    C5 2348   3.574   2.091   0.604  0.0193  0.0986 -0.1480
  154MPD2     H 2349   3.300   2.276   0.400 -0.3569 -3.8164 -3.6743
  154MPD2    H1 2350   3.416   1.979   0.690 -0.5182  0.2643  0.3357
  154MPD2    H2 2351   3.700   2.232   0.505 -0.9088  2.9836 -1.4771
  154MPD2    H3 2352   3.653   2.050   0.665  1.8401  1.6771 -1.4077
  154MPD2     N 2353   3.208   2.078   0.568 -0.6295 -0.1345 -0.1796
  154MPD2    H5 2354   3.188   2.036   0.658 -1.5525  1.5196  0.3907
  154MPD2    N1 2355   3.531   2.388   0.397  0.0393 -0.2745  0.0833
  154MPD2    H7 2356   3.630   2.400   0.382  0.0127  0.0114  0.1344
  155TCq2    C1 2357   3.445   2.499   0.396 -0.1116  0.2465  0.5215
  155TCq2    O2 2358   3.330   2.501   0.435  0.4566  0.2682 -0.0395
  155TCq2    C2 2359   3.515   2.622   0.356  0.0959 -0.7927 -0.5633
  155TCq2    C3 2360   3.652   2.625   0.327  0.8117  0.6562 -1.3085
  155TCq2    C4 2361   3.724   2.738   0.337 -0.2005  0.1220  0.1094
  155TCq2    C5 2362   3.667   2.852   0.390  0.1935 -0.8065 -1.0239
  155TCq2    C6 2363   3.529   2.851   0.417  0.2387  0.3629 -0.0989
  155TCq2    C7 2364   3.451   2.736   0.401  0.0382  0.6248 -0.2129
  155TCq2    C8 2365   3.481   2.956   0.511  0.4682 -0.4798 -0.7011
  155TCq2    O4 2366   3.568   3.040   0.534 -0.1614  0.4054  0.4820
  155TCq2    C9 2367   3.865   2.726   0.322 -0.3556  0.7459  0.1066
  155TCq2    O5 2368   3.941   2.817   0.366 -0.0631 -0.3621 -0.0840
  155TCq2    O6 2369   3.908   2.632   0.242 -0.1598 -0.2547  0.6994
  155TCq2    H2 2370   3.700   2.538   0.283  3.8677  1.4580  0.4454
  155TCq2    H3 2371   3.736   2.934   0.401 -1.1236  0.4490 -2.0484
  155TCq2    H4 2372   3.343   2.736   0.411  0.1001 -0.3973  0.3970
  156MPD2     C 2373   1.626   4.002  12.652  0.4911  0.1901  0.4034
  156MPD2    C1 2374   1.704   4.033  12.545 -0.1069  0.2532  0.3919
  156MPD2    C2 2375   1.830   4.079  12.566 -0.1271  0.4507 -0.2369
  156MPD2    C3 2376   1.866   4.123  12.695 -0.3374 -0.3172  0.3385
  156MPD2    C4 2377   1.789   4.087  12.803 -0.0001  0.6523 -0.1935
  156MPD2    C5 2378   1.670   4.023  12.781  0.0801  0.0092 -0.5553
  156MPD2     H 2379   1.888   4.110  12.480 -1.1344  0.2702 -0.9766
  156MPD2    H1 2380   1.824   4.107  12.903  0.7296  0.6385 -0.4409
  156MPD2    H2 2381   1.524   3.970  12.630  0.6361 -0.7917  1.1998
  156MPD2    H3 2382   1.601   4.009  12.864 -0.0876 -1.1219 -0.8775
  156MPD2     N 2383   1.991   4.186  12.706  0.0395 -0.3285 -0.4045
  156MPD2    H5 2384   2.036   4.202  12.617  0.9053  0.3444  0.1480
  156MPD2    N1 2385   1.644   4.002  12.419  0.4909 -0.8813  0.9097
  156MPD2    H7 2386   1.547   3.972  12.413  0.3061 -0.0884 -0.1001
  157TCq2    C1 2387   1.706   4.020  12.300  0.2394  0.5384  0.4911
  157TCq2    O2 2388   1.824   4.034  12.275 -0.0516 -0.8861 -0.3199
  157TCq2    C2 2389   1.622   3.997  12.188  0.1521  0.2987  0.3818
  157TCq2    C3 2390   1.487   3.973  12.193 -0.5434 -0.3667  0.1109
  157TCq2    C4 2391   1.414   3.987  12.079 -0.2473 -0.1725 -0.1201
  157TCq2    C5 2392   1.475   4.008  11.958 -0.0811 -0.0106 -0.9501
  157TCq2    C6 2393   1.611   4.020  11.957 -0.3454 -0.3540  0.0459
  157TCq2    C7 2394   1.688   4.029  12.071 -0.1015 -0.6081  0.2089
  157TCq2    C8 2395   1.680   4.058  11.834  0.8096 -0.2545  0.2866
  157TCq2    O4 2396   1.792   4.109  11.837  0.0300 -0.0996  0.3104
  157TCq2    C9 2397   1.267   3.998  12.085 -0.0674 -0.4261  0.5484
  157TCq2    O5 2398   1.216   4.055  11.984  0.1820 -0.1243  0.4341
  157TCq2    O6 2399   1.207   3.917  12.160  0.5882 -0.4084  0.5705
  157TCq2    H2 2400   1.422   3.958  12.279 -0.9043 -0.2958 -0.1522
  157TCq2    H3 2401   1.414   4.006  11.868  0.1132  1.3405 -1.1123
  157TCq2    H4 2402   1.796   4.031  12.063 -0.1333 -0.5869 -0.2124
  158TMC2    C1 2403   2.414   3.659  13.432 -0.2770  0.0745  0.1509
  158TMC2    C2 2404   2.474   3.742  13.347  0.9632  0.5241  0.2129
  158TMC2    C3 2405   2.416   3.750  13.216 -0.0510 -0.2719 -0.2300
  158TMC2    C4 2406   2.308   3.582  13.405  0.2151 -0.0883  0.1578
  158TMC2    C5 2407   2.256   3.588  13.280 -0.0423 -0.1654 -0.3929
  158TMC2    C6 2408   2.305   3.679  13.191  0.0799  0.6314 -0.3920
  158TMC2     C 2409   2.500   3.626  13.546  0.3651  0.0775  0.0625
  158TMC2     O 2410   2.622   3.641  13.527 -0.0916 -0.1064  0.0100
  158TMC2     H 2411   2.555   3.803  13.385 -0.5483  1.3473  2.1073
  158TMC2    H1 2412   2.265   3.513  13.476 -2.5036  0.1201 -1.2644
  158TMC2    H2 2413   2.248   3.702  13.103 -2.0274 -1.1228  0.5116
  158TMC2    C7 2414   2.113   3.584  13.276 -0.0575 -0.0913 -0.3891
  158TMC2    C8 2415   2.463   3.843  13.116  0.9033  0.2670 -0.3779
  158TMC2    O1 2416   2.062   3.686  13.232  0.0845 -0.2281  0.1904
  158TMC2    O2 2417   2.384   3.870  13.025 -0.5151 -0.1415  0.3124
  158TMC2    O5 2418   2.554   3.927  13.170 -0.1959 -0.2758  0.0822
  158TMC2    H5 2419   2.630   3.875  13.203 -0.2490 -0.3404  0.1034
  159MPD2     C 2420   2.583   3.470  14.032 -0.3683 -0.3879  0.3487
  159MPD2    C1 2421   2.443   3.483  14.011 -0.1382 -0.8039 -0.0004
  159MPD2    C2 2422   2.394   3.520  13.886 -0.1167 -0.5653 -0.1388
  159MPD2    C3 2423   2.486   3.561  13.787 -0.5915 -0.0123 -0.6911
  159MPD2    C4 2424   2.627   3.544  13.804 -0.4319  0.2500  0.0683
  159MPD2    C5 2425   2.666   3.504  13.931  0.1594  0.0002  0.8572
  159MPD2     H 2426   2.290   3.504  13.859  0.0042 -0.6462 -0.5621
  159MPD2    H1 2427   2.702   3.574  13.732 -0.4025  1.2741  0.5327
  159MPD2    H2 2428   2.628   3.417  14.115 -1.3627 -1.9059 -0.0841
  159MPD2    H3 2429   2.773   3.483  13.931  0.0768 -0.4624 -1.0220
  159MPD2     N 2430   2.429   3.596  13.662  0.6568 -0.0610 -0.5710
  159MPD2    H5 2431   2.328   3.603  13.652  0.4969  0.1609  1.1892
  159MPD2    N1 2432   2.360   3.440  14.115  0.1465 -0.2517 -0.5231
  159MPD2    H7 2433   2.415   3.387  14.182 -1.2652 -1.8283 -0.6105
  160TMC2    C1 2434   1.843   2.071   1.980 -0.3361  0.3262 -0.2865
  160TMC2    C2 2435   1.922   2.001   2.072 -0.5992  0.2165 -0.1956
  160TMC2    C3 2436   1.985   1.882   2.031  0.2688 -0.3120  0.3901
  160TMC2    C4 2437   1.834   2.026   1.854  0.3762  0.2262  0.0804
  160TMC2    C5 2438   1.899   1.913   1.817  0.6213 -0.5888  0.4716
  160TMC2    C6 2439   1.976   1.839   1.903  0.1644  0.3740 -0.5916
  160TMC2     C 2440   1.779   2.192   2.030  0.9088  0.0725 -0.1146
  160TMC2     O 2441   1.829   2.241   2.129 -0.3029 -0.0652  0.3544
  160TMC2     H 2442   1.932   2.045   2.170 -0.0760 -0.1647 -0.0764
  160TMC2    H1 2443   1.783   2.087   1.781  2.0149  2.0622  0.4565
  160TMC2    H2 2444   2.033   1.755   1.868  1.9458  1.5968 -0.6054
  160TMC2    C7 2445   1.880   1.860   1.683  0.3524 -0.0902 -0.0650
  160TMC2    C8 2446   2.068   1.805   2.122  0.4196  0.3865 -0.0673
  160TMC2    O1 2447   1.771   1.892   1.631  0.1009 -0.2084  0.2417
  160TMC2    O2 2448   2.157   1.730   2.079  0.0690 -0.1215 -0.5549
  160TMC2    O5 2449   2.020   1.817   2.250  0.4683  0.4769 -0.4346
  160TMC2    H5 2450   1.933   1.859   2.265 -0.7212 -1.7207 -1.0667
  161MPD2     C 2451   1.603   2.433   2.076 -0.2095  1.3540  0.4810
  161MPD2    C1 2452   1.571   2.328   1.994  0.2162  0.1007 -0.5907
  161MPD2    C2 2453   1.443   2.324   1.937  0.1497 -0.3620  0.0946
  161MPD2    C3 2454   1.347   2.415   1.972 -0.0184  0.1868 -0.3004
  161MPD2    C4 2455   1.383   2.529   2.044 -0.1875  0.7011 -0.3009
  161MPD2    C5 2456   1.515   2.535   2.090  0.4816 -0.9792 -0.0827
  161MPD2     H 2457   1.414   2.240   1.875 -0.9091 -2.4267  3.3864
  161MPD2    H1 2458   1.320   2.615   2.061 -1.4827 -0.0566 -1.2443
  161MPD2    H2 2459   1.708   2.444   2.102  0.5185  1.0653 -2.3547
  161MPD2    H3 2460   1.552   2.624   2.140 -1.2380 -1.1290  1.4636
  161MPD2     N 2461   1.217   2.390   1.912 -0.1315 -0.0000  0.0118
  161MPD2    H5 2462   1.211   2.304   1.858  0.4421 -0.6250  0.9458
  161MPD2    N1 2463   1.660   2.221   1.969  0.4640  0.2821  0.3851
  161MPD2    H7 2464   1.629   2.150   1.904 -1.6216  2.3208 -0.8839
  162TMC2    C1 2465   3.872   3.687   0.844  0.5287 -0.2603  0.3274
  162TMC2    C2 2466   3.825   3.803   0.906  0.1858  0.3530 -0.1086
  162TMC2    C3 2467   3.759   3.792   1.026  0.9878 -0.2789  0.4962
  162TMC2    C4 2468   3.853   3.563   0.905  0.0160 -0.6254 -0.1187
  162TMC2    C5 2469   3.794   3.563   1.027 -0.5508  0.4342  0.6111
  162TMC2    C6 2470   3.736   3.669   1.084 -0.6808  0.7502 -0.1073
  162TMC2     C 2471   3.979   3.696   0.746  0.3747 -0.3569 -0.0255
  162TMC2     O 2472   4.023   3.589   0.705  0.0912  0.1439  0.0869
  162TMC2     H 2473   3.835   3.898   0.855 -0.8677  0.1304 -0.7491
  162TMC2    H1 2474   3.887   3.473   0.854  0.5935 -2.0251  2.7231
  162TMC2    H2 2475   3.696   3.669   1.185 -0.3470  1.1585  0.0285
  162TMC2    C7 2476   3.799   3.437   1.095 -0.3295 -0.3131  0.4058
  162TMC2    C8 2477   3.742   3.914   1.099  0.0249  0.0965  0.0380
  162TMC2    O1 2478   3.737   3.342   1.048 -0.0884 -0.3272 -0.5627
  162TMC2    O2 2479   3.809   4.015   1.084  0.3524 -0.6306 -0.2508
  162TMC2    O5 2480   3.627   3.907   1.167  0.3907  0.1413  0.2969
  162TMC2    H5 2481   3.565   3.837   1.137 -1.7502  1.5020  1.6209
  163MPD2     C 2482   4.329   3.967   0.472 -0.3373  0.3769 -0.1357
  163MPD2    C1 2483   4.330   3.830   0.506  0.3440 -0.6233  1.2409
  163MPD2    C2 2484   4.229   3.783   0.592 -0.6872 -0.3716 -0.2534
  163MPD2    C3 2485   4.132   3.870   0.649 -0.1039 -0.1675 -0.1626
  163MPD2    C4 2486   4.148   4.004   0.628 -0.1725  0.5969  0.2465
  163MPD2    C5 2487   4.245   4.051   0.545  0.0414  0.6943  0.2182
  163MPD2     H 2488   4.219   3.677   0.614 -2.1686 -0.9443 -3.6387
  163MPD2    H1 2489   4.078   4.075   0.671 -1.0353 -1.2742  1.8963
  163MPD2    H2 2490   4.413   4.011   0.419 -1.0507  2.0901  0.1493
  163MPD2    H3 2491   4.262   4.155   0.520 -2.1834  1.1781  0.7302
  163MPD2     N 2492   4.022   3.828   0.725  0.1174 -0.1916  1.2330
  163MPD2    H5 2493   3.971   3.899   0.775 -0.3665  0.4494 -0.1742
  163MPD2    N1 2494   4.436   3.761   0.446 -0.4625 -0.2275 -0.0504
  163MPD2    H7 2495   4.508   3.812   0.395 -0.3859 -1.5900 -1.3197
  164TCq2    C1 2496   0.594   2.714  11.340 -0.1757 -0.2855 -0.2378
  164TCq2    O2 2497   0.492   2.689  11.403 -0.2141 -0.4552 -0.4038
  164TCq2    C2 2498   0.672   2.834  11.371  0.3900 -0.1783 -0.7008
  164TCq2    C3 2499   0.780   2.862  11.298 -0.1888 -0.3530  0.2535
  164TCq2    C4 2500   0.835   2.984  11.325 -0.6296  0.6449 -1.1138
  164TCq2    C5 2501   0.778   3.084  11.404 -0.3125  0.3533  0.1177
  164TCq2    C6 2502   0.673   3.041  11.477 -0.3119 -0.0536  0.0999
  164TCq2    C7 2503   0.620   2.916  11.467  0.5572 -0.0344  0.1268
  164TCq2    C8 2504   0.572   3.135  11.503  0.5263 -0.4606 -0.3439
  164TCq2    O4 2505   0.456   3.110  11.467 -0.3138  0.0832 -0.2643
  164TCq2    C9 2506   0.954   3.016  11.251  0.0394  0.4958  0.7204
  164TCq2    O5 2507   0.969   3.135  11.229 -0.4659 -0.2299 -0.0996
  164TCq2    O6 2508   1.037   2.920  11.219 -0.6059  0.5546 -0.4208
  164TCq2    H2 2509   0.831   2.812  11.216 -0.5560  2.8995 -1.9837
  164TCq2    H3 2510   0.811   3.186  11.418 -2.4410  1.2669 -1.5794
  164TCq2    H4 2511   0.540   2.894  11.538  0.8331  0.4378  0.5779
  165MPD2     C 2512   1.899   0.412   1.462  0.6083  0.2581 -0.1651
  165MPD2    C1 2513   1.781   0.435   1.397 -0.3624  0.3036 -1.1028
  165MPD2    C2 2514   1.727   0.566   1.388  0.3776 -0.5044 -0.4559
  165MPD2    C3 2515   1.806   0.676   1.443 -0.4479  0.1890 -0.0699
  165MPD2    C4 2516   1.920   0.643   1.511 -0.0609 -0.1512  0.2226
  165MPD2    C5 2517   1.966   0.516   1.517  0.1951 -0.3152 -0.1593
  165MPD2     H 2518   1.638   0.588   1.330 -1.1934  1.1052  2.6207
  165MPD2    H1 2519   1.981   0.723   1.552 -1.1677  1.0227 -0.4207
  165MPD2    H2 2520   1.930   0.311   1.484 -0.0122  0.0063 -0.4544
  165MPD2    H3 2521   2.055   0.488   1.572  0.8304  1.1311 -0.4723
  165MPD2     N 2522   1.759   0.818   1.438 -0.0059 -0.0168 -0.0815
  165MPD2    H5 2523   1.817   0.885   1.486 -0.5474 -0.2740  0.9227
  165MPD2    N1 2524   1.717   0.322   1.339 -0.0332  0.2964 -0.0034
  165MPD2    H7 2525   1.767   0.235   1.350  0.8422  1.0059  1.7346
  166TCq2    C1 2526   1.644   0.873   1.372  0.5453 -0.7930 -0.3694
  166TCq2    O2 2527   1.543   0.829   1.329  0.4222  0.5404  0.7970
  166TCq2    C2 2528   1.641   1.019   1.384 -0.5477 -0.2092  0.6106
  166TCq2    C3 2529   1.524   1.089   1.390  0.0698 -0.2252 -0.1468
  166TCq2    C4 2530   1.529   1.227   1.421  0.0336 -0.1539 -0.2273
  166TCq2    C5 2531   1.649   1.291   1.429  0.3854 -0.0798 -0.5990
  166TCq2    C6 2532   1.762   1.211   1.426 -0.1379 -0.1183 -0.0289
  166TCq2    C7 2533   1.761   1.077   1.405  0.2526  0.4060 -0.4828
  166TCq2    C8 2534   1.892   1.274   1.466 -0.1386  0.1936 -0.4072
  166TCq2    O4 2535   1.988   1.199   1.449 -0.1588 -0.8590  0.7359
  166TCq2    C9 2536   1.403   1.301   1.434  0.7654  0.9452 -0.0684
  166TCq2    O5 2537   1.296   1.240   1.415 -0.0633  0.0220 -0.3678
  166TCq2    O6 2538   1.420   1.416   1.480  0.5043  0.8759  0.3449
  166TCq2    H2 2539   1.425   1.045   1.383  0.3939 -1.1806  1.2897
  166TCq2    H3 2540   1.661   1.398   1.445 -1.4286  0.3482 -2.0608
  166TCq2    H4 2541   1.855   1.025   1.385 -0.1845 -0.1775 -1.0163
  167TMC2    C1 2542   4.607   3.080  12.612 -0.8581 -0.4746 -0.3628
  167TMC2    C2 2543   4.507   3.154  12.681  0.2839  0.0442  0.2991
  167TMC2    C3 2544   4.505   3.142  12.819 -0.0691  1.0155  0.6059
  167TMC2    C4 2545   4.687   2.991  12.677  0.3289  0.1041  0.7355
  167TMC2    C5 2546   4.681   2.981  12.814  0.4654  0.0162 -0.8159
  167TMC2    C6 2547   4.588   3.055  12.889 -0.3177 -0.1861 -0.1300
  167TMC2     C 2548   4.601   3.072  12.473  0.2792  0.1091 -0.3734
  167TMC2     O 2549   4.567   3.176  12.420  0.5249  0.3430 -0.0304
  167TMC2     H 2550   4.439   3.220  12.629 -0.3002 -0.5489  0.3137
  167TMC2    H1 2551   0.041   2.942  12.620  0.1663 -0.9063  1.3800
  167TMC2    H2 2552   4.568   3.027  12.991  2.8089 -1.4538  0.1423
  167TMC2    C7 2553   4.711   2.851  12.883  0.2151  0.1653 -0.4639
  167TMC2    C8 2554   4.377   3.172  12.883  0.0896  0.5141 -0.3705
  167TMC2    O1 2555   4.638   2.803  12.969  0.2040  0.7237 -0.8904
  167TMC2    O2 2556   4.324   3.110  12.972  0.1958 -0.0333  0.4662
  167TMC2    O5 2557   4.341   3.300  12.849  0.4282 -0.5334  0.0067
  167TMC2    H5 2558   4.393   3.354  12.786 -2.3255  1.9115 -0.1795
  168MPD2     C 2559   4.589   2.987  12.197  0.2017  0.1495  0.4648
  168MPD2    C1 2560   4.607   2.897  12.299  0.0954 -0.1785 -0.3485
  168MPD2    C2 2561   4.613   2.763  12.280 -0.6688 -0.8730  0.1170
  168MPD2    C3 2562   4.612   2.708  12.153  0.0384  0.8135  0.0827
  168MPD2    C4 2563   4.602   2.794  12.048  0.2415 -0.0476  0.6847
  168MPD2    C5 2564   4.594   2.933  12.071 -0.3761  1.0037 -0.4462
  168MPD2     H 2565   4.617   2.702  12.370 -2.3892 -0.1459  0.6926
  168MPD2    H1 2566   4.619   2.756  11.947  0.2533  4.6860 -1.1036
  168MPD2    H2 2567   4.584   3.095  12.200 -1.3465  0.1228 -0.5643
  168MPD2    H3 2568   4.611   3.009  11.996 -0.3075 -0.8119 -2.2717
  168MPD2     N 2569   4.637   2.565  12.136 -0.7072 -0.3992  0.2733
  168MPD2    H5 2570   4.653   2.517  12.048 -1.9190 -2.0763  0.9822
  168MPD2    N1 2571   4.603   2.940  12.429 -0.0138 -0.1846  0.1490
  168MPD2    H7 2572   4.626   2.869  12.497  2.9441  1.3058  0.7033
  169MPD1     C 2573   2.449   1.598  10.614  0.4262 -0.0691 -0.1245
  169MPD1    C1 2574   2.511   1.475  10.598  0.0764  0.3575  0.1116
  169MPD1    C2 2575   2.597   1.459  10.494  0.1049  0.1794 -0.3223
  169MPD1    C3 2576   2.635   1.573  10.416 -0.5391  0.0116  0.0160
  169MPD1    C4 2577   2.576   1.691  10.439  0.2293 -0.1287 -0.4955
  169MPD1    C5 2578   2.483   1.704  10.536 -0.2184  0.1218 -0.5275
  169MPD1     H 2579   2.642   1.365  10.468 -1.3855 -0.8469  0.8034
  169MPD1    H1 2580   2.601   1.780  10.382  0.2437  1.5283  2.0830
  169MPD1    H2 2581   2.379   1.610  10.696  0.6310  1.3262 -0.1594
  169MPD1    H3 2582   2.430   1.798  10.549  0.8890  0.6755  0.0264
  169MPD1     N 2583   2.731   1.550  10.317 -0.2785  0.1285 -0.1008
  169MPD1    H5 2584   2.763   1.453  10.313 -2.1167 -0.5440  1.4775
  169MPD1    N1 2585   2.457   1.362  10.655 -0.2011  0.2549  0.4668
  169MPD1    H6 2586   2.426   1.382  10.750  0.8389  2.2254  0.3861
  169MPD1    H7 2587   2.527   1.289  10.659 -1.3654 -0.9555 -1.3593
  170MPD1     C 2588   1.357   0.194  12.789 -0.0503  0.5099  0.7901
  170MPD1    C1 2589   1.288   0.306  12.771 -0.1137  1.1537 -0.1024
  170MPD1    C2 2590   1.211   0.363  12.883 -0.6495  0.8054  0.4999
  170MPD1    C3 2591   1.205   0.296  12.999  0.2282  0.0376  0.3425
  170MPD1    C4 2592   1.280   0.177  13.015  0.5822  0.4849  0.1525
  170MPD1    C5 2593   1.350   0.130  12.911  0.2662 -0.3637 -0.0523
  170MPD1     H 2594   1.146   0.450  12.878  0.4534  1.7046  1.9714
  170MPD1    H1 2595   1.280   0.112  13.102 -1.4452 -0.5258 -0.6147
  170MPD1    H2 2596   1.411   0.153  12.704 -0.4853  1.4816  0.0340
  170MPD1    H3 2597   1.403   0.036  12.919  0.4625 -0.3388 -1.0633
  170MPD1     N 2598   1.127   0.346  13.112 -0.2815  0.0498  0.0427
  170MPD1    H5 2599   1.079   0.434  13.096 -2.5533 -1.0037  1.0791
  170MPD1    N1 2600   1.281   0.350  12.635  0.3119 -0.2873  0.4518
  170MPD1    H6 2601   1.357   0.316  12.577 -1.4178 -1.6493 -1.0158
  170MPD1    H7 2602   1.269   0.451  12.626 -0.7993 -0.1886  2.8963
  171MPD1     C 2603   4.568   1.628  15.119 -0.3167 -0.2985 -0.7323
  171MPD1    C1 2604   4.471   1.618  15.217  0.7184 -0.1510  0.1844
  171MPD1    C2 2605   4.471   1.515  15.316 -0.3634 -0.1154 -0.1580
  171MPD1    C3 2606   4.581   1.441  15.335  0.3134 -0.5722  0.2599
  171MPD1    C4 2607   4.687   1.456  15.246  0.0763  0.2238 -0.2032
  171MPD1    C5 2608   4.680   1.548  15.146 -0.2585  0.2740 -0.0461
  171MPD1     H 2609   4.385   1.508  15.381  1.3148 -1.2161  1.9176
  171MPD1    H1 2610   0.055   1.400  15.256 -0.7926 -0.5348  3.4650
  171MPD1    H2 2611   4.554   1.691  15.032  0.2604  3.4176  1.8421
  171MPD1    H3 2612   0.036   1.550  15.073 -1.2724  1.2739 -1.1159
  171MPD1     N 2613   4.592   1.344  15.439 -0.2506 -0.3244  0.0384
  171MPD1    H5 2614   4.665   1.273  15.430  0.5380  0.3045  1.4206
  171MPD1    N1 2615   4.354   1.689  15.207 -0.4404 -0.0231 -0.2404
  171MPD1    H6 2616   4.371   1.770  15.147  1.1046 -0.6083 -0.5815
  171MPD1    H7 2617   4.277   1.643  15.158 -1.1686 -0.0571  0.9345
  172MPD1     C 2618   3.523   0.931  17.406 -0.0555 -0.5141 -0.0946
  172MPD1    C1 2619   3.574   0.923  17.531  0.2863  0.5730 -0.0426
  172MPD1    C2 2620   3.643   1.027  17.588  1.1814  1.1656 -0.4866
  172MPD1    C3 2621   3.651   1.151  17.517  0.4399  0.1300  0.0852
  172MPD1    C4 2622   3.605   1.149  17.392 -0.0711  0.2337 -0.1879
  172MPD1    C5 2623   3.543   1.045  17.337 -0.5927 -0.1968 -0.4061
  172MPD1     H 2624   3.695   1.009  17.681  1.9614 -1.9689 -1.5065
  172MPD1    H1 2625   3.614   1.241  17.335 -0.4575 -1.2221 -2.5775
  172MPD1    H2 2626   3.475   0.846  17.359 -1.8718  1.9410 -2.6962
  172MPD1    H3 2627   3.502   1.049  17.237  0.9619  1.4710 -0.9690
  172MPD1     N 2628   3.720   1.261  17.565 -0.0596 -0.1495  0.0219
  172MPD1    H5 2629   3.719   1.337  17.498 -2.2031  0.2841  0.5612
  172MPD1    N1 2630   3.582   0.795  17.592  0.1827 -0.0250 -0.3467
  172MPD1    H6 2631   3.508   0.729  17.567 -0.9042  1.5306 -1.1871
  172MPD1    H7 2632   3.579   0.817  17.691  0.1864  0.2096 -0.3991
  173MPD1     C 2633   4.632   1.050  14.504  0.1121  0.1782  0.1553
  173MPD1    C1 2634   4.623   0.984  14.387 -0.2508 -0.2607  0.2339
  173MPD1    C2 2635   4.548   0.869  14.395  0.7613  0.0513 -0.7621
  173MPD1    C3 2636   4.486   0.821  14.508 -0.3151 -1.0014 -0.0107
  173MPD1    C4 2637   4.503   0.889  14.627 -0.7409  0.6795 -0.1384
  173MPD1    C5 2638   4.574   1.006  14.625 -0.5100 -0.1246 -0.4384
  173MPD1     H 2639   4.555   0.810  14.305  0.2754  0.1512 -0.8650
  173MPD1    H1 2640   4.459   0.867  14.723  1.2627  1.4966  0.9578
  173MPD1    H2 2641   4.672   1.151  14.513 -2.2092  1.1092 -0.1068
  173MPD1    H3 2642   4.582   1.053  14.722  0.1989 -0.8042 -0.1640
  173MPD1     N 2643   4.427   0.692  14.508 -0.0353  0.3489 -0.0757
  173MPD1    H5 2644   4.413   0.656  14.414 -0.2278  1.2366 -0.3867
  173MPD1    N1 2645   4.686   1.036  14.274  0.2469 -0.9284 -0.5474
  173MPD1    H6 2646   0.028   1.112  14.291 -0.0153 -1.0536  1.0293
  173MPD1    H7 2647   4.628   1.051  14.191  0.6550  3.4209 -0.0479
  174MPD1     C 2648   4.161   4.616  14.009 -0.8717 -0.3104  0.6918
  174MPD1    C1 2649   4.087   0.004  14.024 -1.1245  0.3959  0.0342
  174MPD1    C2 2650   4.125   0.090  14.127 -0.1736  0.0591  0.0605
  174MPD1    C3 2651   4.228   0.053  14.216 -0.2419 -0.8251 -1.4180
  174MPD1    C4 2652   4.287   4.651  14.208 -0.4672  0.2828  0.6888
  174MPD1    C5 2653   4.257   4.574  14.098  0.4851  0.1753 -0.1445
  174MPD1     H 2654   4.069   0.182  14.133 -0.0433 -0.0571  2.7843
  174MPD1    H1 2655   4.344   4.606  14.288 -0.9010 -0.8605  0.3586
  174MPD1    H2 2656   4.128   4.551  13.930 -0.7863 -3.7984  3.5534
  174MPD1    H3 2657   4.307   4.478  14.090 -2.4632 -1.4414  0.5644
  174MPD1     N 2658   4.263   0.131  14.330 -0.1530  0.5112  0.1860
  174MPD1    H5 2659   4.314   0.086  14.406 -0.3213  2.8586  1.6662
  174MPD1    N1 2660   3.984   0.021  13.933 -0.0255 -0.1527  0.1440
  174MPD1    H6 2661   3.916   0.091  13.964 -1.1881 -1.1206 -0.2315
  174MPD1    H7 2662   3.943   4.659  13.898  1.0431 -0.3727 -0.5777
  175MPD1     C 2663   3.150   1.418  15.410  0.1983  0.1395  0.1840
  175MPD1    C1 2664   3.029   1.376  15.462  0.2662  0.2631 -0.3071
  175MPD1    C2 2665   2.982   1.405  15.590 -0.7410  0.0571 -0.7853
  175MPD1    C3 2666   3.058   1.493  15.663  0.2778 -0.3288  0.3799
  175MPD1    C4 2667   3.179   1.539  15.617  0.6205  0.6353 -0.0139
  175MPD1    C5 2668   3.216   1.504  15.491 -0.2250  0.2496  0.4431
  175MPD1     H 2669   2.884   1.363  15.612 -0.6581  0.9884  1.3261
  175MPD1    H1 2670   3.243   1.602  15.679  0.0461  1.8226 -0.6319
  175MPD1    H2 2671   3.184   1.386  15.312 -0.0076  0.4329  0.0147
  175MPD1    H3 2672   3.309   1.538  15.446  0.5802 -2.1149  0.3044
  175MPD1     N 2673   3.026   1.528  15.795  0.3342 -0.1887  0.0816
  175MPD1    H5 2674   3.101   1.581  15.838 -0.4633 -0.2062  1.4825
  175MPD1    N1 2675   2.949   1.289  15.389 -0.0234 -0.1177  0.6045
  175MPD1    H6 2676   2.995   1.255  15.305 -1.2606  0.4153 -0.2958
  175MPD1    H7 2677   2.921   1.208  15.443  2.9169 -0.5694  1.4250
  176MPD1     C 2678   0.423   2.924  16.480 -0.2610  0.0413 -0.2935
  176MPD1    C1 2679   0.341   3.022  16.419  0.3164 -0.2181 -0.4715
  176MPD1    C2 2680   0.292   3.119  16.499  0.1166  0.3941  0.0777
  176MPD1    C3 2681   0.285   3.102  16.636 -0.7587 -0.4367  0.6763
  176MPD1    C4 2682   0.346   2.993  16.690 -0.1217  0.1794  0.4417
  176MPD1    C5 2683   0.418   2.905  16.613  0.0096  0.7843  0.0315
  176MPD1     H 2684   0.237   3.205  16.461 -0.9009 -0.1426  0.3437
  176MPD1    H1 2685   0.352   2.975  16.797  4.2838  4.1262  0.8445
  176MPD1    H2 2686   0.476   2.844  16.429  0.9105  0.7377 -0.1786
  176MPD1    H3 2687   0.464   2.822  16.666 -1.6525 -0.4994 -0.5338
  176MPD1     N 2688   0.227   3.198  16.721  0.6556 -0.8349 -0.0553
  176MPD1    H5 2689   0.177   3.266  16.665 -1.4102 -0.3373  2.3985
  176MPD1    N1 2690   0.353   3.046  16.282  0.4361  0.4212  0.4101
  176MPD1    H6 2691   0.278   3.101  16.241  0.2927  0.9540  1.3968
  176MPD1    H7 2692   0.345   2.958  16.231  0.0079  0.8538 -0.2656
  177MPD1     C 2693   3.709   3.286  10.360 -0.2653  0.2702  0.0563
  177MPD1    C1 2694   3.662   3.165  10.329 -0.2706  0.2853 -0.0859
  177MPD1    C2 2695   3.593   3.154  10.210 -0.1899  0.2078  0.0059
  177MPD1    C3 2696   3.580   3.263  10.124 -0.6389  0.0897 -0.1126
  177MPD1    C4 2697   3.628   3.379  10.159  0.1345 -0.6091  0.6907
  177MPD1    C5 2698   3.691   3.394  10.278 -0.2651  0.1300 -0.1417
  177MPD1     H 2699   3.543   3.062  10.181  1.2895 -0.2425 -1.0874
  177MPD1    H1 2700   3.627   3.467  10.096  0.8729 -1.2156 -0.1829
  177MPD1    H2 2701   3.768   3.297  10.450 -0.1934  1.5882 -0.1454
  177MPD1    H3 2702   3.730   3.492  10.300  0.1307 -0.0126 -0.1983
  177MPD1     N 2703   3.496   3.254  10.016 -0.2013 -0.7952  0.0988
  177MPD1    H5 2704   3.431   3.177  10.010 -0.1974 -0.7280 -0.6979
  177MPD1    N1 2705   3.647   3.069  10.433  0.2629  0.1034 -0.6514
  177MPD1    H6 2706   3.725   3.069  10.497 -0.7891  0.1706  0.6239
  177MPD1    H7 2707   3.632   2.978  10.390  0.3940 -0.2333  0.0230
  178MPD1     C 2708   0.889   0.266   0.334 -0.2635  0.0464 -0.5070
  178MPD1    C1 2709   0.826   0.231   0.217 -0.3476  0.3982 -0.0954
  178MPD1    C2 2710   0.879   0.119   0.146  0.0383 -0.2050 -0.1156
  178MPD1    C3 2711   0.974   0.041   0.202  0.2801  0.3292  0.1246
  178MPD1    C4 2712   1.041   0.087   0.312  0.3382 -0.2947  0.3328
  178MPD1    C5 2713   0.996   0.196   0.387  0.5889  0.1786  0.3864
  178MPD1     H 2714   0.834   0.086   0.053 -2.1006 -2.2686  1.6733
  178MPD1    H1 2715   1.125   0.032   0.353  1.0313 -0.4892 -1.3688
  178MPD1    H2 2716   0.850   0.352   0.387  0.7992  1.6944 -2.3942
  178MPD1    H3 2717   1.048   0.228   0.476  0.6728  0.0547  0.3815
  178MPD1     N 2718   1.028   4.645   0.144  0.3240  0.0702  0.4233
  178MPD1    H5 2719   1.117   4.623   0.188  0.6917 -1.4656 -1.1021
  178MPD1    N1 2720   0.690   0.269   0.197 -0.0281  0.1583  0.3415
  178MPD1    H6 2721   0.674   0.361   0.238 -1.7662  0.6665 -1.5004
  178MPD1    H7 2722   0.676   0.265   0.096  0.8749 -2.1368  0.2958
  179MPD1     C 2723   0.326   2.434  15.079  0.4177  0.4153  0.5278
  179MPD1    C1 2724   0.420   2.463  15.180  0.1110 -0.6541 -0.2792
  179MPD1    C2 2725   0.382   2.457  15.312 -1.0591  0.0453 -0.3266
  179MPD1    C3 2726   0.252   2.456  15.358  0.1466 -0.5703  0.0739
  179MPD1    C4 2727   0.160   2.455  15.260  0.8519 -0.3832 -0.2261
  179MPD1    C5 2728   0.195   2.440  15.129  0.5675 -0.1774  0.0429
  179MPD1     H 2729   0.461   2.469  15.385 -0.6382  0.1878 -0.8143
  179MPD1    H1 2730   0.055   2.448  15.283  1.2177 -0.2869  1.4368
  179MPD1    H2 2731   0.347   2.437  14.973  0.0618  0.0810  0.4466
  179MPD1    H3 2732   0.120   2.419  15.055 -0.3548 -1.1482  1.2562
  179MPD1     N 2733   0.211   2.449  15.490 -0.3866 -0.1593 -0.2633
  179MPD1    H5 2734   0.116   2.475  15.513 -0.8220 -1.8353 -0.1669
  179MPD1    N1 2735   0.557   2.475  15.141 -0.4063  0.5239  0.2996
  179MPD1    H6 2736   0.553   2.503  15.043 -0.2249 -2.2977 -0.5271
  179MPD1    H7 2737   0.600   2.554  15.189  1.2019 -0.1751  0.0204
  180MPD1     C 2738   0.978   3.893  14.843  0.0770  0.0815  0.2250
  180MPD1    C1 2739   0.961   3.989  14.739 -0.1011 -0.2100  0.2011
  180MPD1    C2 2740   0.835   4.015  14.699 -0.4599  1.1827  0.5142
  180MPD1    C3 2741   0.725   3.962  14.758  0.4198  0.7481 -0.3008
  180MPD1    C4 2742   0.739   3.881  14.867  0.3238 -0.3924 -0.4907
  180MPD1    C5 2743   0.871   3.853  14.916  0.5053  0.2616  0.3971
  180MPD1     H 2744   0.826   4.085  14.616 -1.4999  2.0381  1.3606
  180MPD1    H1 2745   0.651   3.852  14.923 -1.0148  1.9771 -1.3588
  180MPD1    H2 2746   1.074   3.857  14.878  1.1324  1.5227 -1.1823
  180MPD1    H3 2747   0.875   3.784  15.000  0.6046 -1.2213 -0.8325
  180MPD1     N 2748   0.598   4.005  14.710  0.0275 -0.1636  0.1322
  180MPD1    H5 2749   0.603   4.074  14.636  1.4044 -0.9190 -0.4686
  180MPD1    N1 2750   1.072   4.028  14.666  0.1198 -0.1039 -0.2798
  180MPD1    H6 2751   1.161   4.019  14.713  0.5117 -0.1296 -1.0360
  180MPD1    H7 2752   1.074   4.123  14.630  2.1165  0.5420  1.5097
  181MPD1     C 2753   1.731   0.306  10.987  0.1991 -0.7086 -0.2219
  181MPD1    C1 2754   1.821   0.206  10.965  0.0145  0.8052 -0.6709
  181MPD1    C2 2755   1.926   0.213  10.868  0.7545  0.2519  0.3263
  181MPD1    C3 2756   1.920   0.326  10.776  0.3829 -0.2060  0.3667
  181MPD1    C4 2757   1.829   0.422  10.795  0.3917  0.9540  0.2169
  181MPD1    C5 2758   1.730   0.409  10.895 -0.7619 -0.5522 -0.0383
  181MPD1     H 2759   1.991   0.129  10.848 -0.1233 -0.5455  0.7860
  181MPD1    H1 2760   1.827   0.496  10.716 -0.9397  0.1912 -0.4642
  181MPD1    H2 2761   1.658   0.306  11.067  1.1629 -2.1725  0.6565
  181MPD1    H3 2762   1.668   0.496  10.915 -0.2188 -0.1840  0.0761
  181MPD1     N 2763   2.004   0.354  10.666 -0.0547 -0.4326 -0.5057
  181MPD1    H5 2764   2.013   0.450  10.637 -0.1452 -0.3391 -0.2254
  181MPD1    N1 2765   1.831   0.112  11.064 -0.0974 -0.0714  0.4448
  181MPD1    H6 2766   1.870   0.025  11.028  0.3522 -0.3205  1.5512
  181MPD1    H7 2767   1.744   0.090  11.111 -0.5464 -0.8126 -0.7294
  182MPD1     C 2768   3.471   4.169   1.312 -0.0869 -0.4166  0.1054
  182MPD1    C1 2769   3.448   4.172   1.452  0.3334  0.0247 -0.2186
  182MPD1    C2 2770   3.346   4.240   1.503  0.8389 -0.9154 -0.2065
  182MPD1    C3 2771   3.280   4.338   1.429 -0.3533  0.7746 -0.4322
  182MPD1    C4 2772   3.314   4.350   1.299  0.1431 -0.2503 -0.0538
  182MPD1    C5 2773   3.403   4.260   1.239 -1.2487  0.4388 -0.0454
  182MPD1     H 2774   3.335   4.231   1.610 -1.7602  0.1354 -0.3748
  182MPD1    H1 2775   3.253   4.413   1.236  0.4717  0.1019 -0.0194
  182MPD1    H2 2776   3.545   4.112   1.257 -1.4787 -1.4136 -0.7216
  182MPD1    H3 2777   3.421   4.256   1.132  0.9000  2.5995  0.2402
  182MPD1     N 2778   3.182   4.432   1.478 -0.4537 -0.1741  0.4533
  182MPD1    H5 2779   3.119   4.471   1.409 -0.3489 -0.0374  0.4360
  182MPD1    N1 2780   3.512   4.081   1.533  0.6452  0.9013  1.1176
  182MPD1    H6 2781   3.603   4.049   1.501 -0.2093 -0.0047 -0.4273
  182MPD1    H7 2782   3.518   4.102   1.632 -0.3053  0.5382  1.2568
  183MPD1     C 2783   4.135   1.043  10.005  0.4693 -0.9368 -0.9089
  183MPD1    C1 2784   4.039   0.988  10.087 -1.1365  0.1289 -0.0539
  183MPD1    C2 2785   3.928   0.932  10.020 -0.1068  0.0083 -0.6789
  183MPD1    C3 2786   3.915   0.934   9.882  0.0955 -0.3480 -0.2040
  183MPD1    C4 2787   4.011   1.002   9.812 -0.5967 -0.4417 -0.0286
  183MPD1    C5 2788   4.119   1.059   9.868 -0.2020 -0.6890 -0.0919
  183MPD1     H 2789   3.846   0.890  10.078  1.0237  1.4352  1.9271
  183MPD1    H1 2790   4.001   1.022   9.706  0.6968 -0.3066 -0.1230
  183MPD1    H2 2791   4.223   1.093  10.043  0.1951 -1.4738  0.4272
  183MPD1    H3 2792   4.196   1.117   9.819 -0.1460  0.4871  1.4025
  183MPD1     N 2793   3.796   0.876   9.828 -0.8245  0.5310  0.5300
  183MPD1    H5 2794   3.731   0.853   9.902 -0.7711  0.2053  0.4733
  183MPD1    N1 2795   4.051   1.015  10.221  0.0926 -0.2693  0.4835
  183MPD1    H6 2796   4.146   1.037  10.248  0.7052 -1.6323 -0.5719
  183MPD1    H7 2797   4.028   0.935  10.279  0.0439 -0.3685  0.3262
  184MPD1     C 2798   2.291   3.233  10.335  0.0902  0.4181  0.1145
  184MPD1    C1 2799   2.255   3.145  10.240 -0.0256  0.0763 -0.0214
  184MPD1    C2 2800   2.353   3.113  10.140  0.1058  1.0672 -1.0079
  184MPD1    C3 2801   2.472   3.183  10.123 -0.3033 -0.0346  0.3082
  184MPD1    C4 2802   2.504   3.270  10.227 -0.0227 -0.0486  0.8137
  184MPD1    C5 2803   2.408   3.301  10.323  0.1074  0.3047  0.3385
  184MPD1     H 2804   2.334   3.036  10.066  0.7777  0.1208 -0.1915
  184MPD1    H1 2805   2.592   3.333  10.226  0.9687 -1.3944  2.5497
  184MPD1    H2 2806   2.225   3.243  10.421  0.0439  1.4648 -0.0378
  184MPD1    H3 2807   2.432   3.378  10.395 -0.1514  1.8090 -1.2047
  184MPD1     N 2808   2.566   3.170  10.015 -0.3313  0.0512  0.4587
  184MPD1    H5 2809   2.650   3.227  10.021 -1.3069  1.3884  1.5327
  184MPD1    N1 2810   2.135   3.070  10.259 -0.0408 -0.0697  0.5230
  184MPD1    H6 2811   2.095   3.031  10.174 -0.6017  2.2230 -0.2419
  184MPD1    H7 2812   2.070   3.109  10.327 -3.2290  0.9323 -3.1304
  185MPD1     C 2813   2.161   3.086   9.134 -0.2678  0.1791  0.0938
  185MPD1    C1 2814   2.192   3.214   9.181  0.0281 -0.6014 -0.3232
  185MPD1    C2 2815   2.300   3.226   9.272  0.5232 -0.9071  0.3041
  185MPD1    C3 2816   2.368   3.112   9.319 -1.4177 -0.4328  0.3125
  185MPD1    C4 2817   2.327   2.984   9.271  0.9463 -0.1565 -0.5151
  185MPD1    C5 2818   2.226   2.980   9.177 -0.1764  0.9590 -0.5699
  185MPD1     H 2819   2.331   3.322   9.313 -1.0198  0.5701 -2.0094
  185MPD1    H1 2820   2.382   2.893   9.292  0.7154  0.2547  1.8897
  185MPD1    H2 2821   2.084   3.064   9.061  0.6117 -0.5705 -0.6042
  185MPD1    H3 2822   2.195   2.886   9.133 -1.6693  0.5573  1.3598
  185MPD1     N 2823   2.474   3.116   9.412  0.7264 -0.1792  0.6727
  185MPD1    H5 2824   2.518   3.028   9.433  1.2553  0.1531  0.9504
  185MPD1    N1 2825   2.111   3.323   9.146 -0.7387 -0.0470  0.0235
  185MPD1    H6 2826   2.157   3.412   9.168  1.1949 -0.9046 -0.5100
  185MPD1    H7 2827   2.087   3.319   9.047  2.3269  0.1450 -0.7251
  186MPD1     C 2828   1.089   2.347  15.984  0.2075  0.5106  0.3888
  186MPD1    C1 2829   1.010   2.330  16.101  0.1394 -0.9234 -0.0709
  186MPD1    C2 2830   0.949   2.444  16.155 -0.5690  0.0828  0.3230
  186MPD1    C3 2831   0.990   2.572  16.117  0.4041  0.0892  0.0532
  186MPD1    C4 2832   1.071   2.586  16.006  0.7621 -0.0141  0.0654
  186MPD1    C5 2833   1.109   2.470  15.937  0.0720 -0.2805  0.8520
  186MPD1     H 2834   0.876   2.434  16.234 -1.0203  0.6494 -0.0219
  186MPD1    H1 2835   1.091   2.681  15.959 -1.3408  1.2245  1.7132
  186MPD1    H2 2836   1.134   2.270  15.922 -4.1000 -0.6343 -1.3722
  186MPD1    H3 2837   1.154   2.476  15.839 -1.3045 -4.2536 -0.0033
  186MPD1     N 2838   0.962   2.690  16.193 -0.4735 -0.8664 -0.1726
  186MPD1    H5 2839   0.993   2.781  16.159  0.2464 -0.9137  0.3548
  186MPD1    N1 2840   0.968   2.206  16.154  0.0006 -0.5971 -0.4598
  186MPD1    H6 2841   0.961   2.209  16.255  0.6151  1.3457 -0.4590
  186MPD1    H7 2842   1.044   2.140  16.136  0.5338 -0.4520  1.2876
  187MPD1     C 2843   4.220   0.697   0.473  0.0417 -0.0823 -0.0411
  187MPD1    C1 2844   4.127   0.689   0.372  0.4868  0.4132  0.3201
  187MPD1    C2 2845   4.161   0.615   0.257  0.5569 -0.4848 -0.3040
  187MPD1    C3 2846   4.289   0.564   0.242 -0.9529 -0.2106  0.1733
  187MPD1    C4 2847   4.386   0.587   0.336 -0.2113  0.0281 -0.1205
  187MPD1    C5 2848   4.346   0.636   0.457  0.8023  0.4542 -0.3539
  187MPD1     H 2849   4.090   0.598   0.177  0.7407  1.0250 -0.7981
  187MPD1    H1 2850   4.491   0.561   0.330 -0.5070 -0.6470 -2.5422
  187MPD1    H2 2851   4.197   0.736   0.571 -3.0063 -0.8337 -0.4673
  187MPD1    H3 2852   4.416   0.651   0.538  0.8926 -0.9362 -0.1696
  187MPD1     N 2853   4.329   0.499   0.122  0.4549 -0.0445  0.1734
  187MPD1    H5 2854   4.427   0.483   0.100  0.0975 -1.5665 -0.3489
  187MPD1    N1 2855   3.995   0.732   0.395 -0.0469  0.2842 -0.3720
  187MPD1    H6 2856   3.955   0.748   0.303 -1.9116 -1.4525  0.1541
  187MPD1    H7 2857   3.988   0.817   0.451  0.4648  1.0465 -1.4492
  188MPD1     C 2858   4.225   4.535  10.730  0.5732  0.0938 -0.3110
  188MPD1    C1 2859   4.222   4.567  10.595  0.5803 -0.0666  0.3825
  188MPD1    C2 2860   4.314   4.509  10.507 -0.4570  0.2640 -0.2662
  188MPD1    C3 2861   4.401   4.412  10.540  0.0961 -0.2013 -0.6196
  188MPD1    C4 2862   4.395   4.370  10.673  0.2094  0.6013 -0.8436
  188MPD1    C5 2863   4.318   4.437  10.767  0.0386  0.7762 -0.5582
  188MPD1     H 2864   4.315   4.555  10.409 -0.3244 -1.5763 -1.1172
  188MPD1    H1 2865   4.464   4.301  10.720 -1.2948  0.1897  0.7663
  188MPD1    H2 2866   4.148   4.576  10.794  0.6262 -0.9108  0.3995
  188MPD1    H3 2867   4.331   4.410  10.872  0.8114 -2.1600 -1.3844
  188MPD1     N 2868   4.497   4.355  10.448  0.2715  0.6259  0.1322
  188MPD1    H5 2869   4.577   4.308  10.490  1.0697  1.0414 -0.9325
  188MPD1    N1 2870   4.142   4.673  10.547  0.1743 -0.1080  0.7086
  188MPD1    H6 2871   4.128   4.649  10.449  1.0535  1.6146  0.1528
  188MPD1    H7 2872   4.054   4.679  10.597  0.3583  0.4742  0.9688
  189MPD1     C 2873   1.489   0.288   0.519  0.3721 -0.0338  0.1641
  189MPD1    C1 2874   1.425   0.240   0.416  0.3519  0.8311  0.2886
  189MPD1    C2 2875   1.324   0.321   0.353 -0.0604 -0.2072 -1.2489
  189MPD1    C3 2876   1.295   0.450   0.397  0.3858 -0.2050 -0.1991
  189MPD1    C4 2877   1.364   0.496   0.510  0.8402  0.5253  0.1401
  189MPD1    C5 2878   1.456   0.409   0.568  1.2288 -0.2390 -0.5448
  189MPD1     H 2879   1.265   0.292   0.266 -0.2166 -0.6303 -1.0032
  189MPD1    H1 2880   1.362   0.596   0.551  0.7769  1.0079 -1.0439
  189MPD1    H2 2881   1.575   0.235   0.559  0.1300 -0.1699  0.5064
  189MPD1    H3 2882   1.514   0.458   0.646  1.2066 -1.5214  0.2715
  189MPD1     N 2883   1.203   0.531   0.328  0.0052 -0.0665 -0.9546
  189MPD1    H5 2884   1.155   0.480   0.254 -1.3100 -0.9448  0.5002
  189MPD1    N1 2885   1.478   0.130   0.355 -0.3830  0.2617  0.0550
  189MPD1    H6 2886   1.516   0.057   0.414  1.3171  3.6189  3.0965
  189MPD1    H7 2887   1.413   0.102   0.281  0.0450  0.6709 -0.4790
  190MPD1     C 2888   0.307   4.292  15.481  1.0248 -0.1566 -0.5328
  190MPD1    C1 2889   0.319   4.214  15.596 -0.3779  0.0332 -0.0529
  190MPD1    C2 2890   0.433   4.152  15.633 -0.1304 -0.5947  0.3278
  190MPD1    C3 2891   0.555   4.164  15.562 -0.2678 -0.0727  0.2997
  190MPD1    C4 2892   0.541   4.242  15.444  0.0944 -0.3684  0.2693
  190MPD1    C5 2893   0.419   4.297  15.403 -0.6919  0.3479 -0.2498
  190MPD1     H 2894   0.431   4.094  15.725  2.2218 -0.1971  0.6435
  190MPD1    H1 2895   0.628   4.253  15.380  1.0073 -2.5231  1.1201
  190MPD1    H2 2896   0.218   4.342  15.444  1.8248  0.9326 -0.9879
  190MPD1    H3 2897   0.408   4.366  15.320  0.7441  2.4257  1.2896
  190MPD1     N 2898   0.674   4.110  15.614  0.5238 -0.0197 -0.3204
  190MPD1    H5 2899   0.672   4.076  15.710 -0.8189  1.0028  0.0169
  190MPD1    N1 2900   0.205   4.213  15.678 -0.1232 -0.4492  0.5377
  190MPD1    H6 2901   0.121   4.224  15.621  1.3166  3.5207 -0.7771
  190MPD1    H7 2902   0.196   4.139  15.748 -1.6256 -3.3191 -2.6983
  191MPD1     C 2903   4.478   0.825  12.444  0.6412 -0.0730  0.2157
  191MPD1    C1 2904   4.513   0.728  12.359  0.2241 -0.1117  0.3555
  191MPD1    C2 2905   4.559   0.771  12.232  1.0231  0.3757  0.2212
  191MPD1    C3 2906   4.584   0.906  12.213 -0.1485 -0.1650 -0.7890
  191MPD1    C4 2907   4.547   1.005  12.303  0.0015  0.5497  0.8123
  191MPD1    C5 2908   4.505   0.956  12.419 -0.0426  0.1758 -0.5827
  191MPD1     H 2909   4.588   0.698  12.158 -1.0624 -0.0233 -0.2088
  191MPD1    H1 2910   4.559   1.110  12.282 -1.8120  0.6976  0.5149
  191MPD1    H2 2911   4.440   0.793  12.540 -0.7978 -1.8882 -0.9498
  191MPD1    H3 2912   4.476   1.033  12.490  0.4348  0.4429 -0.6804
  191MPD1     N 2913   4.631   0.947  12.087 -0.0293 -0.5827  0.2737
  191MPD1    H5 2914   4.654   0.869  12.026 -0.0663  0.3487 -0.9304
  191MPD1    N1 2915   4.466   0.594  12.378 -0.8197 -0.3318 -0.5512
  191MPD1    H6 2916   4.536   0.528  12.345  0.1192 -0.3042  1.3467
  191MPD1    H7 2917   4.457   0.572  12.477  0.5918 -1.6096 -0.7124
  192MPD1     C 2918   4.655   1.780  11.451 -0.1604  0.0843 -0.1154
  192MPD1    C1 2919   4.625   1.664  11.385  0.9731  0.6071  0.1853
  192MPD1    C2 2920   4.635   1.548  11.452  0.6026  0.4657  0.2832
  192MPD1    C3 2921   4.660   1.544  11.592 -0.4158  0.7355 -0.9967
  192MPD1    C4 2922   4.675   1.668  11.659 -0.0582 -0.0102  0.4638
  192MPD1    C5 2923   4.674   1.785  11.588 -0.0712  0.5527 -0.1540
  192MPD1     H 2924   4.632   1.452  11.402 -0.2487  1.6217 -1.8591
  192MPD1    H1 2925   4.711   1.667  11.761  0.6352 -0.0207  0.2251
  192MPD1    H2 2926   4.670   1.873  11.398  0.3485  0.5496  0.8402
  192MPD1    H3 2927   4.709   1.874  11.638  1.4639 -0.8062  1.2155
  192MPD1     N 2928   4.673   1.423  11.670 -0.4673  0.0644  0.0387
  192MPD1    H5 2929   4.702   1.434  11.767  1.1116  0.5182 -0.4953
  192MPD1    N1 2930   4.623   1.663  11.243  0.5113  0.8446 -0.3762
  192MPD1    H6 2931   4.568   1.740  11.206 -1.5797 -1.0401 -1.1858
  192MPD1    H7 2932   4.591   1.579  11.194  0.4953  0.6129  0.0361
  193MPD1     C 2933   4.235   0.972  15.996 -0.1092 -0.4291 -0.9216
  193MPD1    C1 2934   4.171   1.065  16.069 -0.1078 -0.0934 -0.0057
  193MPD1    C2 2935   4.228   1.090  16.191 -0.2538  0.7862  0.2317
  193MPD1    C3 2936   4.361   1.047  16.223 -0.0184  0.1199 -0.0290
  193MPD1    C4 2937   4.418   0.947  16.144 -0.2624 -0.6597 -0.1961
  193MPD1    C5 2938   4.356   0.914  16.028 -0.2257  0.4538  0.4330
  193MPD1     H 2939   4.179   1.163  16.254  1.1779 -1.0366  3.4959
  193MPD1    H1 2940   4.517   0.908  16.163 -0.6637 -1.6520 -0.1398
  193MPD1    H2 2941   4.204   0.929  15.901  0.3421 -1.1338 -0.7420
  193MPD1    H3 2942   4.397   0.837  15.965  0.4357 -0.2290  1.6908
  193MPD1     N 2943   4.426   1.073  16.345  0.0584 -0.0006  0.4272
  193MPD1    H5 2944   4.522   1.041  16.353  0.3130  0.4034 -1.0819
  193MPD1    N1 2945   4.050   1.116  16.028 -0.3405 -0.2979  0.3789
  193MPD1    H6 2946   4.023   1.094  15.932  1.4365 -0.5117 -0.0825
  193MPD1    H7 2947   4.025   1.208  16.062  2.9203  1.4292 -1.8626
  194MPD1     C 2948   2.035   3.376  16.937  0.1767 -0.1646  0.1500
  194MPD1    C1 2949   2.122   3.344  17.043 -0.3035 -0.2782  0.5894
  194MPD1    C2 2950   2.193   3.224  17.045 -0.0746  0.6467 -0.1355
  194MPD1    C3 2951   2.173   3.126  16.938 -0.6048  0.3718  0.5515
  194MPD1    C4 2952   2.083   3.160  16.838  0.3270  0.4797  0.1013
  194MPD1    C5 2953   2.012   3.279  16.847  0.4648 -0.6012  0.2710
  194MPD1     H 2954   2.264   3.210  17.125 -2.6145 -1.1327  1.8144
  194MPD1    H1 2955   2.060   3.091  16.757  0.6325  1.8860 -1.1842
  194MPD1    H2 2956   1.972   3.464  16.934  1.8193  0.9770 -0.8181
  194MPD1    H3 2957   1.936   3.293  16.771  0.1542 -0.0734  0.6760
  194MPD1     N 2958   2.235   2.996  16.932 -0.3828  0.0845  0.0548
  194MPD1    H5 2959   2.223   2.940  16.848 -1.1728  1.3849 -0.7149
  194MPD1    N1 2960   2.120   3.428  17.159  0.5952 -0.1205 -0.2316
  194MPD1    H6 2961   2.201   3.412  17.219  0.8485 -0.4317 -0.6560
  194MPD1    H7 2962   2.104   3.525  17.131  0.7939 -0.0013  0.0681
  195MPD1     C 2963   0.040   4.390  17.403  0.2483 -1.0413 -0.3674
  195MPD1    C1 2964   0.019   4.378  17.538 -0.7592  0.6356 -0.1951
  195MPD1    C2 2965   4.638   4.298  17.582  0.8360 -0.1570 -0.0395
  195MPD1    C3 2966   4.563   4.222  17.486 -0.5162 -0.1129 -0.3033
  195MPD1    C4 2967   4.599   4.228  17.353 -0.6714  0.0127  0.4784
  195MPD1    C5 2968   4.696   4.314  17.314 -0.2763  0.7432  0.1679
  195MPD1     H 2969   4.631   4.294  17.690  0.2757  0.2998 -0.0587
  195MPD1    H1 2970   4.535   4.177  17.283 -1.8385 -0.8249  2.1425
  195MPD1    H2 2971   0.103   4.470  17.367  0.0217 -0.7048 -0.0077
  195MPD1    H3 2972   4.713   4.329  17.208  1.7545 -2.3489  0.0575
  195MPD1     N 2973   4.445   4.152  17.525  0.0123  0.0104  0.5754
  195MPD1    H5 2974   4.391   4.095  17.461 -0.3799  1.1622 -0.1148
  195MPD1    N1 2975   0.079   4.477  17.614 -0.7205 -0.0566  0.7527
  195MPD1    H6 2976   0.176   4.488  17.584 -0.9423 -2.7618 -0.9526
  195MPD1    H7 2977   0.062   4.475   0.018  1.4766  1.6783  1.1628
  196MPD1     C 2978   4.133   4.338   0.871  0.9212 -0.0228  0.8949
  196MPD1    C1 2979   4.143   4.268   0.988  1.3044 -0.7419  1.3785
  196MPD1    C2 2980   4.182   4.331   1.108  0.1701 -0.3153 -0.4682
  196MPD1    C3 2981   4.211   4.463   1.106 -0.4109 -0.1703 -0.0378
  196MPD1    C4 2982   4.211   4.532   0.983  0.4835  0.0156 -0.0046
  196MPD1    C5 2983   4.174   4.466   0.867  0.5170 -0.6250  0.1521
  196MPD1     H 2984   4.187   4.269   1.197 -1.1734 -1.7742 -1.3951
  196MPD1    H1 2985   4.231   4.639   0.980 -0.0564  0.0316 -3.2456
  196MPD1    H2 2986   4.108   4.284   0.781  1.7946  1.3136 -0.1565
  196MPD1    H3 2987   4.184   4.521   0.774  1.1565  1.5186  1.4810
  196MPD1     N 2988   4.249   4.534   1.215  0.7167 -0.1235  0.7062
  196MPD1    H5 2989   4.264   4.631   1.189 -0.3192  0.0017  0.5923
  196MPD1    N1 2990   4.131   4.129   0.977 -0.0259  0.1265 -0.2010
  196MPD1    H6 2991   4.044   4.123   0.925  0.4185  1.4433 -1.1001
  196MPD1    H7 2992   4.119   4.091   1.071  0.4397  2.2143  0.6990
  197MPD1     C 2993   2.743   1.288  17.519 -0.7212 -0.3321  0.6966
  197MPD1    C1 2994   2.855   1.328  17.583 -0.0706 -0.0543  0.2679
  197MPD1    C2 2995   2.937   1.418  17.520  0.9217  0.7475 -0.9035
  197MPD1    C3 2996   2.910   1.456  17.392 -0.1166  0.4855  0.1666
  197MPD1    C4 2997   2.800   1.410  17.325 -0.1309  0.0164 -0.4566
  197MPD1    C5 2998   2.715   1.325  17.389 -0.2480  0.4238  0.1411
  197MPD1     H 2999   3.025   1.450  17.576 -0.0319 -1.2625  1.7621
  197MPD1    H1 3000   2.787   1.429  17.219  2.2627 -3.2851 -1.3458
  197MPD1    H2 3001   2.668   1.234  17.576 -0.8570  0.0348  0.8646
  197MPD1    H3 3002   2.625   1.298  17.334 -1.7728  0.8810  2.4148
  197MPD1     N 3003   2.981   1.557  17.315 -0.4097  0.2632  0.4057
  197MPD1    H5 3004   2.943   1.575  17.222 -0.7635  0.4839  0.5895
  197MPD1    N1 3005   2.876   1.303   0.023 -0.5397 -0.1632 -0.0464
  197MPD1    H6 3006   2.849   1.208   0.048 -0.8391  0.4632  2.0348
  197MPD1    H7 3007   2.977   1.310   0.033 -0.3924 -0.2366 -1.5186
  198MPD1     C 3008   4.696   0.600  15.978  0.7758  0.7460 -0.0066
  198MPD1    C1 3009   4.711   0.590  16.113  0.0821 -0.2821 -0.5465
  198MPD1    C2 3010   0.111   0.575  16.168 -0.8479  0.5321  0.0979
  198MPD1    C3 3011   0.214   0.553  16.073 -0.4183  0.3764  0.9660
  198MPD1    C4 3012   0.195   0.549  15.932 -0.0813 -0.3881  0.1147
  198MPD1    C5 3013   0.068   0.566  15.889 -0.4030 -0.2124 -0.8054
  198MPD1     H 3014   0.130   0.584  16.274  0.3221  0.9069 -0.1404
  198MPD1    H1 3015   0.274   0.526  15.861  0.1956 -2.4984  1.0869
  198MPD1    H2 3016   4.601   0.631  15.933  0.6356 -4.2917 -3.1834
  198MPD1    H3 3017   0.043   0.559  15.784 -0.5045 -1.1494 -0.7146
  198MPD1     N 3018   0.350   0.535  16.123  0.2585 -0.1895 -0.3882
  198MPD1    H5 3019   0.357   0.530  16.224 -0.5291 -2.2341 -0.4478
  198MPD1    N1 3020   4.605   0.631  16.197  0.6119  0.5248 -0.4222
  198MPD1    H6 3021   4.593   0.582  16.285  0.9884 -0.4529 -0.9090
  198MPD1    H7 3022   4.518   0.622  16.144 -0.8078  0.7689  1.9080
  199MPD1     C 3023   1.994   0.059  10.287  0.2257  0.1091 -0.6341
  199MPD1    C1 3024   2.105   0.107  10.218  0.3455 -0.2282  0.1215
  199MPD1    C2 3025   2.113   0.241  10.190  0.0767 -0.4199  0.2532
  199MPD1    C3 3026   2.021   0.328  10.238  0.2674 -0.3406  0.8280
  199MPD1    C4 3027   1.913   0.280  10.312 -0.2538 -0.1048 -0.3503
  199MPD1    C5 3028   1.903   0.142  10.339 -0.2912 -0.5781  0.1195
  199MPD1     H 3029   2.195   0.270  10.124 -0.7612  2.5819  0.5360
  199MPD1    H1 3030   1.849   0.356  10.354 -0.0239  0.1992 -0.5508
  199MPD1    H2 3031   1.973   4.678  10.310 -0.9581 -0.0519 -2.4625
  199MPD1    H3 3032   1.826   0.102  10.404 -0.3086 -0.2975  0.2710
  199MPD1     N 3033   2.036   0.463  10.226 -0.3883 -0.9903 -0.1466
  199MPD1    H5 3034   1.967   0.528  10.263 -0.7325 -0.3082 -1.9902
  199MPD1    N1 3035   2.192   0.017  10.170  0.6503 -0.2762 -0.1052
  199MPD1    H6 3036   2.285   0.056  10.152  0.9334 -0.5862  0.6674
  199MPD1    H7 3037   2.190   4.646  10.208 -1.4816 -0.1734  0.0143
  200MPD1     C 3038   0.840   1.053  14.783 -0.6407 -0.0154 -0.4113
  200MPD1    C1 3039   0.808   1.132  14.670 -0.3003  0.1998  0.1169
  200MPD1    C2 3040   0.910   1.173  14.586 -0.2260 -0.2727 -0.2615
  200MPD1    C3 3041   1.045   1.153  14.619 -0.1328 -0.2303 -0.1210
  200MPD1    C4 3042   1.068   1.086  14.737  0.4458  0.2681  0.0024
  200MPD1    C5 3043   0.970   1.038  14.820 -0.4146 -0.0053 -0.9740
  200MPD1     H 3044   0.888   1.217  14.489 -1.7438 -0.3082  0.0810
  200MPD1    H1 3045   1.170   1.073  14.770  0.6911  1.2071 -0.3725
  200MPD1    H2 3046   0.757   1.007  14.836 -0.4216  1.8439  1.5233
  200MPD1    H3 3047   0.991   0.999  14.919 -3.8532 -0.6054 -0.4878
  200MPD1     N 3048   1.143   1.195  14.523 -0.0681  0.1416 -0.4141
  200MPD1    H5 3049   1.121   1.233  14.432  0.9218  0.4747 -0.5160
  200MPD1    N1 3050   0.682   1.146  14.618  0.2452  0.1319 -0.7542
  200MPD1    H6 3051   0.610   1.139  14.690  0.7734  0.5608 -0.1789
  200MPD1    H7 3052   0.668   1.233  14.566 -2.4869  0.6652  0.8586
  201MPD1     C 3053   4.384   0.714  13.243 -0.0408  0.6628 -0.5851
  201MPD1    C1 3054   4.342   0.639  13.350 -0.0324 -0.3743  0.1834
  201MPD1    C2 3055   4.331   0.509  13.327 -0.3610 -0.0618 -0.1498
  201MPD1    C3 3056   4.332   0.456  13.202  0.0672  0.1494  0.2679
  201MPD1    C4 3057   4.344   0.539  13.085 -0.4672  0.1106  0.0409
  201MPD1    C5 3058   4.389   0.667  13.114  0.6229 -0.1104  0.3622
  201MPD1     H 3059   4.313   0.446  13.413 -2.4633 -0.1924 -0.6909
  201MPD1    H1 3060   4.337   0.496  12.986  1.4507 -1.5195  0.6100
  201MPD1    H2 3061   4.431   0.810  13.260  2.8941 -0.8420 -0.2562
  201MPD1    H3 3062   4.424   0.733  13.036 -1.0106  1.9295  1.3288
  201MPD1     N 3063   4.300   0.318  13.185  0.0830 -0.2771 -0.9916
  201MPD1    H5 3064   4.290   0.261  13.269 -0.7986  0.7678 -0.3830
  201MPD1    N1 3065   4.361   0.688  13.480  0.7260  0.6205 -0.1335
  201MPD1    H6 3066   4.300   0.636  13.542  4.2997 -3.0534  0.2618
  201MPD1    H7 3067   4.334   0.787  13.483 -1.9313 -0.1152 -0.0404
  202MPD1     C 3068   3.992   4.140   9.478 -0.2836  0.3685  0.4374
  202MPD1    C1 3069   3.865   4.194   9.501  0.3997  0.2698 -0.3951
  202MPD1    C2 3070   3.862   4.277   9.607 -0.6807  0.4832 -0.3561
  202MPD1    C3 3071   3.961   4.293   9.708  0.3462 -0.6432  0.7120
  202MPD1    C4 3072   4.075   4.228   9.686 -0.1189 -0.3944 -0.6352
  202MPD1    C5 3073   4.089   4.152   9.567 -0.2022 -0.3602 -0.7470
  202MPD1     H 3074   3.761   4.314   9.619 -0.7067  0.1858  0.3512
  202MPD1    H1 3075   4.158   4.226   9.754 -0.6325 -0.5371 -0.0142
  202MPD1    H2 3076   4.002   4.079   9.389 -3.5992  2.4608 -1.3539
  202MPD1    H3 3077   4.181   4.099   9.543 -0.3983 -0.9826 -0.1191
  202MPD1     N 3078   3.936   4.372   9.827  0.3145  0.3870  0.3667
  202MPD1    H5 3079   4.004   4.354   9.900 -0.8453 -0.7202  1.1747
  202MPD1    N1 3080   3.781   4.202   9.386 -0.4956  0.2217  0.2245
  202MPD1    H6 3081   3.776   4.110   9.342 -0.0743  1.2498 -1.9564
  202MPD1    H7 3082   3.687   4.232   9.414 -0.5673 -0.0123  0.2349
  203MPD1     C 3083   2.955   1.016  13.006 -0.0147  0.8489 -0.1248
  203MPD1    C1 3084   3.060   0.934  13.045 -0.2141 -0.0313  0.0456
  203MPD1    C2 3085   3.032   0.796  13.028 -0.7211  0.2371 -0.2976
  203MPD1    C3 3086   2.903   0.745  13.003 -0.0118  0.2141 -0.4425
  203MPD1    C4 3087   2.805   0.831  12.969  0.4622  0.3185  0.2267
  203MPD1    C5 3088   2.834   0.964  12.965 -0.1668  0.0751  0.0046
  203MPD1     H 3089   3.114   0.734  13.060 -1.3910  0.9836  2.8472
  203MPD1    H1 3090   2.707   0.803  12.931  0.2733  1.5425 -0.1968
  203MPD1    H2 3091   2.964   1.124  13.012  1.3691  0.8404 -1.9458
  203MPD1    H3 3092   2.754   1.025  12.924  0.9658  2.3452  1.2034
  203MPD1     N 3093   2.885   0.606  13.009  0.4173 -0.2499 -0.1163
  203MPD1    H5 3094   2.967   0.552  13.033 -0.4613 -1.9053 -0.8588
  203MPD1    N1 3095   3.194   0.978  13.060 -0.1348  0.0129  0.1892
  203MPD1    H6 3096   3.203   1.078  13.080  0.5046  0.4132 -2.0924
  203MPD1    H7 3097   3.241   0.922  13.130  1.6947  0.1822 -0.9251
  204MPD1     C 3098   1.518   1.603   0.606  0.6072  0.0553 -0.9689
  204MPD1    C1 3099   1.636   1.537   0.602  0.6939 -0.2667  0.1008
  204MPD1    C2 3100   1.669   1.467   0.488  0.8044  0.9731  0.0869
  204MPD1    C3 3101   1.596   1.481   0.372 -0.6120  0.1022 -0.9030
  204MPD1    C4 3102   1.472   1.552   0.372 -0.2097  0.0858  0.0061
  204MPD1    C5 3103   1.438   1.611   0.494  0.1079  0.0802  0.2512
  204MPD1     H 3104   1.762   1.410   0.492 -0.2224 -0.6183  1.2702
  204MPD1    H1 3105   1.403   1.571   0.290 -1.2923  0.4141  0.9977
  204MPD1    H2 3106   1.491   1.652   0.699 -1.4481 -0.7241 -1.1687
  204MPD1    H3 3107   1.350   1.675   0.494  1.6705  2.2322  1.2895
  204MPD1     N 3108   1.636   1.407   0.255 -0.1367  0.6582 -0.0998
  204MPD1    H5 3109   1.711   1.338   0.266 -0.8380  0.1720  1.6845
  204MPD1    N1 3110   1.716   1.525   0.722 -0.0450 -0.6219  0.8121
  204MPD1    H6 3111   1.811   1.495   0.700 -0.3198 -1.0017  0.1261
  204MPD1    H7 3112   1.721   1.603   0.787  2.7294 -0.1094 -0.0040
  205MPD1     C 3113   1.499   4.449  17.311 -0.0801 -0.5852  0.5206
  205MPD1    C1 3114   1.434   4.548  17.389 -0.0487  0.9445 -0.9327
  205MPD1    C2 3115   1.517   4.633  17.463 -0.1683  0.9987  0.2297
  205MPD1    C3 3116   1.655   4.622  17.458  0.1642  0.5859  0.1611
  205MPD1    C4 3117   1.712   4.524  17.380 -0.0579  0.3024  0.3609
  205MPD1    C5 3118   1.635   4.433  17.312  0.3406  0.1248  0.0682
  205MPD1     H 3119   1.465   4.710  17.519 -1.2889 -1.4808  2.6233
  205MPD1    H1 3120   1.820   4.523  17.371 -0.1931  1.3640 -1.3775
  205MPD1    H2 3121   1.444   4.372  17.256 -0.8055  0.1219  0.2587
  205MPD1    H3 3122   1.677   4.357  17.247 -1.5912  0.4692 -1.5816
  205MPD1     N 3123   1.747   4.703  17.532 -0.3283 -0.4267  0.5300
  205MPD1    H5 3124   1.845   4.702  17.505 -0.1865 -1.7435  1.1094
  205MPD1    N1 3125   1.300   4.586  17.349 -0.1974 -0.4155  0.3152
  205MPD1    H6 3126   1.260   4.641  17.425  1.3924  1.4375 -0.2026
  205MPD1    H7 3127   1.239   4.505  17.339 -1.8255  0.7250  0.9746
  206MPD1     C 3128   2.761   3.231  16.867 -0.2291  0.4433 -0.0485
  206MPD1    C1 3129   2.649   3.160  16.889 -0.1892 -0.1112  0.0238
  206MPD1    C2 3130   2.572   3.144  16.775 -0.2576  0.0245  0.2069
  206MPD1    C3 3131   2.601   3.186  16.647 -0.1812 -0.1882  0.2055
  206MPD1    C4 3132   2.714   3.253  16.630  0.5653 -0.6240 -0.0425
  206MPD1    C5 3133   2.792   3.277  16.746  0.5593  0.5560 -0.6690
  206MPD1     H 3134   2.478   3.099  16.805 -1.0884  0.6943 -1.4182
  206MPD1    H1 3135   2.752   3.285  16.534  3.5987 -2.6704  0.5180
  206MPD1    H2 3136   2.830   3.248  16.949 -1.4382 -0.2696  1.1208
  206MPD1    H3 3137   2.893   3.316  16.736  0.4569  0.9210 -0.2852
  206MPD1     N 3138   2.521   3.155  16.535 -0.1191 -0.3015 -0.1761
  206MPD1    H5 3139   2.558   3.198  16.451  0.0795  0.0646  0.1015
  206MPD1    N1 3140   2.607   3.094  17.005  0.1619 -0.7921  0.0733
  206MPD1    H6 3141   2.650   3.135  17.087  2.4671 -1.7678 -0.6522
  206MPD1    H7 3142   2.506   3.092  17.023 -0.2868  1.9801 -2.1695
  207MPD1     C 3143   4.166   1.135   9.006  0.3259 -0.0371  0.4498
  207MPD1    C1 3144   4.150   1.035   9.099  0.0660  0.2031 -0.5358
  207MPD1    C2 3145   4.252   1.022   9.194 -0.1043 -0.4053 -0.4686
  207MPD1    C3 3146   4.366   1.106   9.196  0.1030  0.9103 -0.9515
  207MPD1    C4 3147   4.375   1.202   9.096 -0.3717  0.9173  0.1977
  207MPD1    C5 3148   4.267   1.223   9.012 -0.4260 -0.0654  0.3238
  207MPD1     H 3149   4.251   0.947   9.273  1.4826  0.5225  0.4221
  207MPD1    H1 3150   4.460   1.270   9.097  0.7656 -0.4940 -0.4263
  207MPD1    H2 3151   4.094   1.160   8.929 -0.2183 -0.2939  0.8739
  207MPD1    H3 3152   4.271   1.297   8.934  3.4391 -0.0294  0.5688
  207MPD1     N 3153   4.474   1.106   9.293  0.6701 -0.5343 -0.5327
  207MPD1    H5 3154   4.545   1.177   9.275  2.1845 -1.7126  0.8025
  207MPD1    N1 3155   4.047   0.937   9.082  0.1875 -0.1415  0.8910
  207MPD1    H6 3156   3.972   0.963   9.019 -0.8801 -0.7907  1.8970
  207MPD1    H7 3157   4.009   0.909   9.172 -1.9074 -0.9403 -0.2468
  208MPD1     C 3158   3.293   0.562   0.318 -0.1286  0.2532 -0.4864
  208MPD1    C1 3159   3.320   0.516   0.442 -0.2224 -0.3103  0.0313
  208MPD1    C2 3160   3.230   0.420   0.498 -0.0592  0.1381  0.3131
  208MPD1    C3 3161   3.117   0.387   0.427  0.1408 -0.2554  0.1522
  208MPD1    C4 3162   3.080   0.456   0.311 -0.0422  0.1319  0.0179
  208MPD1    C5 3163   3.173   0.538   0.257 -0.3281 -0.1145  0.5280
  208MPD1     H 3164   3.255   0.392   0.600  0.8922 -0.6705 -0.1585
  208MPD1    H1 3165   2.988   0.441   0.255  2.4022  0.4868 -4.0299
  208MPD1    H2 3166   3.357   0.642   0.282 -0.0367  1.2158  1.8218
  208MPD1    H3 3167   3.158   0.591   0.164 -0.9302  1.6621  1.6262
  208MPD1     N 3168   3.030   0.283   0.472 -0.2903  0.0844 -0.6718
  208MPD1    H5 3169   3.074   0.226   0.544 -1.2754 -0.0803 -0.2142
  208MPD1    N1 3170   3.417   0.580   0.515 -0.4948 -0.3457 -0.6283
  208MPD1    H6 3171   3.504   0.585   0.464  0.2672  0.4260  0.7312
  208MPD1    H7 3172   3.457   0.519   0.586 -1.3108 -1.3916 -1.0723
  209MPD1     C 3173   0.618   4.486  10.194  0.3837 -0.3007  0.3656
  209MPD1    C1 3174   0.551   4.555  10.096 -1.0783  0.2308 -0.1051
  209MPD1    C2 3175   0.481   4.659  10.145 -0.3770  0.2141 -0.0188
  209MPD1    C3 3176   0.498   4.717  10.273 -0.4352 -0.1015 -0.0161
  209MPD1    C4 3177   0.574   4.649  10.364 -0.0450  0.6243  0.3289
  209MPD1    C5 3178   0.641   4.535  10.324 -0.3440  0.2788  0.3644
  209MPD1     H 3179   0.408   4.696  10.073  1.5511  0.2085 -1.9525
  209MPD1    H1 3180   0.582   4.680  10.468 -2.0302 -0.4872  0.8089
  209MPD1    H2 3181   0.677   4.398  10.171  0.4859  0.0363 -0.6444
  209MPD1    H3 3182   0.711   4.482  10.387 -1.0705 -0.4356  0.5715
  209MPD1     N 3183   0.449   0.120  10.299  0.0252 -0.0638 -0.1835
  209MPD1    H5 3184   0.399   0.169  10.226  1.2219  1.5679  0.0826
  209MPD1    N1 3185   0.541   4.494   9.970  0.6804 -0.6470 -0.1203
  209MPD1    H6 3186   0.523   4.566   9.900  1.7027  3.9006  4.3040
  209MPD1    H7 3187   0.629   4.446   9.954  0.7231 -0.4752 -0.4007
  210MPD1     C 3188   0.245   0.672  11.123 -0.2237  0.4416  0.4264
  210MPD1    C1 3189   0.269   0.763  11.025  0.2966  0.7519  0.4623
  210MPD1    C2 3190   0.298   0.729  10.895 -0.7097 -0.0925  0.1886
  210MPD1    C3 3191   0.294   0.601  10.862 -0.3240 -0.3246  0.0463
  210MPD1    C4 3192   0.267   0.507  10.960  0.4075 -0.4916  0.2560
  210MPD1    C5 3193   0.252   0.543  11.093  1.0365 -0.3658 -0.5522
  210MPD1     H 3194   0.315   0.811  10.827 -3.3083 -0.4517 -0.8884
  210MPD1    H1 3195   0.267   0.401  10.939 -0.1113 -1.0663  3.1259
  210MPD1    H2 3196   0.241   0.693  11.229  0.3109 -1.6110  0.8628
  210MPD1    H3 3197   0.256   0.456  11.158  0.4086  0.9280  1.2212
  210MPD1     N 3198   0.331   0.550  10.736 -0.4248 -0.3559 -0.3979
  210MPD1    H5 3199   0.312   0.452  10.718  0.8489 -0.5531 -0.7125
  210MPD1    N1 3200   0.284   0.899  11.069 -0.2276 -0.2245  0.4240
  210MPD1    H6 3201   0.326   0.898  11.162  0.7106 -1.8193 -0.0113
  210MPD1    H7 3202   0.348   0.950  11.009 -0.5600 -2.1224 -1.5553
  211MPD1     C 3203   3.056   0.118  16.227 -0.1895 -0.0830  0.1096
  211MPD1    C1 3204   2.955   0.036  16.274  0.2469 -0.2250 -1.0184
  211MPD1    C2 3205   2.846   0.106  16.317  0.3223 -0.8962 -0.4504
  211MPD1    C3 3206   2.828   0.245  16.313  0.4640  0.3106  0.4996
  211MPD1    C4 3207   2.934   0.315  16.261  0.0382  0.0330 -0.0097
  211MPD1    C5 3208   3.050   0.253  16.221 -0.1274 -0.6448 -0.2359
  211MPD1     H 3209   2.767   0.049  16.363  0.0784 -1.4212 -1.5200
  211MPD1    H1 3210   2.931   0.423  16.255  2.0940  0.3249  4.3345
  211MPD1    H2 3211   3.149   0.069  16.197  0.2664  2.2637 -2.3722
  211MPD1    H3 3212   3.138   0.308  16.191  0.6531 -1.4935  0.4963
  211MPD1     N 3213   2.707   0.292  16.368  0.2880 -0.2741  0.1676
  211MPD1    H5 3214   2.634   0.227  16.392  0.6423 -0.3820  0.9278
  211MPD1    N1 3215   2.961   4.620  16.296 -0.3068  0.1854  0.1746
  211MPD1    H6 3216   2.868   4.579  16.297 -1.0370  1.8683 -1.9926
  211MPD1    H7 3217   3.027   4.570  16.236 -0.0515  0.6049  0.1074
  212MPD1     C 3218   1.708   3.803  16.591 -0.5434 -0.1662  0.1293
  212MPD1    C1 3219   1.764   3.681  16.593  0.1965  0.3682  0.0513
  212MPD1    C2 3220   1.702   3.586  16.675 -0.2473 -0.1271 -0.3336
  212MPD1    C3 3221   1.579   3.609  16.735 -0.3210 -0.3845  0.4791
  212MPD1    C4 3222   1.522   3.728  16.714  0.0982  0.0040 -0.9235
  212MPD1    C5 3223   1.584   3.832  16.644  0.1666 -0.4800  0.1817
  212MPD1     H 3224   1.763   3.498  16.694 -2.8492 -1.7097  0.6871
  212MPD1    H1 3225   1.425   3.740  16.760  0.0048 -2.0928 -0.5322
  212MPD1    H2 3226   1.752   3.885  16.536 -0.5832 -0.5434 -0.4549
  212MPD1    H3 3227   1.542   3.930  16.628  2.1136  0.2464 -0.5101
  212MPD1     N 3228   1.506   3.520  16.812 -0.1782 -0.0347 -0.5460
  212MPD1    H5 3229   1.411   3.543  16.840 -0.2187  0.2233 -0.8873
  212MPD1    N1 3230   1.897   3.665  16.541 -0.5217 -0.1017 -0.4819
  212MPD1    H6 3231   1.912   3.567  16.522 -1.0055 -0.4168  0.7783
  212MPD1    H7 3232   1.911   3.730  16.464  1.1609  0.0868 -0.0218
  213MPD1     C 3233   0.250   4.699  15.467  0.6495 -0.2207  0.6599
  213MPD1    C1 3234   0.304   4.644  15.352 -0.0691 -0.1403 -0.9431
  213MPD1    C2 3235   0.206   4.599  15.273 -0.5281 -0.8321 -0.1269
  213MPD1    C3 3236   0.083   4.565  15.318  0.1517  0.0588  0.5675
  213MPD1    C4 3237   0.050   4.579  15.454  0.1931  0.9082  0.4152
  213MPD1    C5 3238   0.135   4.647  15.528  0.5407  0.6276 -0.0851
  213MPD1     H 3239   0.226   4.596  15.166 -1.5265  3.1989 -0.4330
  213MPD1    H1 3240   4.676   4.555  15.495  0.6871  1.5879  1.9960
  213MPD1    H2 3241   0.316   0.022  15.540  0.6035 -0.7346  1.0351
  213MPD1    H3 3242   0.122   4.663  15.634  2.6447  1.8494 -0.0160
  213MPD1     N 3243   4.718   4.518  15.214  0.0822  0.4694 -0.2529
  213MPD1    H5 3244   0.021   4.535  15.117  0.0240  0.2324 -0.3104
  213MPD1    N1 3245   0.422   4.706  15.300 -0.5699  0.5785  0.3627
  213MPD1    H6 3246   0.496   4.708  15.370  0.4230 -1.2253 -0.6537
  213MPD1    H7 3247   0.463   4.648  15.228 -0.8665 -0.7246  1.2376
  214MPD1     C 3248   3.865   4.000  15.315 -0.9449 -0.6786 -0.4829
  214MPD1    C1 3249   3.894   3.975  15.182  0.2803 -0.0483 -0.2300
  214MPD1    C2 3250   3.998   4.049  15.120  0.4839  0.4663 -0.6042
  214MPD1    C3 3251   4.083   4.127  15.197  0.6423 -0.2225 -0.8493
  214MPD1    C4 3252   4.047   4.144  15.331  0.2000 -0.2399  0.4606
  214MPD1    C5 3253   3.942   4.087  15.390 -0.5125 -0.3492  0.1455
  214MPD1     H 3254   4.015   4.030  15.015  0.4311  1.3055 -0.7593
  214MPD1    H1 3255   4.107   4.204  15.398 -0.2555  1.3239 -0.5217
  214MPD1    H2 3256   3.783   3.960  15.374 -0.7787  0.7435  0.7141
  214MPD1    H3 3257   3.911   4.101  15.493  1.5375  0.3608  0.6505
  214MPD1     N 3258   4.201   4.195  15.155 -0.2827  0.0219  0.3132
  214MPD1    H5 3259   4.257   4.236  15.229 -1.0339  2.0786 -0.2427
  214MPD1    N1 3260   3.805   3.901  15.108 -0.0716 -0.5421 -0.2252
  214MPD1    H6 3261   3.847   3.864  15.023 -1.7606 -0.0363 -1.2939
  214MPD1    H7 3262   3.783   3.817  15.162 -0.2795 -0.9657 -0.9697
  215MPD1     C 3263   0.173   4.361  10.509  0.5661 -0.0460  0.4009
  215MPD1    C1 3264   0.072   4.386  10.595  0.0643  0.0933 -0.1521
  215MPD1    C2 3265   0.027   4.518  10.605 -0.6309  0.7387  0.1161
  215MPD1    C3 3266   0.085   4.630  10.542 -0.9995  0.3269  0.0788
  215MPD1    C4 3267   0.192   4.605  10.458  0.1752 -0.0291  0.1471
  215MPD1    C5 3268   0.229   4.471  10.445  0.2835 -0.0445 -0.4402
  215MPD1     H 3269   4.667   4.538  10.670 -2.5446 -1.8953 -1.5309
  215MPD1    H1 3270   0.240   4.674  10.388 -0.8645  0.0216 -0.5171
  215MPD1    H2 3271   0.213   4.263  10.483  0.5061 -0.1108  0.5581
  215MPD1    H3 3272   0.293   4.438  10.363  0.1566 -0.6037 -0.3150
  215MPD1     N 3273   0.041   0.035  10.568 -0.2858 -0.0143  0.2047
  215MPD1    H5 3274   4.681   0.030  10.626 -0.3126 -0.4969  0.1296
  215MPD1    N1 3275   4.723   4.281  10.651 -0.1146 -0.2763 -0.1288
  215MPD1    H6 3276   0.047   4.194  10.674  1.0532 -0.3935 -2.9296
  215MPD1    H7 3277   4.656   4.320  10.718  1.2780 -0.7014  1.5006
  216MPD1     C 3278   1.815   2.940  16.871 -0.4830  0.7345  0.0333
  216MPD1    C1 3279   1.773   2.847  16.785 -0.0211 -0.1567 -0.3237
  216MPD1    C2 3280   1.787   2.715  16.821  0.0016  0.3321 -0.6948
  216MPD1    C3 3281   1.836   2.682  16.946  0.5837 -0.2347  0.2132
  216MPD1    C4 3282   1.874   2.779  17.034  0.1133  0.0786 -0.0343
  216MPD1    C5 3283   1.869   2.910  16.996  0.1387 -0.2230  1.0874
  216MPD1     H 3284   1.764   2.635  16.752 -1.9238 -0.8065  1.2639
  216MPD1    H1 3285   1.919   2.760  17.130 -1.5819 -1.8744  0.3752
  216MPD1    H2 3286   1.797   3.045  16.854 -1.2029  0.2770 -1.9945
  216MPD1    H3 3287   1.912   2.990  17.055 -1.5636 -0.2008  2.3130
  216MPD1     N 3288   1.838   2.543  16.971 -0.6356  0.9592  0.2650
  216MPD1    H5 3289   1.805   2.477  16.903 -0.9417  0.2499  1.0997
  216MPD1    N1 3290   1.737   2.887  16.655 -0.6374  0.5288 -0.2133
  216MPD1    H6 3291   1.649   2.846  16.623 -0.8763  1.0659 -0.2504
  216MPD1    H7 3292   1.716   2.986  16.667  0.7497  0.4436  2.9182
  217MPD1     C 3293   2.838   4.691   8.323 -0.1873 -0.7402  0.2239
  217MPD1    C1 3294   2.920   4.580   8.318  0.3940  0.2648 -0.1515
  217MPD1    C2 3295   2.914   4.483   8.421 -0.3001  0.0809  0.1960
  217MPD1    C3 3296   2.842   4.513   8.539  0.7120 -0.0345 -0.5197
  217MPD1    C4 3297   2.778   4.634   8.553 -0.6113 -0.4247  0.4970
  217MPD1    C5 3298   2.771   4.717   8.439  0.3339  0.3587  0.9323
  217MPD1     H 3299   2.976   4.394   8.426  0.4504  0.6258  0.4452
  217MPD1    H1 3300   2.720   4.666   8.639 -0.5982  0.7742  0.0567
  217MPD1    H2 3301   2.833   0.041   8.243 -1.2079 -0.3847  0.6225
  217MPD1    H3 3302   2.713   0.085   8.436 -0.5950 -0.2164  1.0476
  217MPD1     N 3303   2.828   4.426   8.651  0.1337  0.4526  0.1003
  217MPD1    H5 3304   2.806   4.481   8.733  0.9794  3.0198 -1.3763
  217MPD1    N1 3305   2.980   4.547   8.196 -0.3544  0.0314 -0.5347
  217MPD1    H6 3306   3.015   4.626   8.143  1.3850 -1.7879 -2.0547
  217MPD1    H7 3307   3.063   4.491   8.214 -0.0434  0.9961  1.0939
  218MPD1     C 3308   3.798   0.126  12.413  0.4854  0.0205 -0.5138
  218MPD1    C1 3309   3.877   0.013  12.391 -0.2625 -0.1216  0.0187
  218MPD1    C2 3310   4.012   0.025  12.361 -0.9581  0.1333 -0.8159
  218MPD1    C3 3311   4.054   0.150  12.318 -0.0977 -0.8603 -0.1583
  218MPD1    C4 3312   3.978   0.263  12.330  0.4980 -0.3713  0.1280
  218MPD1    C5 3313   3.855   0.253  12.387 -0.2437  0.2485 -0.4905
  218MPD1     H 3314   4.071   4.658  12.351 -0.0713  0.5256  0.8002
  218MPD1    H1 3315   4.021   0.361  12.314 -1.0654  0.2541 -0.1511
  218MPD1    H2 3316   3.699   0.121  12.457  0.8404 -3.0597 -0.0550
  218MPD1    H3 3317   3.808   0.347  12.411 -0.1058  0.0765  0.4672
  218MPD1     N 3318   4.183   0.144  12.265  0.0141 -0.1387 -0.5417
  218MPD1    H5 3319   4.225   0.054  12.249  0.1588 -0.5863  2.4196
  218MPD1    N1 3320   3.825   4.613  12.424  0.2616  0.7945  0.2959
  218MPD1    H6 3321   3.875   4.535  12.380 -1.6491  0.4529 -1.2579
  218MPD1    H7 3322   3.730   4.601  12.390 -0.2949  1.0706  1.7409
  219MPD1     C 3323   4.716   0.739  11.649  0.4074 -0.2004  0.2021
  219MPD1    C1 3324   0.085   0.652  11.695  0.0603 -0.5367 -0.0705
  219MPD1    C2 3325   0.049   0.553  11.791  0.3576 -0.0032 -0.0737
  219MPD1    C3 3326   4.648   0.554  11.847  0.4134  0.2971  0.0776
  219MPD1    C4 3327   4.562   0.655  11.811 -0.4038  0.3654 -0.0085
  219MPD1    C5 3328   4.595   0.745  11.712  0.0064 -0.8346 -0.0469
  219MPD1     H 3329   0.129   0.488  11.825 -0.6479 -1.5966 -0.7673
  219MPD1    H1 3330   4.465   0.665  11.858  0.4179  1.7293  1.3746
  219MPD1    H2 3331   0.008   0.800  11.560  2.0861 -0.7316  0.1354
  219MPD1    H3 3332   4.519   0.816  11.682  0.7871  0.0957  0.1812
  219MPD1     N 3333   4.605   0.472  11.955 -0.3915  0.0245 -0.0507
  219MPD1    H5 3334   4.515   0.486  12.000 -0.7664 -0.9092 -0.5124
  219MPD1    N1 3335   0.205   0.649  11.635  0.0462 -0.0080  0.0931
  219MPD1    H6 3336   0.227   0.743  11.604 -0.5664  0.4160  0.9650
  219MPD1    H7 3337   0.272   0.622  11.707 -0.4809 -0.7875  0.2930
  220MPD1     C 3338   3.660   0.525   9.101 -0.5768  0.0230  0.3596
  220MPD1    C1 3339   3.658   0.434   9.202 -0.0393 -0.2737 -0.4370
  220MPD1    C2 3340   3.748   0.436   9.304  0.4113 -0.7333  0.0066
  220MPD1    C3 3341   3.848   0.532   9.305 -0.2391 -0.5203 -0.4272
  220MPD1    C4 3342   3.847   0.630   9.204 -0.1952 -0.5323 -0.1727
  220MPD1    C5 3343   3.759   0.623   9.100  0.2857 -0.7647 -0.2447
  220MPD1     H 3344   3.745   0.363   9.383 -2.4132 -2.3776 -1.6354
  220MPD1    H1 3345   3.917   0.713   9.206 -1.4973  0.5921 -0.9909
  220MPD1    H2 3346   3.578   0.537   9.031 -0.8757 -0.3468  0.6444
  220MPD1    H3 3347   3.764   0.698   9.022 -1.6763  0.4425  0.7912
  220MPD1     N 3348   3.920   0.538   9.431  0.4783  0.1060 -0.2265
  220MPD1    H5 3349   3.888   0.469   9.499 -2.0832  1.4318 -0.0779
  220MPD1    N1 3350   3.571   0.326   9.186 -0.6230 -0.0373 -0.7936
  220MPD1    H6 3351   3.497   0.337   9.117 -1.2032  0.7287 -0.0698
  220MPD1    H7 3352   3.531   0.299   9.276  1.3140 -0.3394 -0.0250
  221MPD1     C 3353   2.241   4.704  15.965  0.6053  0.6732  0.5026
  221MPD1    C1 3354   2.326   4.609  15.909  0.0052  0.8585 -0.5534
  221MPD1    C2 3355   2.318   4.476  15.953  0.1497  0.5659  0.0328
  221MPD1    C3 3356   2.231   4.442  16.051 -0.3521 -0.2726  0.0713
  221MPD1    C4 3357   2.152   4.538  16.106 -0.0863  0.2275  0.4914
  221MPD1    C5 3358   2.160   4.669  16.066 -1.1051  0.1820 -0.1580
  221MPD1     H 3359   2.387   4.399  15.920 -0.2473 -0.4784  1.6141
  221MPD1    H1 3360   2.090   4.519  16.193 -0.5333 -0.9238 -0.0770
  221MPD1    H2 3361   2.242   0.085  15.937 -1.3998  0.9451  1.4622
  221MPD1    H3 3362   2.106   0.026  16.116 -0.9974 -0.5971  1.1990
  221MPD1     N 3363   2.224   4.314  16.112 -0.1858 -0.0436 -0.0737
  221MPD1    H5 3364   2.152   4.322  16.184 -0.1244  0.8551 -0.1087
  221MPD1    N1 3365   2.432   4.664  15.831  0.3912 -0.3238  0.2072
  221MPD1    H6 3366   2.406   0.026  15.782 -0.8827 -1.2917 -0.8176
  221MPD1    H7 3367   2.467   4.590  15.770  3.5885  0.3738  1.1996
  222MPD1     C 3368   1.835   2.943  17.380 -0.0960  0.0220 -0.8323
  222MPD1    C1 3369   1.717   2.997  17.332 -0.3745  0.0395  0.1017
  222MPD1    C2 3370   1.722   3.126  17.286  0.4398  0.4975  0.1636
  222MPD1    C3 3371   1.843   3.196  17.266  0.1451  0.4032  0.4678
  222MPD1    C4 3372   1.966   3.132  17.294  0.4179  0.0974  0.6693
  222MPD1    C5 3373   1.955   3.006  17.351  0.3522 -0.5874 -0.3789
  222MPD1     H 3374   1.633   3.180  17.258 -1.9606 -2.1995  2.5443
  222MPD1    H1 3375   2.063   3.175  17.269  0.8570 -0.7119  0.9936
  222MPD1    H2 3376   1.837   2.842  17.421 -2.1387  0.4208  0.2103
  222MPD1    H3 3377   2.051   2.971  17.387  1.4020  0.0109 -2.5470
  222MPD1     N 3378   1.850   3.331  17.223 -0.0739 -0.9038 -0.4594
  222MPD1    H5 3379   1.945   3.366  17.210  0.0545 -1.7490 -1.7756
  222MPD1    N1 3380   1.586   2.949  17.357  0.4395 -0.4446  0.2722
  222MPD1    H6 3381   1.596   2.848  17.346 -0.9182 -0.3923 -1.5201
  222MPD1    H7 3382   1.526   2.986  17.284 -0.1214  1.6028  1.7929
  223MPD1     C 3383   1.228   4.200  16.922  0.2120  0.4964 -0.5109
  223MPD1    C1 3384   1.326   4.257  16.999 -0.2954 -0.9081 -0.0113
  223MPD1    C2 3385   1.436   4.173  17.023 -0.0866  0.6325  0.1755
  223MPD1    C3 3386   1.438   4.041  17.000 -0.0761 -0.1837  0.0271
  223MPD1    C4 3387   1.329   3.985  16.933  0.7404  0.4615  1.1483
  223MPD1    C5 3388   1.230   4.064  16.890  0.2113  0.5061  0.0346
  223MPD1     H 3389   1.526   4.208  17.074 -0.2984  0.5864  0.5794
  223MPD1    H1 3390   1.327   3.882  16.899  0.4156  1.0227 -0.5442
  223MPD1    H2 3391   1.142   4.257  16.890  0.1638  0.8218  0.1866
  223MPD1    H3 3392   1.147   4.018  16.837  0.8869  0.8874 -1.3727
  223MPD1     N 3393   1.537   3.962  17.066 -0.8446 -0.2741 -0.6948
  223MPD1    H5 3394   1.606   4.013  17.120  1.5048 -2.8859 -1.2854
  223MPD1    N1 3395   1.326   4.392  17.020 -0.3884 -0.4305  0.3346
  223MPD1    H6 3396   1.238   4.427  17.057 -0.9806 -1.0313 -0.5148
  223MPD1    H7 3397   1.391   4.427  17.090  0.4071  1.2910 -1.2432
  224MPD1     C 3398   3.363   0.681   9.298 -0.1980 -0.3546  0.1080
  224MPD1    C1 3399   3.224   0.659   9.306  0.1510  0.5633 -0.2266
  224MPD1    C2 3400   3.165   0.566   9.389  0.3758  0.4600  0.2443
  224MPD1    C3 3401   3.250   0.498   9.478 -0.0316  0.1426  0.5941
  224MPD1    C4 3402   3.387   0.521   9.479  0.2356  0.2980  0.0217
  224MPD1    C5 3403   3.439   0.607   9.380 -0.0301 -0.3906 -0.2162
  224MPD1     H 3404   3.059   0.545   9.386  0.4255  0.1356  0.8158
  224MPD1    H1 3405   3.463   0.466   9.535  1.3498  0.4663 -1.3265
  224MPD1    H2 3406   3.404   0.744   9.219  0.2704 -0.0244  0.6105
  224MPD1    H3 3407   3.547   0.619   9.374 -0.1357  0.2061 -0.9694
  224MPD1     N 3408   3.206   0.397   9.566  0.3161 -0.1154  0.6607
  224MPD1    H5 3409   3.279   0.342   9.609  0.1975 -2.2093 -1.8081
  224MPD1    N1 3410   3.145   0.729   9.216 -0.5767 -0.2096  0.1710
  224MPD1    H6 3411   3.046   0.737   9.238  0.1158  1.0638  2.7569
  224MPD1    H7 3412   3.189   0.816   9.186  1.2657 -1.0993  0.3182
  225MPD1     C 3413   4.379   1.691  13.001 -0.0621  0.4689 -0.3052
  225MPD1    C1 3414   4.288   1.599  12.956  0.0087  0.0721 -0.7249
  225MPD1    C2 3415   4.297   1.564  12.824 -0.6662  0.1463  0.4961
  225MPD1    C3 3416   4.367   1.643  12.735 -0.5664  0.1581 -0.5177
  225MPD1    C4 3417   4.439   1.750  12.787  0.3096  0.7025 -0.5567
  225MPD1    C5 3418   4.443   1.772  12.918 -0.4648  0.2525  0.3753
  225MPD1     H 3419   4.231   1.490  12.780 -0.3807 -0.1740  0.6073
  225MPD1    H1 3420   4.499   1.813  12.723  0.8616 -0.9162 -1.6291
  225MPD1    H2 3421   4.393   1.706  13.107  1.0926 -0.4068 -0.3400
  225MPD1    H3 3422   4.502   1.854  12.956 -1.5765  1.1206  0.2316
  225MPD1     N 3423   4.359   1.627  12.596 -0.3025  0.5325 -0.0338
  225MPD1    H5 3424   4.395   1.699  12.535  2.1375 -0.7835 -0.1410
  225MPD1    N1 3425   4.232   1.517  13.053 -0.2411  0.2549 -0.5984
  225MPD1    H6 3426   4.203   1.579  13.129  0.9006  0.4850 -0.3478
  225MPD1    H7 3427   4.150   1.472  13.013 -1.2613  0.7663  0.9215
  226MPD1     C 3428   2.356   0.816   9.637  0.2369  0.1801  0.0733
  226MPD1    C1 3429   2.483   0.827   9.580  0.4005  0.5058  0.0385
  226MPD1    C2 3430   2.545   0.949   9.579  0.4004 -0.3428 -0.4575
  226MPD1    C3 3431   2.485   1.061   9.638 -0.3903 -0.5224 -0.3529
  226MPD1    C4 3432   2.352   1.050   9.679  0.6048 -0.3842  0.0055
  226MPD1    C5 3433   2.286   0.926   9.679 -0.4808  0.3842 -0.0351
  226MPD1     H 3434   2.643   0.962   9.535  0.4967 -0.5906 -0.3144
  226MPD1    H1 3435   2.292   1.130   9.721  0.5283  0.5560 -1.9078
  226MPD1    H2 3436   2.294   0.727   9.640  1.5903 -0.8056 -1.6206
  226MPD1    H3 3437   2.185   0.920   9.718  0.0231  0.7860  1.3443
  226MPD1     N 3438   2.547   1.188   9.608  0.1138  0.4899  0.6875
  226MPD1    H5 3439   2.640   1.172   9.570 -0.9425 -1.1812 -1.2541
  226MPD1    N1 3440   2.532   0.729   9.494  0.4497  0.0225  0.7941
  226MPD1    H6 3441   2.633   0.735   9.480  0.1153  1.7177 -0.8666
  226MPD1    H7 3442   2.516   0.638   9.537 -3.3083 -1.6028 -4.0239
  227MPD1     C 3443   2.675   2.285   9.766 -0.5487 -0.1526 -0.3972
  227MPD1    C1 3444   2.694   2.249   9.638 -0.5494  0.5893 -0.5725
  227MPD1    C2 3445   2.698   2.120   9.609 -0.3135 -0.4004  0.0839
  227MPD1    C3 3446   2.689   2.021   9.701  0.3191  0.2833  0.2696
  227MPD1    C4 3447   2.679   2.051   9.833  0.1658  0.3604 -0.1440
  227MPD1    C5 3448   2.673   2.188   9.865 -0.6423 -0.9298  0.2471
  227MPD1     H 3449   2.704   2.088   9.505  1.2786 -0.4273  0.1804
  227MPD1    H1 3450   2.666   1.989   9.921  2.9198  2.1589  1.5553
  227MPD1    H2 3451   2.670   2.386   9.805  0.7096 -0.4431  0.5254
  227MPD1    H3 3452   2.663   2.217   9.968  1.4366  1.4987 -0.2436
  227MPD1     N 3453   2.687   1.888   9.650 -0.6483 -0.4131  0.6275
  227MPD1    H5 3454   2.694   1.870   9.551 -1.2591 -1.8772  0.8427
  227MPD1    N1 3455   2.676   2.334   9.528 -0.4231  0.8167 -0.2483
  227MPD1    H6 3456   2.743   2.312   9.454  1.3937  0.1171  1.6000
  227MPD1    H7 3457   2.690   2.433   9.547 -2.2991  1.1593 -0.7308
  228MPD1     C 3458   1.117   3.747  12.489 -1.1021 -0.3439 -0.4148
  228MPD1    C1 3459   1.028   3.858  12.471  0.6352 -0.4005 -0.1530
  228MPD1    C2 3460   0.917   3.855  12.557 -0.1406  0.7256  0.0505
  228MPD1    C3 3461   0.893   3.752  12.648  0.3799 -0.2711  0.5093
  228MPD1    C4 3462   0.982   3.644  12.658  0.5570 -0.0585  0.0676
  228MPD1    C5 3463   1.094   3.650  12.581 -0.5869  0.5670  0.0095
  228MPD1     H 3464   0.839   3.929  12.564 -1.5037 -1.0135  3.0410
  228MPD1    H1 3465   0.967   3.569  12.735  0.2861 -0.8323 -0.7438
  228MPD1    H2 3466   1.196   3.738  12.416 -0.7727  2.7565 -0.4303
  228MPD1    H3 3467   1.177   3.581  12.589 -0.0650  1.0451 -1.2747
  228MPD1     N 3468   0.773   3.766  12.722 -0.5657 -0.4228 -0.4236
  228MPD1    H5 3469   0.713   3.841  12.689 -0.3325 -0.2905 -0.5468
  228MPD1    N1 3470   1.060   3.965  12.385 -0.0257  0.7771  0.1749
  228MPD1    H6 3471   0.980   4.019  12.352 -2.4043 -2.4104  0.7047
  228MPD1    H7 3472   1.106   3.934  12.299  0.2023 -1.8517  1.2482
  229MPD1     C 3473   0.327   2.740  14.453 -0.0968  0.4672 -0.0661
  229MPD1    C1 3474   0.335   2.741  14.591 -0.8707 -0.1588 -0.0877
  229MPD1    C2 3475   0.399   2.637  14.655 -0.8808  0.5544  0.6062
  229MPD1    C3 3476   0.473   2.542  14.588  0.3908  0.0338  0.0748
  229MPD1    C4 3477   0.464   2.556  14.450  0.2588  0.2841  0.6909
  229MPD1    C5 3478   0.390   2.651  14.383  0.6667  0.1333 -0.5080
  229MPD1     H 3479   0.397   2.642  14.763 -0.0364 -0.4473  0.6720
  229MPD1    H1 3480   0.531   2.495  14.390 -0.5025 -0.5170  0.6514
  229MPD1    H2 3481   0.269   2.811  14.395 -0.9654 -0.9444 -0.9298
  229MPD1    H3 3482   0.382   2.664  14.276 -0.5517 -1.0826 -0.5769
  229MPD1     N 3483   0.565   2.461  14.639 -0.3046  0.2130  0.2578
  229MPD1    H5 3484   0.622   2.414  14.570  1.1351  1.0768  0.8670
  229MPD1    N1 3485   0.263   2.833  14.667 -0.2791 -0.5162  0.0456
  229MPD1    H6 3486   0.247   2.917  14.612  2.0047 -0.2780 -0.2236
  229MPD1    H7 3487   0.308   2.862  14.754  1.4666 -0.9685 -0.7086
  230MPD1     C 3488   0.908   2.483  15.579 -0.5862  0.6052 -0.2482
  230MPD1    C1 3489   0.772   2.466  15.543  0.4017  0.2407 -0.1593
  230MPD1    C2 3490   0.755   2.425  15.411 -0.3834 -0.0746 -0.1222
  230MPD1    C3 3491   0.860   2.384  15.324 -0.5204 -0.0155  0.6720
  230MPD1    C4 3492   0.987   2.381  15.379  0.1069  0.2686 -0.4742
  230MPD1    C5 3493   1.003   2.437  15.497  0.8526 -0.5265  0.3144
  230MPD1     H 3494   0.657   2.441  15.368 -0.1719 -0.0713 -0.5960
  230MPD1    H1 3495   1.075   2.342  15.329 -0.0424  2.2772 -2.3056
  230MPD1    H2 3496   0.928   2.539  15.670  0.0480 -1.4092  0.8499
  230MPD1    H3 3497   1.104   2.435  15.538  1.3701 -0.4987 -0.9684
  230MPD1     N 3498   0.839   2.363  15.181  0.3462 -0.6334 -0.1834
  230MPD1    H5 3499   0.742   2.374  15.154 -0.0510 -0.0278  1.5017
  230MPD1    N1 3500   0.669   2.529  15.609 -0.3995  0.7521  0.1400
  230MPD1    H6 3501   0.579   2.487  15.587 -0.3125  0.6242  0.0303
  230MPD1    H7 3502   0.676   2.551  15.708  3.1255 -1.7008  0.4116
  231MPD1     C 3503   3.338   3.864  15.762  0.5444  0.4283 -0.0521
  231MPD1    C1 3504   3.266   3.956  15.698 -0.7566  0.2505 -0.1080
  231MPD1    C2 3505   3.320   4.059  15.620  0.1169  0.4828 -0.5612
  231MPD1    C3 3506   3.456   4.065  15.584 -0.3105  0.2704 -0.0524
  231MPD1    C4 3507   3.537   3.970  15.648  0.2056  0.1960  0.8110
  231MPD1    C5 3508   3.470   3.873  15.728  0.8422  0.2232  0.1399
  231MPD1     H 3509   3.245   4.128  15.584 -0.4310  1.1780  1.9441
  231MPD1    H1 3510   3.644   3.968  15.632 -0.1117 -1.5087 -1.0289
  231MPD1    H2 3511   3.302   3.796  15.838 -0.3548  0.4566 -0.4609
  231MPD1    H3 3512   3.548   3.810  15.770  0.3489  0.4773  1.4000
  231MPD1     N 3513   3.503   4.169  15.494  0.3179  0.1027  0.2531
  231MPD1    H5 3514   3.431   4.220  15.443  0.9989  0.3123 -0.5097
  231MPD1    N1 3515   3.124   3.966  15.732  0.1376 -0.0997  0.3670
  231MPD1    H6 3516   3.075   4.023  15.663  2.0159  0.1441 -0.7779
  231MPD1    H7 3517   3.081   3.874  15.741  0.0045 -0.1973 -1.1980
  232MPD1     C 3518   4.597   2.738  17.122 -0.5357 -0.3580 -0.1172
  232MPD1    C1 3519   4.562   2.818  17.227  1.3523  0.2497  0.5389
  232MPD1    C2 3520   4.615   2.786  17.354 -0.6639  0.0240  0.4809
  232MPD1    C3 3521   4.718   2.698  17.371  0.4436  0.5927 -0.8590
  232MPD1    C4 3522   0.041   2.639  17.257 -0.1440 -0.1482 -0.3504
  232MPD1    C5 3523   4.699   2.648  17.137  0.3488 -1.4870 -0.6370
  232MPD1     H 3524   4.577   2.836  17.442 -2.0255  0.4472 -0.3440
  232MPD1    H1 3525   0.132   2.581  17.256 -0.2977 -0.4037  0.0173
  232MPD1    H2 3526   4.543   2.740  17.028  0.1011 -1.4140 -0.4981
  232MPD1    H3 3527   0.017   2.591  17.055  1.4947  0.8176 -1.6686
  232MPD1     N 3528   0.029   2.668  17.506  0.1698  0.9064 -0.1546
  232MPD1    H5 3529   4.692   2.699  17.582  1.4864 -1.1850  1.7621
  232MPD1    N1 3530   4.449   2.902  17.213  0.0591 -0.0378  0.0233
  232MPD1    H6 3531   4.454   2.939  17.118 -2.8975 -1.3930 -0.6571
  232MPD1    H7 3532   4.471   2.983  17.271 -1.8004 -0.0375  0.7164
  233MPD1     C 3533   2.110   0.685   2.357  0.0290 -0.1077  0.6285
  233MPD1    C1 3534   2.222   0.666   2.426 -0.2855  0.3584  0.6329
  233MPD1    C2 3535   2.276   0.537   2.435  0.2569  0.2688 -0.4185
  233MPD1    C3 3536   2.194   0.425   2.399 -0.6412  1.5297 -0.5143
  233MPD1    C4 3537   2.063   0.449   2.351 -0.1437 -0.3915  0.6998
  233MPD1    C5 3538   2.029   0.579   2.324  0.8853  0.4335  0.1357
  233MPD1     H 3539   2.382   0.529   2.456  0.2447  0.8497 -0.1389
  233MPD1    H1 3540   2.001   0.370   2.310 -1.2021  1.0752 -0.5431
  233MPD1    H2 3541   2.071   0.784   2.337 -1.9832 -0.8576  0.8591
  233MPD1    H3 3542   1.936   0.601   2.271  0.6907  0.6448  0.5635
  233MPD1     N 3543   2.239   0.289   2.398  0.2046  0.0801  0.1165
  233MPD1    H5 3544   2.170   0.220   2.370  1.4632 -0.3635 -1.9243
  233MPD1    N1 3545   2.292   0.779   2.466 -0.4181 -0.5878  0.8604
  233MPD1    H6 3546   2.362   0.779   2.539  0.3151  1.6528  0.1656
  233MPD1    H7 3547   2.243   0.868   2.473  0.8794  0.3222 -1.4190
  234MPD1     C 3548   3.860   3.199   9.526  0.5804  0.6742  0.0316
  234MPD1    C1 3549   3.745   3.228   9.458  0.5059 -0.5118 -0.4033
  234MPD1    C2 3550   3.700   3.354   9.456  0.4228 -0.3121  0.5820
  234MPD1    C3 3551   3.756   3.448   9.535  0.3524  0.1602  0.4144
  234MPD1    C4 3552   3.873   3.419   9.605  0.3545 -0.5814  0.5442
  234MPD1    C5 3553   3.927   3.292   9.603  0.9196  0.0438 -0.2055
  234MPD1     H 3554   3.611   3.383   9.401 -1.1854  0.3503  3.5488
  234MPD1    H1 3555   3.922   3.484   9.676 -1.0250  1.3432 -0.2792
  234MPD1    H2 3556   3.906   3.101   9.521 -1.4491 -0.3632  1.7325
  234MPD1    H3 3557   4.011   3.272   9.667 -0.5463 -0.5117  1.5460
  234MPD1     N 3558   3.703   3.575   9.529 -0.6761  0.2557  0.2924
  234MPD1    H5 3559   3.632   3.592   9.459  2.0401  0.5546 -2.3486
  234MPD1    N1 3560   3.705   3.149   9.349  0.2149  0.2294 -0.2783
  234MPD1    H6 3561   3.732   3.052   9.364  1.5549  0.3540 -1.8219
  234MPD1    H7 3562   3.605   3.154   9.333  0.4003  0.3385 -1.3629
  235MPD1     C 3563   4.461   1.181   9.774  0.3077 -0.3790  0.2191
  235MPD1    C1 3564   4.457   1.296   9.693  0.2862 -0.1109 -0.4432
  235MPD1    C2 3565   4.546   1.401   9.716  0.2496  0.3040 -0.3075
  235MPD1    C3 3566   4.644   1.386   9.813 -0.0083 -0.1347 -0.7250
  235MPD1    C4 3567   4.657   1.266   9.888 -0.3962 -0.1269 -0.6736
  235MPD1    C5 3568   4.559   1.170   9.866 -0.1462  0.3026  0.4132
  235MPD1     H 3569   4.543   1.486   9.648  0.5519  0.1646 -0.4959
  235MPD1    H1 3570   0.008   1.241   9.962 -0.9417 -1.4167 -0.5486
  235MPD1    H2 3571   4.387   1.103   9.762 -0.0482 -0.2019  1.1921
  235MPD1    H3 3572   4.580   1.073   9.911  0.0325  0.1057 -0.0946
  235MPD1     N 3573   0.009   1.496   9.828  0.5357  0.1908 -1.5151
  235MPD1    H5 3574   4.714   1.577   9.771  1.4706  0.1172 -1.9192
  235MPD1    N1 3575   4.346   1.305   9.600 -0.3363  0.2980 -0.4971
  235MPD1    H6 3576   4.291   1.220   9.592 -0.4830  0.6172 -2.9063
  235MPD1    H7 3577   4.365   1.358   9.515 -5.1694  0.7065 -1.3285
  236MPD1     C 3578   4.275   3.247   9.916  0.4044 -0.1822 -0.4938
  236MPD1    C1 3579   4.281   3.125   9.855  0.0206 -0.1166  0.4034
  236MPD1    C2 3580   4.329   3.021   9.921  0.7116 -0.1720 -0.5633
  236MPD1    C3 3581   4.397   3.028  10.034  0.0638 -0.3111 -0.0295
  236MPD1    C4 3582   4.412   3.155  10.089  0.1099 -0.4350 -0.8557
  236MPD1    C5 3583   4.350   3.260  10.035 -0.0116 -0.2046 -0.0304
  236MPD1     H 3584   4.328   2.927   9.866 -0.3512 -0.5459  0.0942
  236MPD1    H1 3585   4.469   3.174  10.179 -0.0757  1.5975 -1.1737
  236MPD1    H2 3586   4.231   3.334   9.869  0.2779  0.5991  1.0814
  236MPD1    H3 3587   4.334   3.357  10.081  0.9260 -0.4852  0.8890
  236MPD1     N 3588   4.455   2.919  10.104 -0.1850 -0.1840 -0.3768
  236MPD1    H5 3589   4.504   2.941  10.190  0.1916 -2.3942 -0.0506
  236MPD1    N1 3590   4.217   3.112   9.736  0.0086 -0.1509 -0.5097
  236MPD1    H6 3591   4.268   3.053   9.670  1.0361  0.6912 -0.4576
  236MPD1    H7 3592   4.197   3.201   9.691  1.5737 -0.4881 -1.8938
  237MPD1     C 3593   4.333   0.484  15.477 -0.3638 -0.6859 -0.2199
  237MPD1    C1 3594   4.246   0.500  15.576 -0.0660 -0.3125  0.0024
  237MPD1    C2 3595   4.132   0.570  15.554  0.2530 -0.4343  0.7067
  237MPD1    C3 3596   4.084   0.599  15.432 -0.1643 -0.5809 -0.5085
  237MPD1    C4 3597   4.175   0.590  15.326 -0.5808 -0.2787 -0.0980
  237MPD1    C5 3598   4.302   0.536  15.355  0.2543 -0.6095 -0.2353
  237MPD1     H 3599   4.082   0.603  15.645 -2.0514 -0.5424 -0.5035
  237MPD1    H1 3600   4.145   0.609  15.224  0.1036  1.6819  0.0716
  237MPD1    H2 3601   4.432   0.441  15.492 -0.4984 -1.0633 -0.4193
  237MPD1    H3 3602   4.379   0.532  15.279 -0.2602  0.9829 -0.8397
  237MPD1     N 3603   3.956   0.646  15.394  0.0536  0.1349  0.0559
  237MPD1    H5 3604   3.941   0.666  15.296 -2.6894 -1.2399  0.2086
  237MPD1    N1 3605   4.280   0.461  15.712 -0.3247 -0.1076 -0.1402
  237MPD1    H6 3606   4.352   0.389  15.716  1.1715  1.3026 -1.0332
  237MPD1    H7 3607   4.199   0.424  15.760  0.0874  0.5057  1.0452
  238MPD1     C 3608   1.550   4.355  14.977  0.0316 -0.1526 -0.6530
  238MPD1    C1 3609   1.461   4.376  15.080  0.4277  0.2605  0.6165
  238MPD1    C2 3610   1.325   4.365  15.061 -0.1622  0.3578 -0.1547
  238MPD1    C3 3611   1.272   4.305  14.949 -0.3331  0.2094  0.3139
  238MPD1    C4 3612   1.364   4.269  14.851  0.3184 -0.7761  0.4569
  238MPD1    C5 3613   1.499   4.297  14.865  0.0599  0.3746 -0.1023
  238MPD1     H 3614   1.258   4.398  15.139  0.0466 -0.0746  0.2122
  238MPD1    H1 3615   1.340   4.216  14.759 -0.3587  1.1181 -0.4594
  238MPD1    H2 3616   1.651   4.392  14.989  0.3164 -0.7178 -1.3191
  238MPD1    H3 3617   1.567   4.275  14.784  0.4547  1.0381  0.0487
  238MPD1     N 3618   1.137   4.280  14.914 -0.7374 -0.0937 -0.6474
  238MPD1    H5 3619   1.110   4.241  14.825 -3.1894 -0.0274  0.0724
  238MPD1    N1 3620   1.501   4.451  15.186  0.1751 -0.1137 -0.2815
  238MPD1    H6 3621   1.598   4.433  15.211  0.2281  0.8590  0.2350
  238MPD1    H7 3622   1.443   4.437  15.269 -0.9997 -2.2575 -1.4826
  239MPD1     C 3623   0.903   0.316  14.860 -0.8565 -0.2208 -0.2896
  239MPD1    C1 3624   0.795   0.309  14.772  0.2408 -0.6022 -0.5488
  239MPD1    C2 3625   0.816   0.357  14.647  0.0312  0.1977  0.4359
  239MPD1    C3 3626   0.930   0.422  14.609 -0.2217 -0.8760 -0.0109
  239MPD1    C4 3627   1.032   0.439  14.700 -0.4470  0.0888  0.2392
  239MPD1    C5 3628   1.021   0.382  14.824  0.0395  0.4113  0.7603
  239MPD1     H 3629   0.731   0.347  14.580  0.1873  0.1346  0.2477
  239MPD1    H1 3630   1.130   0.481  14.679  0.9822 -2.9869  0.7492
  239MPD1    H2 3631   0.893   0.279  14.962 -2.7040  0.0450 -0.3788
  239MPD1    H3 3632   1.090   0.394  14.906  0.6343  3.3770 -0.1588
  239MPD1     N 3633   0.938   0.473  14.479  0.3014  0.1452  0.3150
  239MPD1    H5 3634   0.847   0.472  14.433  1.2198  2.8221 -1.5260
  239MPD1    N1 3635   0.680   0.237  14.817  0.0913 -0.2577  0.3062
  239MPD1    H6 3636   0.596   0.250  14.761  0.9253 -0.0736 -0.8961
  239MPD1    H7 3637   0.661   0.253  14.916 -4.4179 -2.2248 -0.2372
  240MPD1     C 3638   0.195   4.701  13.473  0.5679 -0.0086  0.3414
  240MPD1    C1 3639   0.081   4.652  13.533 -0.9663  0.3890 -0.1309
  240MPD1    C2 3640   0.081   4.657  13.672 -0.3857 -0.7376 -0.0589
  240MPD1    C3 3641   0.189   4.694  13.751 -0.4813 -0.8187  0.4744
  240MPD1    C4 3642   0.302   0.002  13.684  0.7911 -0.0924 -0.3488
  240MPD1    C5 3643   0.307   0.007  13.550  0.5032  0.5280  0.2375
  240MPD1     H 3644   4.708   4.627  13.709  0.4393 -5.0111 -1.2627
  240MPD1    H1 3645   0.386   0.049  13.735  1.2318 -1.9175  0.6297
  240MPD1    H2 3646   0.202   4.712  13.365 -0.6447  0.7870  0.3529
  240MPD1    H3 3647   0.392   0.053  13.501  1.3776 -1.6504 -0.2962
  240MPD1     N 3648   0.178   4.691  13.890  0.0805 -0.5078  0.1182
  240MPD1    H5 3649   0.090   4.655  13.926  0.0535  0.2563  0.8237
  240MPD1    N1 3650   4.678   4.630  13.458 -0.1060  0.6117  0.1229
  240MPD1    H6 3651   4.700   4.569  13.379  1.0307  0.5746  0.4618
  240MPD1    H7 3652   4.615   4.590  13.527  3.2475 -0.3070  2.6647
  241MPD1     C 3653   0.370   0.450  14.695 -1.1637  0.5606 -0.2106
  241MPD1    C1 3654   0.350   0.326  14.746 -0.1769 -0.4356 -0.0397
  241MPD1    C2 3655   0.312   0.223  14.665 -0.6548 -0.5899 -0.5056
  241MPD1    C3 3656   0.328   0.238  14.533  0.3340  0.0871 -0.2909
  241MPD1    C4 3657   0.360   0.359  14.473  0.2683 -0.2914  0.3429
  241MPD1    C5 3658   0.377   0.459  14.556 -0.6222 -0.3648 -0.5597
  241MPD1     H 3659   0.288   0.127  14.709 -0.9420 -0.6715 -0.8354
  241MPD1    H1 3660   0.378   0.378  14.368 -2.4459 -1.4787 -0.3317
  241MPD1    H2 3661   0.381   0.544  14.747  0.6085  1.1379 -1.6376
  241MPD1    H3 3662   0.406   0.558  14.521 -2.7700  1.1808  2.0375
  241MPD1     N 3663   0.309   0.130  14.443 -0.0044 -0.2387 -0.4091
  241MPD1    H5 3664   0.321   0.152  14.345 -0.1038  0.8866 -0.1697
  241MPD1    N1 3665   0.343   0.319  14.885  0.3497 -0.3002 -0.2005
  241MPD1    H6 3666   0.414   0.381  14.923 -1.0863 -0.8082  3.3420
  241MPD1    H7 3667   0.359   0.229  14.932  2.1797  1.0101  1.6999
  242MPD1     C 3668   0.424   2.669  16.135 -0.0172  0.3500  0.5186
  242MPD1    C1 3669   0.313   2.698  16.064 -0.1901  0.4393 -0.7695
  242MPD1    C2 3670   0.323   2.709  15.924  0.0292 -0.2280 -0.1084
  242MPD1    C3 3671   0.447   2.681  15.854  0.3013 -0.8220  0.1370
  242MPD1    C4 3672   0.553   2.632  15.918  0.3199 -0.3014 -0.5535
  242MPD1    C5 3673   0.540   2.641  16.064 -0.7630  0.3675 -0.0254
  242MPD1     H 3674   0.233   2.752  15.880  1.3950  3.2382  0.4374
  242MPD1    H1 3675   0.649   2.614  15.870  0.5989  1.3720 -0.6207
  242MPD1    H2 3676   0.427   2.671  16.244  1.6640 -1.4999  0.5102
  242MPD1    H3 3677   0.632   2.608  16.109  0.0912  2.8512  0.0769
  242MPD1     N 3678   0.465   2.722  15.723 -0.1949  0.0743 -0.4256
  242MPD1    H5 3679   0.562   2.729  15.693 -0.4419  1.3732 -0.9067
  242MPD1    N1 3680   0.197   2.737  16.133  0.3661 -0.3947 -0.2973
  242MPD1    H6 3681   0.115   2.731  16.074 -0.1659  0.8914  0.3174
  242MPD1    H7 3682   0.185   2.687  16.221  1.0809 -0.1811 -0.0767
  243MPD1     C 3683   2.149   1.350   0.077  0.6908  0.2013 -0.0590
  243MPD1    C1 3684   2.098   1.321  17.650  0.3308  0.3972  0.1165
  243MPD1    C2 3685   2.012   1.415  17.597  0.8284 -0.5081  0.2210
  243MPD1    C3 3686   1.961   1.524  17.665  0.1056 -0.0946  1.0541
  243MPD1    C4 3687   2.011   1.549   0.097  0.0909  0.0384 -0.2357
  243MPD1    C5 3688   2.107   1.466   0.147 -0.0006 -0.4811 -0.2041
  243MPD1     H 3689   1.965   1.403  17.500  2.6761 -0.5622 -0.6671
  243MPD1    H1 3690   1.992   1.640   0.153  2.5154 -0.0509  0.7279
  243MPD1    H2 3691   2.228   1.288   0.119  0.4186  0.6155  1.0722
  243MPD1    H3 3692   2.167   1.492   0.233  0.5705  0.8527 -1.0168
  243MPD1     N 3693   1.857   1.604  17.608 -0.0143 -0.3069 -0.4981
  243MPD1    H5 3694   1.828   1.583  17.513 -1.2707  1.5070 -0.5071
  243MPD1    N1 3695   2.153   1.212  17.586  0.4486 -0.4350 -0.0381
  243MPD1    H6 3696   2.085   1.179  17.518 -0.6260 -3.5086  2.5558
  243MPD1    H7 3697   2.163   1.139  17.656  0.5064 -0.7906 -0.4162
  244MPD1     C 3698   1.047   1.890   0.383 -0.2813 -1.1273  0.5452
  244MPD1    C1 3699   1.180   1.921   0.408  0.1477  0.5021 -0.6400
  244MPD1    C2 3700   1.273   1.910   0.306 -0.0248 -0.5566 -0.5593
  244MPD1    C3 3701   1.234   1.868   0.181 -0.2574  0.7909 -0.7404
  244MPD1    C4 3702   1.110   1.807   0.162 -1.1017  0.1056  0.2016
  244MPD1    C5 3703   1.018   1.824   0.261 -0.2333 -0.2529  0.0094
  244MPD1     H 3704   1.373   1.944   0.333  0.7259 -1.9387 -1.6153
  244MPD1    H1 3705   1.083   1.743   0.079  2.8535  0.1212 -1.0855
  244MPD1    H2 3706   0.971   1.906   0.459 -0.7802  1.8169 -0.5981
  244MPD1    H3 3707   0.921   1.777   0.250  0.5286 -1.6921 -0.5236
  244MPD1     N 3708   1.342   1.869   0.089 -0.4078  0.3413 -0.4958
  244MPD1    H5 3709   1.428   1.909   0.126 -0.6703 -1.1701  1.7495
  244MPD1    N1 3710   1.212   1.972   0.537  0.0265 -0.5740  0.1635
  244MPD1    H6 3711   1.305   1.953   0.574 -0.1706 -1.0353  0.4125
  244MPD1    H7 3712   1.149   1.951   0.614 -2.5577 -0.2380 -1.8314
  245MPD1     C 3713   3.623   2.084  13.268  0.3524  0.1361 -0.3641
  245MPD1    C1 3714   3.655   2.106  13.404  0.5323  0.4702 -0.1275
  245MPD1    C2 3715   3.725   2.219  13.429 -0.0726  0.4384 -1.2032
  245MPD1    C3 3716   3.776   2.298  13.336  0.4807 -0.0548 -0.8568
  245MPD1    C4 3717   3.764   2.262  13.202  0.2611  0.2062 -0.1580
  245MPD1    C5 3718   3.687   2.154  13.169  0.0271 -0.4554  0.7770
  245MPD1     H 3719   3.735   2.248  13.533  0.7863 -1.3749 -0.7917
  245MPD1    H1 3720   3.821   2.314  13.125  0.2473  2.9278  1.6632
  245MPD1    H2 3721   3.555   2.009  13.230 -0.0912  0.7883 -0.8574
  245MPD1    H3 3722   3.666   2.129  13.065  0.2810 -1.2256  0.9136
  245MPD1     N 3723   3.847   2.415  13.380  0.4122  0.4124 -0.2110
  245MPD1    H5 3724   3.868   2.421  13.479 -0.2467  1.5952 -0.1396
  245MPD1    N1 3725   3.576   2.037  13.499 -0.2961 -0.6183 -0.3401
  245MPD1    H6 3726   3.625   2.023  13.587 -0.0947  1.9335 -0.0464
  245MPD1    H7 3727   3.574   1.939  13.472 -0.5720 -0.4301 -1.0066
  246MPD1     C 3728   2.492   3.396   8.901  1.0546 -0.2492  0.3120
  246MPD1    C1 3729   2.615   3.459   8.871  0.4065 -0.2135  0.3983
  246MPD1    C2 3730   2.734   3.427   8.930  0.5073  0.2057  0.1974
  246MPD1    C3 3731   2.732   3.345   9.039  0.1385 -0.3921  0.5863
  246MPD1    C4 3732   2.607   3.304   9.082  0.3587  0.1636 -0.3079
  246MPD1    C5 3733   2.496   3.333   9.020 -0.0880 -0.2067 -0.7704
  246MPD1     H 3734   2.825   3.473   8.894 -0.2803  3.2230  2.1362
  246MPD1    H1 3735   2.591   3.231   9.161 -0.6408  0.6167 -0.0910
  246MPD1    H2 3736   2.400   3.409   8.846  2.2781  0.6267 -1.5118
  246MPD1    H3 3737   2.404   3.280   9.044 -0.1925  1.4314  2.4558
  246MPD1     N 3738   2.855   3.292   9.090 -0.9779  0.1545 -0.6798
  246MPD1    H5 3739   2.942   3.327   9.051 -2.1333  1.8298 -1.7416
  246MPD1    N1 3740   2.623   3.529   8.753 -0.2504 -0.1549  0.7956
  246MPD1    H6 3741   2.535   3.576   8.733 -0.1351  0.8382  2.6338
  246MPD1    H7 3742   2.696   3.600   8.757 -1.9762  1.6720 -0.0667
  247MPD1     C 3743   2.908   2.912  16.778 -0.1689 -0.4352  0.9370
  247MPD1    C1 3744   2.898   2.840  16.899  0.3021  0.2054 -0.5092
  247MPD1    C2 3745   2.987   2.735  16.922 -0.1652 -1.0671  0.3459
  247MPD1    C3 3746   3.069   2.693  16.817  1.0422 -0.2286 -0.0698
  247MPD1    C4 3747   3.076   2.769  16.701  0.2901 -0.2795  0.1126
  247MPD1    C5 3748   3.000   2.881  16.684 -0.7597 -0.1269 -0.0921
  247MPD1     H 3749   2.983   2.681  17.016  2.5390 -0.3577  0.8697
  247MPD1    H1 3750   3.147   2.735  16.626 -0.5020 -0.2362 -0.6562
  247MPD1    H2 3751   2.845   3.000  16.766  0.0363 -0.7749 -2.5785
  247MPD1    H3 3752   3.016   2.953  16.605 -0.2711  0.3981  0.4933
  247MPD1     N 3753   3.151   2.574  16.832  0.2880 -0.1397  0.0417
  247MPD1    H5 3754   3.216   2.555  16.757 -1.0183  1.1343 -1.4053
  247MPD1    N1 3755   2.815   2.879  17.003 -0.0244 -0.5438  0.6960
  247MPD1    H6 3756   2.733   2.936  16.980 -0.2533 -0.8598  0.7213
  247MPD1    H7 3757   2.786   2.811  17.073 -2.8084  1.3624  1.4186
  248MPD1     C 3758   3.185   3.125   0.895 -0.1426  0.2728  0.1204
  248MPD1    C1 3759   3.099   3.097   0.796  0.3428 -0.0461  0.9788
  248MPD1    C2 3760   3.159   3.035   0.687 -0.3403  0.3415  0.2218
  248MPD1    C3 3761   3.294   3.031   0.660 -0.6906  0.3193 -1.0960
  248MPD1    C4 3762   3.376   3.095   0.751 -0.2478 -0.5379  0.3725
  248MPD1    C5 3763   3.321   3.140   0.869  0.1336  0.1970  0.0268
  248MPD1     H 3764   3.097   2.996   0.607 -2.8999 -0.1022  2.4194
  248MPD1    H1 3765   3.484   3.098   0.749 -0.2984  1.1129  0.3831
  248MPD1    H2 3766   3.155   3.144   0.997 -1.4508  1.1455 -0.4325
  248MPD1    H3 3767   3.379   3.185   0.949  0.1363 -1.2056  0.8158
  248MPD1     N 3768   3.347   2.954   0.558  0.3718 -0.2014  0.4064
  248MPD1    H5 3769   3.278   2.899   0.507  2.2826 -0.5052 -1.8005
  248MPD1    N1 3770   2.966   3.088   0.827 -0.1177 -0.4226  0.2878
  248MPD1    H6 3771   2.938   3.154   0.900  0.4028 -1.1361  1.1272
  248MPD1    H7 3772   2.903   3.100   0.748  1.6948  3.0366 -0.5991
  249MPD1     C 3773   4.641   0.836   9.019 -0.4174  0.0521  0.4815
  249MPD1    C1 3774   0.040   0.901   9.008 -0.0900 -0.4386  0.9647
  249MPD1    C2 3775   0.136   0.869   9.107  0.1282  0.2067  0.9398
  249MPD1    C3 3776   0.102   0.779   9.212 -0.9431 -0.6952 -0.5240
  249MPD1    C4 3777   4.700   0.720   9.221 -0.2579  0.5861  0.6154
  249MPD1    C5 3778   4.609   0.748   9.123  0.0446 -0.0707  0.0862
  249MPD1     H 3779   0.234   0.915   9.107  0.2124  0.0289  1.2393
  249MPD1    H1 3780   4.668   0.645   9.292  1.9878 -1.4681 -0.5345
  249MPD1    H2 3781   4.571   0.849   8.937  0.3192 -1.2188 -0.3373
  249MPD1    H3 3782   4.509   0.707   9.125 -0.4930  1.4456  4.1244
  249MPD1     N 3783   0.200   0.747   9.310 -0.2992 -0.1810 -0.7829
  249MPD1    H5 3784   0.290   0.793   9.296  0.2160 -1.0132 -0.2190
  249MPD1    N1 3785   0.085   0.953   8.886  0.6864 -0.1455  0.4590
  249MPD1    H6 3786   0.006   0.995   8.838  0.9531 -0.3748 -0.1921
  249MPD1    H7 3787   0.161   1.021   8.893  1.2854 -0.7323 -0.2239
  250MPD2     C 3788   1.523   1.061  13.178  0.4004 -0.5029  0.0410
  250MPD2    C1 3789   1.585   1.071  13.058  0.3059 -0.6023  0.3307
  250MPD2    C2 3790   1.581   0.962  12.969  0.5190  0.1982 -0.4570
  250MPD2    C3 3791   1.526   0.833  13.008 -0.0942  0.8033  0.2464
  250MPD2    C4 3792   1.481   0.827  13.139  0.2366 -0.6010  0.0421
  250MPD2    C5 3793   1.471   0.939  13.220 -0.0701 -1.1558 -0.0756
  250MPD2     H 3794   1.627   0.973  12.871  3.5816 -0.5024  0.8975
  250MPD2    H1 3795   1.445   0.733  13.182 -2.9494  0.2896 -0.6721
  250MPD2    H2 3796   1.516   1.151  13.237  0.6850 -1.6865  1.8752
  250MPD2    H3 3797   1.423   0.937  13.317 -0.9678  3.0470 -0.4699
  250MPD2     N 3798   1.534   0.719  12.927  0.3476 -0.7312  0.5352
  250MPD2    H5 3799   1.493   0.634  12.964 -2.1409  0.5400  0.6606
  250MPD2    N1 3800   1.635   1.200  13.027 -0.0204 -0.4871  0.1465
  250MPD2    H7 3801   1.640   1.274  13.096  2.1488 -0.2779 -0.2413
  251TMC3    C1 3802   1.814   1.321  12.931  1.0014 -0.4219 -1.2878
  251TMC3    C2 3803   1.794   1.455  12.909  0.4921 -0.5738  0.5939
  251TMC3    C3 3804   1.906   1.530  12.869  0.3398 -0.3819  0.3261
  251TMC3    C4 3805   1.936   1.259  12.910  0.0689 -0.1950  0.2887
  251TMC3    C5 3806   2.036   1.345  12.881  0.2305 -0.5422 -0.1743
  251TMC3    C6 3807   2.030   1.476  12.858 -0.3987 -0.3498 -0.0784
  251TMC3     C 3808   1.705   1.226  12.912  0.2555  0.2236  0.1458
  251TMC3     O 3809   1.716   1.150  12.817 -0.1774 -0.4142 -0.3785
  251TMC3     H 3810   1.698   1.503  12.927  0.8642  0.4608 -0.1387
  251TMC3    H1 3811   1.942   1.153  12.927  0.0308 -0.1063  0.8501
  251TMC3    H2 3812   2.116   1.520  12.811 -2.0787  1.7828 -1.1587
  251TMC3    C7 3813   2.170   1.293  12.903  0.2846 -0.2987 -0.2946
  251TMC3    C8 3814   1.893   1.675  12.867  0.0557 -0.3761 -0.4861
  251TMC3    O1 3815   2.254   1.372  12.939  0.4786 -0.0946 -1.1103
  251TMC3    O2 3816   1.782   1.714  12.904 -0.3100  0.4656 -0.2699
  252TMC3    C1 3817   2.858   1.590  10.117  0.1341  0.4120  0.0727
  252TMC3    C2 3818   2.923   1.680  10.034 -0.0679  0.1457 -0.0180
  252TMC3    C3 3819   2.975   1.632   9.915 -0.0105 -0.4379 -0.4508
  252TMC3    C4 3820   2.827   1.462  10.070 -0.0118  0.0260 -0.0049
  252TMC3    C5 3821   2.884   1.420   9.957 -0.0658  0.5939  0.3875
  252TMC3    C6 3822   2.959   1.500   9.876 -0.2533 -0.3733  0.5614
  252TMC3     C 3823   2.785   1.648  10.230 -0.1222 -0.2828 -0.3757
  252TMC3     O 3824   2.759   1.765  10.220 -0.3808  0.3007 -0.4002
  252TMC3     H 3825   2.953   1.779  10.066  3.2388 -0.0807 -2.3393
  252TMC3    H1 3826   2.766   1.406  10.140  2.5680 -2.5521  0.1541
  252TMC3    H2 3827   3.016   1.446   9.801  0.7323 -0.3150  1.2712
  252TMC3    C7 3828   2.866   1.278   9.916  0.7944  0.3274  0.9837
  252TMC3    C8 3829   3.021   1.724   9.812  0.0329 -0.0694 -0.1583
  252TMC3    O1 3830   2.947   1.231   9.838  0.1583 -0.6867 -0.0646
  252TMC3    O2 3831   3.043   1.662   9.708 -0.0672  0.1560 -0.0452
  253MPD2     C 3832   3.163   0.995  15.221  0.4187 -0.3519 -0.5016
  253MPD2    C1 3833   3.075   0.913  15.293 -0.1346  0.5285 -0.0303
  253MPD2    C2 3834   3.067   0.919  15.432  0.2524  0.3067  0.7924
  253MPD2    C3 3835   3.159   0.998  15.497 -0.2634 -0.0526  0.0025
  253MPD2    C4 3836   3.262   1.062  15.430 -0.1236 -0.4862  0.5716
  253MPD2    C5 3837   3.263   1.058  15.290  0.1024 -0.4380  0.3698
  253MPD2     H 3838   3.003   0.852  15.488 -0.2921 -2.2217 -2.8117
  253MPD2    H1 3839   3.329   1.131  15.478  1.8157  0.1611 -3.0262
  253MPD2    H2 3840   3.158   1.009  15.114 -0.4832  1.5154 -0.2222
  253MPD2    H3 3841   3.335   1.119  15.237 -0.5968  0.6096  0.6352
  253MPD2     N 3842   3.143   1.031  15.635  0.2533 -0.0572  0.1463
  253MPD2    H5 3843   3.222   1.084  15.670  1.1398 -0.0279 -1.8560
  253MPD2    N1 3844   2.992   0.824  15.217 -0.0668 -0.7612 -0.0279
  253MPD2    H7 3845   2.998   0.840  15.117 -2.9948 -0.7687 -0.1996
  254TMC3    C1 3846   3.047   1.088  15.829 -0.4649  0.3694  0.5185
  254TMC3    C2 3847   2.935   1.151  15.872  0.2521 -0.9206 -0.2952
  254TMC3    C3 3848   2.947   1.210  15.996 -0.3255 -0.6286  0.1440
  254TMC3    C4 3849   3.160   1.077  15.907 -0.2576  0.0846  0.1285
  254TMC3    C5 3850   3.165   1.152  16.025 -0.2606 -0.6024  0.1743
  254TMC3    C6 3851   3.062   1.219  16.074  0.4539 -0.4501 -0.2400
  254TMC3     C 3852   3.034   1.010  15.712  0.5570 -0.1406  0.4947
  254TMC3     O 3853   2.922   0.986  15.673  0.0616  0.8066 -0.3406
  254TMC3     H 3854   2.843   1.157  15.816 -0.4934 -0.5620  0.9637
  254TMC3    H1 3855   3.241   1.015  15.871  1.9162  2.0722  1.5573
  254TMC3    H2 3856   3.065   1.264  16.173 -1.1581  1.9344 -1.2838
  254TMC3    C7 3857   3.267   1.133  16.121  0.4899 -0.2851  0.8391
  254TMC3    C8 3858   2.834   1.210  16.082 -0.3000 -0.9215 -0.0270
  254TMC3    O1 3859   3.247   1.150  16.240  0.2789  0.4741  0.1274
  254TMC3    O2 3860   2.852   1.182  16.200 -0.0393 -0.0629  0.0161
  255MPD2     C 3861   1.204   2.955   9.482  0.1890 -0.3327 -0.6712
  255MPD2    C1 3862   1.312   2.996   9.560 -0.1779  0.0700 -1.0453
  255MPD2    C2 3863   1.441   2.968   9.523  0.2404 -0.2788  0.4157
  255MPD2    C3 3864   1.463   2.896   9.408 -0.4642  0.2498 -0.3907
  255MPD2    C4 3865   1.358   2.856   9.321 -0.2156  0.5986 -0.4916
  255MPD2    C5 3866   1.230   2.881   9.366 -0.9075  0.0705  0.1918
  255MPD2     H 3867   1.527   3.003   9.579 -0.2637  1.8940 -0.1911
  255MPD2    H1 3868   1.365   2.811   9.223 -0.7286  1.6934 -1.0322
  255MPD2    H2 3869   1.101   2.975   9.508  0.3111  1.2004 -1.4075
  255MPD2    H3 3870   1.137   2.874   9.311 -0.4690 -1.0021 -0.4045
  255MPD2     N 3871   1.601   2.863   9.388 -0.0595 -0.2872  0.3867
  255MPD2    H5 3872   1.668   2.892   9.458  0.3372  0.5832 -0.3687
  255MPD2    N1 3873   1.277   3.080   9.665 -0.4642  0.0896 -0.3742
  255MPD2    H7 3874   1.184   3.121   9.676 -0.7029 -1.0140  1.7593
  256TMC3    C1 3875   1.350   3.270   9.774 -0.3809 -0.2174  0.5086
  256TMC3    C2 3876   1.365   3.347   9.660 -0.0431  0.6205  0.0297
  256TMC3    C3 3877   1.440   3.469   9.675 -0.1591  0.1331  0.3824
  256TMC3    C4 3878   1.397   3.309   9.895  0.3822  0.3313 -0.0132
  256TMC3    C5 3879   1.463   3.431   9.902 -0.5050  0.7407 -0.5550
  256TMC3    C6 3880   1.483   3.513   9.795 -0.1141  0.1139  0.0616
  256TMC3     C 3881   1.371   3.131   9.754 -0.1999  0.9325 -0.3214
  256TMC3     O 3882   1.479   3.090   9.790  0.2576  0.0975  0.4221
  256TMC3     H 3883   1.344   3.301   9.564  0.6450 -0.1090  0.2228
  256TMC3    H1 3884   1.383   3.241   9.979  0.3403 -1.3788 -1.4008
  256TMC3    H2 3885   1.535   3.606   9.818  0.5424 -0.2578  0.0720
  256TMC3    C7 3886   1.494   3.465  10.039 -0.0013 -0.6972  0.0893
  256TMC3    C8 3887   1.482   3.538   9.559  0.9475  0.1596  0.0200
  256TMC3    O1 3888   1.430   3.409  10.127  0.1872  0.3688  0.3830
  256TMC3    O2 3889   1.468   3.476   9.459  0.0966 -0.5231 -0.3828
  257MPD2     C 3890   0.734   1.088  13.014  0.3509  0.0800  0.5293
  257MPD2    C1 3891   0.748   0.974  12.942  0.1404 -0.6137  0.3215
  257MPD2    C2 3892   0.764   0.849  12.998  0.1886 -0.0046  0.2800
  257MPD2    C3 3893   0.774   0.838  13.136 -0.0989  0.3031 -0.4801
  257MPD2    C4 3894   0.770   0.951  13.212  0.3877 -0.6228  0.2629
  257MPD2    C5 3895   0.740   1.073  13.154  0.1263  0.4346 -0.1318
  257MPD2     H 3896   0.761   0.756  12.943 -0.4114  0.6110 -0.7059
  257MPD2    H1 3897   0.761   0.949  13.320  0.1363 -0.3202  0.2469
  257MPD2    H2 3898   0.733   1.186  12.966 -2.2263  1.4448  3.3927
  257MPD2    H3 3899   0.743   1.164  13.213  2.0281  0.4947 -0.3185
  257MPD2     N 3900   0.808   0.710  13.198 -0.6914  0.1695  0.0753
  257MPD2    H5 3901   0.800   0.630  13.136  0.8531  0.5819 -0.6677
  257MPD2    N1 3902   0.749   0.991  12.800 -0.1680  0.1580  0.5100
  257MPD2    H7 3903   0.766   1.083  12.762  1.5743 -0.0736  0.7361
  258TMC3    C1 3904   0.889   0.560  13.365  0.3652 -0.3261 -0.6179
  258TMC3    C2 3905   0.960   0.492  13.272 -0.3242 -0.3107 -0.3339
  258TMC3    C3 3906   1.042   0.388  13.325  0.4179  0.2572 -0.1354
  258TMC3    C4 3907   0.879   0.531  13.501 -0.4373  0.1122  0.8726
  258TMC3    C5 3908   0.965   0.436  13.550  0.0306 -0.3940 -0.1816
  258TMC3    C6 3909   1.047   0.361  13.463  0.0324  0.5271  0.0526
  258TMC3     C 3910   0.840   0.692  13.331 -0.9040 -0.0833  0.2775
  258TMC3     O 3911   0.831   0.770  13.424  0.6398  0.0045 -0.2438
  258TMC3     H 3912   0.961   0.522  13.168  0.6154 -0.7944 -0.4692
  258TMC3    H1 3913   0.814   0.590  13.565  1.8643  2.6875  0.8082
  258TMC3    H2 3914   1.097   0.276  13.508 -2.6661 -0.7632  0.6246
  258TMC3    C7 3915   0.944   0.394  13.690  0.1088 -0.9500  0.5537
  258TMC3    C8 3916   1.120   0.301  13.239 -0.4195 -0.1651  0.5219
  258TMC3    O1 3917   0.838   0.440  13.734 -0.1496 -0.4448  0.1268
  258TMC3    O2 3918   1.193   0.224  13.294 -0.2645  0.0400 -0.4974
  259MPD2     C 3919   3.970   1.962   1.521 -0.5379 -0.1928  0.0249
  259MPD2    C1 3920   4.048   2.075   1.526  0.0844 -0.5059  0.2492
  259MPD2    C2 3921   4.150   2.098   1.428  0.0943  0.2014 -0.6497
  259MPD2    C3 3922   4.176   2.003   1.334  0.0067 -0.2323 -0.0495
  259MPD2    C4 3923   4.095   1.886   1.335  0.1382 -0.0656 -0.1907
  259MPD2    C5 3924   3.997   1.864   1.424  0.2663 -0.0600 -0.2327
  259MPD2     H 3925   4.211   2.187   1.429 -0.1911  0.3953 -0.3959
  259MPD2    H1 3926   4.118   1.806   1.266  0.9424  0.5743 -0.6624
  259MPD2    H2 3927   3.892   1.964   1.596 -0.5702  1.4765 -0.0684
  259MPD2    H3 3928   3.948   1.768   1.416 -1.1960  0.6450  0.3417
  259MPD2     N 3929   4.272   2.040   1.232 -0.1834 -0.2590  0.0838
  259MPD2    H5 3930   4.323   2.126   1.249 -1.0653  0.0671  1.0774
  259MPD2    N1 3931   4.016   2.173   1.621  0.3985  0.2555  0.6366
  259MPD2    H7 3932   3.933   2.150   1.674  0.6560 -1.1935  0.4250
  260TMC3    C1 3933   4.413   2.006   1.048 -0.2068 -0.1737  0.0256
  260TMC3    C2 3934   4.445   2.137   1.048 -0.4848  0.0073  0.0679
  260TMC3    C3 3935   4.549   2.183   0.971 -0.1968 -0.6132  0.3369
  260TMC3    C4 3936   4.469   1.916   0.963 -0.3976  0.1430  0.3517
  260TMC3    C5 3937   4.582   1.959   0.897  0.9319 -0.0891  0.0980
  260TMC3    C6 3938   4.621   2.089   0.898 -0.7756  0.4137 -0.0154
  260TMC3     C 3939   4.301   1.956   1.126 -0.3937  0.4338  0.1602
  260TMC3     O 3940   4.248   1.851   1.092  0.4590  0.1462  0.7935
  260TMC3     H 3941   4.387   2.213   1.100  1.1886  1.7084 -0.5837
  260TMC3    H1 3942   4.420   1.820   0.949  0.4695 -0.4170  1.1701
  260TMC3    H2 3943   4.719   2.109   0.857 -0.8639  0.4984 -0.1833
  260TMC3    C7 3944   4.661   1.873   0.810 -0.1882  0.1662  0.6613
  260TMC3    C8 3945   4.535   2.319   0.923  0.7910  0.0393 -0.4677
  260TMC3    O1 3946   4.710   1.923   0.706  0.2950 -0.0655 -0.0935
  260TMC3    O2 3947   4.451   2.392   0.980 -0.3900  0.0117  0.0820
  261MPD2     C 3948   1.516   0.424  12.127 -0.1944  0.0380 -1.2503
  261MPD2    C1 3949   1.601   0.512  12.197  0.1186 -0.1523  0.0929
  261MPD2    C2 3950   1.674   0.610  12.135 -0.3080 -0.2388 -0.3872
  261MPD2    C3 3951   1.673   0.619  11.992  0.3283  0.1952  0.4019
  261MPD2    C4 3952   1.586   0.533  11.922 -0.5332  0.0345 -0.2233
  261MPD2    C5 3953   1.517   0.436  11.991 -0.6932  0.2120 -0.2249
  261MPD2     H 3954   1.744   0.658  12.202  1.9263 -1.6284 -1.7414
  261MPD2    H1 3955   1.573   0.534  11.814 -0.5030 -0.4807 -0.2316
  261MPD2    H2 3956   1.439   0.360  12.168  0.9888 -1.8196 -1.8842
  261MPD2    H3 3957   1.460   0.359  11.940 -1.2649 -0.1359  0.9178
  261MPD2     N 3958   1.746   0.709  11.923 -0.6105  0.2794  0.8207
  261MPD2    H5 3959   1.735   0.714  11.822  1.7103  0.2305  0.5790
  261MPD2    N1 3960   1.616   0.512  12.337  0.3016  0.4586  0.5894
  261MPD2    H7 3961   1.692   0.566  12.377  2.3240 -0.8921 -1.4180
  262TMC3    C1 3962   1.866   0.897  11.886 -0.7664  0.7959 -0.4249
  262TMC3    C2 3963   1.814   1.013  11.915 -0.1286  0.8025 -0.3056
  262TMC3    C3 3964   1.796   1.096  11.809  0.4568 -0.0930 -0.3077
  262TMC3    C4 3965   1.917   0.870  11.763  0.6950  0.3872 -0.6700
  262TMC3    C5 3966   1.891   0.953  11.655  0.1913  0.2984 -0.0041
  262TMC3    C6 3967   1.830   1.073  11.678 -0.6675 -0.4486 -0.5076
  262TMC3     C 3968   1.827   0.795  11.984  0.0152  0.1303 -0.1176
  262TMC3     O 3969   1.842   0.828  12.102  0.2479 -0.3822 -0.0126
  262TMC3     H 3970   1.778   1.031  12.016  0.6700  0.3507  0.0586
  262TMC3    H1 3971   1.956   0.773  11.734  0.9185  0.0910  0.6150
  262TMC3    H2 3972   1.823   1.150  11.602  2.8426 -0.9740 -1.3580
  262TMC3    C7 3973   1.956   0.935  11.534 -0.6786 -0.0326  0.2761
  262TMC3    C8 3974   1.721   1.212  11.834  0.3882  0.7710 -0.2079
  262TMC3    O1 3975   2.062   0.873  11.541 -0.5141 -0.1409  0.3112
  262TMC3    O2 3976   1.744   1.314  11.769  0.4633 -0.3427 -0.0301
  263MPD2     C 3977   2.443   4.319  11.553 -0.4655  0.1599 -0.1429
  263MPD2    C1 3978   2.494   4.422  11.639  0.5796 -0.7218  0.1295
  263MPD2    C2 3979   2.521   4.549  11.587  0.2797 -0.8470 -0.5438
  263MPD2    C3 3980   2.503   4.564  11.450  0.0588  0.2856 -0.3296
  263MPD2    C4 3981   2.441   4.470  11.370 -0.1562  0.4424 -0.1109
  263MPD2    C5 3982   2.419   4.347  11.422  0.4713  0.1651  0.0042
  263MPD2     H 3983   2.549   4.639  11.641 -2.0743 -0.4141 -0.0072
  263MPD2    H1 3984   2.422   4.475  11.264 -1.4358  2.4124  0.2050
  263MPD2    H2 3985   2.426   4.218  11.588  1.3918 -0.3705 -0.7402
  263MPD2    H3 3986   2.375   4.272  11.358 -0.4902 -0.2765  1.1858
  263MPD2     N 3987   2.533   4.694  11.392  0.2292 -0.4284  0.6699
  263MPD2    H5 3988   2.539   0.050  11.456  0.9540  0.4635 -0.5209
  263MPD2    N1 3989   2.511   4.386  11.775  0.2977  0.1021  0.3166
  263MPD2    H7 3990   2.475   4.294  11.799 -0.5931  0.7852  1.5797
  264TMC3    C1 3991   2.596   0.125  11.225  0.0873 -0.0172 -0.0180
  264TMC3    C2 3992   2.515   0.218  11.279 -0.0229  0.5098 -0.2134
  264TMC3    C3 3993   2.519   0.345  11.234  0.3090  0.4430  0.3700
  264TMC3    C4 3994   2.679   0.151  11.123  0.1335  0.5777 -0.4740
  264TMC3    C5 3995   2.692   0.284  11.087 -0.4537  0.0499 -0.0136
  264TMC3    C6 3996   2.620   0.384  11.148 -0.4764 -0.6654  0.6654
  264TMC3     C 3997   2.572   4.712  11.264 -0.7090 -0.7015  0.4708
  264TMC3     O 3998   2.627   4.631  11.194 -0.1751 -0.2855 -0.3288
  264TMC3     H 3999   2.431   0.194  11.343  0.1730 -1.7426 -0.8163
  264TMC3    H1 4000   2.731   0.073  11.066 -2.9603 -1.1806 -0.8853
  264TMC3    H2 4001   2.632   0.484  11.109 -0.7739 -0.8429  0.1217
  264TMC3    C7 4002   2.792   0.311  10.992 -0.1722  0.3391 -0.1088
  264TMC3    C8 4003   2.452   0.446  11.310 -0.7699  0.6001 -0.3451
  264TMC3    O1 4004   2.826   0.218  10.918  0.0667 -0.1371 -0.1085
  264TMC3    O2 4005   2.413   0.412  11.421 -0.5336 -0.5289  0.3603
  265MPD2     C 4006   4.686   0.619  15.428  0.0415  0.4754 -0.4283
  265MPD2    C1 4007   4.690   0.743  15.366 -0.1472  0.1599  0.4564
  265MPD2    C2 4008   4.718   0.757  15.228 -0.0653  0.4712 -0.5110
  265MPD2    C3 4009   0.005   0.637  15.157  0.2542  0.4917  0.3870
  265MPD2    C4 4010   0.003   0.518  15.222  0.1959 -0.6588  0.4568
  265MPD2    C5 4011   4.711   0.509  15.358 -0.4626 -0.7054  0.0182
  265MPD2     H 4012   0.007   0.851  15.175 -2.1105  0.0241 -1.7703
  265MPD2    H1 4013   0.012   0.421  15.174 -1.3322  0.4832 -2.0902
  265MPD2    H2 4014   4.665   0.598  15.532  1.4399  0.0670 -0.2205
  265MPD2    H3 4015   4.703   0.411  15.404  0.4098 -0.9295 -0.3105
  265MPD2     N 4016   0.029   0.631  15.019  0.4453 -0.0393  0.5554
  265MPD2    H5 4017   0.037   0.539  14.977  1.6078  0.1923  0.2505
  265MPD2    N1 4018   4.665   0.862  15.441 -0.0589 -0.1087  0.1310
  265MPD2    H7 4019   4.667   0.948  15.388  3.1761 -1.1354 -1.4891
  266TMC3    C1 4020   4.615   0.995  15.640  0.2078  0.5792  0.9021
  266TMC3    C2 4021   4.614   1.003  15.779 -0.0980 -0.7552  0.8054
  266TMC3    C3 4022   4.577   1.125  15.833  0.6074  0.2445 -0.1320
  266TMC3    C4 4023   4.552   1.092  15.569  0.6441 -0.1203 -0.7191
  266TMC3    C5 4024   4.520   1.213  15.627 -0.0668 -0.0835  0.1138
  266TMC3    C6 4025   4.529   1.230  15.760 -0.2895  0.7083  0.0774
  266TMC3     C 4026   4.639   0.864  15.579  0.4422  0.0800  0.0193
  266TMC3     O 4027   4.635   0.775  15.660  0.2497 -0.1003  0.0574
  266TMC3     H 4028   4.652   0.919  15.836 -0.7258 -1.0446  0.7995
  266TMC3    H1 4029   4.538   1.083  15.462 -1.5447  0.8374 -0.5130
  266TMC3    H2 4030   4.493   1.321  15.807 -3.0918 -0.1914 -0.3636
  266TMC3    C7 4031   4.512   1.336  15.553 -0.5922  0.4489 -0.6256
  266TMC3    C8 4032   4.627   1.144  15.963  0.8380  0.6914  1.0053
  266TMC3    O1 4033   4.429   1.416  15.588  0.1044  0.0865  0.0139
  266TMC3    O2 4034   4.668   1.042  16.018 -0.4354  0.0821 -0.1769
  267MPD2     C 4035   2.174   1.637  17.439  1.2462 -0.3622  0.2311
  267MPD2    C1 4036   2.183   1.754  17.501  0.5238 -0.1830  0.1302
  267MPD2    C2 4037   2.107   1.863  17.459 -0.0449 -0.0624 -0.6733
  267MPD2    C3 4038   2.024   1.848  17.354 -0.1922 -0.1794  0.2467
  267MPD2    C4 4039   2.011   1.726  17.291  0.2609 -0.6745  0.4851
  267MPD2    C5 4040   2.094   1.621  17.331 -0.7166  0.7176  0.3197
  267MPD2     H 4041   2.106   1.956  17.513  1.7890  1.1244 -2.6746
  267MPD2    H1 4042   1.951   1.717  17.201  1.4903 -0.0077 -0.4045
  267MPD2    H2 4043   2.227   1.550  17.478  1.8698  0.5958  1.5221
  267MPD2    H3 4044   2.108   1.529  17.276  1.8168  0.8130  0.7786
  267MPD2     N 4045   1.949   1.957  17.311  0.3486  0.1075 -0.6261
  267MPD2    H5 4046   1.883   1.932  17.238 -1.6267  0.1289  1.1593
  267MPD2    N1 4047   2.271   1.756  17.608  0.2359  0.1334  0.3612
  267MPD2    H7 4048   2.321   1.669  17.624 -0.1894 -0.0438  0.7048
  268TMC3    C1 4049   2.430   1.859   0.041  0.2538 -0.2455  0.8660
  268TMC3    C2 4050   2.507   1.960  17.689  0.5350 -0.3364  0.2824
  268TMC3    C3 4051   2.601   2.015   0.070 -0.6718 -1.2094  0.1398
  268TMC3    C4 4052   2.445   1.814   0.171 -0.0543 -0.1564 -0.2793
  268TMC3    C5 4053   2.545   1.871   0.249  0.3139  0.0272 -0.3006
  268TMC3    C6 4054   2.618   1.972   0.198  0.2643  0.0360 -0.4130
  268TMC3     C 4055   2.295   1.871  17.682 -0.4246 -0.3346  0.2861
  268TMC3     O 4056   2.249   1.989  17.682 -0.3595 -0.3398 -0.1247
  268TMC3     H 4057   2.484   1.988  17.587 -1.0372  1.1346  1.0520
  268TMC3    H1 4058   2.372   1.742   0.206  1.6101 -1.5983  0.2496
  268TMC3    H2 4059   2.694   2.021   0.258 -2.0559  2.0106  0.9228
  268TMC3    C7 4060   2.587   1.797   0.361  0.4474 -0.3744  0.3143
  268TMC3    C8 4061   2.679   2.129   0.025 -0.2238 -0.1688  0.3755
  268TMC3    O1 4062   2.501   1.726   0.414 -0.0091  0.4827 -0.2204
  268TMC3    O2 4063   2.768   2.168   0.105  0.0767  0.2394 -0.3159
  269MPD2     C 4064   2.287   1.167  15.728  0.5712  0.1088  0.1082
  269MPD2    C1 4065   2.170   1.206  15.781  0.7859 -0.1417  0.3044
  269MPD2    C2 4066   2.121   1.337  15.759  1.0945  0.6608 -0.0473
  269MPD2    C3 4067   2.199   1.424  15.683  0.2899  0.0963 -0.0556
  269MPD2    C4 4068   2.313   1.378  15.629  0.1106  0.3572  0.0076
  269MPD2    C5 4069   2.356   1.250  15.642 -0.0000 -0.4150  0.6185
  269MPD2     H 4070   2.023   1.363  15.799  0.5874 -0.6717 -0.4047
  269MPD2    H1 4071   2.376   1.446  15.572  0.0787 -0.1275 -0.6043
  269MPD2    H2 4072   2.330   1.067  15.731  0.8720  0.2887  1.4270
  269MPD2    H3 4073   2.442   1.216  15.586  0.3541  2.4654 -0.5996
  269MPD2     N 4074   2.161   1.561  15.679  0.6439  0.3734  0.0876
  269MPD2    H5 4075   2.075   1.581  15.729  1.3637  0.2886  1.3529
  269MPD2    N1 4076   2.101   1.109  15.854  0.2067  0.1365 -0.4073
  269MPD2    H7 4077   2.162   1.029  15.869 -2.0088 -1.0922  1.9835
  270TMC3    C1 4078   1.937   0.986  15.970  0.2185  0.1806  0.5235
  270TMC3    C2 4079   1.805   0.950  15.948  0.4567  0.1187  0.3641
  270TMC3    C3 4080   1.772   0.824  16.004 -0.3362 -0.2820 -0.1364
  270TMC3    C4 4081   2.028   0.922  16.041  0.2960  0.2798  0.0340
  270TMC3    C5 4082   1.987   0.806  16.099  0.5688 -0.6589  0.4402
  270TMC3    C6 4083   1.863   0.756  16.068  0.0931  0.4975 -0.3193
  270TMC3     C 4084   1.976   1.108  15.904 -0.3630  0.2375  0.1951
  270TMC3     O 4085   1.888   1.191  15.888  0.1560 -0.1607  0.2154
  270TMC3     H 4086   1.734   1.023  15.911  0.6155 -0.3139 -0.8090
  270TMC3    H1 4087   2.127   0.961  16.063  0.5758 -0.6889  0.5148
  270TMC3    H2 4088   1.833   0.652  16.075 -0.1191  0.7032  1.8173
  270TMC3    C7 4089   2.089   0.711  16.118 -0.1649 -0.1294 -0.4224
  270TMC3    C8 4090   1.675   0.752  15.922 -0.3956  0.0761  1.0231
  270TMC3    O1 4091   2.193   0.735  16.057 -0.1385 -0.1596  0.0435
  270TMC3    O2 4092   1.625   0.654  15.977  0.0481 -0.3567 -0.1435
  271MPD2     C 4093   1.240   0.930  14.018 -0.5904  0.1948  0.0089
  271MPD2    C1 4094   1.174   0.914  14.138  0.1331 -0.4535 -0.3840
  271MPD2    C2 4095   1.043   0.954  14.140 -1.0494 -0.3046  0.8576
  271MPD2    C3 4096   0.981   1.011  14.033  0.2188  0.7979 -0.4373
  271MPD2    C4 4097   1.043   1.027  13.915 -0.7186 -0.1746  0.2110
  271MPD2    C5 4098   1.171   0.988  13.906 -0.2569 -0.0797 -0.7956
  271MPD2     H 4099   0.984   0.930  14.227  0.8413  2.1122  2.7981
  271MPD2    H1 4100   0.983   1.061  13.832  0.3469  2.2726  0.4201
  271MPD2    H2 4101   1.347   0.915  14.019 -0.6302 -0.2986 -2.7727
  271MPD2    H3 4102   1.219   0.998  13.809 -0.8551 -0.8522 -1.1766
  271MPD2     N 4103   0.842   1.041  14.033  0.6395  0.1269  0.1781
  271MPD2    H5 4104   0.786   1.050  13.949  0.7558  2.5443  0.3452
  271MPD2    N1 4105   1.237   0.868  14.252  0.4971  0.7715 -0.1327
  271MPD2    H7 4106   1.181   0.849  14.335  1.5009 -1.4281  0.0428
  272TMC3    C1 4107   1.410   0.768  14.383  0.3027  0.1405  0.2817
  272TMC3    C2 4108   1.529   0.701  14.381  0.1260  0.0217  0.0018
  272TMC3    C3 4109   1.589   0.656  14.491 -0.0389 -0.4629  0.3913
  272TMC3    C4 4110   1.339   0.782  14.496 -0.2006 -0.4900  0.0856
  272TMC3    C5 4111   1.409   0.751  14.610 -0.4813 -0.3209 -0.7982
  272TMC3    C6 4112   1.524   0.681  14.608 -0.2800  0.1412 -0.4410
  272TMC3     C 4113   1.357   0.807  14.251  0.2909 -0.2537  0.1308
  272TMC3     O 4114   1.425   0.778  14.154  0.3058  0.7692 -0.0115
  272TMC3     H 4115   1.584   0.688  14.288  0.7337  0.7120  0.2668
  272TMC3    H1 4116   1.248   0.840  14.501  0.6139  1.0289 -2.4223
  272TMC3    H2 4117   1.558   0.652  14.706 -0.8904  2.0977  0.3561
  272TMC3    C7 4118   1.348   0.757  14.741  0.0995  0.1278 -0.4639
  272TMC3    C8 4119   1.727   0.606  14.477  0.4198  0.0169  0.0881
  272TMC3    O1 4120   1.229   0.732  14.751 -0.0493  0.5777 -0.7672
  272TMC3    O2 4121   1.771   0.630  14.367  0.1752  0.1575  0.1260
  273MPD2     C 4122   3.341   3.854  11.726 -0.4047  0.4715  0.5112
  273MPD2    C1 4123   3.323   3.810  11.852 -0.1925  0.0972 -0.1594
  273MPD2    C2 4124   3.230   3.715  11.892  0.2523 -0.0483 -0.7230
  273MPD2    C3 4125   3.150   3.663  11.796 -0.0107 -0.5150  0.6178
  273MPD2    C4 4126   3.165   3.706  11.665 -0.3229  1.0787 -0.1672
  273MPD2    C5 4127   3.254   3.800  11.628 -0.1610  0.1582 -0.0569
  273MPD2     H 4128   3.227   3.677  11.993  0.6868 -0.0077 -0.6936
  273MPD2    H1 4129   3.100   3.670  11.586  2.2748 -2.7453 -0.5596
  273MPD2    H2 4130   3.408   3.933  11.692  1.9420 -1.9622 -0.5676
  273MPD2    H3 4131   3.256   3.836  11.526 -0.3764  0.7960  0.1601
  273MPD2     N 4132   3.054   3.565  11.821  0.2423 -0.2181  0.1154
  273MPD2    H5 4133   2.997   3.544  11.740 -2.0140  2.2124  1.0575
  273MPD2    N1 4134   3.414   3.875  11.942  0.4834 -0.4374  0.1792
  273MPD2    H7 4135   3.487   3.935  11.905 -1.7311  3.6727  2.4386
  274TMC3    C1 4136   2.919   3.421  11.934  0.2332 -1.0181  1.1041
  274TMC3    C2 4137   2.844   3.404  11.824 -0.1828 -0.8625  0.0062
  274TMC3    C3 4138   2.716   3.384  11.841  0.6386  0.4184 -0.8843
  274TMC3    C4 4139   2.861   3.411  12.059  0.0650  0.1435 -1.1029
  274TMC3    C5 4140   2.723   3.400  12.072 -1.1777  0.1305  0.6693
  274TMC3    C6 4141   2.651   3.396  11.960  0.7384  0.2323 -0.5945
  274TMC3     C 4142   3.043   3.485  11.937 -0.5678 -0.2236  0.4054
  274TMC3     O 4143   3.111   3.490  12.041  0.4235  0.0427 -0.1438
  274TMC3     H 4144   2.888   3.415  11.726 -0.8884 -0.0524 -0.2204
  274TMC3    H1 4145   2.923   3.438  12.143 -0.5012 -0.3776 -0.5231
  274TMC3    H2 4146   2.547   3.366  11.958  0.6263  0.5830 -0.1668
  274TMC3    C7 4147   2.671   3.512  12.150  0.1371  0.7016 -0.2669
  274TMC3    C8 4148   2.637   3.362  11.722 -0.5702 -0.7011  0.3622
  274TMC3    O1 4149   2.567   3.571  12.125 -0.0417  0.3794  0.8570
  274TMC3    O2 4150   2.535   3.430  11.722  0.4363  0.1123 -0.2227
  275MPD2     C 4151   3.090   1.333  14.771  0.6211 -0.5859 -0.2515
  275MPD2    C1 4152   3.002   1.435  14.783  0.1521  0.6273 -0.5734
  275MPD2    C2 4153   2.890   1.432  14.703  0.0854 -0.4396  0.1111
  275MPD2    C3 4154   2.854   1.324  14.626 -0.1210  0.5312 -0.0411
  275MPD2    C4 4155   2.938   1.220  14.623 -0.5774  0.2711  0.8508
  275MPD2    C5 4156   3.055   1.226  14.697 -0.1059  0.1801 -0.1855
  275MPD2     H 4157   2.825   1.516  14.727  0.8716  0.0017  0.7175
  275MPD2    H1 4158   2.913   1.127  14.573  1.6994  0.7778 -1.2037
  275MPD2    H2 4159   3.179   1.315  14.830  1.1707  1.6224 -0.4092
  275MPD2    H3 4160   3.116   1.136  14.696 -0.1101  0.1532  1.3469
  275MPD2     N 4161   2.723   1.314  14.566 -0.2687 -0.1420 -0.2720
  275MPD2    H5 4162   2.707   1.229  14.513 -2.2048  0.3478 -0.4610
  275MPD2    N1 4163   3.010   1.535  14.875 -1.1030 -0.1867 -0.6950
  275MPD2    H7 4164   2.943   1.612  14.875 -1.8723 -0.8507 -0.9710
  276TMC3    C1 4165   3.042   1.627  15.089 -0.3411 -0.4670  0.4384
  276TMC3    C2 4166   2.911   1.614  15.120  1.0568 -1.2309  0.3583
  276TMC3    C3 4167   2.858   1.682  15.224 -0.0374 -0.1759 -0.6292
  276TMC3    C4 4168   3.131   1.696  15.166  0.1515  0.2383  0.2365
  276TMC3    C5 4169   3.079   1.755  15.280  0.0917  0.9832  0.1044
  276TMC3    C6 4170   2.943   1.750  15.309 -0.0283  0.5984 -0.1054
  276TMC3     C 4171   3.097   1.540  14.988  0.0765  0.0635 -0.0047
  276TMC3     O 4172   3.204   1.487  15.015 -0.3428 -0.7380 -0.3927
  276TMC3     H 4173   2.841   1.570  15.050 -0.9774  2.0246  0.3215
  276TMC3    H1 4174   3.235   1.699  15.133  0.0576  0.7231 -0.0138
  276TMC3    H2 4175   2.905   1.770  15.409  0.2707 -3.1425  0.7858
  276TMC3    C7 4176   3.145   1.862  15.349  0.3533 -0.5356  0.3137
  276TMC3    C8 4177   2.739   1.625  15.291  0.2643  0.7897 -0.2953
  276TMC3    O1 4178   3.068   1.937  15.406 -0.1434 -0.1756 -0.0201
  276TMC3    O2 4179   2.673   1.694  15.361  0.1737 -0.1914 -0.1211
  277MPD2     C 4180   0.308   0.553  13.654 -0.1242  0.2538  0.8221
  277MPD2    C1 4181   0.186   0.620  13.681  0.8746  0.0503  1.2149
  277MPD2    C2 4182   0.126   0.584  13.803 -0.6722  0.3658 -0.3809
  277MPD2    C3 4183   0.173   0.477  13.878 -0.1376  0.1498 -0.4653
  277MPD2    C4 4184   0.292   0.411  13.839  0.0396  0.0231 -0.3699
  277MPD2    C5 4185   0.359   0.454  13.728 -0.0860  0.0058  0.5775
  277MPD2     H 4186   0.031   0.623  13.837 -0.2210 -1.1765  2.6984
  277MPD2    H1 4187   0.333   0.333  13.902  0.3636  0.8438  0.4287
  277MPD2    H2 4188   0.376   0.587  13.576 -0.1582 -1.9185 -0.1441
  277MPD2    H3 4189   0.454   0.416  13.692  0.2558  1.1990  0.2188
  277MPD2     N 4190   0.086   0.443  13.983 -0.5740 -0.4833  0.0779
  277MPD2    H5 4191   4.714   0.475  13.979 -1.0549 -1.6022  2.2096
  277MPD2    N1 4192   0.145   0.725  13.601  0.4806 -0.0282  0.2578
  277MPD2    H7 4193   0.199   0.740  13.516 -1.7698 -0.4448 -1.2456
  278TMC3    C1 4194   4.722   0.284  14.134 -0.5445  0.1960  0.9790
  278TMC3    C2 4195   4.696   0.165  14.067  0.1335 -0.4268 -0.3291
  278TMC3    C3 4196   4.571   0.134  14.032  0.9931 -0.4847  0.5199
  278TMC3    C4 4197   4.624   0.375  14.159 -0.2150 -0.1206  0.1268
  278TMC3    C5 4198   4.498   0.353  14.105  0.1034 -0.1048  0.4003
  278TMC3    C6 4199   4.470   0.223  14.048 -0.3994 -0.1108 -0.5247
  278TMC3     C 4200   0.116   0.346  14.075  0.2927 -0.8963 -0.3467
  278TMC3     O 4201   0.224   0.286  14.084  0.4139 -0.0106 -0.2532
  278TMC3     H 4202   0.056   0.115  14.021 -0.4590 -1.0694 -0.7088
  278TMC3    H1 4203   4.666   0.469  14.192 -0.2692  0.0855 -0.3997
  278TMC3    H2 4204   4.376   0.199  14.000 -0.5131 -0.7216  0.0009
  278TMC3    C7 4205   4.447   0.470  14.026  0.0967  0.0637  0.4371
  278TMC3    C8 4206   4.556   0.014  13.952  0.6799  0.0383  0.6791
  278TMC3    O1 4207   4.522   0.556  13.988  0.1402 -0.6017  0.3422
  278TMC3    O2 4208   4.637   4.643  13.963  0.2958 -0.2746  0.3470
  279MPD2     C 4209   4.395   1.841   0.031  0.1222  0.2454 -0.3959
  279MPD2    C1 4210   4.310   1.756  17.670  0.3606  0.1630  0.0778
  279MPD2    C2 4211   4.334   1.732  17.534 -0.1570  0.5057 -0.0215
  279MPD2    C3 4212   4.443   1.782  17.464 -0.7862 -0.5352  0.3950
  279MPD2    C4 4213   4.526   1.866  17.537  1.3728  0.4039  0.3759
  279MPD2    C5 4214   4.496   1.901  17.662 -0.8552 -0.3490  0.6219
  279MPD2     H 4215   4.276   1.658  17.480  0.0683  0.5537 -0.3336
  279MPD2    H1 4216   4.616   1.906  17.492  2.0251  1.1934  2.4089
  279MPD2    H2 4217   4.384   1.872   0.134 -1.8893 -1.0171 -0.2439
  279MPD2    H3 4218   4.562   1.968   0.019 -0.6104  0.2502 -0.4168
  279MPD2     N 4219   4.471   1.733  17.335  0.3582  0.2565  0.0036
  279MPD2    H5 4220   4.562   1.754  17.296  0.1442  0.4066 -0.4108
  279MPD2    N1 4221   4.207   1.689   0.044 -0.3036  0.2614  0.1492
  279MPD2    H7 4222   4.197   1.716   0.142  1.4991 -0.8865  0.6414
  280TMC3    C1 4223   4.016   1.552   0.065  0.3210 -0.4459 -0.0969
  280TMC3    C2 4224   3.982   1.424   0.027 -0.5989 -0.3914 -0.2057
  280TMC3    C3 4225   3.846   1.408   0.003  0.1432  0.5772 -0.3493
  280TMC3    C4 4226   3.927   1.647   0.096 -0.4443  0.1367  0.1257
  280TMC3    C5 4227   3.798   1.625   0.074  0.0223  0.0887 -0.1593
  280TMC3    C6 4228   3.753   1.508   0.022  0.2416  0.4096  0.2927
  280TMC3     C 4229   4.131   1.589  17.692  1.1589 -0.0185 -0.0993
  280TMC3     O 4230   4.155   1.521  17.597 -1.2575  0.0881 -0.2069
  280TMC3     H 4231   4.050   1.347  17.691 -1.0406  0.1888 -2.5169
  280TMC3    H1 4232   3.967   1.743   0.127  2.2327 -0.8066 -0.3624
  280TMC3    H2 4233   3.648   1.492  17.696  0.1567  0.3326  0.7273
  280TMC3    C7 4234   3.700   1.719   0.119  0.2581  0.3667  0.1810
  280TMC3    C8 4235   3.791   1.274  17.683  0.1803  0.0175 -0.3512
  280TMC3    O1 4236   3.733   1.792   0.208  0.4857  0.2143 -0.4208
  280TMC3    O2 4237   3.829   1.183   0.063  0.0856 -0.0683 -0.1009
  281TMC3    C1 4238   2.373   1.307  13.413  0.4298 -0.9925  0.3284
  281TMC3    C2 4239   2.475   1.306  13.318  0.2518  0.6943  0.8551
  281TMC3    C3 4240   2.564   1.200  13.309 -0.3921  0.5356  0.6792
  281TMC3    C4 4241   2.353   1.205  13.496 -0.5305  0.4765 -0.4507
  281TMC3    C5 4242   2.446   1.104  13.489 -0.7745  0.8993  0.4287
  281TMC3    C6 4243   2.548   1.098  13.396 -0.2446 -0.5009  0.9277
  281TMC3     C 4244   2.261   1.395  13.381 -0.0085 -0.4465  0.1725
  281TMC3     O 4245   2.152   1.345  13.406 -0.2924  0.3368 -0.2057
  281TMC3     H 4246   2.479   1.380  13.238 -0.9882  0.4137  0.5263
  281TMC3    H1 4247   2.268   1.210  13.562 -1.8168  0.9337 -2.1459
  281TMC3    H2 4248   2.628   1.026  13.399  0.7145  0.5426  0.2895
  281TMC3    C7 4249   2.427   0.981  13.575  0.1564  0.7762  0.7118
  281TMC3    C8 4250   2.596   1.166  13.172  0.6593  0.4100 -0.0170
  281TMC3    O1 4251   2.530   0.916  13.600  0.1288 -0.2598 -0.8358
  281TMC3    O2 4252   2.612   1.253  13.085  0.0214 -0.5926 -0.1200
  282MPD2     C 4253   4.546   2.375  15.278  0.1625 -0.4856 -0.0216
  282MPD2    C1 4254   4.427   2.459  15.268 -0.2270 -0.3437  0.8746
  282MPD2    C2 4255   4.355   2.468  15.151  0.2509 -0.5079  0.9167
  282MPD2    C3 4256   4.402   2.390  15.037 -0.3056  0.8353  0.3450
  282MPD2    C4 4257   4.513   2.314  15.053  0.3166  0.0070  0.0446
  282MPD2    C5 4258   4.587   2.308  15.162  0.3432  0.4901 -0.4310
  282MPD2     H 4259   4.272   2.537  15.154 -0.4145 -1.2897  0.2420
  282MPD2    H1 4260   4.536   2.250  14.968  1.4975 -0.4852  0.7213
  282MPD2    H2 4261   4.612   2.361  15.363  0.9342  0.8178 -0.4013
  282MPD2    H3 4262   4.681   2.252  15.163  0.8182  1.2543 -2.3997
  282MPD2     N 4263   4.337   2.420  14.916 -0.6754  0.4011  0.2049
  282MPD2    H5 4264   4.270   2.496  14.922 -1.9333 -0.9201  2.9898
  282MPD2    N1 4265   4.384   2.542  15.377 -0.7634  0.0837  0.0461
  282MPD2    H7 4266   4.305   2.604  15.364 -0.5380  0.3185 -0.2028
  283TMC3    C1 4267   4.397   2.670  15.573 -0.3791  0.2302  0.0937
  283TMC3    C2 4268   4.479   2.763  15.625 -0.4764  0.5144  0.1732
  283TMC3    C3 4269   4.416   2.848  15.714  0.5699  0.4492  0.6509
  283TMC3    C4 4270   4.263   2.656  15.601 -0.5209  0.5404 -0.1740
  283TMC3    C5 4271   4.213   2.736  15.700 -0.8626  0.2196  0.0623
  283TMC3    C6 4272   4.291   2.828  15.766  0.5138  0.2961  0.1728
  283TMC3     C 4273   4.466   2.576  15.491  0.0568  0.0416  0.4707
  283TMC3     O 4274   4.583   2.559  15.512  0.0364  0.7022 -0.2558
  283TMC3     H 4275   4.578   2.775  15.584 -0.0966  0.8769  1.2110
  283TMC3    H1 4276   4.202   2.578  15.558 -0.4327  1.2279 -1.5581
  283TMC3    H2 4277   4.240   2.887  15.841 -0.7503 -0.6332  0.0476
  283TMC3    C7 4278   4.091   2.708  15.775 -0.1521  0.2307 -0.5049
  283TMC3    C8 4279   4.460   2.992  15.691  0.4138  0.4233 -0.0226
  283TMC3    O1 4280   4.104   2.717  15.894  0.6762  0.9052  0.7291
  283TMC3    O2 4281   4.518   3.015  15.589  0.3412  0.9317 -0.9259
  284MPD2     C 4282   2.965   1.451  12.262 -0.4912  0.3044  0.6508
  284MPD2    C1 4283   2.920   1.471  12.139  0.1252 -0.7537 -0.6761
  284MPD2    C2 4284   2.824   1.388  12.095 -0.4779 -0.1974 -0.6437
  284MPD2    C3 4285   2.757   1.302  12.177 -0.6300 -0.0619 -0.1500
  284MPD2    C4 4286   2.805   1.281  12.308 -0.0744  1.0354  0.4104
  284MPD2    C5 4287   2.914   1.352  12.340  0.9794 -0.6051 -0.1207
  284MPD2     H 4288   2.795   1.402  11.991 -0.5699 -2.0992 -0.8786
  284MPD2    H1 4289   2.756   1.211  12.375 -0.2245 -1.8103 -2.6814
  284MPD2    H2 4290   3.036   1.521  12.304  1.0286 -1.4643  1.0473
  284MPD2    H3 4291   2.951   1.328  12.440  0.3084 -1.5487 -0.0947
  284MPD2     N 4292   2.652   1.222  12.124 -0.0329 -0.0156 -0.5917
  284MPD2    H5 4293   2.617   1.159  12.196  1.9001 -1.5608 -1.0289
  284MPD2    N1 4294   2.977   1.563  12.053 -0.5204 -0.0239  0.4919
  284MPD2    H7 4295   2.931   1.581  11.965 -1.3979 -1.1152  0.7215
  285TMC3    C1 4296   3.095   1.746  11.974  0.1644  0.6907 -0.1327
  285TMC3    C2 4297   3.059   1.706  11.849  0.4285  0.1122 -0.4155
  285TMC3    C3 4298   3.074   1.797  11.752 -0.4823 -0.1427 -0.0904
  285TMC3    C4 4299   3.152   1.871  12.000 -0.0002 -0.4260  0.2605
  285TMC3    C5 4300   3.170   1.955  11.899 -0.1143  0.3257 -0.5466
  285TMC3    C6 4301   3.131   1.919  11.773 -0.6254 -1.0877 -0.0298
  285TMC3     C 4302   3.072   1.658  12.090  0.7932 -0.0847 -0.5024
  285TMC3     O 4303   3.139   1.678  12.190 -0.1527  0.8537  0.0555
  285TMC3     H 4304   3.020   1.608  11.823  2.7766 -0.9251 -0.0405
  285TMC3    H1 4305   3.181   1.895  12.102  1.5987  1.0433 -0.5320
  285TMC3    H2 4306   3.111   2.003  11.708 -0.0447 -1.2137 -0.3715
  285TMC3    C7 4307   3.209   2.091  11.913  0.5990 -0.0772  0.0550
  285TMC3    C8 4308   3.040   1.749  11.618  0.5755  0.3857  0.1153
  285TMC3    O1 4309   3.154   2.174  11.835  0.3352  0.4948  0.2715
  285TMC3    O2 4310   2.970   1.649  11.620 -0.5175 -0.4304  0.4814
  286MPD2     C 4311   3.024   1.070   1.954 -0.6878 -1.0868  0.1520
  286MPD2    C1 4312   2.987   1.029   1.828 -0.2306  0.2319  0.1782
  286MPD2    C2 4313   3.055   0.920   1.775  0.7740  0.0892 -0.8167
  286MPD2    C3 4314   3.164   0.858   1.839  0.1134  0.1467 -0.7192
  286MPD2    C4 4315   3.208   0.918   1.954  0.2029  0.2573  0.0687
  286MPD2    C5 4316   3.135   1.021   2.017  0.0179 -0.0258 -0.8824
  286MPD2     H 4317   3.021   0.881   1.679 -0.1001  0.5628 -0.7007
  286MPD2    H1 4318   3.301   0.889   2.002  0.6082  1.2634 -0.1127
  286MPD2    H2 4319   2.975   1.153   2.005  1.9539 -0.2255  1.2689
  286MPD2    H3 4320   3.168   1.064   2.111 -0.8986 -1.2531 -0.0057
  286MPD2     N 4321   3.241   0.752   1.790  0.4782 -0.7171  0.6362
  286MPD2    H5 4322   3.313   0.709   1.846  0.8094 -1.6306 -0.4682
  286MPD2    N1 4323   2.887   1.081   1.749 -0.2979 -0.4697 -0.8432
  286MPD2    H7 4324   2.882   1.042   1.656 -0.0067 -0.7704 -0.7325
  287TMC3    C1 4325   3.289   0.570   1.640  0.0972 -0.2507 -0.5834
  287TMC3    C2 4326   3.269   0.524   1.512 -0.4715  0.1172  0.3873
  287TMC3    C3 4327   3.370   0.444   1.465  0.0791 -0.0941  0.5396
  287TMC3    C4 4328   3.387   0.536   1.724  0.3973 -0.2694 -0.3495
  287TMC3    C5 4329   3.489   0.452   1.667 -0.0950 -0.1018  0.3080
  287TMC3    C6 4330   3.476   0.408   1.535 -0.0485  1.1116  0.1416
  287TMC3     C 4331   3.203   0.689   1.674 -0.6023  0.3082  0.1018
  287TMC3     O 4332   3.134   0.726   1.580 -0.2410 -0.3937 -0.2452
  287TMC3     H 4333   3.169   0.534   1.472 -0.9392 -0.1999  1.4726
  287TMC3    H1 4334   3.414   0.579   1.819 -1.4948  1.0141 -0.4018
  287TMC3    H2 4335   3.558   0.352   1.492 -1.2902 -3.0598  3.2970
  287TMC3    C7 4336   3.622   0.494   1.713 -0.9721  0.3290  0.2244
  287TMC3    C8 4337   3.370   0.391   1.327  0.3683 -0.6305 -0.1049
  287TMC3    O1 4338   3.629   0.614   1.747  0.5126 -0.4563 -0.7188
  287TMC3    O2 4339   3.460   0.314   1.299 -0.1783 -0.6947  0.5845
  288TMC3    C1 4340   4.279   0.313  14.478  0.6142 -0.3640  0.6303
  288TMC3    C2 4341   4.272   0.226  14.583  0.1063  0.6787  0.0626
  288TMC3    C3 4342   4.315   0.278  14.702  0.2519  0.1407  0.2267
  288TMC3    C4 4343   4.322   0.440  14.480  0.1093  0.3384 -0.0927
  288TMC3    C5 4344   4.363   0.485  14.599 -0.1092 -0.0004 -0.0464
  288TMC3    C6 4345   4.355   0.405  14.707  0.0102 -0.4079  0.3580
  288TMC3     C 4346   4.240   0.265  14.346  0.5666  0.2076 -0.4198
  288TMC3     O 4347   4.220   0.348  14.252 -0.4021 -0.2062 -0.0839
  288TMC3     H 4348   4.215   0.134  14.585  0.3975  0.4578 -1.6529
  288TMC3    H1 4349   4.317   0.509  14.397  1.4174  1.0830  0.4377
  288TMC3    H2 4350   4.389   0.441  14.804 -1.0509 -0.3140  0.6944
  288TMC3    C7 4351   4.390   0.622  14.623  0.0990 -0.2565  0.7090
  288TMC3    C8 4352   4.336   0.194  14.823  0.1153 -0.1368  0.3478
  288TMC3    O1 4353   4.392   0.653  14.743  0.2861 -0.1841  0.2452
  288TMC3    O2 4354   4.435   0.229  14.885  0.0197  0.3586 -0.5689
  289MPD2     C 4355   4.582   4.154  14.048  0.2190  0.3390  0.6957
  289MPD2    C1 4356   4.578   4.251  14.143  0.3114 -0.8206 -0.4544
  289MPD2    C2 4357   4.468   4.282  14.213  0.2917 -0.5394 -0.1580
  289MPD2    C3 4358   4.347   4.212  14.192 -0.2576 -0.1867  0.5155
  289MPD2    C4 4359   4.357   4.106  14.100 -0.4451 -0.5378  0.7275
  289MPD2    C5 4360   4.470   4.081  14.028  0.0589  0.1725  0.0570
  289MPD2     H 4361   4.473   4.368  14.279 -0.0287 -0.5383 -0.1384
  289MPD2    H1 4362   4.265   4.057  14.071 -0.0157  0.1369 -1.8275
  289MPD2    H2 4363   4.670   4.140  13.986 -0.0481 -0.7321  0.5584
  289MPD2    H3 4364   4.457   4.009  13.949 -1.3889  1.9811 -1.3475
  289MPD2     N 4365   4.226   4.222  14.261  0.2832 -0.0339 -0.3947
  289MPD2    H5 4366   4.150   4.167  14.223  0.9858 -0.4016 -1.2768
  289MPD2    N1 4367   4.702   4.323  14.159  0.0238  0.1750  0.0269
  289MPD2    H7 4368   0.058   4.313  14.098  0.4505 -0.3465  0.6699
  290TMC3    C1 4369   4.067   4.308  14.393  0.7036 -0.8096  0.3637
  290TMC3    C2 4370   4.005   4.428  14.356 -1.1133  0.3856  0.8450
  290TMC3    C3 4371   3.868   4.426  14.329  0.6801 -0.8311 -0.3032
  290TMC3    C4 4372   3.998   4.192  14.392 -0.1871  0.2354  0.3181
  290TMC3    C5 4373   3.859   4.196  14.372  0.0286 -0.4889  0.2079
  290TMC3    C6 4374   3.796   4.311  14.337 -0.4721  0.1451  0.4537
  290TMC3     C 4375   4.204   4.308  14.365 -0.0289 -0.2613 -0.1526
  290TMC3     O 4376   4.275   4.402  14.399  0.5751  0.2419 -0.0527
  290TMC3     H 4377   4.066   4.518  14.353  1.2812 -1.2802 -0.0809
  290TMC3    H1 4378   4.038   4.099  14.430  1.1173  1.3865  1.7229
  290TMC3    H2 4379   3.694   4.326  14.303 -0.4023  1.2054  0.7146
  290TMC3    C7 4380   3.775   4.080  14.403  1.1011 -0.7042 -0.7469
  290TMC3    C8 4381   3.797   4.549  14.281 -0.2418 -0.0520 -0.0710
  290TMC3    O1 4382   3.661   4.104  14.436  0.0262 -0.0587  0.3760
  290TMC3    O2 4383   3.686   4.542  14.229  0.3323  0.4035 -0.0159
  291MPD2     C 4384   3.708   4.226   0.558  0.7660 -0.4186  0.6415
  291MPD2    C1 4385   3.730   4.091   0.525  0.0893 -0.1564  0.5944
  291MPD2    C2 4386   3.830   4.049   0.433 -0.6788  0.6842 -0.1549
  291MPD2    C3 4387   3.907   4.147   0.365 -0.0751 -0.5694 -0.3134
  291MPD2    C4 4388   3.885   4.276   0.409  0.6451 -0.7707  0.2361
  291MPD2    C5 4389   3.795   4.310   0.501  0.0162  0.5414  1.0253
  291MPD2     H 4390   3.824   3.943   0.411  1.5754  1.2258 -3.3095
  291MPD2    H1 4391   3.936   4.359   0.361  0.8288 -0.2782  1.2922
  291MPD2    H2 4392   3.631   4.263   0.625 -0.0217  2.4950 -1.8932
  291MPD2    H3 4393   3.789   4.410   0.541  0.4329  0.8816  0.2327
  291MPD2     N 4394   4.001   4.114   0.260  0.4524  0.3261 -0.1703
  291MPD2    H5 4395   4.034   4.200   0.217  0.0089 -1.1541 -3.4254
  291MPD2    N1 4396   3.651   3.984   0.580  0.2010  0.6051 -0.1648
  291MPD2    H7 4397   3.667   3.894   0.535 -2.6894  0.3608 -0.6777
  292TMC3    C1 4398   3.491   3.867   0.705 -0.1335  0.6119  0.0084
  292TMC3    C2 4399   3.449   3.830   0.831 -0.3214 -0.8196 -0.0231
  292TMC3    C3 4400   3.391   3.710   0.858 -0.4405  0.6795  0.4350
  292TMC3    C4 4401   3.472   3.775   0.601 -0.2187 -0.8300  0.3633
  292TMC3    C5 4402   3.402   3.658   0.634 -0.1112  0.4791  0.7355
  292TMC3    C6 4403   3.362   3.620   0.758  0.4804  0.0453  0.3587
  292TMC3     C 4404   3.571   3.986   0.688 -0.3693  0.2773  0.2188
  292TMC3     O 4405   3.569   4.077   0.767  0.1706 -0.3701 -0.0796
  292TMC3     H 4406   3.463   3.907   0.906  1.1637  1.0837 -2.2378
  292TMC3    H1 4407   3.504   3.797   0.500  0.9509 -1.8812  0.5038
  292TMC3    H2 4408   3.338   3.517   0.783  1.2350 -0.7409 -2.0831
  292TMC3    C7 4409   3.386   3.562   0.529  0.3347  0.0505 -0.3026
  292TMC3    C8 4410   3.393   3.669   0.999 -0.1432  0.7755  0.0502
  292TMC3    O1 4411   3.466   3.561   0.436  0.0773  0.5359  0.3405
  292TMC3    O2 4412   3.464   3.738   1.073 -0.2218 -0.3457  0.6969
  293MPD2     C 4413   1.168   0.564  12.370 -0.5268 -0.0775  0.6004
  293MPD2    C1 4414   1.049   0.546  12.434  0.2809 -0.0810  0.1076
  293MPD2    C2 4415   1.033   0.605  12.559  0.3093  0.2089  0.2891
  293MPD2    C3 4416   1.129   0.683  12.617  0.1807  0.0642 -0.2238
  293MPD2    C4 4417   1.249   0.698  12.551 -0.2869  0.9351  0.9254
  293MPD2    C5 4418   1.268   0.640  12.424  0.0366  0.1745 -1.1243
  293MPD2     H 4419   0.939   0.603  12.612  0.1117  1.4511 -0.0066
  293MPD2    H1 4420   1.334   0.752  12.591  3.1016 -1.7080 -2.6206
  293MPD2    H2 4421   1.189   0.522  12.273 -2.8356 -0.3734  0.2383
  293MPD2    H3 4422   1.344   0.664  12.352  1.6459  1.3503  0.9626
  293MPD2     N 4423   1.108   0.740  12.745  0.1990 -0.1718  0.4932
  293MPD2    H5 4424   1.030   0.705  12.798  0.6104  2.0825  2.5789
  293MPD2    N1 4425   0.944   0.492  12.353  0.3061  0.3152 -0.1244
  293MPD2    H7 4426   0.971   0.463  12.260  0.1015 -0.8597  0.1801
  294TMC3    C1 4427   0.757   0.402  12.280 -0.7081  0.5807  0.3685
  294TMC3    C2 4428   0.659   0.315  12.316 -0.0911  0.3452 -0.0338
  294TMC3    C3 4429   0.591   0.246  12.221  0.4388  0.0938  0.0902
  294TMC3    C4 4430   0.799   0.429  12.150  0.4245  0.4697  0.7710
  294TMC3    C5 4431   0.718   0.371  12.052  0.7975  0.2696 -0.6782
  294TMC3    C6 4432   0.625   0.271  12.086 -0.7474 -0.2561 -0.3281
  294TMC3     C 4433   0.820   0.462  12.396 -0.6343 -0.2992 -0.1360
  294TMC3     O 4434   0.757   0.483  12.497  1.5134 -0.0624  0.3065
  294TMC3     H 4435   0.638   0.304  12.422 -2.2685 -1.6070 -0.6791
  294TMC3    H1 4436   0.864   0.513  12.129  0.7871 -0.5880 -2.2702
  294TMC3    H2 4437   0.576   0.210  12.012  1.7028 -1.5614 -0.8949
  294TMC3    C7 4438   0.714   0.412  11.913 -0.0456  0.4841  0.1513
  294TMC3    C8 4439   0.492   0.146  12.257 -0.1739  0.2448  0.4010
  294TMC3    O1 4440   0.609   0.389  11.851  0.1189  0.3470 -0.2849
  294TMC3    O2 4441   0.461   0.121  12.371  0.1693  0.3688 -0.0089
  295MPD2     C 4442   1.149   4.148   0.227  0.5513  0.4256  0.6242
  295MPD2    C1 4443   1.181   4.220   0.343  0.4248  0.2871  0.2760
  295MPD2    C2 4444   1.094   4.305   0.401 -0.3452  0.0928 -0.1488
  295MPD2    C3 4445   0.974   4.337   0.349 -0.4100 -0.5217 -0.1026
  295MPD2    C4 4446   0.941   4.269   0.233 -0.9295  0.4853  0.0603
  295MPD2    C5 4447   1.026   4.173   0.178  0.0444  0.0771 -0.0383
  295MPD2     H 4448   1.126   4.371   0.481 -1.9545  1.1887 -0.3969
  295MPD2    H1 4449   0.846   4.294   0.187 -0.9280 -0.4329 -0.4407
  295MPD2    H2 4450   1.210   4.078   0.171 -0.6801  0.9552 -1.3791
  295MPD2    H3 4451   0.995   4.120   0.088  0.4531  1.6153 -1.0724
  295MPD2     N 4452   0.885   4.424   0.408 -0.0378 -0.1853 -1.0109
  295MPD2    H5 4453   0.797   4.438   0.359  0.0091 -1.7547 -1.5446
  295MPD2    N1 4454   1.309   4.204   0.405  0.4118  0.1903  0.1713
  295MPD2    H7 4455   1.326   4.265   0.484  0.1622 -0.3356  0.6332
  296TMC3    C1 4456   0.788   4.553   0.576 -0.1236  0.0909  0.5338
  296TMC3    C2 4457   0.807   4.651   0.670 -0.3314  0.2099  0.1813
  296TMC3    C3 4458   0.693   4.708   0.727 -0.0993  0.5931  0.6194
  296TMC3    C4 4459   0.663   4.526   0.530 -0.8192 -0.2694 -0.4180
  296TMC3    C5 4460   0.557   4.588   0.587 -0.5192  0.2021  0.5591
  296TMC3    C6 4461   0.570   4.664   0.701 -0.1841  0.1784 -1.0268
  296TMC3     C 4462   0.898   4.476   0.536  0.5959  1.4567  0.8806
  296TMC3     O 4463   0.975   4.438   0.623  0.0393 -0.0772 -0.3952
  296TMC3     H 4464   0.903   4.698   0.686 -0.0387  0.0231 -1.0103
  296TMC3    H1 4465   0.643   4.447   0.458  1.1658  0.2869 -1.5904
  296TMC3    H2 4466   0.486   4.715   0.748 -0.0132 -1.2411  0.8275
  296TMC3    C7 4467   0.445   4.500   0.595  0.4163 -0.2256  0.1307
  296TMC3    C8 4468   0.707   0.066   0.847  0.7083 -0.0736  0.1424
  296TMC3    O1 4469   0.396   4.465   0.487 -0.1250  0.6031  0.7792
  296TMC3    O2 4470   0.606   0.125   0.887  0.2916  0.1436 -0.1218
  297MPD2     C 4471   3.378   1.457  16.376 -0.5016  0.0294  0.0563
  297MPD2    C1 4472   3.355   1.570  16.303 -0.7941  0.1556  0.3834
  297MPD2    C2 4473   3.453   1.669  16.291 -0.0266  0.5919 -0.3712
  297MPD2    C3 4474   3.561   1.659  16.374 -0.5239  0.4129 -0.1491
  297MPD2    C4 4475   3.588   1.543  16.448 -0.1976  0.2359 -0.0720
  297MPD2    C5 4476   3.501   1.441  16.438  0.6422 -0.3782 -0.2788
  297MPD2     H 4477   3.438   1.755  16.226  2.7786  0.7840 -0.7680
  297MPD2    H1 4478   3.672   1.521  16.513  0.7942 -0.7764 -1.7221
  297MPD2    H2 4479   3.311   1.372  16.366 -1.0743  0.6314 -1.2004
  297MPD2    H3 4480   3.524   1.343  16.479 -1.7778 -0.9941 -0.3776
  297MPD2     N 4481   3.643   1.769  16.374 -0.6473 -0.4032 -0.4272
  297MPD2    H5 4482   3.621   1.849  16.315  1.1855  0.8755  0.6082
  297MPD2    N1 4483   3.226   1.591  16.244 -0.4984 -0.2097 -0.3382
  297MPD2    H7 4484   3.216   1.670  16.181 -1.5098 -0.1678 -0.1134
  298TMC3    C1 4485   2.993   1.575  16.211  0.0697 -0.6403  0.2710
  298TMC3    C2 4486   3.000   1.572  16.071 -0.3301  0.4083 -0.1360
  298TMC3    C3 4487   2.891   1.562  15.989 -0.0260  0.2932  0.3793
  298TMC3    C4 4488   2.880   1.568  16.276 -0.0016 -0.4837 -0.4662
  298TMC3    C5 4489   2.773   1.568  16.194  0.2296 -0.7499 -0.3759
  298TMC3    C6 4490   2.775   1.548  16.058 -0.3343  0.2437 -0.9733
  298TMC3     C 4491   3.112   1.522  16.277  0.2210  0.1570  0.3875
  298TMC3     O 4492   3.089   1.445  16.368  0.2275 -0.4005  0.7108
  298TMC3     H 4493   3.096   1.580  16.022 -0.0712 -1.4825  0.0822
  298TMC3    H1 4494   2.870   1.565  16.384  2.0935 -1.9265 -0.3049
  298TMC3    H2 4495   2.689   1.529  15.995 -0.2464 -1.0096 -0.7270
  298TMC3    C7 4496   2.646   1.600  16.258  0.6099  0.1916  0.4680
  298TMC3    C8 4497   2.893   1.523  15.846 -0.2003 -0.3490  0.2833
  298TMC3    O1 4498   2.648   1.624  16.379 -0.0941  0.5640  0.0709
  298TMC3    O2 4499   2.786   1.473  15.801  0.0305 -0.3240 -0.0593
  299MPD2     C 4500   4.418   0.796  10.676  0.8012 -0.1949 -0.5807
  299MPD2    C1 4501   4.361   0.852  10.562  0.2846  0.3620  0.4317
  299MPD2    C2 4502   4.233   0.824  10.524  0.1140  0.0879 -0.0656
  299MPD2    C3 4503   4.156   0.733  10.596 -0.3442  0.5340 -0.1710
  299MPD2    C4 4504   4.210   0.683  10.719  0.3971 -0.0001  0.0572
  299MPD2    C5 4505   4.340   0.707  10.751  0.3508 -0.1757 -0.4814
  299MPD2     H 4506   4.191   0.871  10.436  0.3253  2.1080  0.9121
  299MPD2    H1 4507   4.162   0.613  10.787  1.0546  1.7603  2.2998
  299MPD2    H2 4508   4.521   0.819  10.701  1.1472 -1.5025 -0.8330
  299MPD2    H3 4509   4.378   0.647  10.833 -0.8192 -1.6805 -1.0366
  299MPD2     N 4510   4.027   0.703  10.561  0.3704  0.4095 -0.0643
  299MPD2    H5 4511   3.961   0.671  10.632 -0.2145 -1.0857 -1.2737
  299MPD2    N1 4512   4.441   0.955  10.504 -0.2689  0.4875 -0.1854
  299MPD2    H7 4513   4.537   0.968  10.534 -0.6395  0.0488  1.1758
  300TMC3    C1 4514   3.818   0.747  10.458 -0.1045  0.2946 -0.4921
  300TMC3    C2 4515   3.756   0.830  10.371 -0.3902 -0.2200 -0.5847
  300TMC3    C3 4516   3.630   0.875  10.393  1.1105  0.0505  0.0254
  300TMC3    C4 4517   3.756   0.707  10.570  0.1455  0.4431 -0.2004
  300TMC3    C5 4518   3.633   0.760  10.600  0.4473  0.9212  0.3608
  300TMC3    C6 4519   3.571   0.850  10.513  0.1358 -0.0009  0.5311
  300TMC3     C 4520   3.962   0.734  10.443  0.3851 -0.0766 -0.2828
  300TMC3     O 4521   4.015   0.770  10.335 -0.1184 -0.1036 -0.3073
  300TMC3     H 4522   3.808   0.863  10.283 -0.7692  0.0782 -0.6962
  300TMC3    H1 4523   3.799   0.625  10.627  0.1709 -0.5307 -1.6120
  300TMC3    H2 4524   3.483   0.910  10.534 -1.8104 -2.0127 -1.9246
  300TMC3    C7 4525   3.594   0.754  10.742 -0.1365  0.4991 -0.1357
  300TMC3    C8 4526   3.610   1.010  10.341 -0.4655  0.0502  0.3648
  300TMC3    O1 4527   3.681   0.712  10.813 -0.1823 -0.3404  0.0791
  300TMC3    O2 4528   3.640   1.030  10.227  0.2096  0.0543  0.4469
  301MPD2     C 4529   0.450   3.021   2.045 -1.0272  0.0892  0.9088
  301MPD2    C1 4530   0.421   2.959   1.921  0.0034 -0.3146  0.9707
  301MPD2    C2 4531   0.499   2.846   1.888 -0.1447 -0.2077  0.3144
  301MPD2    C3 4532   0.598   2.794   1.975 -0.0312  0.0471  0.3518
  301MPD2    C4 4533   0.624   2.856   2.097 -0.5730 -0.4183  0.9147
  301MPD2    C5 4534   0.557   2.968   2.121  0.5418  1.1448 -0.7515
  301MPD2     H 4535   0.476   2.801   1.793 -0.0783  0.2348  0.0880
  301MPD2    H1 4536   0.691   2.819   2.173 -1.4470  1.1092  2.4186
  301MPD2    H2 4537   0.402   3.114   2.073 -0.5183  1.4774 -2.8962
  301MPD2    H3 4538   0.579   3.032   2.206 -2.6906  1.5882 -0.2491
  301MPD2     N 4539   0.680   2.683   1.942  0.0394  0.3707 -0.4503
  301MPD2    H5 4540   0.758   2.670   2.006  0.5505  1.0163 -0.9388
  301MPD2    N1 4541   0.327   2.997   1.824 -0.8278  0.1299  0.0620
  301MPD2    H7 4542   0.345   2.962   1.730  0.4616  2.2659 -0.4685
  302TMC3    C1 4543   0.770   2.499   1.802  0.3085 -0.6306  0.1704
  302TMC3    C2 4544   0.872   2.484   1.896  0.4238 -0.2442  0.1761
  302TMC3    C3 4545   0.988   2.427   1.859 -0.4417  0.4878 -0.1495
  302TMC3    C4 4546   0.795   2.469   1.672 -0.2756 -0.1115  0.1819
  302TMC3    C5 4547   0.918   2.409   1.642  0.1438 -0.0818  0.0355
  302TMC3    C6 4548   1.024   2.399   1.727  0.3955  0.0062  0.2973
  302TMC3     C 4549   0.669   2.604   1.822  0.0305 -0.2557  0.1472
  302TMC3     O 4550   0.593   2.616   1.727  0.4006  0.3490  0.7836
  302TMC3     H 4551   0.846   2.494   2.000 -2.2237  0.4463 -0.5455
  302TMC3    H1 4552   0.711   2.483   1.606 -1.0071  1.5292  1.4714
  302TMC3    H2 4553   1.121   2.360   1.699  0.8651  0.8898  0.7013
  302TMC3    C7 4554   0.947   2.370   1.513 -0.3902 -0.8183  0.7226
  302TMC3    C8 4555   1.101   2.453   1.944 -0.2151 -0.2168  0.6138
  302TMC3    O1 4556   1.048   2.301   1.484  0.9205 -0.5650  0.2271
  302TMC3    O2 4557   1.089   2.534   2.034 -0.1214  0.1291  0.0833
  303MPD2     C 4558   1.298   0.558  10.746 -0.0461  0.1704  0.0872
  303MPD2    C1 4559   1.335   0.457  10.659  0.0828  0.0974  1.1269
  303MPD2    C2 4560   1.293   0.449  10.529 -0.0736 -0.4689  0.2442
  303MPD2    C3 4561   1.214   0.549  10.476  0.6923 -0.2012  0.3874
  303MPD2    C4 4562   1.169   0.645  10.561  0.0367 -1.1548 -0.6797
  303MPD2    C5 4563   1.206   0.651  10.694  0.7287  0.6201 -0.3402
  303MPD2     H 4564   1.310   0.358  10.472  1.3651 -1.5229  2.3738
  303MPD2    H1 4565   1.098   0.715  10.518 -0.3525 -0.1713  1.5894
  303MPD2    H2 4566   1.334   0.566  10.848 -0.2678  0.0622  0.1729
  303MPD2    H3 4567   1.164   0.731  10.755  1.4386 -1.9028  3.4683
  303MPD2     N 4568   1.158   0.543  10.347 -0.6325  0.1314 -0.5466
  303MPD2    H5 4569   1.100   0.625  10.327 -0.2509  0.3601 -0.7079
  303MPD2    N1 4570   1.409   0.354  10.722 -0.4493 -0.1588 -0.2768
  303MPD2    H7 4571   1.410   0.357  10.823  0.9119 -1.1820 -0.2575
  304TMC3    C1 4572   1.493   0.146  10.754  0.3889  0.5325  0.5165
  304TMC3    C2 4573   1.388   0.094  10.823  0.9589  0.7697 -0.7346
  304TMC3    C3 4574   1.394   4.683  10.860 -0.2431  0.6458  0.4301
  304TMC3    C4 4575   1.601   0.067  10.717  0.0308  0.2860 -0.3467
  304TMC3    C5 4576   1.611   4.662  10.771 -0.9008  0.1533  0.4668
  304TMC3    C6 4577   1.508   4.610  10.842 -0.1010  0.6951  0.5014
  304TMC3     C 4578   1.462   0.244  10.658  0.5695  0.5240 -0.3718
  304TMC3     O 4579   1.466   0.210  10.543 -0.3393 -0.0484  0.5750
  304TMC3     H 4580   1.299   0.152  10.841  1.9604  1.3048  2.5295
  304TMC3    H1 4581   1.661   0.098  10.632  0.4991 -1.5934 -0.7045
  304TMC3    H2 4582   1.513   4.521  10.905 -1.9587 -0.3654 -0.8580
  304TMC3    C7 4583   1.673   4.567  10.687  0.2572  0.1994  0.5499
  304TMC3    C8 4584   1.282   4.604  10.813  0.4804 -0.7538 -0.0160
  304TMC3    O1 4585   1.792   4.584  10.661  0.1349 -0.6439  0.2263
  304TMC3    O2 4586   1.316   4.496  10.761  0.3171 -0.0994  0.1800
  305MPD2     C 4587   4.663   3.001  14.080  0.4989 -0.8806  0.3328
  305MPD2    C1 4588   4.670   2.867  14.069  0.6114 -0.8086  0.2335
  305MPD2    C2 4589   4.654   2.813  13.942 -0.4343 -0.0460  0.2307
  305MPD2    C3 4590   4.628   2.894  13.831  0.2973 -0.5982 -0.5936
  305MPD2    C4 4591   4.616   3.028  13.850 -0.0211  0.4773 -0.4006
  305MPD2    C5 4592   4.621   3.077  13.973 -0.1570 -0.3593  1.0558
  305MPD2     H 4593   4.640   2.708  13.919 -0.2043 -0.0558  0.1428
  305MPD2    H1 4594   4.580   3.089  13.768  1.9409  1.2036 -0.7353
  305MPD2    H2 4595   4.678   3.045  14.178  0.9483  0.2316 -0.2334
  305MPD2    H3 4596   4.618   3.185  13.987  0.0856 -0.5732  2.7615
  305MPD2     N 4597   4.595   2.843  13.705 -0.4097  0.3925 -0.0018
  305MPD2    H5 4598   4.590   2.904  13.624 -0.6948 -1.0168 -1.0400
  305MPD2    N1 4599   4.703   2.793  14.187 -0.4556 -0.4743 -0.3385
  305MPD2    H7 4600   4.705   2.843  14.275  1.5055 -0.6548 -0.2789
  306TMC3    C1 4601   0.008   2.613  14.317  0.6349 -0.5255  0.3154
  306TMC3    C2 4602   0.070   2.493  14.329  0.1809 -1.2361 -0.3760
  306TMC3    C3 4603   0.103   2.458  14.456  0.3413 -0.0350 -0.0926
  306TMC3    C4 4604   4.683   2.684  14.413 -0.6520 -0.1512  0.2234
  306TMC3    C5 4605   4.705   2.641  14.537  0.0476 -0.0758 -0.4758
  306TMC3    C6 4606   0.067   2.535  14.568  0.2072 -0.0181 -0.0829
  306TMC3     C 4607   0.010   2.660  14.183  0.2023  0.8478  0.0891
  306TMC3     O 4608   0.024   2.574  14.095  0.3850  0.0238 -0.3180
  306TMC3     H 4609   0.099   2.444  14.237  1.4055  1.4192 -1.3948
  306TMC3    H1 4610   4.610   2.762  14.401 -0.5158 -0.2376 -1.1983
  306TMC3    H2 4611   0.089   2.501  14.669  1.7683 -0.4558 -0.5681
  306TMC3    C7 4612   4.634   2.705  14.647 -1.1302 -0.3243  0.3820
  306TMC3    C8 4613   0.197   2.344  14.457  0.6112  0.0505 -0.2702
  306TMC3    O1 4614   4.514   2.741  14.635  0.3826 -0.0838  0.1562
  306TMC3    O2 4615   0.219   2.287  14.348 -0.0356  0.3341  0.4166
  307MPD2     C 4616   1.740   0.124   0.856 -0.4213  0.1775  0.1067
  307MPD2    C1 4617   1.697   0.238   0.926  0.2479  0.1655 -0.1997
  307MPD2    C2 4618   1.563   0.266   0.923 -0.4621 -0.0542 -0.1061
  307MPD2    C3 4619   1.472   0.188   0.856 -0.4944  0.0293  0.6903
  307MPD2    C4 4620   1.510   0.079   0.786 -0.2297 -0.6497  0.6210
  307MPD2    C5 4621   1.642   0.045   0.791 -0.5696 -0.2134  0.7187
  307MPD2     H 4622   1.527   0.356   0.971  1.0434  0.7369 -0.4656
  307MPD2    H1 4623   1.441   0.016   0.731 -0.5436  0.0560  0.2104
  307MPD2    H2 4624   1.845   0.099   0.856 -0.4735 -0.0419  0.0534
  307MPD2    H3 4625   1.670   4.685   0.728  1.2288  1.3681 -0.5872
  307MPD2     N 4626   1.342   0.228   0.878  0.6695  0.0937 -0.0440
  307MPD2    H5 4627   1.325   0.316   0.926  2.2533  0.3649  0.0269
  307MPD2    N1 4628   1.781   0.342   0.978  0.2747 -0.0860 -0.1093
  307MPD2    H7 4629   1.731   0.422   1.015  1.3425  0.1166  0.8829
  308TMC3    C1 4630   0.932   0.363   0.812 -0.3459 -0.9881 -0.1070
  308TMC3    C2 4631   0.928   0.445   0.923 -0.5691  0.6193 -0.0546
  308TMC3    C3 4632   1.035   0.428   1.013  0.1985 -1.3175 -0.0837
  308TMC3    C4 4633   1.011   0.247   0.800  0.4100  0.1232  0.4362
  308TMC3    C5 4634   1.108   0.231   0.889 -0.3786  0.2197  1.0845
  308TMC3    C6 4635   1.121   0.329   0.987  0.3958  0.3213  0.0504
  308TMC3     C 4636   0.849   0.398   0.699 -0.1108  0.2085  0.7445
  308TMC3     O 4637   0.810   0.306   0.628 -0.3709 -0.4207 -0.3158
  308TMC3     H 4638   0.854   0.522   0.939  0.0508  1.1588  0.2510
  308TMC3    H1 4639   1.001   0.180   0.715  0.5846  0.3526  0.2314
  308TMC3    H2 4640   1.195   0.312   1.064  0.7291  1.7086  0.0431
  308TMC3    C7 4641   1.226   0.169   0.833  0.1789 -0.2273 -0.3441
  308TMC3    C8 4642   1.048   0.502   1.137  0.4111  0.1848 -0.2651
  308TMC3    O1 4643   1.207   0.063   0.778  0.5163  0.9057  0.5569
  308TMC3    O2 4644   1.135   0.474   1.219 -0.0786  0.1444  0.3749
  309MPD2     C 4645   1.365   1.409  17.268 -0.6593 -0.4987 -0.0297
  309MPD2    C1 4646   1.313   1.422  17.141 -0.5334  0.2931 -0.4520
  309MPD2    C2 4647   1.186   1.487  17.133  0.8484 -0.0517 -0.0662
  309MPD2    C3 4648   1.117   1.523  17.251  0.5661 -0.0154  0.6329
  309MPD2    C4 4649   1.169   1.501  17.376 -0.3473 -0.3338 -0.1512
  309MPD2    C5 4650   1.293   1.437  17.381  0.8787  0.0888  0.1489
  309MPD2     H 4651   1.148   1.515  17.036 -0.0091 -1.4911 -0.1551
  309MPD2    H1 4652   1.114   1.542  17.459  1.5524 -2.4479  2.1777
  309MPD2    H2 4653   1.448   1.341  17.282 -0.7457 -1.1260 -2.5196
  309MPD2    H3 4654   1.334   1.394  17.471 -0.2050 -0.1615  0.5222
  309MPD2     N 4655   0.998   1.603  17.250  0.0682  0.5463  0.1904
  309MPD2    H5 4656   0.961   1.637  17.338  1.6001  1.9930  0.2691
  309MPD2    N1 4657   1.383   1.382  17.023 -0.8088  0.2719 -0.2698
  309MPD2    H7 4658   1.360   1.423  16.934  0.0853  1.8411  0.2138
  310TMC3    C1 4659   1.517   1.259  16.885  0.0783  0.0045  0.3974
  310TMC3    C2 4660   1.427   1.259  16.787 -0.4767  0.1045  0.3216
  310TMC3    C3 4661   1.457   1.195  16.672 -0.2121 -0.4551 -0.7872
  310TMC3    C4 4662   1.637   1.193  16.867  0.0358 -0.1668 -0.5913
  310TMC3    C5 4663   1.668   1.127  16.751 -0.2885  0.6097 -0.0263
  310TMC3    C6 4664   1.569   1.119  16.654 -0.2852 -0.3844  0.4573
  310TMC3     C 4665   1.485   1.295  17.023 -0.2488 -0.0564  0.4457
  310TMC3     O 4666   1.543   1.236  17.112 -0.4120 -0.3704 -0.3869
  310TMC3     H 4667   1.332   1.312  16.793 -2.3950 -3.0599 -2.3019
  310TMC3    H1 4668   1.703   1.201  16.953  1.9692 -1.3083 -1.9687
  310TMC3    H2 4669   1.582   1.056  16.567 -0.6492  0.4274 -0.1802
  310TMC3    C7 4670   1.792   1.064  16.719 -0.3627 -0.5328 -0.4034
  310TMC3    C8 4671   1.361   1.191  16.565  0.0830  0.3464 -0.5057
  310TMC3    O1 4672   1.848   0.982  16.796  0.4258 -0.0403  0.2324
  310TMC3    O2 4673   1.269   1.270  16.571 -0.1535  0.2826  0.6203
  311MPD2     C 4674   3.786   2.191  12.782 -0.2968 -0.1081 -0.1293
  311MPD2    C1 4675   3.752   2.317  12.827  0.2490  0.3751 -0.2498
  311MPD2    C2 4676   3.619   2.355  12.820 -0.0837 -0.3823  0.4418
  311MPD2    C3 4677   3.514   2.275  12.787  0.3768  0.1682  0.3720
  311MPD2    C4 4678   3.552   2.143  12.763 -0.5010  0.0666  0.1037
  311MPD2    C5 4679   3.683   2.099  12.759 -0.7113  0.4211  0.4262
  311MPD2     H 4680   3.596   2.457  12.847 -3.2560 -0.9214 -0.2861
  311MPD2    H1 4681   3.478   2.066  12.745  1.1551 -1.4950  0.0347
  311MPD2    H2 4682   3.888   2.152  12.782 -1.0911 -2.1905 -0.4206
  311MPD2    H3 4683   3.707   1.998  12.726  1.1913  0.8316  0.5564
  311MPD2     N 4684   3.387   2.328  12.783 -0.5593 -0.6725  0.1426
  311MPD2    H5 4685   3.371   2.427  12.801  0.1819 -0.2217 -1.7384
  311MPD2    N1 4686   3.848   2.418  12.860  0.3846  0.3868  0.0798
  311MPD2    H7 4687   3.814   2.514  12.862  0.2415  0.2940  2.2544
  312TMC3    C1 4688   3.162   2.353  12.750  0.3037  0.6856  0.0330
  312TMC3    C2 4689   3.063   2.341  12.663 -1.0186 -0.6371  0.4804
  312TMC3    C3 4690   2.962   2.434  12.667  1.0165 -0.1976  0.2542
  312TMC3    C4 4691   3.158   2.442  12.857  0.0324  0.0334 -0.2065
  312TMC3    C5 4692   3.056   2.529  12.855 -0.5370 -0.2829  0.1609
  312TMC3    C6 4693   2.959   2.529  12.761  0.0321 -0.4445 -0.4100
  312TMC3     C 4694   3.275   2.261  12.748 -0.7146 -0.1900 -0.4499
  312TMC3     O 4695   3.264   2.157  12.684  0.2966  0.6556  0.5987
  312TMC3     H 4696   3.069   2.267  12.583  2.0903  0.0216  0.1025
  312TMC3    H1 4697   3.240   2.448  12.928  0.9575 -0.5819 -1.2240
  312TMC3    H2 4698   2.865   2.579  12.778  1.7562  2.6397  0.0151
  312TMC3    C7 4699   3.032   2.619  12.963 -0.5555 -0.4505  0.4814
  312TMC3    C8 4700   2.841   2.405  12.598  0.2513  0.3836  0.7395
  312TMC3    O1 4701   2.918   2.658  12.969  0.0307 -0.5570 -0.2979
  312TMC3    O2 4702   2.823   2.283  12.574  0.1736  0.1654  0.3499
  313MPD2     C 4703   3.412   1.451  10.861  0.4147  0.7019  0.0899
  313MPD2    C1 4704   3.384   1.524  10.753  0.2269  0.3932 -0.0925
  313MPD2    C2 4705   3.343   1.470  10.634 -0.4170 -1.2707  0.3509
  313MPD2    C3 4706   3.327   1.336  10.620  0.2663 -0.4704  0.0539
  313MPD2    C4 4707   3.367   1.256  10.725  0.0016  0.3286  0.6610
  313MPD2    C5 4708   3.400   1.313  10.844  0.2383  0.3608 -0.4027
  313MPD2     H 4709   3.318   1.529  10.547  0.6476  0.0855  0.9750
  313MPD2    H1 4710   3.357   1.148  10.727  0.1563  0.2592 -2.1247
  313MPD2    H2 4711   3.448   1.487  10.956  0.3498 -0.5662  0.5983
  313MPD2    H3 4712   3.443   1.255  10.925 -0.5912 -1.0969 -1.0068
  313MPD2     N 4713   3.294   1.278  10.495  0.4638 -0.6034  0.8224
  313MPD2    H5 4714   3.277   1.339  10.415  2.5492  1.7835  2.1841
  313MPD2    N1 4715   3.398   1.662  10.758  0.0064  0.6202 -0.2193
  313MPD2    H7 4716   3.365   1.706  10.673  1.9978 -0.8997 -1.7594
  314TMC3    C1 4717   3.448   1.878  10.821 -0.1353  0.0379 -0.4467
  314TMC3    C2 4718   3.534   1.970  10.883 -0.3197 -0.0964 -0.1086
  314TMC3    C3 4719   3.494   2.100  10.876 -0.2947  0.0231  0.1546
  314TMC3    C4 4720   3.329   1.919  10.768  0.3495 -0.2519  0.0190
  314TMC3    C5 4721   3.293   2.051  10.762  0.0771  0.1379 -0.2424
  314TMC3    C6 4722   3.389   2.146  10.801 -1.0457  0.0752 -0.2326
  314TMC3     C 4723   3.456   1.740  10.853  0.1614  0.1197 -0.3739
  314TMC3     O 4724   3.530   1.709  10.944  0.7126  0.0318  0.1281
  314TMC3     H 4725   3.619   1.945  10.945 -0.5727 -2.5960 -0.7793
  314TMC3    H1 4726   3.249   1.850  10.741  2.1260 -1.4020 -2.3469
  314TMC3    H2 4727   3.357   2.248  10.815 -0.1028  0.4173 -0.5944
  314TMC3    C7 4728   3.168   2.083  10.698  0.0322  0.3253 -0.0159
  314TMC3    C8 4729   3.537   2.187  10.987  0.1752 -0.7611 -0.2603
  314TMC3    O1 4730   3.079   1.994  10.696  0.0572  0.2698  0.3069
  314TMC3    O2 4731   3.519   2.306  10.960 -0.4100 -0.4501  0.5055
  315MPD2     C 4732   2.450   1.156   0.423  0.3849 -0.0599  0.1535
  315MPD2    C1 4733   2.582   1.133   0.383 -0.3930 -0.6180  0.3616
  315MPD2    C2 4734   2.634   1.219   0.280  0.0077  0.0375  0.6076
  315MPD2    C3 4735   2.560   1.327   0.228  0.6256 -0.2319  0.3289
  315MPD2    C4 4736   2.435   1.344   0.274 -0.1848 -0.2298  0.1161
  315MPD2    C5 4737   2.376   1.251   0.363  0.5566 -0.0542  0.7245
  315MPD2     H 4738   2.736   1.198   0.248 -0.6285  1.9022 -2.6833
  315MPD2    H1 4739   2.379   1.430   0.239  1.0454  1.0539  1.2709
  315MPD2    H2 4740   2.408   1.095   0.502  0.0740 -1.7236 -1.2887
  315MPD2    H3 4741   2.273   1.267   0.393  0.6816  0.9431  0.6244
  315MPD2     N 4742   2.624   1.418   0.142 -0.0035 -0.4526 -0.1474
  315MPD2    H5 4743   2.720   1.396   0.117  0.5183 -1.5327  2.8397
  315MPD2    N1 4744   2.679   1.048   0.444  0.1694  0.1725  0.1424
  315MPD2    H7 4745   2.776   1.056   0.414 -0.0390  1.4165 -0.2090
  316TMC3    C1 4746   2.666   1.591  17.680 -0.6795 -0.1876 -0.1302
  316TMC3    C2 4747   2.786   1.617   0.040  0.0826 -0.0597  0.1356
  316TMC3    C3 4748   2.877   1.695  17.669  0.9180 -0.1493 -0.3109
  316TMC3    C4 4749   2.625   1.651  17.564 -0.5303  0.4004  0.0344
  316TMC3    C5 4750   2.716   1.735  17.494 -0.7223 -0.7402  0.0770
  316TMC3    C6 4751   2.847   1.755  17.546 -0.5298  0.0497 -0.0396
  316TMC3     C 4752   2.564   1.508   0.054  0.5294 -0.0905  0.3906
  316TMC3     O 4753   2.443   1.534   0.041  0.1145 -0.6280  0.0394
  316TMC3     H 4754   2.826   1.578   0.133  1.7332 -0.0668 -0.5749
  316TMC3    H1 4755   2.521   1.643  17.534 -0.3158 -1.8751 -0.0520
  316TMC3    H2 4756   2.914   1.833  17.511 -1.3965  1.3757  1.2363
  316TMC3    C7 4757   2.661   1.844  17.415  0.7025  0.3888 -0.3584
  316TMC3    C8 4758   2.974   1.754   0.056 -0.3447  0.5607 -0.0136
  316TMC3    O1 4759   2.718   1.951  17.428  0.4082  0.3222  0.4090
  316TMC3    O2 4760   2.929   1.783   0.166  0.1718  0.2625 -0.3100
  317MPD2     C 4761   4.531   4.561  12.823  0.3658  0.2764  0.7972
  317MPD2    C1 4762   4.566   4.435  12.785 -0.9271  0.8117  0.3313
  317MPD2    C2 4763   4.629   4.349  12.867 -0.0311 -0.2445 -0.1034
  317MPD2    C3 4764   4.655   4.387  12.996 -0.0984 -0.1524 -0.0348
  317MPD2    C4 4765   4.620   4.519  13.031  0.0463  0.4282 -0.6454
  317MPD2    C5 4766   4.562   4.605  12.941  0.4924  0.2025  0.1236
  317MPD2     H 4767   4.653   4.251  12.829 -0.3991  0.4431 -2.1015
  317MPD2    H1 4768   4.648   4.563  13.126  1.5784 -1.6093 -0.1337
  317MPD2    H2 4769   4.496   4.635  12.752 -1.8378  0.0034  1.6131
  317MPD2    H3 4770   4.536   4.708  12.964  1.8641  0.7647 -0.8415
  317MPD2     N 4771   4.706   4.289  13.085  0.0667  0.0366  0.5806
  317MPD2    H5 4772   4.716   4.195  13.047  1.0964  0.0783  0.7406
  317MPD2    N1 4773   4.540   4.385  12.655  0.5756  0.5846  0.0683
  317MPD2    H7 4774   4.559   4.287  12.636 -0.3415  0.1487  1.4570
  318TMC3    C1 4775   0.084   4.187  13.272  0.5947 -0.3545  0.6047
  318TMC3    C2 4776   0.030   4.060  13.252 -0.5420  0.3950  0.1062
  318TMC3    C3 4777   0.083   3.959  13.329  0.3634  0.2465  0.0357
  318TMC3    C4 4778   0.184   4.212  13.367 -0.3258 -0.5619 -0.1364
  318TMC3    C5 4779   0.237   4.102  13.424 -0.0014 -0.1482 -0.5799
  318TMC3    C6 4780   0.180   3.979  13.417 -0.2301  0.2024  0.5708
  318TMC3     C 4781   0.025   4.310  13.216  0.3110  0.0003 -0.4742
  318TMC3     O 4782   0.040   4.416  13.277 -0.2680 -0.4899  0.0065
  318TMC3     H 4783   4.674   4.047  13.179 -1.0834 -0.8298  0.9220
  318TMC3    H1 4784   0.230   4.310  13.373 -1.6866 -0.1041  2.5322
  318TMC3    H2 4785   0.218   3.896  13.475 -1.8756 -0.2218  1.0437
  318TMC3    C7 4786   0.347   4.119  13.518  0.0085  0.1802  0.2526
  318TMC3    C8 4787   0.017   3.824  13.326  0.0787 -0.1391 -0.1137
  318TMC3    O1 4788   0.373   4.232  13.553  0.1752 -0.0704 -0.0539
  318TMC3    O2 4789   0.065   3.744  13.404  0.5228 -0.7029 -0.1959
  319MPD2     C 4790   1.153   0.952  16.760  0.9738  0.3106  0.1881
  319MPD2    C1 4791   1.049   0.976  16.851  0.3970 -0.1905 -0.7000
  319MPD2    C2 4792   0.915   0.959  16.816  0.3760 -0.2403 -0.0801
  319MPD2    C3 4793   0.888   0.913  16.683  0.3970 -0.4143 -0.6091
  319MPD2    C4 4794   0.998   0.879  16.596  0.0309 -0.7696  0.5100
  319MPD2    C5 4795   1.125   0.889  16.642 -0.2713 -0.0045  0.5546
  319MPD2     H 4796   0.844   0.990  16.891  1.6667  1.9278  0.2307
  319MPD2    H1 4797   0.984   0.849  16.493 -0.0858 -0.1368  0.3424
  319MPD2    H2 4798   1.260   0.953  16.780  1.3603  0.8622 -1.8854
  319MPD2    H3 4799   1.204   0.861  16.574 -0.1621 -0.3045  0.8017
  319MPD2     N 4800   0.759   0.925  16.628 -0.2276  0.1841 -0.6319
  319MPD2    H5 4801   0.752   0.923  16.527  1.3766 -0.5444 -0.7278
  319MPD2    N1 4802   1.069   1.017  16.984  1.1342  0.3278  0.1615
  319MPD2    H7 4803   0.985   1.026  17.041  0.5162 -1.6273 -0.4430
  320TMC3    C1 4804   0.535   0.883  16.597  0.1893 -0.3146  0.3410
  320TMC3    C2 4805   0.532   0.952  16.481 -0.0279 -0.4842 -0.7089
  320TMC3    C3 4806   0.437   0.906  16.393  0.2171  0.9506  0.0753
  320TMC3    C4 4807   0.452   0.786  16.638 -0.0535 -0.1708 -0.4840
  320TMC3    C5 4808   0.367   0.741  16.545  0.0897 -0.2400  0.5891
  320TMC3    C6 4809   0.362   0.796  16.418  1.2161 -0.0057 -0.3308
  320TMC3     C 4810   0.643   0.913  16.693 -0.0917 -0.9974  0.1930
  320TMC3     O 4811   0.622   0.888  16.809  0.5889 -0.0492 -0.5350
  320TMC3     H 4812   0.603   1.030  16.454  0.3871 -1.4788 -2.4261
  320TMC3    H1 4813   0.465   0.747  16.738 -0.3773  1.1031  0.0596
  320TMC3    H2 4814   0.281   0.770  16.352  0.3341  0.3111  0.6350
  320TMC3    C7 4815   0.357   0.597  16.531 -0.0166 -0.4345 -0.3777
  320TMC3    C8 4816   0.415   0.977  16.268 -0.7522  0.7371  0.2790
  320TMC3    O1 4817   0.323   0.556  16.421 -0.2102  0.6691 -0.3367
  320TMC3    O2 4818   0.460   1.088  16.269 -0.0496  0.0338  0.0981
  321TMC3    C1 4819   1.161   1.029  17.187 -0.1444 -0.5622 -0.0723
  321TMC3    C2 4820   1.045   0.985  17.232 -0.1401  0.0553 -0.0996
  321TMC3    C3 4821   1.015   1.010  17.358  0.3185 -0.0725  0.3300
  321TMC3    C4 4822   1.261   1.088  17.262  0.1083 -0.3993 -0.2900
  321TMC3    C5 4823   1.224   1.109  17.390  0.2522 -0.3951  0.2540
  321TMC3    C6 4824   1.104   1.077  17.440  0.0671 -0.2868 -0.1658
  321TMC3     C 4825   1.185   1.021  17.045 -0.3465 -0.1340  0.5961
  321TMC3     O 4826   1.300   1.022  17.000 -0.0016 -0.0194 -0.8410
  321TMC3     H 4827   0.989   0.905  17.186 -0.6854 -0.7439  1.9205
  321TMC3    H1 4828   1.351   1.126  17.215 -0.2859 -1.0309 -1.5600
  321TMC3    H2 4829   1.076   1.071  17.545  0.3057  1.1408 -0.0220
  321TMC3    C7 4830   1.334   1.097  17.480 -0.3749 -0.0930  0.6546
  321TMC3    C8 4831   0.979   0.884  17.416  0.3011 -0.0646 -0.6674
  321TMC3    O1 4832   1.434   1.048  17.427  0.2128  0.0058  0.1575
  321TMC3    O2 4833   0.862   0.851  17.425 -0.5455  0.0123 -0.0173
  322MPD2     C 4834   0.337   2.142  13.012 -0.0961  0.1346 -0.5589
  322MPD2    C1 4835   0.231   2.110  13.089 -0.6516  0.0169 -0.0921
  322MPD2    C2 4836   0.185   1.979  13.079 -0.2011  0.1514  0.5518
  322MPD2    C3 4837   0.245   1.890  12.990 -0.4143 -0.0395  0.5393
  322MPD2    C4 4838   0.356   1.925  12.915 -0.4352  0.0199  0.3837
  322MPD2    C5 4839   0.404   2.054  12.928 -0.4172  0.5418 -0.7588
  322MPD2     H 4840   0.101   1.941  13.135 -0.3845 -1.5657 -0.9093
  322MPD2    H1 4841   0.401   1.863  12.838 -2.2447 -1.0331  0.1778
  322MPD2    H2 4842   0.367   2.246  13.002 -1.7380  0.4357 -2.4090
  322MPD2    H3 4843   0.476   2.104  12.865  1.6133 -2.2725 -0.6556
  322MPD2     N 4844   0.176   1.760  12.968  1.0283  0.7515  0.4685
  322MPD2    H5 4845   0.097   1.736  13.027 -0.5200 -1.7179 -2.6523
  322MPD2    N1 4846   0.182   2.206  13.185  0.4130  0.6734  0.1247
  322MPD2    H7 4847   0.238   2.289  13.196  2.3263 -0.7352  0.9677
  323TMC3    C1 4848   0.046   2.267  13.370  0.0010 -0.0243  0.5236
  323TMC3    C2 4849   0.154   2.331  13.420  0.3418  0.0757 -0.2859
  323TMC3    C3 4850   0.140   2.409  13.535  0.5046 -0.6561  0.1617
  323TMC3    C4 4851   4.659   2.248  13.446  1.0646  1.4449  0.9240
  323TMC3    C5 4852   4.648   2.307  13.573 -0.5079  0.4447  0.5412
  323TMC3    C6 4853   0.026   2.395  13.611 -0.4123 -0.5127 -0.7416
  323TMC3     C 4854   0.058   2.199  13.250  0.0675  0.7242 -0.6289
  323TMC3     O 4855   4.684   2.130  13.225 -0.1327 -0.0025 -0.1536
  323TMC3     H 4856   0.253   2.334  13.377 -0.1308  3.0539 -1.1793
  323TMC3    H1 4857   4.580   2.192  13.397  1.5803  1.0267  0.5688
  323TMC3    H2 4858   0.032   2.427  13.714  2.5768 -1.5293 -0.6052
  323TMC3    C7 4859   4.580   2.237  13.678  0.0412 -0.3988  0.3981
  323TMC3    C8 4860   0.267   2.435  13.598 -0.6918  0.0428  0.6414
  323TMC3    O1 4861   4.549   2.120  13.664  0.7275 -0.1016  0.2252
  323TMC3    O2 4862   0.368   2.365  13.574  0.0699 -0.1596  0.6227
  324MPD2     C 4863   1.181   2.995  14.446  0.7345  0.9136  0.5362
  324MPD2    C1 4864   1.195   3.130  14.432  0.2627  0.1285  0.3722
  324MPD2    C2 4865   1.114   3.192  14.342 -0.4985  0.2849 -0.1172
  324MPD2    C3 4866   1.022   3.126  14.269 -0.4670 -0.2397  0.7795
  324MPD2    C4 4867   1.010   2.990  14.279  0.8123 -0.5488 -0.6258
  324MPD2    C5 4868   1.097   2.927  14.356 -0.9277 -0.5484  0.6153
  324MPD2     H 4869   1.109   3.300  14.342 -0.1249  0.3057  1.1411
  324MPD2    H1 4870   0.951   2.925  14.216 -1.3794  1.3169 -0.5176
  324MPD2    H2 4871   1.239   2.943  14.521 -0.7163 -0.5087  0.6647
  324MPD2    H3 4872   1.095   2.819  14.358 -0.3329 -0.5811 -0.3781
  324MPD2     N 4873   0.927   3.186  14.181  0.4556 -0.0340 -0.0532
  324MPD2    H5 4874   0.853   3.130  14.139  0.7282 -1.2013  1.0368
  324MPD2    N1 4875   1.293   3.205  14.495 -0.1556 -0.7836  0.1228
  324MPD2    H7 4876   1.298   3.303  14.470  0.0424 -0.6554  0.6606
  325TMC3    C1 4877   0.824   3.334  14.031 -1.3341 -0.6782  0.6646
  325TMC3    C2 4878   0.768   3.225  13.974  0.3526  0.3689  0.2590
  325TMC3    C3 4879   0.647   3.239  13.906  0.4386  0.0273  0.5298
  325TMC3    C4 4880   0.786   3.460  13.994 -0.0856 -0.2988 -0.2712
  325TMC3    C5 4881   0.681   3.478  13.907 -0.4267  0.6350  0.7011
  325TMC3    C6 4882   0.613   3.366  13.863  0.2264  0.4626 -0.3904
  325TMC3     C 4883   0.914   3.320  14.144 -0.4018  0.2001 -0.1130
  325TMC3     O 4884   0.967   3.414  14.194 -0.2730 -0.0122  0.1867
  325TMC3     H 4885   0.808   3.125  13.986  0.4599  0.3951  0.1204
  325TMC3    H1 4886   0.844   3.548  14.018 -2.9526  1.5150 -0.0420
  325TMC3    H2 4887   0.521   3.387  13.811 -0.1859 -1.2300 -0.3572
  325TMC3    C7 4888   0.624   3.613  13.884  0.5633 -0.8896  0.0663
  325TMC3    C8 4889   0.600   3.120  13.834  0.3859  0.5117  0.7926
  325TMC3    O1 4890   0.593   3.635  13.770  0.0588  0.2274  0.5585
  325TMC3    O2 4891   0.684   3.034  13.828  0.1696 -0.1730 -0.0770
  326MPD2     C 4892   2.520   3.939  11.540 -0.3143  0.1668  0.3518
  326MPD2    C1 4893   2.508   3.962  11.403  0.5061  0.2347 -0.1821
  326MPD2    C2 4894   2.603   4.046  11.352  0.3758 -0.1586  0.4781
  326MPD2    C3 4895   2.701   4.117  11.425  0.0024 -0.0446  0.6650
  326MPD2    C4 4896   2.691   4.112  11.559  1.0156  0.0692  0.6895
  326MPD2    C5 4897   2.613   4.016  11.614  0.2729  0.3035  0.0226
  326MPD2     H 4898   2.592   4.065  11.246 -0.2970  1.3877  0.8285
  326MPD2    H1 4899   2.753   4.162  11.634  0.8249  0.8812  0.3094
  326MPD2    H2 4900   2.456   3.869  11.592 -2.2391  0.7833 -1.2142
  326MPD2    H3 4901   2.622   4.009  11.721  2.1648  0.3413 -0.1301
  326MPD2     N 4902   2.788   4.212  11.358 -0.8360 -0.3588  0.0135
  326MPD2    H5 4903   2.863   4.257  11.408 -2.0079  0.1992  1.2606
  326MPD2    N1 4904   2.414   3.908  11.311  0.3412 -0.2836 -0.1616
  326MPD2    H7 4905   2.427   3.933  11.213  0.4964 -1.8408 -0.5315
  327TMC3    C1 4906   2.271   3.740  11.230 -0.0608  0.0925 -0.1202
  327TMC3    C2 4907   2.296   3.794  11.109 -0.1109  0.0678  0.2635
  327TMC3    C3 4908   2.309   3.704  11.000  0.7871  0.2779  0.3394
  327TMC3    C4 4909   2.266   3.603  11.254 -1.0266  0.3042  0.1563
  327TMC3    C5 4910   2.281   3.522  11.148  0.3897  0.0126 -0.1190
  327TMC3    C6 4911   2.306   3.568  11.021 -0.4748 -0.0384 -0.2563
  327TMC3     C 4912   2.331   3.804  11.345  0.2592  0.2290 -0.2781
  327TMC3     O 4913   2.296   3.761  11.454  0.1334  0.2805 -0.6432
  327TMC3     H 4914   2.290   3.901  11.091  0.2995  0.1379  0.5320
  327TMC3    H1 4915   2.230   3.577  11.353 -1.6074  1.3830  0.2307
  327TMC3    H2 4916   2.337   3.499  10.942  1.8200  2.2946 -1.3769
  327TMC3    C7 4917   2.324   3.384  11.160 -0.1824  0.7820  0.2208
  327TMC3    C8 4918   2.389   3.756  10.891  0.0487 -0.3816  0.0078
  327TMC3    O1 4919   2.317   3.317  11.063 -0.7650  0.3695 -0.0939
  327TMC3    O2 4920   2.367   3.863  10.833 -0.0591  0.4395 -0.5976
  328MPD2     C 4921   0.303   3.827  16.607 -0.0061 -0.2368 -0.8515
  328MPD2    C1 4922   0.217   3.803  16.714  0.5945 -0.9621 -0.7669
  328MPD2    C2 4923   0.181   3.906  16.800  0.1436 -0.6927 -0.3430
  328MPD2    C3 4924   0.244   4.033  16.782 -0.3987  0.4078  0.1839
  328MPD2    C4 4925   0.327   4.059  16.677 -0.6436  0.7587 -0.5716
  328MPD2    C5 4926   0.351   3.961  16.587  0.1725 -0.0450  0.2574
  328MPD2     H 4927   0.130   3.875  16.891 -0.5368  2.1248  0.2450
  328MPD2    H1 4928   0.357   4.161  16.655  3.1328  0.2439  2.1501
  328MPD2    H2 4929   0.316   3.755  16.528  1.7394 -0.0166 -0.7608
  328MPD2    H3 4930   0.422   3.992  16.511  0.3141 -3.1192 -0.9010
  328MPD2     N 4931   0.203   4.129  16.871 -0.5673  0.1325 -0.1698
  328MPD2    H5 4932   0.122   4.103  16.926 -0.1288  0.2321  0.5204
  328MPD2    N1 4933   0.172   3.674  16.733 -0.9483  0.1354  0.0163
  328MPD2    H7 4934   0.221   3.600  16.683 -2.3910 -0.6214 -0.2805
  329TMC3    C1 4935   0.047   3.506  16.834 -0.5406 -0.9880  0.4149
  329TMC3    C2 4936   4.664   3.472  16.915 -0.4493 -0.5971 -0.5336
  329TMC3    C3 4937   4.674   3.371  17.001  0.2671  0.1384  0.3675
  329TMC3    C4 4938   0.156   3.421  16.824  0.1129 -0.4817 -0.0479
  329TMC3    C5 4939   0.148   3.311  16.902  0.2457 -0.3348  0.4339
  329TMC3    C6 4940   0.051   3.283  16.993  0.3773  0.4588  1.4878
  329TMC3     C 4941   0.050   3.642  16.779  0.6018 -0.7189 -0.4005
  329TMC3     O 4942   4.680   3.713  16.802 -0.1036  0.1571 -0.0577
  329TMC3     H 4943   4.577   3.535  16.930 -0.9232 -2.1325  3.2033
  329TMC3    H1 4944   0.231   3.436  16.748 -1.5245 -1.1446 -1.7790
  329TMC3    H2 4945   0.043   3.188  17.044  0.1731 -0.3065  0.0065
  329TMC3    C7 4946   0.210   3.192  16.858 -0.5709 -0.1101  0.0684
  329TMC3    C8 4947   4.556   3.334  17.080  0.0926  0.0144 -0.4262
  329TMC3    O1 4948   0.226   3.093  16.933 -0.4774  0.4077  0.2697
  329TMC3    O2 4949   4.516   3.219  17.089  0.0680  0.3178 -0.4284
  330TMC3    C1 4950   3.321   3.365   9.603  0.2059 -0.1271 -0.8374
  330TMC3    C2 4951   3.209   3.279   9.622 -0.0812  0.1430  0.0962
  330TMC3    C3 4952   3.209   3.200   9.737 -0.0161 -0.3233  0.1827
  330TMC3    C4 4953   3.430   3.369   9.689  0.4601  0.6466  0.3222
  330TMC3    C5 4954   3.421   3.292   9.797 -0.4177 -0.5674  0.2766
  330TMC3    C6 4955   3.311   3.204   9.827  0.0508  0.0085  0.1252
  330TMC3     C 4956   3.319   3.468   9.501 -0.0724 -0.5961 -0.7338
  330TMC3     O 4957   3.425   3.525   9.476  0.1826  0.4831 -0.5110
  330TMC3     H 4958   3.125   3.261   9.555 -0.7343  0.0409  0.9308
  330TMC3    H1 4959   3.511   3.441   9.683  0.5569  0.3605 -1.7020
  330TMC3    H2 4960   3.311   3.141   9.916  2.2115 -1.6296 -1.0161
  330TMC3    C7 4961   3.516   3.324   9.899  0.0991 -0.2623 -0.5358
  330TMC3    C8 4962   3.098   3.110   9.748 -0.9801  0.2069  0.1363
  330TMC3    O1 4963   3.616   3.386   9.877  0.2996 -0.0598  0.2876
  330TMC3    O2 4964   3.048   3.071   9.642 -0.1227 -0.3038 -0.4293
  331MPD2     C 4965   0.816   2.445  12.917 -0.4028  0.2921  0.0727
  331MPD2    C1 4966   0.923   2.481  12.842 -0.5841 -0.1145  0.5616
  331MPD2    C2 4967   0.967   2.402  12.738 -0.0934  0.4030 -0.2893
  331MPD2    C3 4968   0.909   2.281  12.711  0.4096 -0.4333 -0.5490
  331MPD2    C4 4969   0.805   2.239  12.795  0.1262 -0.0908  0.4110
  331MPD2    C5 4970   0.765   2.317  12.907  0.3250  0.2447 -0.6571
  331MPD2     H 4971   1.040   2.437  12.665 -1.0823  1.2685 -0.8554
  331MPD2    H1 4972   0.754   2.143  12.784 -1.9824  1.0302  0.3707
  331MPD2    H2 4973   0.783   2.512  12.996 -2.7586 -1.2459  0.3794
  331MPD2    H3 4974   0.689   2.285  12.977 -0.6131  0.4740 -1.5668
  331MPD2     N 4975   0.957   2.209  12.601  0.0495  0.9544 -0.4857
  331MPD2    H5 4976   1.032   2.248  12.545  0.2876 -1.3994 -1.7866
  331MPD2    N1 4977   0.985   2.610  12.870 -0.4555  0.8540 -1.0853
  331MPD2    H7 4978   0.935   2.681  12.922  1.2892 -0.0402  1.7903
  332TMC3    C1 4979   0.995   2.032  12.463  0.0968  0.0868  0.7774
  332TMC3    C2 4980   1.027   2.113  12.365 -0.2480 -0.5581  0.6631
  332TMC3    C3 4981   1.135   2.077  12.291 -0.0060 -0.2296 -0.4395
  332TMC3    C4 4982   1.061   1.909  12.482 -0.6036  0.1388 -0.0320
  332TMC3    C5 4983   1.172   1.882  12.406  0.2269  0.1225  0.1241
  332TMC3    C6 4984   1.212   1.968  12.309 -0.3533  0.0038  0.0531
  332TMC3     C 4985   0.917   2.085  12.573  0.1422  0.7691  0.0487
  332TMC3     O 4986   0.863   2.005  12.647 -0.3172 -0.4953  0.6448
  332TMC3     H 4987   0.979   2.208  12.350 -0.8729 -0.9632  0.1328
  332TMC3    H1 4988   1.040   1.841  12.564 -0.3733  0.0264 -0.0681
  332TMC3    H2 4989   1.310   1.966  12.261 -1.0688  0.5434 -1.4517
  332TMC3    C7 4990   1.271   1.787  12.462  0.6851  0.5830 -0.9908
  332TMC3    C8 4991   1.196   2.171  12.196 -0.4300  0.2740  0.0028
  332TMC3    O1 4992   1.224   1.702  12.537  0.1269  0.3847 -0.4821
  332TMC3    O2 4993   1.304   2.212  12.231 -0.0674 -0.8112 -0.0987
  333MPD2     C 4994   1.394   2.379  11.429 -0.1785 -0.3587 -0.3772
  333MPD2    C1 4995   1.360   2.379  11.293  0.3066  0.0646 -0.5831
  333MPD2    C2 4996   1.235   2.322  11.249  0.1343 -0.9020 -0.1874
  333MPD2    C3 4997   1.137   2.271  11.340 -0.0477  0.0932 -0.3734
  333MPD2    C4 4998   1.184   2.267  11.473 -0.3275  0.2740  0.0648
  333MPD2    C5 4999   1.307   2.322  11.514 -0.3675  0.1487  0.6803
  333MPD2     H 5000   1.215   2.310  11.143  0.0832 -2.7038  0.0160
  333MPD2    H1 5001   1.123   2.237  11.557 -2.3672 -0.3637 -1.6218
  333MPD2    H2 5002   1.481   2.422  11.475  0.4908  1.0034 -2.9170
  333MPD2    H3 5003   1.338   2.308  11.617  0.9045  0.1204  0.2937
  333MPD2     N 5004   1.026   2.196  11.293 -0.0234  0.4152  0.2045
  333MPD2    H5 5005   1.019   2.183  11.193 -0.1438 -3.0145  0.6657
  333MPD2    N1 5006   1.458   2.428  11.205  0.2856  0.3670 -0.2543
  333MPD2    H7 5007   1.550   2.456  11.238  0.0421 -0.7960  1.4237
  334TMC3    C1 5008   1.572   2.502  11.009  0.0179 -0.7385 -0.0784
  334TMC3    C2 5009   1.697   2.469  11.055 -0.1954  0.5652  0.1876
  334TMC3    C3 5010   1.803   2.520  10.991 -0.5001  0.0873 -0.9025
  334TMC3    C4 5011   1.561   2.578  10.891 -0.1808 -0.6943  0.1977
  334TMC3    C5 5012   1.668   2.635  10.835  0.0912  0.4237 -0.4921
  334TMC3    C6 5013   1.792   2.606  10.882  0.2108 -0.1849 -0.6114
  334TMC3     C 5014   1.450   2.446  11.066  0.4856 -0.3918  0.1257
  334TMC3     O 5015   1.361   2.404  10.988  0.5326  0.2636  0.4142
  334TMC3     H 5016   1.709   2.394  11.133  2.0077 -0.2307 -0.9334
  334TMC3    H1 5017   1.457   2.591  10.863 -0.1513 -1.4294 -0.2399
  334TMC3    H2 5018   1.878   2.639  10.825  0.7988 -1.7035 -0.5954
  334TMC3    C7 5019   1.660   2.747  10.739  0.1980 -0.6929 -0.4052
  334TMC3    C8 5020   1.931   2.494  11.040  0.4670 -0.1825 -0.4985
  334TMC3    O1 5021   1.759   2.811  10.713  0.2732 -0.3935  0.1791
  334TMC3    O2 5022   1.937   2.416  11.135  0.1047 -0.4596  0.5978
  335TMC3    C1 5023   1.056   4.479  17.675  0.3776 -0.3937  0.2701
  335TMC3    C2 5024   0.993   4.395  17.584 -0.4250  0.0718  0.2899
  335TMC3    C3 5025   1.070   4.303  17.514  0.0777 -0.2020  0.0559
  335TMC3    C4 5026   1.192   4.469   0.003 -0.7604  0.2918 -1.0237
  335TMC3    C5 5027   1.260   4.361  17.647 -0.4702  0.3461 -0.0495
  335TMC3    C6 5028   1.201   4.284  17.550 -0.4979  0.4132 -0.7582
  335TMC3     C 5029   0.974   4.578   0.041  0.1547 -0.6233 -0.1695
  335TMC3     O 5030   0.856   4.571   0.011 -0.1863  1.1497 -0.0479
  335TMC3     H 5031   0.893   4.420  17.551 -0.0664  1.6967  0.4467
  335TMC3    H1 5032   1.243   4.534   0.073 -1.1749 -1.0334  0.5166
  335TMC3    H2 5033   1.254   4.214  17.486  1.1120 -0.0128  1.0641
  335TMC3    C7 5034   1.405   4.334  17.667 -0.6126  0.2088  0.6709
  335TMC3    C8 5035   1.041   4.306  17.375  0.3181 -0.0812 -0.3227
  335TMC3    O1 5036   1.445   4.240  17.591  0.0966  0.1091 -0.1715
  335TMC3    O2 5037   1.142   4.319  17.310 -0.2590 -0.0900  0.5059
  336MPD2     C 5038   0.506   2.199  16.252 -0.2309  0.0555 -0.0800
  336MPD2    C1 5039   0.458   2.128  16.145  0.3278  0.7819 -0.2430
  336MPD2    C2 5040   0.501   1.995  16.123  0.1866  0.3064  0.2107
  336MPD2    C3 5041   0.598   1.943  16.207 -0.2738  0.9556 -0.1194
  336MPD2    C4 5042   0.650   2.017  16.308  0.5927 -0.2098  0.0744
  336MPD2    C5 5043   0.600   2.140  16.333 -0.1598 -0.1115  0.5914
  336MPD2     H 5044   0.469   1.937  16.037  1.5064  0.6837 -0.5416
  336MPD2    H1 5045   0.723   1.973  16.376  1.8245 -0.2831 -1.2903
  336MPD2    H2 5046   0.473   2.294  16.293  2.6984  0.0479  2.2860
  336MPD2    H3 5047   0.630   2.202  16.416  0.6216 -0.6460  0.7044
  336MPD2     N 5048   0.638   1.809  16.200 -0.2301 -0.3720 -0.1637
  336MPD2    H5 5049   0.694   1.775  16.278 -1.2494 -0.2217  0.6256
  336MPD2    N1 5050   0.372   2.186  16.050  0.1979 -0.5630  0.3822
  336MPD2    H7 5051   0.341   2.125  15.975 -0.3866  1.6765 -1.1870
  337TMC3    C1 5052   0.233   2.352  15.945 -0.5357  0.6196  0.3274
  337TMC3    C2 5053   0.106   2.393  15.959  0.1633  0.0303  0.1636
  337TMC3    C3 5054   0.033   2.423  15.848  0.4582  0.4731 -0.2406
  337TMC3    C4 5055   0.290   2.350  15.819  0.3240 -0.4619  0.4347
  337TMC3    C5 5056   0.223   2.404  15.719  0.3371 -0.0028  0.5994
  337TMC3    C6 5057   0.093   2.444  15.726  0.1617  0.5187  0.1328
  337TMC3     C 5058   0.296   2.302  16.064  0.0100 -0.3347  0.3677
  337TMC3     O 5059   0.273   2.363  16.166  0.2469 -0.3415  0.1264
  337TMC3     H 5060   0.058   2.392  16.056 -1.3272 -0.9641 -0.5776
  337TMC3    H1 5061   0.396   2.328  15.814  0.3129  0.0619 -1.7902
  337TMC3    H2 5062   0.037   2.503  15.655 -1.0219 -1.6064 -0.7151
  337TMC3    C7 5063   0.296   2.417  15.594  0.0424 -0.4145 -0.4962
  337TMC3    C8 5064   4.609   2.423  15.859 -0.4441  0.0790  0.7080
  337TMC3    O1 5065   0.410   2.381  15.591  0.2201 -0.3895  0.3466
  337TMC3    O2 5066   4.568   2.451  15.970  0.1000 -0.7250 -0.4877
  338MPD2     C 5067   0.809   1.432   0.973 -0.1328 -0.3025 -0.1335
  338MPD2    C1 5068   0.778   1.518   0.873 -0.0426  0.2534 -0.0189
  338MPD2    C2 5069   0.738   1.643   0.889 -0.3659 -0.0691  0.6906
  338MPD2    C3 5070   0.731   1.704   1.013 -0.0232 -0.0428 -0.3171
  338MPD2    C4 5071   0.765   1.623   1.116  0.2255 -0.6478  0.5826
  338MPD2    C5 5072   0.803   1.489   1.097 -0.5559 -0.3018  0.4350
  338MPD2     H 5073   0.719   1.699   0.798 -0.6346 -0.6244  0.4083
  338MPD2    H1 5074   0.756   1.656   1.219  0.6271  0.0815  0.3821
  338MPD2    H2 5075   0.868   1.342   0.967  0.1280 -0.2329  1.3788
  338MPD2    H3 5076   0.846   1.442   1.184  2.3801  0.8863 -0.3469
  338MPD2     N 5077   0.689   1.840   1.016  0.2028 -0.0258  0.1619
  338MPD2    H5 5078   0.656   1.875   0.927  0.2871  2.4298  1.0806
  338MPD2    N1 5079   0.787   1.478   0.739  0.4125 -0.3263 -0.8211
  338MPD2    H7 5080   0.749   1.540   0.670 -0.5115  0.3373  0.2903
  339TMC3    C1 5081   0.610   2.043   1.079 -0.5411 -0.7429 -0.7066
  339TMC3    C2 5082   0.548   2.118   1.169  0.5370  0.2832  0.1462
  339TMC3    C3 5083   0.481   2.234   1.130 -0.7797  0.2248 -1.0781
  339TMC3    C4 5084   0.632   2.096   0.948  0.2227 -0.9507 -0.5657
  339TMC3    C5 5085   0.570   2.219   0.911  0.0296  0.2521 -0.0116
  339TMC3    C6 5086   0.483   2.283   0.998 -0.4914 -0.4050  0.6594
  339TMC3     C 5087   0.676   1.924   1.123  0.7837  0.2202  0.1387
  339TMC3     O 5088   0.701   1.898   1.239  0.4096  0.5999 -0.5529
  339TMC3     H 5089   0.540   2.081   1.270 -2.1986  1.5800  0.4270
  339TMC3    H1 5090   0.695   2.042   0.878  2.5074  1.7867 -0.6285
  339TMC3    H2 5091   0.435   2.379   0.984  1.7263  0.8757  1.7697
  339TMC3    C7 5092   0.554   2.243   0.770  0.0614  0.6462  0.4047
  339TMC3    C8 5093   0.405   2.305   1.230  0.7168  0.4253 -0.7996
  339TMC3    O1 5094   0.459   2.310   0.740  0.4063  0.1537  0.3992
  339TMC3    O2 5095   0.402   2.428   1.220 -0.1025 -0.3538 -0.4051
  340MPD2     C 5096   1.643   3.806  10.388  0.5145  0.3796 -0.0395
  340MPD2    C1 5097   1.535   3.725  10.375  0.0143 -1.3002  0.8701
  340MPD2    C2 5098   1.530   3.623  10.281 -0.0015 -0.2838 -0.5735
  340MPD2    C3 5099   1.616   3.635  10.170  0.3766  0.7159 -0.0294
  340MPD2    C4 5100   1.727   3.721  10.183  0.3436 -0.2545  0.3564
  340MPD2    C5 5101   1.748   3.798  10.298 -0.0789 -0.7286  0.7398
  340MPD2     H 5102   1.445   3.555  10.284  0.7454 -1.1324  1.0705
  340MPD2    H1 5103   1.795   3.735  10.099 -1.2740 -0.1636 -0.9237
  340MPD2    H2 5104   1.645   3.882  10.465  1.6512  0.7928 -0.4758
  340MPD2    H3 5105   1.841   3.852  10.312 -0.1105 -0.4502 -0.1349
  340MPD2     N 5106   1.592   3.566  10.048 -0.6918 -0.1597 -0.2249
  340MPD2    H5 5107   1.650   3.606   9.975 -2.3944  3.9125  0.6874
  340MPD2    N1 5108   1.434   3.754  10.470 -0.4850 -0.2880 -0.1051
  340MPD2    H7 5109   1.469   3.813  10.545 -0.7732 -1.8859  1.2717
  341TMC3    C1 5110   1.226   3.653  10.371  0.0999 -0.2465 -0.5225
  341TMC3    C2 5111   1.128   3.565  10.379 -0.8531  0.0186 -0.6220
  341TMC3    C3 5112   1.056   3.529  10.269 -1.0166 -0.0284  0.0341
  341TMC3    C4 5113   1.241   3.722  10.256 -0.3888  0.0929 -0.3442
  341TMC3    C5 5114   1.169   3.687  10.140  0.7271 -0.3717 -0.0456
  341TMC3    C6 5115   1.069   3.600  10.151 -0.7967  0.1037  0.1620
  341TMC3     C 5116   1.305   3.699  10.487 -0.2469 -0.3229  0.1040
  341TMC3     O 5117   1.250   3.696  10.594  0.4383 -0.2861 -0.1861
  341TMC3     H 5118   1.109   3.534  10.481  0.2410 -1.1448 -0.7736
  341TMC3    H1 5119   1.324   3.789  10.236 -0.3653 -0.2688 -1.4940
  341TMC3    H2 5120   1.016   3.565  10.063 -0.1538 -0.0120 -0.1783
  341TMC3    C7 5121   1.206   3.732  10.005  0.1504 -0.2645  0.4355
  341TMC3    C8 5122   0.953   3.421  10.267 -0.5997 -0.9212 -0.0513
  341TMC3    O1 5123   1.169   3.663   9.913 -0.1861 -0.4143 -0.1232
  341TMC3    O2 5124   0.887   3.414  10.164 -0.6096  0.1396 -0.3744
  342MPD2     C 5125   3.566   2.095  17.609 -0.2198 -0.0616 -0.3739
  342MPD2    C1 5126   3.630   2.174  17.521 -0.2355 -0.2876  0.4179
  342MPD2    C2 5127   3.613   2.307  17.519 -0.0403  0.5912  0.0526
  342MPD2    C3 5128   3.538   2.372  17.617 -0.1716  0.0738  1.1389
  342MPD2    C4 5129   3.465   2.291   0.006 -0.6063  0.5512 -0.1214
  342MPD2    C5 5130   3.481   2.153   0.005 -0.3821  0.6929  1.0416
  342MPD2     H 5131   3.648   2.368  17.436 -1.5715  1.2950 -0.0688
  342MPD2    H1 5132   3.408   2.337   0.087 -2.3222  0.4781 -1.2867
  342MPD2    H2 5133   3.565   1.987  17.609  0.4851 -0.0657 -1.0332
  342MPD2    H3 5134   3.447   2.082   0.079  1.8468  0.7130  2.0879
  342MPD2     N 5135   3.535   2.516  17.626 -0.2363 -0.1476 -0.2675
  342MPD2    H5 5136   3.595   2.573  17.567 -1.4570 -0.7660 -2.1169
  342MPD2    N1 5137   3.711   2.100  17.426 -0.2026  0.6696 -0.9138
  342MPD2    H7 5138   3.720   1.999  17.433  0.8762  0.7513 -1.1824
  343TMC3    C1 5139   3.831   2.058  17.232  0.3989  0.6210  0.0519
  343TMC3    C2 5140   3.950   2.075  17.168 -0.4164  0.3249  0.1641
  343TMC3    C3 5141   3.997   1.965  17.105  0.0641 -0.2671 -0.2815
  343TMC3    C4 5142   3.756   1.942  17.221  0.8297  0.0840  0.2464
  343TMC3    C5 5143   3.797   1.844  17.133 -0.1976  0.1669  0.2371
  343TMC3    C6 5144   3.926   1.849  17.082 -0.1221  0.4501 -0.5387
  343TMC3     C 5145   3.799   2.152  17.338 -0.2922 -0.0460  0.0987
  343TMC3     O 5146   3.861   2.255  17.349 -0.1759  0.7450  0.9717
  343TMC3     H 5147   4.022   2.155  17.184  0.2288  0.5434 -3.6753
  343TMC3    H1 5148   3.652   1.938  17.251  1.0198  1.3631  1.0667
  343TMC3    H2 5149   3.975   1.759  17.050 -1.4254  0.0593 -1.4138
  343TMC3    C7 5150   3.716   1.725  17.130 -0.0478 -0.3039  0.0308
  343TMC3    C8 5151   4.131   1.961  17.058  0.3030 -0.6014 -0.0663
  343TMC3    O1 5152   3.649   1.709  17.229 -0.1786  0.3464 -0.0636
  343TMC3    O2 5153   4.208   2.040  17.108  0.0604 -0.4303 -0.0934
  344MPD2     C 5154   4.477   1.668   9.979 -0.9103  0.7932  0.7387
  344MPD2    C1 5155   4.562   1.673  10.085  0.3200  0.2289 -0.3842
  344MPD2    C2 5156   4.640   1.780  10.113 -0.7252  0.0692 -0.1568
  344MPD2    C3 5157   4.626   1.892  10.035  0.5026 -0.4906  0.4836
  344MPD2    C4 5158   4.534   1.895   9.931  0.0022 -0.2310  0.2831
  344MPD2    C5 5159   4.460   1.784   9.908 -0.3185 -0.8742 -0.0801
  344MPD2     H 5160   4.703   1.771  10.200  1.4433  0.2935 -1.7093
  344MPD2    H1 5161   4.518   1.980   9.866 -0.7094 -1.2825 -0.9081
  344MPD2    H2 5162   4.425   1.581   9.943  0.1733  1.1491 -1.6913
  344MPD2    H3 5163   4.391   1.787   9.825 -1.1775  1.5023  0.7303
  344MPD2     N 5164   4.691   2.014  10.064 -0.3849 -0.5103  0.3998
  344MPD2    H5 5165   4.651   2.092  10.013 -0.3392  0.2821  1.5782
  344MPD2    N1 5166   4.587   1.564  10.166 -0.4459  0.0952  0.1092
  344MPD2    H7 5167   4.665   1.573  10.229  0.4518 -0.5694 -0.9159
  345TMC3    C1 5168   0.073   2.190  10.186  0.8886  0.8107 -0.0685
  345TMC3    C2 5169   0.166   2.218  10.287 -0.0795  0.1081  0.1594
  345TMC3    C3 5170   0.216   2.348  10.294 -0.1804 -1.1290  0.2881
  345TMC3    C4 5171   0.046   2.278  10.088  0.4600 -0.2650 -0.4969
  345TMC3    C5 5172   0.097   2.405  10.107 -0.0326 -0.2628 -0.5846
  345TMC3    C6 5173   0.183   2.448  10.209 -0.9493 -0.3180  0.0785
  345TMC3     C 5174   0.029   2.054  10.184 -0.2837  0.4089  0.8779
  345TMC3     O 5175   0.075   1.984  10.274  0.2919  0.0682 -0.8930
  345TMC3     H 5176   0.189   2.153  10.371 -1.7067 -0.8092 -0.1018
  345TMC3    H1 5177   4.713   2.250  10.000 -0.3451 -0.5103  0.0961
  345TMC3    H2 5178   0.230   2.546  10.206  0.7039 -1.0280  3.0760
  345TMC3    C7 5179   0.048   2.514  10.027  0.1920 -0.2446  0.2814
  345TMC3    C8 5180   0.349   2.348  10.362  0.4658  0.2322  0.6097
  345TMC3    O1 5181   0.088   2.626  10.062  0.5893 -0.0537 -0.2691
  345TMC3    O2 5182   0.362   2.293  10.472 -0.0532 -0.0532  0.3580
  346MPD2     C 5183   4.549   3.605  14.354  0.5680 -0.0156  0.1416
  346MPD2    C1 5184   4.612   3.691  14.267 -0.1550 -0.4902 -0.7948
  346MPD2    C2 5185   4.671   3.807  14.314  0.5722 -0.1406  0.0351
  346MPD2    C3 5186   4.667   3.848  14.444 -0.0868  0.4793 -0.8686
  346MPD2    C4 5187   4.603   3.766  14.532  0.2446  0.0759 -0.2754
  346MPD2    C5 5188   4.544   3.647  14.490 -0.2465 -0.0714 -0.1934
  346MPD2     H 5189   4.715   3.875  14.242  0.9960 -1.2527 -0.7513
  346MPD2    H1 5190   4.606   3.789  14.638 -1.5705  0.3367 -0.2878
  346MPD2    H2 5191   4.497   3.516  14.320 -0.3165 -0.1594  1.8591
  346MPD2    H3 5192   4.489   3.581  14.556 -0.7533  1.1257  0.5744
  346MPD2     N 5193   0.022   3.952  14.489  0.2823 -0.7809 -0.2189
  346MPD2    H5 5194   0.079   3.998  14.419 -0.0645  1.2758  0.8651
  346MPD2    N1 5195   4.620   3.674  14.126  0.4502  0.2811  0.1944
  346MPD2    H7 5196   4.658   3.753  14.074  0.8780  0.2539  0.4651
  347TMC3    C1 5197   0.145   4.082  14.636 -0.2928  0.0364  0.2765
  347TMC3    C2 5198   0.172   4.136  14.516 -0.1947 -0.1527  0.3444
  347TMC3    C3 5199   0.298   4.134  14.464  0.1657 -0.3475 -0.6003
  347TMC3    C4 5200   0.248   4.035  14.719  0.2360  0.5039  0.0150
  347TMC3    C5 5201   0.377   4.032  14.668  0.4586  0.8226  0.2467
  347TMC3    C6 5202   0.406   4.087  14.546 -0.0153 -0.5788  0.4433
  347TMC3     C 5203   0.045   3.984  14.622  0.8051  0.3297 -0.6879
  347TMC3     O 5204   0.008   3.932  14.728 -0.3634 -0.4147  0.1422
  347TMC3     H 5205   0.094   4.182  14.457 -0.4168 -1.7558 -0.6261
  347TMC3    H1 5206   0.233   4.002  14.821 -0.1346  0.0976 -0.1714
  347TMC3    H2 5207   0.509   4.109  14.518  0.0345 -1.9465 -0.4159
  347TMC3    C7 5208   0.474   3.969  14.751 -0.4586  0.6767  0.2095
  347TMC3    C8 5209   0.292   4.090  14.326  0.4453  0.0733 -0.3634
  347TMC3    O1 5210   0.444   3.897  14.842 -0.8050  0.6193 -0.3183
  347TMC3    O2 5211   0.174   4.087  14.279  0.2367  0.7575 -0.3074
  348MPD2     C 5212   3.422   2.806  12.165 -0.6205  0.6407  0.1565
  348MPD2    C1 5213   3.482   2.927  12.178  0.4360 -0.1097 -1.0878
  348MPD2    C2 5214   3.478   3.027  12.088 -0.3630  0.0111 -0.4647
  348MPD2    C3 5215   3.392   3.017  11.986 -0.1418  0.3751 -0.7400
  348MPD2    C4 5216   3.332   2.892  11.962 -0.3707 -0.6834  0.0196
  348MPD2    C5 5217   3.334   2.793  12.055 -0.1569 -0.2047 -0.1426
  348MPD2     H 5218   3.533   3.119  12.101  1.0901 -0.8868 -0.3566
  348MPD2    H1 5219   3.272   2.875  11.873  0.9720  3.7325 -1.7243
  348MPD2    H2 5220   3.447   2.718  12.223 -1.3528 -0.1652 -0.7521
  348MPD2    H3 5221   3.280   2.700  12.047  0.3842 -0.4689 -0.6516
  348MPD2     N 5222   3.384   3.135  11.903  0.3598 -0.6570 -0.5451
  348MPD2    H5 5223   3.435   3.210  11.947 -2.2353 -0.7498  2.6126
  348MPD2    N1 5224   3.580   2.951  12.278  0.6856  0.1239  0.3762
  348MPD2    H7 5225   3.627   3.040  12.285 -2.0583  1.3697  3.1291
  349TMC3    C1 5226   3.717   2.896  12.473 -0.0718  0.2828 -0.8678
  349TMC3    C2 5227   3.777   2.781  12.526 -0.3388 -0.8034  0.8786
  349TMC3    C3 5228   3.899   2.742  12.478  0.0002  0.3156  1.0761
  349TMC3    C4 5229   3.791   2.986  12.401  0.3118 -0.3113  0.2780
  349TMC3    C5 5230   3.914   2.949  12.357  0.1273 -0.3110 -0.7836
  349TMC3    C6 5231   3.965   2.823  12.390  0.0347  0.4198  0.2749
  349TMC3     C 5232   3.605   2.864  12.388  0.4890  0.6284 -0.0915
  349TMC3     O 5233   3.543   2.760  12.417  0.3341 -0.2236 -0.1359
  349TMC3     H 5234   3.719   2.720  12.594  1.0935  0.4643  3.2035
  349TMC3    H1 5235   3.767   3.090  12.382 -0.7028 -0.2886  1.7133
  349TMC3    H2 5236   4.050   2.783  12.335 -0.1765  1.0243 -0.4941
  349TMC3    C7 5237   3.921   2.963  12.210  0.1660  0.0370 -0.1195
  349TMC3    C8 5238   3.949   2.620  12.520 -0.4987  0.5491  0.0411
  349TMC3    O1 5239   3.924   2.862  12.147 -0.5105 -0.1666 -0.8658
  349TMC3    O2 5240   3.872   2.547  12.580 -0.2671 -0.0886 -0.6100
  350MPD2     C 5241   2.420   0.943  10.444  0.0513  0.3966 -0.3081
  350MPD2    C1 5242   2.508   0.841  10.420 -0.5378 -0.3632 -0.4292
  350MPD2    C2 5243   2.625   0.872  10.359  0.4762 -0.4026 -0.5193
  350MPD2    C3 5244   2.672   0.998  10.333  0.3154 -1.0898  1.2062
  350MPD2    C4 5245   2.578   1.099  10.355  0.1759  0.0082 -0.4092
  350MPD2    C5 5246   2.464   1.074  10.420  0.0843 -0.1389  0.3516
  350MPD2     H 5247   2.686   0.785  10.336 -0.9276 -0.9401 -2.2079
  350MPD2    H1 5248   2.602   1.197  10.315  0.0240 -0.1901 -0.9832
  350MPD2    H2 5249   2.320   0.931  10.485  0.7301 -1.2415  0.8730
  350MPD2    H3 5250   2.408   1.163  10.446  1.7500  0.2804  2.4676
  350MPD2     N 5251   2.801   1.019  10.277 -0.1612  0.7670  0.0572
  350MPD2    H5 5252   2.854   0.934  10.259  0.0761  1.0425 -0.5384
  350MPD2    N1 5253   2.478   0.704  10.435 -0.9239  0.2799  0.0574
  350MPD2    H7 5254   2.541   0.631  10.402  1.3615  1.5994  1.4857
  351TMC3    C1 5255   2.353   0.513  10.514 -0.0929 -0.2058 -0.0849
  351TMC3    C2 5256   2.441   0.431  10.450 -0.8224  0.4240  0.2285
  351TMC3    C3 5257   2.422   0.295  10.445  1.1576  0.3259  0.2429
  351TMC3    C4 5258   2.238   0.466  10.569  0.1101  0.2682 -0.3485
  351TMC3    C5 5259   2.212   0.332  10.554 -0.5179  0.3786 -0.6429
  351TMC3    C6 5260   2.303   0.245  10.495  0.3782 -0.4001 -0.1879
  351TMC3     C 5261   2.362   0.659  10.498 -0.0932  1.1863  0.1761
  351TMC3     O 5262   2.281   0.721  10.566  0.4094  0.0180 -0.5285
  351TMC3     H 5263   2.515   0.479  10.387  0.3241 -2.5558 -0.6970
  351TMC3    H1 5264   2.155   0.530  10.599 -0.6341 -1.2845  0.8800
  351TMC3    H2 5265   2.287   0.138  10.503 -1.8418 -0.2460 -2.6387
  351TMC3    C7 5266   2.099   0.269  10.623 -0.3494 -0.2850  0.7331
  351TMC3    C8 5267   2.497   0.229  10.341 -0.5406  0.2972  0.4185
  351TMC3    O1 5268   2.116   0.150  10.661 -0.4276  0.3858  0.0464
  351TMC3    O2 5269   2.561   0.296  10.263  0.0454  0.3800 -0.0106
  352MPD2     C 5270   0.428   3.789   1.402  0.0382  0.3675  0.0673
  352MPD2    C1 5271   0.309   3.755   1.343 -0.2070  0.3066  0.3664
  352MPD2    C2 5272   0.224   3.670   1.405 -0.2891  0.1437  0.1775
  352MPD2    C3 5273   0.258   3.613   1.527 -0.2180  0.6045 -0.3421
  352MPD2    C4 5274   0.374   3.660   1.584  0.2175 -0.7603 -0.6244
  352MPD2    C5 5275   0.457   3.747   1.526 -0.0095 -0.4078 -0.1354
  352MPD2     H 5276   0.132   3.634   1.360  0.3157 -2.2220  0.7996
  352MPD2    H1 5277   0.405   3.615   1.678 -0.4056 -0.6178 -0.3540
  352MPD2    H2 5278   0.491   3.865   1.357  0.3335 -0.3527 -0.7281
  352MPD2    H3 5279   0.548   3.770   1.581 -0.4400  2.3765 -0.6152
  352MPD2     N 5280   0.190   3.500   1.589  0.1397  0.3400 -0.8366
  352MPD2    H5 5281   0.237   3.456   1.668  0.8892  0.2704 -1.3199
  352MPD2    N1 5282   0.267   3.796   1.212 -0.0653 -0.1394 -0.1578
  352MPD2    H7 5283   0.177   3.764   1.178  0.1715 -0.9082 -0.0549
  353TMC3    C1 5284   0.041   3.313   1.612 -0.4604 -0.1380 -0.7689
  353TMC3    C2 5285   0.126   3.275   1.719 -0.1394  0.1120 -0.1619
  353TMC3    C3 5286   0.175   3.146   1.719  0.0698 -0.2997 -0.2680
  353TMC3    C4 5287   4.718   3.219   1.520  0.2350  0.6748  0.0204
  353TMC3    C5 5288   0.045   3.095   1.530  0.8229  0.0645 -0.1682
  353TMC3    C6 5289   0.127   3.055   1.635  0.6843 -1.1130  0.0894
  353TMC3     C 5290   0.067   3.441   1.549  0.2430 -0.1760  0.6081
  353TMC3     O 5291   4.709   3.491   1.473 -0.2343 -0.0332  0.0843
  353TMC3     H 5292   0.160   3.351   1.789 -0.6667 -1.4395  1.8036
  353TMC3    H1 5293   4.659   3.252   1.436 -1.6249  0.7393  1.3647
  353TMC3    H2 5294   0.155   2.950   1.644  0.5195 -0.9841  2.1103
  353TMC3    C7 5295   0.043   2.999   1.417 -0.9926  0.2500 -0.3468
  353TMC3    C8 5296   0.238   3.104   1.844 -0.0938 -0.0067 -0.2358
  353TMC3    O1 5297   0.152   2.944   1.393 -1.1575 -0.1702 -0.3556
  353TMC3    O2 5298   0.205   3.158   1.950  0.6384 -0.2601 -0.2478
  354TMC3    C1 5299   2.982   4.144  13.848 -0.1667  0.5645  0.0524
  354TMC3    C2 5300   2.892   4.220  13.787  0.0552 -0.1909 -0.1286
  354TMC3    C3 5301   2.923   4.298  13.678  0.5962  0.3315  0.3704
  354TMC3    C4 5302   3.110   4.133  13.800 -1.0739 -0.2388 -0.1638
  354TMC3    C5 5303   3.142   4.203  13.694  0.3176  0.3182 -0.6182
  354TMC3    C6 5304   3.056   4.295  13.637 -0.0577 -0.0371  0.2992
  354TMC3     C 5305   2.943   4.093  13.978 -1.0924 -0.1698  0.2834
  354TMC3     O 5306   2.837   4.138  14.020 -0.3203 -0.2961 -0.3600
  354TMC3     H 5307   2.791   4.212  13.825 -0.2351  0.4139 -0.7774
  354TMC3    H1 5308   3.186   4.084  13.860 -2.0603 -1.1838  0.3139
  354TMC3    H2 5309   3.076   4.354  13.548  0.6979  0.9152  1.0956
  354TMC3    C7 5310   3.267   4.170  13.634 -0.1443 -0.4705 -0.1386
  354TMC3    C8 5311   2.844   4.417  13.667 -0.5331  0.0080 -0.2646
  354TMC3    O1 5312   3.347   4.122  13.716  0.5247  0.3619  0.1645
  354TMC3    O2 5313   2.745   4.418  13.744  0.5880 -0.0984 -0.2802
  355MPD2     C 5314   3.042   0.334  12.240 -0.0504 -0.1136 -0.5394
  355MPD2    C1 5315   3.013   0.365  12.113 -0.4813  0.0514 -0.3790
  355MPD2    C2 5316   3.106   0.438  12.041  0.1684 -0.0489  0.5602
  355MPD2    C3 5317   3.220   0.496  12.101 -0.3291  0.0886 -0.2395
  355MPD2    C4 5318   3.238   0.471  12.232 -0.4476  0.3989  0.2289
  355MPD2    C5 5319   3.148   0.390  12.297 -0.0253 -0.2587 -0.4536
  355MPD2     H 5320   3.086   0.451  11.935  2.6937  0.5238  0.1597
  355MPD2    H1 5321   3.325   0.514  12.280  0.1377 -0.5159 -0.0214
  355MPD2    H2 5322   2.978   0.274  12.304 -1.9027  1.5779 -0.7975
  355MPD2    H3 5323   3.179   0.367  12.399  0.9382 -0.5683 -0.8194
  355MPD2     N 5324   3.307   0.588  12.039  0.2558  0.5949 -0.3662
  355MPD2    H5 5325   3.378   0.628  12.100 -0.4843  0.8868  0.3141
  355MPD2    N1 5326   2.894   0.305  12.060 -0.0997 -0.1952 -0.2307
  355MPD2    H7 5327   2.847   0.227  12.106 -0.7283 -0.1546 -0.8045
  356TMC3    C1 5328   3.352   0.783  11.922 -0.0799 -0.6434 -0.5619
  356TMC3    C2 5329   3.365   0.841  11.801  0.6727  0.1174 -0.1541
  356TMC3    C3 5330   3.406   0.975  11.790  0.3650  0.3944  0.0680
  356TMC3    C4 5331   3.368   0.855  12.038 -0.0658 -0.8723 -0.1554
  356TMC3    C5 5332   3.417   0.981  12.025  0.6798 -0.3668  0.1335
  356TMC3    C6 5333   3.454   1.040  11.905  0.3513 -0.4811 -0.3347
  356TMC3     C 5334   3.298   0.645  11.920  0.3778  0.1972  0.3937
  356TMC3     O 5335   3.235   0.597  11.828 -0.3445 -0.1424  0.2140
  356TMC3     H 5336   3.349   0.777  11.716  2.0370 -1.2854  0.6410
  356TMC3    H1 5337   3.354   0.806  12.134  0.6669 -1.3715 -0.2979
  356TMC3    H2 5338   3.480   1.145  11.912 -0.8249 -0.2332  0.4140
  356TMC3    C7 5339   3.485   1.032  12.143 -0.4544  0.4734 -0.4047
  356TMC3    C8 5340   3.440   1.020  11.659 -0.5222 -1.1351 -0.4840
  356TMC3    O1 5341   3.417   1.014  12.246  0.3613  0.9939  0.4815
  356TMC3    O2 5342   3.387   0.961  11.570  0.5871  0.1777 -0.7641
  357MPD2     C 5343   3.125   0.113   2.182 -0.4479 -0.1932 -0.2776
  357MPD2    C1 5344   3.010   0.077   2.121  0.8357 -0.0775 -0.4033
  357MPD2    C2 5345   2.895   0.051   2.197  0.6474  0.5417  0.7307
  357MPD2    C3 5346   2.894   0.065   2.330 -0.5993  0.9099  0.0236
  357MPD2    C4 5347   2.995   0.135   2.388 -0.1028 -0.0167 -0.2146
  357MPD2    C5 5348   3.115   0.151   2.318 -0.9885  0.1227  0.0492
  357MPD2     H 5349   2.807   0.007   2.153  2.2526  0.1642 -2.0794
  357MPD2    H1 5350   2.992   0.178   2.487  1.1528 -1.2061  0.3412
  357MPD2    H2 5351   3.213   0.140   2.125 -0.2173  0.1743  0.2497
  357MPD2    H3 5352   3.208   0.191   2.356 -1.1549 -0.3108  0.9017
  357MPD2     N 5353   2.775   0.048   2.402 -0.1017  0.0277 -0.1304
  357MPD2    H5 5354   2.773   0.102   2.488 -2.7412  2.0085 -1.4618
  357MPD2    N1 5355   3.018   0.059   1.975 -0.0555  0.1496  0.2099
  357MPD2    H7 5356   3.113   0.057   1.937 -0.1026  3.4607 -0.0717
  358TMC3    C1 5357   2.931   4.710   1.769  0.4625  1.0710  0.3540
  358TMC3    C2 5358   2.832   4.705   1.672 -0.4117  0.2725 -0.7016
  358TMC3    C3 5359   2.845   4.632   1.559 -0.3327  0.5635  0.6876
  358TMC3    C4 5360   3.042   4.631   1.749  0.4148 -0.1847  0.4398
  358TMC3    C5 5361   3.054   4.564   1.627  0.2243 -0.1211 -0.4475
  358TMC3    C6 5362   2.956   4.561   1.522 -0.1171  0.0730 -0.1645
  358TMC3     C 5363   2.906   0.054   1.896  0.1295  0.3934  0.2335
  358TMC3     O 5364   2.792   0.084   1.923 -0.2850  0.2523 -0.9514
  358TMC3     H 5365   2.738   0.032   1.690 -0.4773 -0.0134 -0.2471
  358TMC3    H1 5366   3.125   4.618   1.818  0.4779  0.7728  0.5466
  358TMC3    H2 5367   2.958   4.474   1.457  2.7791 -0.2321  0.3202
  358TMC3    C7 5368   3.167   4.469   1.607 -0.0389  0.3442  0.2519
  358TMC3    C8 5369   2.736   4.631   1.465 -0.1990 -0.5586 -0.1652
  358TMC3    O1 5370   3.252   4.448   1.695  0.3093 -1.0718  0.8422
  358TMC3    O2 5371   2.629   4.664   1.511  0.4274 -0.1933 -0.1963
  359MPD2     C 5372   3.593   3.930  12.782  0.4166  0.0683 -0.1820
  359MPD2    C1 5373   3.498   3.970  12.687  0.2485 -1.0549 -0.8083
  359MPD2    C2 5374   3.381   4.018  12.731  0.3005 -0.1262 -0.1500
  359MPD2    C3 5375   3.343   4.021  12.859  0.5320 -0.5233 -0.2545
  359MPD2    C4 5376   3.432   3.970  12.955  0.0567  0.1303  0.3520
  359MPD2    C5 5377   3.553   3.920  12.913  0.5365  0.1739  0.5920
  359MPD2     H 5378   3.313   4.040  12.649  0.4891  1.6830  0.1727
  359MPD2    H1 5379   3.413   3.955  13.061  0.9893 -3.9476 -0.0595
  359MPD2    H2 5380   3.688   3.886  12.755 -1.3632 -1.9735 -3.0794
  359MPD2    H3 5381   3.625   3.867  12.974  0.0744 -0.6591  0.4188
  359MPD2     N 5382   3.215   4.068  12.904 -0.9074 -0.0289 -0.0750
  359MPD2    H5 5383   3.188   4.063  13.001 -0.4375 -2.7373 -0.0834
  359MPD2    N1 5384   3.518   3.975  12.549 -0.2052 -0.4721  0.2366
  359MPD2    H7 5385   3.442   3.979  12.482  0.6198 -1.6133 -0.7550
  360TMC3    C1 5386   3.637   3.953  12.342 -0.3841  0.4780 -0.5542
  360TMC3    C2 5387   3.743   4.006  12.273  0.4893 -0.3223  0.0516
  360TMC3    C3 5388   3.723   4.042  12.144 -0.3019  1.0401 -0.1588
  360TMC3    C4 5389   3.525   3.917  12.274 -0.0732 -0.2738  0.0411
  360TMC3    C5 5390   3.515   3.938  12.138 -0.2230 -0.1272  0.0565
  360TMC3    C6 5391   3.615   4.001  12.071  0.0349  0.8472 -0.3785
  360TMC3     C 5392   3.643   3.954  12.488  0.2061  0.7017  0.1107
  360TMC3     O 5393   3.755   3.954  12.538 -0.2783  0.3849  0.2317
  360TMC3     H 5394   3.829   4.050  12.323  1.5743 -1.0527 -1.1911
  360TMC3    H1 5395   3.457   3.849  12.323 -0.7905 -0.1228 -0.7386
  360TMC3    H2 5396   3.610   4.019  11.964  3.5962 -0.2903 -0.7099
  360TMC3    C7 5397   3.408   3.867  12.075 -0.7281 -1.1408 -0.0376
  360TMC3    C8 5398   3.806   4.132  12.071  0.8156 -0.1277 -0.2191
  360TMC3    O1 5399   3.330   3.800  12.144  0.7045 -0.2512 -0.2193
  360TMC3    O2 5400   3.754   4.225  12.012  0.0407  0.1648  0.3165
  361MPD2     C 5401   4.195   2.630  16.800 -0.2248 -0.8679  0.2261
  361MPD2    C1 5402   4.253   2.744  16.853 -0.5788  0.4899 -0.1429
  361MPD2    C2 5403   4.387   2.764  16.823 -0.2173  0.0709  0.0904
  361MPD2    C3 5404   4.461   2.669  16.756 -0.2137  0.6043  0.3224
  361MPD2    C4 5405   4.396   2.559  16.705  0.0596 -0.0231  0.4110
  361MPD2    C5 5406   4.259   2.546  16.717  0.4869  0.1689  0.6700
  361MPD2     H 5407   4.422   2.858  16.863  2.7978 -1.5510  1.1799
  361MPD2    H1 5408   4.451   2.483  16.650  1.1489  0.8215  0.3336
  361MPD2    H2 5409   4.093   2.599  16.823 -0.8154  0.7402 -0.2042
  361MPD2    H3 5410   4.202   2.457  16.693  1.8996 -0.0650 -1.7342
  361MPD2     N 5411   4.602   2.668  16.748 -0.1676  0.4238 -0.0913
  361MPD2    H5 5412   4.648   2.579  16.732  1.1841  1.3524 -1.3994
  361MPD2    N1 5413   4.179   2.839  16.928 -0.0252  0.1697 -0.4333
  361MPD2    H7 5414   4.226   2.927  16.945 -0.6935  0.5781 -0.6920
  362TMC3    C1 5415   4.016   2.940  17.052  0.0164 -0.6141 -0.3131
  362TMC3    C2 5416   3.920   2.925  17.154 -0.1512 -0.7389  0.0904
  362TMC3    C3 5417   3.830   3.023  17.179  0.1727  0.5446  0.0479
  362TMC3    C4 5418   4.019   3.059  16.980 -0.9427 -0.6609  0.8098
  362TMC3    C5 5419   3.924   3.155  17.011 -0.1874  0.2181  0.8601
  362TMC3    C6 5420   3.823   3.138  17.105  0.4137 -1.0062  0.7006
  362TMC3     C 5421   4.061   2.813  16.990  0.4109  0.3176 -1.0701
  362TMC3     O 5422   3.995   2.713  16.992  0.0452  0.5420 -0.1686
  362TMC3     H 5423   3.913   2.829  17.203  0.9373  0.0364  1.8016
  362TMC3    H1 5424   4.074   3.068  16.887 -0.7562  1.7572  1.1642
  362TMC3    H2 5425   3.747   3.214  17.122  2.0150  1.5113 -3.4695
  362TMC3    C7 5426   3.898   3.242  16.898  0.2155  0.2737  0.7716
  362TMC3    C8 5427   3.712   2.993  17.251  0.0750  0.8921 -0.2268
  362TMC3    O1 5428   3.872   3.359  16.926  0.1152 -0.1668  0.0239
  362TMC3    O2 5429   3.678   2.873  17.252 -0.6080 -0.0998 -0.4460
  363TMC3    C1 5430   3.615   0.827   9.675 -0.3702  1.4577 -0.5087
  363TMC3    C2 5431   3.563   0.738   9.767  0.1892 -0.7411  0.5529
  363TMC3    C3 5432   3.430   0.745   9.802  0.2028 -0.2358 -0.3371
  363TMC3    C4 5433   3.544   0.926   9.616 -0.8081  0.5076 -0.2202
  363TMC3    C5 5434   3.415   0.931   9.653  0.8925  0.6403 -0.3282
  363TMC3    C6 5435   3.359   0.846   9.744  0.5504  0.5857 -0.2911
  363TMC3     C 5436   3.757   0.865   9.693  0.1165 -0.2086  0.1994
  363TMC3     O 5437   3.802   0.924   9.595  0.4632 -0.5181 -0.4790
  363TMC3     H 5438   3.622   0.654   9.802  0.2434  0.5230  3.5155
  363TMC3    H1 5439   3.587   0.998   9.546 -0.0744  0.6889  0.4117
  363TMC3    H2 5440   3.251   0.842   9.751  0.5570  1.5276  0.2823
  363TMC3    C7 5441   3.322   1.031   9.598 -0.0055 -0.7367 -0.3925
  363TMC3    C8 5442   3.357   0.633   9.857  0.9791  0.4517  0.1873
  363TMC3    O1 5443   3.207   1.027   9.640  0.4461  0.2022 -0.0131
  363TMC3    O2 5444   3.238   0.641   9.876 -0.4318 -0.9025 -0.3037
  364MPD2     C 5445   2.877   3.844  10.760 -0.0570 -0.0902 -0.7314
  364MPD2    C1 5446   2.768   3.926  10.755  0.0092 -0.0344 -0.9573
  364MPD2    C2 5447   2.646   3.876  10.786 -0.2289  0.2452 -0.2592
  364MPD2    C3 5448   2.636   3.750  10.850  1.0288  0.9809  0.2684
  364MPD2    C4 5449   2.744   3.677  10.871  0.1791 -0.9135 -0.3360
  364MPD2    C5 5450   2.863   3.719  10.813 -0.2801 -0.5605  0.2197
  364MPD2     H 5451   2.561   3.917  10.733 -0.1997  2.9701  1.8332
  364MPD2    H1 5452   2.748   3.582  10.923 -1.7426  0.3010  2.0340
  364MPD2    H2 5453   2.976   3.873  10.728  0.6498  0.8938  2.3095
  364MPD2    H3 5454   2.950   3.661  10.841  2.4315  3.4913  0.1756
  364MPD2     N 5455   2.511   3.694  10.894  0.4937  0.7442  0.2616
  364MPD2    H5 5456   2.531   3.616  10.956 -0.0856  0.2598 -0.1691
  364MPD2    N1 5457   2.782   4.059  10.700 -0.1012 -0.1660 -0.5218
  364MPD2    H7 5458   2.870   4.078  10.654  0.9925 -1.5129  1.0156
  365TMC3    C1 5459   2.733   4.282  10.628 -0.6091 -0.1670  0.3059
  365TMC3    C2 5460   2.810   4.272  10.511  0.3456  0.1135 -0.7184
  365TMC3    C3 5461   2.847   4.391  10.460 -0.1729 -0.0714 -0.2865
  365TMC3    C4 5462   2.713   4.401  10.692 -0.1573 -0.4810 -0.0834
  365TMC3    C5 5463   2.755   4.518  10.629  0.7567 -0.2952 -0.0904
  365TMC3    C6 5464   2.828   4.511  10.517 -0.2206  0.2386  0.5737
  365TMC3     C 5465   2.692   4.165  10.705 -0.2274  0.0043  0.7152
  365TMC3     O 5466   2.609   4.181  10.791  0.3431 -0.5048 -0.5406
  365TMC3     H 5467   2.848   4.177  10.475 -1.1910 -0.4536 -0.8621
  365TMC3    H1 5468   2.658   4.403  10.785 -1.5259 -0.2010 -0.8993
  365TMC3    H2 5469   2.842   4.601  10.459  1.1353  0.3077  1.0299
  365TMC3    C7 5470   2.716   4.653  10.674 -0.5299  0.2644  0.2914
  365TMC3    C8 5471   2.904   4.384  10.328  0.0069  0.3438  0.0852
  365TMC3    O1 5472   2.763   0.022  10.616 -0.3410 -0.1461  0.3979
  365TMC3    O2 5473   3.008   4.449  10.304  0.1582  0.1295 -0.1598
  366MPD2     C 5474   0.793   1.944  15.063  0.4816 -0.2014  0.1854
  366MPD2    C1 5475   0.657   1.907  15.049 -0.1323 -1.3200 -0.3789
  366MPD2    C2 5476   0.629   1.783  15.001 -0.2937  0.0508 -0.2361
  366MPD2    C3 5477   0.728   1.684  15.006  0.8455  0.3454 -0.0882
  366MPD2    C4 5478   0.864   1.717  15.019  0.5593  0.6191  0.0270
  366MPD2    C5 5479   0.889   1.850  15.044 -0.0768  0.6654  0.2046
  366MPD2     H 5480   0.527   1.747  14.993 -0.3759 -0.6982  3.9648
  366MPD2    H1 5481   0.939   1.640  15.026  0.0971  0.1521 -0.1320
  366MPD2    H2 5482   0.816   2.040  15.108  1.2443 -0.7883  1.0539
  366MPD2    H3 5483   0.994   1.872  15.061  0.1356  0.7148 -1.1894
  366MPD2     N 5484   0.681   1.553  14.998 -0.4140  0.5794 -0.6545
  366MPD2    H5 5485   0.582   1.545  14.974 -0.0452 -1.3260 -1.5166
  366MPD2    N1 5486   0.544   1.987  15.094  0.2061  0.0799 -0.4294
  366MPD2    H7 5487   0.452   1.948  15.074  0.2077 -0.1834  0.0803
  367TMC3    C1 5488   0.436   2.105  15.250  0.4343 -0.0934 -0.0660
  367TMC3    C2 5489   0.453   2.119  15.384 -0.1076 -0.0342 -0.1593
  367TMC3    C3 5490   0.354   2.073  15.463  0.2579  0.0977  0.2470
  367TMC3    C4 5491   0.325   2.038  15.198 -0.0900 -0.8282  0.0336
  367TMC3    C5 5492   0.232   1.982  15.279  0.6889 -0.1096  0.1241
  367TMC3    C6 5493   0.251   1.991  15.413 -0.0592  0.2960 -0.2533
  367TMC3     C 5494   0.562   2.089  15.180 -0.7682 -0.4167 -0.1588
  367TMC3     O 5495   0.661   2.133  15.236  0.2804 -0.1416 -0.2368
  367TMC3     H 5496   0.549   2.159  15.414 -0.7341  0.0435  1.7385
  367TMC3    H1 5497   0.308   2.064  15.095 -2.9817 -0.7799  0.5096
  367TMC3    H2 5498   0.174   1.954  15.479  0.6120 -0.1511  0.2841
  367TMC3    C7 5499   0.092   1.977  15.228 -0.0891  0.8456 -0.0918
  367TMC3    C8 5500   0.421   2.012  15.571  0.1250 -0.0795  0.1636
  367TMC3    O1 5501   0.011   2.027  15.308 -0.2686 -0.0774  0.3047
  367TMC3    O2 5502   0.414   1.891  15.594 -0.4284 -0.0939 -0.2214
  368MPD2     C 5503   1.860   3.007  12.936  0.0733  0.3738  0.4716
  368MPD2    C1 5504   1.874   3.146  12.938  0.5503  0.4017  0.1761
  368MPD2    C2 5505   1.955   3.194  12.835  0.1448  0.2539  0.3825
  368MPD2    C3 5506   2.040   3.114  12.754  0.1431 -0.0560 -0.1857
  368MPD2    C4 5507   2.037   2.983  12.766  0.5115 -0.0966 -0.4680
  368MPD2    C5 5508   1.941   2.936  12.850  0.2271  0.1316  0.4060
  368MPD2     H 5509   1.969   3.301  12.825 -1.4402  0.4991  0.7913
  368MPD2    H1 5510   2.095   2.921  12.699 -1.3801 -0.1492 -2.0694
  368MPD2    H2 5511   1.804   2.952  13.011 -0.0612 -0.5776 -0.3291
  368MPD2    H3 5512   1.950   2.830  12.872 -2.3213 -0.3712 -0.9135
  368MPD2     N 5513   2.132   3.168  12.660 -0.7065 -0.1552  0.5043
  368MPD2    H5 5514   2.190   3.109  12.601  0.3593  1.5644 -0.1691
  368MPD2    N1 5515   1.785   3.217  13.016  0.0657  0.1507 -0.2699
  368MPD2    H7 5516   1.715   3.167  13.070  0.0072  1.0599  0.4908
  369TMC3    C1 5517   1.622   3.399  13.043  0.1922  0.5044 -0.9359
  369TMC3    C2 5518   1.597   3.524  12.994  0.1670 -0.0674 -0.4182
  369TMC3    C3 5519   1.468   3.547  12.950 -0.1869 -0.4390  0.1943
  369TMC3    C4 5520   1.524   3.304  13.041  0.1080  0.7109  0.2742
  369TMC3    C5 5521   1.398   3.332  13.000 -0.6555  0.5571  0.3513
  369TMC3    C6 5522   1.370   3.457  12.951  1.0076 -0.6221  0.6187
  369TMC3     C 5523   1.745   3.350  12.987 -0.1481 -0.1982  0.2000
  369TMC3     O 5524   1.801   3.434  12.919 -0.0837 -0.2960  0.2707
  369TMC3     H 5525   1.672   3.602  12.986 -1.1236  1.3135  1.0182
  369TMC3    H1 5526   1.549   3.206  13.080  0.0871 -0.2307 -2.0453
  369TMC3    H2 5527   1.273   3.475  12.905  0.3029 -0.3622  2.2286
  369TMC3    C7 5528   1.296   3.235  13.034 -0.4431  0.1032 -0.1944
  369TMC3    C8 5529   1.485   3.578  12.808 -0.2644  0.1995 -0.2657
  369TMC3    O1 5530   1.321   3.155  13.123  0.1167  0.4850  0.4273
  369TMC3    O2 5531   1.387   3.627  12.754 -0.1290 -0.0869 -0.0634
  370TMC3    C1 5532   1.115   3.798  16.238  0.5489  0.2388 -0.2208
  370TMC3    C2 5533   1.019   3.757  16.323  0.5568 -0.4036  0.4126
  370TMC3    C3 5534   0.964   3.630  16.303 -0.2347 -0.0015 -0.6084
  370TMC3    C4 5535   1.142   3.747  16.116 -0.6019  0.0151  0.3370
  370TMC3    C5 5536   1.086   3.625  16.096  0.5970 -0.3526  0.6238
  370TMC3    C6 5537   1.006   3.562  16.194  0.4671 -0.2050  0.0002
  370TMC3     C 5538   1.215   3.882  16.291  0.1546  0.1592 -0.2408
  370TMC3     O 5539   1.231   3.886  16.411  0.2280  0.1574  0.3245
  370TMC3     H 5540   1.020   3.801  16.422  0.6037 -1.5616  0.9232
  370TMC3    H1 5541   1.224   3.770  16.048  0.4057 -2.4751  0.7388
  370TMC3    H2 5542   0.957   3.471  16.162 -2.4716  1.8073 -1.2207
  370TMC3    C7 5543   1.139   3.540  15.988  0.4964  0.6187 -0.1601
  370TMC3    C8 5544   0.919   3.555  16.428  0.6317  0.1925  0.4371
  370TMC3    O1 5545   1.182   3.595  15.890  0.1352  0.2146 -0.4844
  370TMC3    O2 5546   0.909   3.432  16.413 -0.0704 -0.1073  0.6899
  371TMC3    C1 5547   2.147   1.791  15.649  0.2805 -0.1547  0.3499
  371TMC3    C2 5548   2.061   1.791  15.753  0.1119 -0.0956  0.0342
  371TMC3    C3 5549   2.000   1.907  15.791 -0.7211 -0.1817  0.6821
  371TMC3    C4 5550   2.181   1.909  15.586 -0.4440 -0.1520  0.6779
  371TMC3    C5 5551   2.119   2.022  15.623 -0.0455  0.2793  0.1364
  371TMC3    C6 5552   2.027   2.023  15.730 -0.4126  0.2535 -0.6185
  371TMC3     C 5553   2.229   1.672  15.632 -0.1233  0.2048 -0.0439
  371TMC3     O 5554   2.329   1.682  15.561  0.1338  0.3160  0.0484
  371TMC3     H 5555   2.032   1.697  15.797 -1.1806  0.0966 -0.4095
  371TMC3    H1 5556   2.264   1.904  15.517  0.2525 -0.8452  1.5617
  371TMC3    H2 5557   1.985   2.118  15.762  1.4289 -0.7743  4.7837
  371TMC3    C7 5558   2.164   2.156  15.580 -0.2429  0.1454  0.5735
  371TMC3    C8 5559   1.921   1.897  15.910  0.0605 -0.4805  0.0408
  371TMC3    O1 5560   2.151   2.255  15.647 -0.5194  0.0928 -0.6481
  371TMC3    O2 5561   1.910   1.785  15.956  0.2533  0.5042 -0.4345
  372MPD2     C 5562   1.829   3.524  13.321  0.0576  0.1106  0.3943
  372MPD2    C1 5563   1.927   3.432  13.329  0.2367 -0.0297  0.3592
  372MPD2    C2 5564   1.890   3.303  13.340  0.3301 -0.3954  0.2831
  372MPD2    C3 5565   1.761   3.258  13.354  0.2249 -0.3811 -0.6984
  372MPD2    C4 5566   1.657   3.356  13.354  0.0253  0.2845 -0.0027
  372MPD2    C5 5567   1.695   3.488  13.346  0.2255 -0.0034  0.3119
  372MPD2     H 5568   1.963   3.223  13.344  0.3384 -0.4046 -0.0166
  372MPD2    H1 5569   1.552   3.332  13.361 -0.3298  1.7133 -0.2768
  372MPD2    H2 5570   1.849   3.630  13.311  0.2369 -0.0189 -0.5689
  372MPD2    H3 5571   1.614   3.560  13.357  1.2754  0.6876  3.4085
  372MPD2     N 5572   1.748   3.121  13.384  0.3559  0.2428  0.3152
  372MPD2    H5 5573   1.833   3.066  13.391  0.1266  0.1107  2.0563
  372MPD2    N1 5574   2.064   3.466  13.321 -0.0073  0.3740 -0.5120
  372MPD2    H7 5575   2.125   3.388  13.341  0.7070  1.0332 -0.0869
  373TMC3    C1 5576   1.660   2.935  13.481 -0.0978 -0.4615  1.1562
  373TMC3    C2 5577   1.636   2.938  13.612 -0.1372  0.2571 -0.2932
  373TMC3    C3 5578   1.699   2.843  13.689  0.5618  0.1788 -0.4277
  373TMC3    C4 5579   1.762   2.863  13.424 -0.2107 -0.2037  0.0492
  373TMC3    C5 5580   1.830   2.776  13.510  0.0316 -0.3025  0.3283
  373TMC3    C6 5581   1.805   2.763  13.648 -0.4707 -0.5188  0.0637
  373TMC3     C 5582   1.632   3.054  13.407  0.2429  1.1245 -0.3938
  373TMC3     O 5583   1.512   3.086  13.401 -0.0352 -0.3785 -0.0403
  373TMC3     H 5584   1.555   3.002  13.646 -0.3787 -0.0488 -0.2924
  373TMC3    H1 5585   1.784   2.857  13.318  0.8680  1.7900  0.1580
  373TMC3    H2 5586   1.852   2.689  13.712  0.9362  0.3550  0.0235
  373TMC3    C7 5587   1.929   2.685  13.447  0.1003 -0.3460 -0.3960
  373TMC3    C8 5588   1.724   2.891  13.819 -0.6942  1.1064 -0.1758
  373TMC3    O1 5589   1.917   2.658  13.326  0.1343  0.3700 -0.3322
  373TMC3    O2 5590   1.842   2.888  13.863  0.3968  0.1739 -0.2083
  374TMC3    C1 5591   2.630   3.144   9.783  0.4678 -0.2065  0.0923
  374TMC3    C2 5592   2.735   3.223   9.807  0.4684 -0.0958 -0.0744
  374TMC3    C3 5593   2.777   3.310   9.708 -1.0141  0.6455  0.0509
  374TMC3    C4 5594   2.579   3.125   9.662  0.1458  0.7032 -0.1493
  374TMC3    C5 5595   2.626   3.210   9.564 -0.0124 -0.3630 -0.1204
  374TMC3    C6 5596   2.718   3.306   9.586  0.1280  0.1438  0.1734
  374TMC3     C 5597   2.539   3.108   9.893  0.7066 -0.0544  0.1635
  374TMC3     O 5598   2.450   3.026   9.869  0.0111 -0.4440 -0.1697
  374TMC3     H 5599   2.768   3.233   9.910 -1.9759 -1.2443  0.8232
  374TMC3    H1 5600   2.496   3.056   9.649  2.7262 -2.3111 -0.5375
  374TMC3    H2 5601   2.754   3.365   9.502 -1.2356 -0.2290 -0.6682
  374TMC3    C7 5602   2.544   3.230   9.451  0.6607 -0.6394  0.8448
  374TMC3    C8 5603   2.891   3.398   9.718  0.0375 -0.1342  0.0687
  374TMC3    O1 5604   2.529   3.346   9.413 -0.3019 -0.1085  0.0431
  374TMC3    O2 5605   2.928   3.466   9.623 -0.5338  0.8539 -0.8329
  375MPD2     C 5606   2.686   3.848  17.441  0.4716  0.6136 -0.6916
  375MPD2    C1 5607   2.593   3.877  17.345 -0.2249 -0.8022  0.1181
  375MPD2    C2 5608   2.626   3.841  17.209  0.8574  0.0988 -0.7230
  375MPD2    C3 5609   2.735   3.762  17.183  0.4941  0.2169 -0.5921
  375MPD2    C4 5610   2.820   3.718  17.288 -0.2886  0.4049  0.4465
  375MPD2    C5 5611   2.797   3.764  17.412  0.2415 -0.4290  0.3443
  375MPD2     H 5612   2.555   3.878  17.135 -0.0027 -1.9092 -0.8935
  375MPD2    H1 5613   2.910   3.662  17.266 -0.7644  0.6373 -2.0769
  375MPD2    H2 5614   2.663   3.873  17.544 -1.0730 -0.8430 -0.6769
  375MPD2    H3 5615   2.871   3.740  17.488  0.2999  0.7489  0.6768
  375MPD2     N 5616   2.761   3.711  17.047 -0.1791  0.1769 -0.3305
  375MPD2    H5 5617   2.855   3.675  17.036 -0.0157 -0.0296  1.7263
  375MPD2    N1 5618   2.468   3.939  17.365  0.1434 -0.0179 -0.0098
  375MPD2    H7 5619   2.400   3.939  17.290 -2.0987 -3.1421  2.0133
  376TMC3    C1 5620   2.714   3.666  16.813 -0.2669 -0.3200  0.6540
  376TMC3    C2 5621   2.852   3.671  16.788  0.1798 -0.4839  0.5523
  376TMC3    C3 5622   2.889   3.628  16.666 -0.3437  0.2727 -0.1813
  376TMC3    C4 5623   2.615   3.632  16.726 -0.2804  0.2536  0.0197
  376TMC3    C5 5624   2.665   3.588  16.609 -0.5976 -0.2991 -0.0521
  376TMC3    C6 5625   2.799   3.586  16.573  0.1204 -0.6814 -0.2412
  376TMC3     C 5626   2.670   3.708  16.944  0.4566 -0.4182 -0.1056
  376TMC3     O 5627   2.553   3.713  16.962  0.2046  0.3924 -0.3404
  376TMC3     H 5628   2.918   3.729  16.853 -0.2865 -0.9132  1.4179
  376TMC3    H1 5629   2.510   3.652  16.742 -0.3239  0.5731 -0.6513
  376TMC3    H2 5630   2.845   3.555  16.479  1.8613  1.8288 -0.2197
  376TMC3    C7 5631   2.580   3.594  16.496 -0.6551 -0.1287  0.3955
  376TMC3    C8 5632   3.019   3.666  16.613  0.3372 -0.0967  0.8975
  376TMC3    O1 5633   2.629   3.643  16.394 -0.3771 -0.4526  0.1398
  376TMC3    O2 5634   3.027   3.672  16.490  0.0863 -0.9438 -0.2730
  377MPD2     C 5635   0.510   3.422  12.110 -0.1202  0.1139 -0.3367
  377MPD2    C1 5636   0.561   3.393  12.238  0.2301 -0.2665  0.4139
  377MPD2    C2 5637   0.482   3.408  12.347  0.0672  0.2807  0.3634
  377MPD2    C3 5638   0.352   3.453  12.327 -0.6398  0.0919 -0.1037
  377MPD2    C4 5639   0.305   3.473  12.204 -0.1164  0.4900 -0.6480
  377MPD2    C5 5640   0.381   3.466  12.096  0.1398  0.3778  0.4735
  377MPD2     H 5641   0.507   3.373  12.447  0.6046 -0.8696 -0.1697
  377MPD2    H1 5642   0.198   3.482  12.189  0.0865  3.0155 -0.6013
  377MPD2    H2 5643   0.572   3.419  12.021 -1.3489  1.8214 -1.2602
  377MPD2    H3 5644   0.344   3.498  11.999  0.4853 -2.8403 -0.6971
  377MPD2     N 5645   0.268   3.455  12.441 -0.5956 -0.0967 -0.0169
  377MPD2    H5 5646   0.171   3.443  12.417 -0.6702  0.1177  0.1770
  377MPD2    N1 5647   0.699   3.357  12.238  0.1679  0.0473 -0.2806
  377MPD2    H7 5648   0.752   3.360  12.151  2.8062  3.1494  1.4783
  378TMC3    C1 5649   1.073   3.276  12.197 -0.3111  0.1220 -0.3584
  378TMC3    C2 5650   0.936   3.286  12.204  0.7253 -0.1610  0.3611
  378TMC3    C3 5651   0.900   3.292  12.335  0.0027 -0.5286  0.6242
  378TMC3    C4 5652   1.164   3.295  12.295  0.0976 -0.2405  0.0873
  378TMC3    C5 5653   1.113   3.325  12.423  0.7001  0.0541  0.0659
  378TMC3    C6 5654   0.980   3.308  12.441  0.1648  0.5067  0.4886
  378TMC3     C 5655   1.126   3.272  12.055  0.3488  0.7383 -0.3217
  378TMC3     O 5656   1.039   3.295  11.971 -0.8816 -0.5429  0.2270
  378TMC3     H 5657   0.878   3.257  12.117  3.0042 -1.3706 -0.7571
  378TMC3    H1 5658   1.271   3.297  12.277  0.1671  3.4973  0.8533
  378TMC3    H2 5659   0.945   3.310  12.544 -3.5797 -2.0241 -0.7533
  378TMC3    C7 5660   1.197   3.324  12.545 -0.0643  0.3266 -0.3292
  378TMC3    C8 5661   0.762   3.342  12.356  0.0558  0.5920  0.2699
  378TMC3    O1 5662   1.142   3.288  12.649  0.0379  0.3682  0.4204
  378TMC3    O2 5663   0.741   3.371  12.474  0.0091  0.0705  0.7477
  379MPD2     C 5664   1.161   0.997  16.130 -0.3232 -0.0279 -0.0124
  379MPD2    C1 5665   1.141   1.121  16.193  0.1841 -0.3961  0.1479
  379MPD2    C2 5666   1.210   1.155  16.308  0.0842 -0.0718 -1.1174
  379MPD2    C3 5667   1.289   1.056  16.370  0.4567 -0.3275 -1.1495
  379MPD2    C4 5668   1.296   0.937  16.311 -0.4230  0.4980  0.1046
  379MPD2    C5 5669   1.237   0.900  16.194 -0.0741 -0.8212  0.3941
  379MPD2     H 5670   1.192   1.249  16.360  0.3157 -0.4047 -0.4268
  379MPD2    H1 5671   1.351   0.860  16.364 -0.5528 -1.1607 -2.1865
  379MPD2    H2 5672   1.144   0.970  16.027  3.0350 -1.9169 -0.1065
  379MPD2    H3 5673   1.250   0.795  16.169  1.2175 -0.6693  0.3966
  379MPD2     N 5674   1.363   1.074  16.494  0.6360 -0.3402 -0.7739
  379MPD2    H5 5675   1.427   1.001  16.522  1.5878  0.7181 -0.2266
  379MPD2    N1 5676   1.076   1.216  16.113 -0.3181 -0.0072  0.2131
  379MPD2    H7 5677   1.037   1.172  16.030  1.1062  0.1939 -0.5645
  380TMC3    C1 5678   1.024   1.421  16.021 -0.0993  0.9437  0.6566
  380TMC3    C2 5679   1.055   1.367  15.903 -0.0728  0.2544 -0.4373
  380TMC3    C3 5680   1.032   1.448  15.792 -0.7237  0.5981  0.7540
  380TMC3    C4 5681   0.978   1.546  16.033  0.3129 -0.0145 -0.5368
  380TMC3    C5 5682   0.936   1.611  15.918  0.0962  0.2383 -0.3165
  380TMC3    C6 5683   0.978   1.571  15.794  0.3288  0.2244  0.2832
  380TMC3     C 5684   1.066   1.348  16.133  0.0505  0.5850 -0.0542
  380TMC3     O 5685   1.084   1.410  16.238  0.2674 -0.2463 -0.2037
  380TMC3     H 5686   1.118   1.283  15.877  2.1387  1.4107  1.1599
  380TMC3    H1 5687   0.968   1.588  16.132  1.3330  2.0795 -1.3111
  380TMC3    H2 5688   0.971   1.622  15.699 -0.8137  1.1565  0.8639
  380TMC3    C7 5689   0.907   1.753  15.937  0.3126 -0.6159  0.1636
  380TMC3    C8 5690   1.050   1.391  15.663 -0.7209 -0.4001 -0.0776
  380TMC3    O1 5691   0.958   1.805  16.038 -0.7263 -0.0155 -0.3600
  380TMC3    O2 5692   1.109   1.467  15.586 -0.4660  0.2026 -0.2627
  381TMC3    C1 5693   0.895   2.820  16.370  0.4577 -0.0074 -0.0696
  381TMC3    C2 5694   1.005   2.899  16.339  0.3597 -0.6303 -0.9916
  381TMC3    C3 5695   1.009   3.017  16.408 -0.4077  0.2158 -0.6186
  381TMC3    C4 5696   0.801   2.850  16.463 -0.3497  0.8419 -0.2385
  381TMC3    C5 5697   0.816   2.966  16.524 -0.1668 -0.0366  0.0254
  381TMC3    C6 5698   0.921   3.054  16.505 -0.4283 -0.9596 -0.3432
  381TMC3     C 5699   0.882   2.693  16.306  0.2113  0.2095 -0.2460
  381TMC3     O 5700   0.803   2.611  16.354  0.6893  0.3241  0.3443
  381TMC3     H 5701   1.073   2.868  16.260  2.4989  1.1799  0.1378
  381TMC3    H1 5702   0.714   2.792  16.491  0.6329 -0.3171  0.4131
  381TMC3    H2 5703   0.935   3.147  16.559  1.4390 -1.2460 -0.3357
  381TMC3    C7 5704   0.755   2.980  16.653  0.2121 -0.0316  0.6055
  381TMC3    C8 5705   1.127   3.086  16.380  0.3995  0.0085  0.0529
  381TMC3    O1 5706   0.740   2.875  16.718 -0.3479  0.7610  0.5770
  381TMC3    O2 5707   1.203   3.026  16.308  0.7885  0.0990  0.0406
  382MPD2     C 5708   0.325   0.448  17.154 -0.2790  0.0387 -0.1230
  382MPD2    C1 5709   0.213   0.530  17.146 -0.0615  1.0591 -0.3595
  382MPD2    C2 5710   0.108   0.494  17.227 -0.1683 -0.5275 -0.1397
  382MPD2    C3 5711   0.116   0.382  17.312 -0.6996 -0.8645 -0.6855
  382MPD2    C4 5712   0.221   0.301  17.314  0.0934 -0.2495 -0.0579
  382MPD2    C5 5713   0.326   0.337  17.238  0.1675  0.4344  0.9177
  382MPD2     H 5714   0.020   0.557  17.231  0.2352  0.0527 -0.3360
  382MPD2    H1 5715   0.237   0.211  17.372 -1.0294 -0.8343 -0.6699
  382MPD2    H2 5716   0.406   0.472  17.085 -0.3600  0.8313  0.0583
  382MPD2    H3 5717   0.414   0.273  17.240 -0.5300 -0.5366  0.7436
  382MPD2     N 5718   4.722   0.343  17.389  0.0539  0.4930 -0.8260
  382MPD2    H5 5719   4.720   0.244  17.413 -0.4796  1.0105  1.3111
  382MPD2    N1 5720   0.207   0.651  17.070  0.0691 -0.3427  0.4679
  382MPD2    H7 5721   0.136   0.711  17.110 -0.1332  0.6009 -1.3433
  383TMC3    C1 5722   4.511   0.361  17.483  0.1829 -0.3854  0.0647
  383TMC3    C2 5723   4.473   0.241  17.435  0.2263  0.2851  0.2239
  383TMC3    C3 5724   4.353   0.194  17.477  0.6237  0.5240  0.4676
  383TMC3    C4 5725   4.430   0.435  17.572 -0.4130  0.6052  0.1688
  383TMC3    C5 5726   4.317   0.375  17.620 -0.3206 -0.1548  0.1907
  383TMC3    C6 5727   4.280   0.253  17.574 -0.2281 -0.2060 -0.6407
  383TMC3     C 5728   4.621   0.431  17.426 -0.6295  0.4326  0.5190
  383TMC3     O 5729   4.623   0.554  17.435 -0.2506 -0.0551 -0.1700
  383TMC3     H 5730   4.536   0.195  17.360  0.2304  0.3870  0.1642
  383TMC3    H1 5731   4.455   0.532  17.613 -1.7301  0.7199  0.6903
  383TMC3    H2 5732   4.184   0.216  17.608  1.3339 -2.3775  1.3750
  383TMC3    C7 5733   4.249   0.424   0.038 -0.3672  0.3408 -0.1460
  383TMC3    C8 5734   4.288   0.096  17.396 -0.5073 -0.0633  0.2295
  383TMC3    O1 5735   4.137   0.389   0.065 -0.9654 -0.4445  0.0769
  383TMC3    O2 5736   4.194   0.034  17.445 -0.0894  0.3259 -0.6000
  384MPD2     C 5737   2.089   1.243  11.948  0.7841 -0.4438  0.1563
  384MPD2    C1 5738   2.073   1.186  12.069  0.4337 -0.2547  0.5793
  384MPD2    C2 5739   2.126   1.068  12.104 -0.3264 -0.3020 -0.2413
  384MPD2    C3 5740   2.182   0.986  12.001  0.4471  0.2560  0.2536
  384MPD2    C4 5741   2.184   1.042  11.874  0.0405  0.0655 -0.2991
  384MPD2    C5 5742   2.135   1.168  11.849  0.7517  0.5393  0.1710
  384MPD2     H 5743   2.112   1.035  12.206  1.5349 -0.0188  0.1059
  384MPD2    H1 5744   2.218   0.985  11.788  1.0459  1.6106 -0.9530
  384MPD2    H2 5745   2.044   1.340  11.929  0.7018 -0.1013  2.1004
  384MPD2    H3 5746   2.141   1.205  11.747  0.9529  0.8059  0.2769
  384MPD2     N 5747   2.220   0.851  12.025 -0.0949  0.1712  0.4007
  384MPD2    H5 5748   2.245   0.795  11.944 -0.2700 -1.9014  1.7505
  384MPD2    N1 5749   2.000   1.252  12.171  0.2757  0.0801  0.2258
  384MPD2    H7 5750   1.983   1.190  12.249  2.3123 -1.8754 -0.8958
  385TMC3    C1 5751   2.257   0.651  12.147  0.2331  0.5799  0.2128
  385TMC3    C2 5752   2.167   0.581  12.079 -1.1904 -0.5983  0.5965
  385TMC3    C3 5753   2.105   0.477  12.149 -1.3619 -0.0678  0.7339
  385TMC3    C4 5754   2.290   0.625  12.276 -0.2140 -0.3085 -0.3732
  385TMC3    C5 5755   2.225   0.529  12.349 -0.6147  0.0930 -0.0957
  385TMC3    C6 5756   2.128   0.459  12.283 -0.5971  0.8087  0.2086
  385TMC3     C 5757   2.235   0.797  12.144 -0.7469  0.1213  0.2164
  385TMC3     O 5758   2.230   0.848  12.256  0.4327  0.2114  0.2859
  385TMC3     H 5759   2.138   0.614  11.980 -0.3393 -0.2445  0.4600
  385TMC3    H1 5760   2.367   0.683  12.327  1.2153 -2.8326  0.3506
  385TMC3    H2 5761   2.067   0.385  12.333  0.2801 -0.6308 -0.8596
  385TMC3    C7 5762   2.181   0.568  12.480  0.5170 -0.5994  0.0674
  385TMC3    C8 5763   1.987   0.414  12.096  0.2638  1.0007  0.1546
  385TMC3    O1 5764   2.136   0.475  12.545 -0.5063 -0.5363 -0.0249
  385TMC3    O2 5765   1.919   0.346  12.165  0.7398 -0.3845  0.7416
  386TMC3    C1 5766   1.943   3.197  11.251  0.2736 -0.0270 -0.3283
  386TMC3    C2 5767   1.992   3.230  11.128 -0.4552 -0.2609 -0.3078
  386TMC3    C3 5768   1.934   3.338  11.070  0.0203 -0.3156  0.4355
  386TMC3    C4 5769   1.843   3.266  11.315 -0.2547 -0.3723  0.4971
  386TMC3    C5 5770   1.785   3.369  11.247  0.3574 -0.1366  0.8316
  386TMC3    C6 5771   1.829   3.404  11.122  0.6637  0.0780 -0.3541
  386TMC3     C 5772   2.056   3.164  11.328  0.0954 -0.0495 -0.5023
  386TMC3     O 5773   2.147   3.100  11.280 -0.6548  0.0001  0.4711
  386TMC3     H 5774   2.082   3.189  11.082 -0.2941 -0.2903  0.0353
  386TMC3    H1 5775   1.799   3.232  11.408 -0.5401  0.4728  0.6728
  386TMC3    H2 5776   1.768   3.476  11.070  0.3770 -0.1840 -0.3790
  386TMC3    C7 5777   1.667   3.423  11.316 -0.1650  0.3498 -0.1393
  386TMC3    C8 5778   1.962   3.354  10.935 -0.0663 -0.4981 -0.4942
  386TMC3    O1 5779   1.639   3.380  11.429 -0.2810 -0.4973  0.0146
  386TMC3    O2 5780   1.988   3.247  10.877 -0.2596  0.0533  0.4174
  387MPD2     C 5781   4.497   4.022   9.644 -0.3495 -0.0651 -0.3330
  387MPD2    C1 5782   4.594   3.978   9.730 -0.2081 -0.2067 -0.3502
  387MPD2    C2 5783   4.623   3.846   9.734 -0.1935 -0.6611 -0.2780
  387MPD2    C3 5784   4.564   3.753   9.658  0.2443  0.1255  0.3778
  387MPD2    C4 5785   4.472   3.793   9.561  1.0892 -1.1365 -0.4534
  387MPD2    C5 5786   4.436   3.927   9.557  0.2234 -0.3296 -0.6327
  387MPD2     H 5787   4.713   3.818   9.787 -1.0844  0.0289  1.6110
  387MPD2    H1 5788   4.425   3.723   9.492 -1.7362  1.0248 -0.7583
  387MPD2    H2 5789   4.462   4.124   9.637  0.4417  0.2474  0.3112
  387MPD2    H3 5790   4.356   3.952   9.489  0.7814 -0.3797 -1.3036
  387MPD2     N 5791   4.608   3.622   9.674 -0.4917  0.3651 -0.0923
  387MPD2    H5 5792   4.693   3.613   9.730 -0.9666  2.2858  0.9377
  387MPD2    N1 5793   4.658   4.050   9.833  0.7726 -0.0225 -0.3465
  387MPD2    H7 5794   0.008   4.004   9.884 -0.2186  0.0353  1.1229
  388TMC3    C1 5795   4.638   4.190  10.035 -0.3305 -0.8706  0.3009
  388TMC3    C2 5796   4.558   4.279  10.103  0.1797  0.5371  0.0292
  388TMC3    C3 5797   4.573   4.276  10.239  0.0546  0.1633  0.3346
  388TMC3    C4 5798   0.003   4.104  10.096 -0.6511  0.2310  0.3534
  388TMC3    C5 5799   0.023   4.113  10.230  0.0249  0.3951 -0.9409
  388TMC3    C6 5800   4.667   4.198  10.301 -0.2112  0.3780 -0.5183
  388TMC3     C 5801   4.595   4.157   9.900  0.3473  0.0729  0.7283
  388TMC3     O 5802   4.484   4.192   9.873 -0.6149  0.0978 -0.4434
  388TMC3     H 5803   4.496   4.353  10.054  1.4712  0.8394 -1.1577
  388TMC3    H1 5804   0.054   4.026  10.040 -1.2587 -1.0783  1.6226
  388TMC3    H2 5805   4.681   4.199  10.409  1.1369  2.3771 -0.7206
  388TMC3    C7 5806   0.057   3.992  10.303  0.1575  0.0250  0.8955
  388TMC3    C8 5807   4.474   4.351  10.314  0.0419 -0.5307  0.1641
  388TMC3    O1 5808   0.000   3.971  10.407  0.6289  0.6346 -0.5415
  388TMC3    O2 5809   4.378   4.380  10.249 -0.6166 -0.5118 -0.0415
  389MPD2     C 5810   3.924   1.898  11.331 -0.6724 -0.5617  0.0288
  389MPD2    C1 5811   3.878   1.802  11.249  0.3418  0.3706  0.6308
  389MPD2    C2 5812   3.782   1.710  11.295 -0.1670 -0.5429  0.3747
  389MPD2    C3 5813   3.736   1.718  11.422  1.0996 -0.6717  0.3931
  389MPD2    C4 5814   3.787   1.810  11.507 -0.4214  0.3254 -0.5767
  389MPD2    C5 5815   3.884   1.900  11.456 -0.4299  0.8716  0.3142
  389MPD2     H 5816   3.739   1.641  11.223  1.7575 -1.0518 -0.2984
  389MPD2    H1 5817   3.740   1.822  11.605  1.2395  2.3185 -0.0166
  389MPD2    H2 5818   4.000   1.966  11.294 -0.8464 -0.8087 -0.7868
  389MPD2    H3 5819   3.941   1.968  11.519  0.0168  0.3240  0.5056
  389MPD2     N 5820   3.623   1.636  11.459 -0.3502 -0.6323 -0.2969
  389MPD2    H5 5821   3.595   1.645  11.556  0.8723  1.3106 -0.1202
  389MPD2    N1 5822   3.906   1.819  11.110 -0.4994  0.2806  0.6549
  389MPD2    H7 5823   3.936   1.912  11.082 -0.2452 -0.3782 -1.2766
  390TMC3    C1 5824   3.439   1.494  11.444 -0.0468  0.5356  0.5769
  390TMC3    C2 5825   3.402   1.505  11.577  0.0307  0.3035  0.2845
  390TMC3    C3 5826   3.278   1.470  11.619  0.2138  0.2522 -0.5720
  390TMC3    C4 5827   3.344   1.440  11.357  0.1130 -0.4361  0.9893
  390TMC3    C5 5828   3.219   1.403  11.405  0.9446 -0.0774 -0.7235
  390TMC3    C6 5829   3.186   1.426  11.536  0.5155  0.3545  0.1480
  390TMC3     C 5830   3.538   1.573  11.374 -0.8100  0.2717 -0.0679
  390TMC3     O 5831   3.547   1.557  11.254  0.0999  0.6122  0.1660
  390TMC3     H 5832   3.452   1.547  11.663  0.7793 -2.5496  1.2111
  390TMC3    H1 5833   3.350   1.433  11.249 -1.0132 -0.1552  0.9137
  390TMC3    H2 5834   3.089   1.424  11.585  0.7629 -2.8442  0.5265
  390TMC3    C7 5835   3.155   1.285  11.351 -0.1306  0.6193 -0.2065
  390TMC3    C8 5836   3.281   1.415  11.748 -0.3690 -0.7898 -0.2302
  390TMC3    O1 5837   3.202   1.228  11.254  0.3375 -0.8343  0.2926
  390TMC3    O2 5838   3.335   1.473  11.840  0.1726 -0.7454  0.1586
  391MPD2     C 5839   2.918   3.349  11.263  0.3452 -0.3777 -0.3146
  391MPD2    C1 5840   3.055   3.370  11.256 -0.4305 -0.2874 -0.0526
  391MPD2    C2 5841   3.111   3.391  11.134 -0.2971 -0.1599 -0.3616
  391MPD2    C3 5842   3.037   3.399  11.023 -0.0973 -0.3495 -0.2965
  391MPD2    C4 5843   2.900   3.383  11.035  0.4452  0.5816 -0.2054
  391MPD2    C5 5844   2.843   3.364  11.151  0.7213 -0.3218  0.0572
  391MPD2     H 5845   3.220   3.395  11.128 -0.2494 -2.8293 -1.2811
  391MPD2    H1 5846   2.833   3.384  10.950 -0.7107 -0.6132  0.6962
  391MPD2    H2 5847   2.871   3.333  11.359 -1.7411  0.6134 -1.1749
  391MPD2    H3 5848   2.740   3.337  11.168  0.4790 -0.1121 -1.0747
  391MPD2     N 5849   3.116   3.406  10.904 -0.3860  0.3603  0.1221
  391MPD2    H5 5850   3.214   3.422  10.921  0.2999 -0.3658 -3.0239
  391MPD2    N1 5851   3.130   3.364  11.376 -0.2419 -0.2822 -0.4404
  391MPD2    H7 5852   3.088   3.318  11.457 -1.4333  2.1424  0.3184
  392TMC3    C1 5853   3.162   3.436  10.672 -0.1549 -0.4348 -0.0582
  392TMC3    C2 5854   3.135   3.404  10.540 -0.1030 -0.0933  0.0304
  392TMC3    C3 5855   3.234   3.424  10.451  1.0185 -0.6229 -0.0039
  392TMC3    C4 5856   3.282   3.498  10.706 -0.3111  0.0506 -0.0771
  392TMC3    C5 5857   3.372   3.526  10.604  0.3113 -0.7072 -0.5070
  392TMC3    C6 5858   3.345   3.493  10.477 -0.0613  0.0160  0.2344
  392TMC3     C 5859   3.065   3.408  10.776  0.5690 -0.2662  0.0878
  392TMC3     O 5860   2.950   3.391  10.740 -0.4431 -0.0101  0.0866
  392TMC3     H 5861   3.051   3.340  10.515 -1.2883  1.4927 -0.1322
  392TMC3    H1 5862   3.293   3.534  10.808  0.6100 -0.9572  0.1826
  392TMC3    H2 5863   3.414   3.525  10.399 -0.3291 -0.3434 -0.1495
  392TMC3    C7 5864   3.500   3.597  10.638  0.5304  0.1939  0.6771
  392TMC3    C8 5865   3.191   3.409  10.307 -0.7999  0.7347 -0.1933
  392TMC3    O1 5866   3.536   3.588  10.758 -0.0397  0.0268  0.1142
  392TMC3    O2 5867   3.096   3.341  10.283 -0.3823 -0.6936  0.1318
  393TMC3    C1 5868   2.623   0.921  10.736  0.2409 -0.0675  0.1063
  393TMC3    C2 5869   2.513   0.868  10.803 -0.0630  0.6027  0.7462
  393TMC3    C3 5870   2.514   0.734  10.825 -0.4960  0.1921 -0.0931
  393TMC3    C4 5871   2.714   0.835  10.677  0.3153 -0.5926  0.1331
  393TMC3    C5 5872   2.710   0.698  10.699 -0.3020  0.1489  0.3503
  393TMC3    C6 5873   2.610   0.653  10.771 -0.3366 -0.4612 -0.3433
  393TMC3     C 5874   2.636   1.060  10.740  0.0451  0.5642 -0.0061
  393TMC3     O 5875   2.558   1.117  10.814  0.5306  0.0856  0.4496
  393TMC3     H 5876   2.435   0.933  10.841 -0.2069  0.5987  0.4584
  393TMC3    H1 5877   2.813   0.872  10.653  0.4592 -1.4878 -0.6825
  393TMC3    H2 5878   2.598   0.546  10.788  1.1484 -0.4791  0.6827
  393TMC3    C7 5879   2.774   0.608  10.603  0.1074  0.4764  1.0879
  393TMC3    C8 5880   2.412   0.674  10.901  0.3716 -0.3925  0.5236
  393TMC3    O1 5881   2.750   0.491  10.604  0.1505  0.0463 -0.2751
  393TMC3    O2 5882   2.445   0.581  10.974 -0.3965  0.2799 -0.4700
  394TMC3    C1 5883   3.900   1.768  10.877 -0.3666 -0.0856 -0.3050
  394TMC3    C2 5884   3.804   1.716  10.799  0.6176 -0.2109 -0.6379
  394TMC3    C3 5885   3.794   1.765  10.673 -0.5287 -0.2902 -0.2105
  394TMC3    C4 5886   3.960   1.886  10.850 -0.0068 -0.2386  0.0941
  394TMC3    C5 5887   3.951   1.929  10.718 -0.5747  0.0560 -0.2296
  394TMC3    C6 5888   3.866   1.868  10.628  0.1036  0.1504 -0.2939
  394TMC3     C 5889   3.873   1.724  11.013 -0.2113 -0.7070  0.9495
  394TMC3     O 5890   3.838   1.605  11.026 -0.1203 -0.3721  0.2574
  394TMC3     H 5891   3.741   1.634  10.830  1.3778 -0.2631  0.7479
  394TMC3    H1 5892   4.034   1.936  10.912 -1.4494  0.1250  1.5212
  394TMC3    H2 5893   3.867   1.881  10.521 -1.1954 -0.0787 -0.3353
  394TMC3    C7 5894   4.061   2.006  10.658  0.0153 -0.4444  0.6788
  394TMC3    C8 5895   3.722   1.705  10.568  1.0475 -0.1821 -0.2648
  394TMC3    O1 5896   4.115   2.097  10.722  0.5031 -0.7212  0.0143
  394TMC3    O2 5897   3.666   1.776  10.489  0.2045 -0.2304  0.5759
  395TMC3    C1 5898   2.733   3.854  14.760 -0.4768 -0.5898  0.1577
  395TMC3    C2 5899   2.706   3.751  14.845 -0.3940 -0.0804 -0.6448
  395TMC3    C3 5900   2.771   3.747  14.966  0.2224 -0.0328 -0.6061
  395TMC3    C4 5901   2.798   3.970  14.790  0.2865 -0.6833 -0.6750
  395TMC3    C5 5902   2.858   3.966  14.915  0.6016 -0.1269 -0.4203
  395TMC3    C6 5903   2.838   3.861  15.001 -0.9629  0.0056 -0.3411
  395TMC3     C 5904   2.717   3.839  14.616 -0.3574 -0.4647 -0.2787
  395TMC3     O 5905   2.669   3.938  14.564 -0.5059 -0.3017  0.4395
  395TMC3     H 5906   2.648   3.674  14.795 -1.6288  0.1496  0.4259
  395TMC3    H1 5907   2.829   4.045  14.718 -0.1054  0.3661  0.2544
  395TMC3    H2 5908   2.899   3.855  15.090  0.5751 -0.2267 -1.4174
  395TMC3    C7 5909   2.970   4.053  14.943 -0.3453 -0.0730 -0.3358
  395TMC3    C8 5910   2.799   3.623  15.040 -0.0317 -0.0629  0.1294
  395TMC3    O1 5911   3.029   4.022  15.047  0.2217  0.1154 -0.4744
  395TMC3    O2 5912   2.829   3.622  15.156  0.5386 -0.0347 -0.1798
  396MPD2     C 5913   3.187   0.491  17.272  0.8727 -0.1498 -0.2626
  396MPD2    C1 5914   3.323   0.485  17.258 -0.1143  0.1106 -0.5352
  396MPD2    C2 5915   3.395   0.591  17.195 -0.0258 -0.6822  0.1894
  396MPD2    C3 5916   3.322   0.696  17.147 -0.3012  0.1017 -0.3386
  396MPD2    C4 5917   3.187   0.706  17.167  0.0068  0.3211  0.5493
  396MPD2    C5 5918   3.117   0.599  17.228  0.0075  0.2179 -1.6885
  396MPD2     H 5919   3.503   0.588  17.190  0.0050  2.2818 -0.8534
  396MPD2    H1 5920   3.129   0.792  17.136  1.1302  0.8134 -0.1631
  396MPD2    H2 5921   3.135   0.415  17.329 -0.2418  0.1934 -0.8381
  396MPD2    H3 5922   3.010   0.590  17.244  0.1502  0.1797 -0.7484
  396MPD2     N 5923   3.400   0.779  17.059  0.4660 -0.2704  0.1662
  396MPD2    H5 5924   3.497   0.757  17.041 -0.0366 -0.0157 -2.9399
  396MPD2    N1 5925   3.379   0.368  17.310 -0.3818 -0.2550 -0.6260
  396MPD2    H7 5926   3.324   0.308  17.371  1.2576 -1.5433 -0.4020
  397TMC3    C1 5927   3.542   0.206  17.348  0.4491 -0.3156 -0.3437
  397TMC3    C2 5928   3.570   0.103  17.263  0.2812  0.8305  0.9495
  397TMC3    C3 5929   3.538   4.689  17.285 -0.9852 -0.3950 -0.2986
  397TMC3    C4 5930   3.473   0.172  17.461  0.1609 -0.3415 -0.4771
  397TMC3    C5 5931   3.439   0.042  17.481 -0.4846  0.2284  0.0859
  397TMC3    C6 5932   3.463   4.662  17.395 -0.2294 -0.5251 -0.9794
  397TMC3     C 5933   3.503   0.321  17.271  0.1620  0.4753 -0.2364
  397TMC3     O 5934   3.579   0.362  17.186 -0.2348 -0.2690  0.0517
  397TMC3     H 5935   3.597   0.132  17.163 -1.8448  0.8217  0.3628
  397TMC3    H1 5936   3.443   0.250  17.530  2.1814  0.7660 -0.8614
  397TMC3    H2 5937   3.439   4.560  17.419  0.2695 -0.4084 -0.0179
  397TMC3    C7 5938   3.372   0.013  17.609  0.0377 -0.3083  0.0885
  397TMC3    C8 5939   3.552   4.585  17.177 -1.0733 -0.1354  0.5762
  397TMC3    O1 5940   3.409   0.068   0.015  0.1282  0.0560  0.6171
  397TMC3    O2 5941   3.465   4.498  17.173 -0.1562 -0.5847 -0.3367
  398MPD2     C 5942   1.077   1.368   0.267 -0.2429 -0.1292 -0.8591
  398MPD2    C1 5943   1.074   1.253   0.339 -0.0062 -0.0292  0.4290
  398MPD2    C2 5944   1.109   1.266   0.478  0.4532 -0.6870 -0.1961
  398MPD2    C3 5945   1.119   1.385   0.539 -0.7517 -0.5193  0.6070
  398MPD2    C4 5946   1.128   1.495   0.463 -0.0916  0.4665  0.5541
  398MPD2    C5 5947   1.108   1.484   0.328  0.3110 -0.0336 -0.2595
  398MPD2     H 5948   1.109   1.181   0.545  0.6047 -1.9960 -1.8537
  398MPD2    H1 5949   1.159   1.588   0.509  0.8889  0.5707 -0.3244
  398MPD2    H2 5950   1.072   1.365   0.159 -1.0491  0.3399 -0.8341
  398MPD2    H3 5951   1.118   1.573   0.267  0.0341 -0.8571 -1.5118
  398MPD2     N 5952   1.144   1.383   0.676  0.6649  0.3133 -0.0441
  398MPD2    H5 5953   1.132   1.300   0.733  0.0374  0.0784 -0.5165
  398MPD2    N1 5954   1.064   1.119   0.293 -0.2956 -0.5401  0.2162
  398MPD2    H7 5955   1.072   1.052   0.368  0.8539 -0.1721  0.4282
  399TMC3    C1 5956   1.048   0.938   0.154  0.2203  0.0749  0.2932
  399TMC3    C2 5957   1.123   0.864   0.247 -0.2855  0.4407  0.3931
  399TMC3    C3 5958   1.100   0.729   0.263 -0.7622  0.7865 -0.1813
  399TMC3    C4 5959   0.937   0.879   0.095 -0.9647  0.4817 -0.2082
  399TMC3    C5 5960   0.914   0.743   0.119 -0.5599  0.1998 -0.2693
  399TMC3    C6 5961   0.992   0.664   0.201 -0.6749 -0.4083 -0.0211
  399TMC3     C 5962   1.036   1.078   0.164 -0.4545 -0.1151  0.3244
  399TMC3     O 5963   1.021   1.132   0.057  0.2040 -0.0028  0.1283
  399TMC3     H 5964   1.216   0.903   0.288  0.9586 -1.3790 -0.7011
  399TMC3    H1 5965   0.863   0.947   0.054  0.1926  1.0730 -1.3023
  399TMC3    H2 5966   0.976   0.557   0.209  0.6110 -0.6406 -0.5929
  399TMC3    C7 5967   0.784   0.692   0.096  0.6820  0.8740  0.2781
  399TMC3    C8 5968   1.205   0.666   0.346 -0.3059  0.3697  0.7683
  399TMC3    O1 5969   0.764   0.584   0.147 -0.2136  0.2605 -0.3764
  399TMC3    O2 5970   1.285   0.737   0.403  0.1796  0.5690 -0.1646
  400TMC3    C1 5971   0.155   4.353  16.953 -0.7456  0.8802  0.5287
  400TMC3    C2 5972   0.023   4.338  16.930  0.2797  0.4778 -0.1931
  400TMC3    C3 5973   4.664   4.438  16.962  0.4580  0.1188 -0.3416
  400TMC3    C4 5974   0.203   4.481  16.978 -0.2492 -0.4799 -0.6744
  400TMC3    C5 5975   0.119   4.586  17.006 -0.2447 -0.4950  0.6658
  400TMC3    C6 5976   4.708   4.553  17.016 -0.1020 -0.3655  0.5336
  400TMC3     C 5977   0.255   4.258  16.886 -0.0271  0.3207  0.1403
  400TMC3     O 5978   0.364   4.300  16.846 -0.2016  0.0832 -0.1915
  400TMC3     H 5979   4.711   4.242  16.895  1.3860 -0.3307  0.8752
  400TMC3    H1 5980   0.310   4.496  16.991 -0.3632 -0.6251  0.4447
  400TMC3    H2 5981   4.632   4.631  17.020 -0.2453 -0.4554 -0.2788
  400TMC3    C7 5982   0.157   0.003  16.985 -0.1310 -0.2973 -0.3863
  400TMC3    C8 5983   4.529   4.410  17.002  0.0598  0.2744 -0.1988
  400TMC3    O1 5984   0.269   0.019  16.932 -0.5465  0.4310  0.3332
  400TMC3    O2 5985   4.491   4.461  17.109 -0.5242  0.4628 -0.1883
  401MPD2     C 5986   2.591   2.758   0.745  0.1350  0.3942  0.1138
  401MPD2    C1 5987   2.683   2.697   0.826 -1.0155 -1.0423  0.3047
  401MPD2    C2 5988   2.724   2.572   0.784  0.0739  0.7051 -0.5309
  401MPD2    C3 5989   2.667   2.505   0.679 -0.6067 -1.0057 -0.0245
  401MPD2    C4 5990   2.570   2.563   0.603  0.8074  0.0625  0.7097
  401MPD2    C5 5991   2.532   2.684   0.651 -0.0248  0.5653 -0.6185
  401MPD2     H 5992   2.806   2.530   0.840 -0.0270  1.8441  0.4647
  401MPD2    H1 5993   2.518   2.519   0.519  0.5607  1.4601  0.1246
  401MPD2    H2 5994   2.550   2.857   0.755 -3.4504 -1.3699  3.1690
  401MPD2    H3 5995   2.445   2.726   0.602  1.5614  3.1254 -1.2271
  401MPD2     N 5996   2.726   2.375   0.657 -0.0605 -0.2803 -0.9349
  401MPD2    H5 5997   2.788   2.344   0.732  0.1829  0.6173 -0.7583
  401MPD2    N1 5998   2.749   2.752   0.943 -0.3187  0.7526  0.4683
  401MPD2    H7 5999   2.816   2.689   0.986  0.6072  0.3384 -1.5652
  402TMC3    C1 6000   2.759   2.165   0.567  0.3125 -0.5479 -0.2153
  402TMC3    C2 6001   2.752   2.128   0.699  0.2037  0.6839 -0.1255
  402TMC3    C3 6002   2.854   2.049   0.748  0.0951 -0.1745  0.7067
  402TMC3    C4 6003   2.866   2.128   0.492 -0.1182 -0.4151  0.4140
  402TMC3    C5 6004   2.972   2.065   0.547 -0.1288  0.3679 -0.4773
  402TMC3    C6 6005   2.968   2.024   0.679  0.3132 -1.4924  1.0508
  402TMC3     C 6006   2.717   2.302   0.544 -0.1274 -0.0312 -0.2423
  402TMC3     O 6007   2.680   2.332   0.434 -0.1056  0.1018 -0.3387
  402TMC3     H 6008   2.670   2.150   0.766 -0.0820  2.7908 -1.1673
  402TMC3    H1 6009   2.873   2.172   0.393 -0.0765 -0.5434  0.3608
  402TMC3    H2 6010   3.052   1.977   0.730 -0.5793 -3.2596  0.8837
  402TMC3    C7 6011   3.095   2.108   0.490 -0.7001  0.3429  0.2871
  402TMC3    C8 6012   2.847   2.024   0.885 -0.0923 -0.4799 -0.3737
  402TMC3    O1 6013   3.097   2.172   0.384  0.2228  0.2524 -0.4236
  402TMC3    O2 6014   2.959   2.010   0.936 -0.1659  0.1810  0.2356
  403MPD2     C 6015   1.386   1.448  12.917 -0.3698  0.9841 -0.4956
  403MPD2    C1 6016   1.339   1.387  13.031 -0.0418  0.0425  0.2063
  403MPD2    C2 6017   1.372   1.449  13.153  0.4508 -0.0470  0.7383
  403MPD2    C3 6018   1.454   1.562  13.168 -0.4838 -0.1206  0.3547
  403MPD2    C4 6019   1.495   1.619  13.052 -0.0695 -0.2050  0.3553
  403MPD2    C5 6020   1.460   1.567  12.925  0.4568  0.0953 -0.1149
  403MPD2     H 6021   1.357   1.402  13.249 -0.3722 -0.3560  0.4550
  403MPD2    H1 6022   1.549   1.713  13.056 -1.2901  0.4492  1.4908
  403MPD2    H2 6023   1.360   1.415  12.817  0.6840  0.3241 -0.5544
  403MPD2    H3 6024   1.493   1.605  12.829 -0.2335  0.1933 -0.3160
  403MPD2     N 6025   1.484   1.607  13.301 -0.7646  0.2658  0.3943
  403MPD2    H5 6026   1.447   1.554  13.379 -0.8420 -0.8805 -0.4286
  403MPD2    N1 6027   1.265   1.264  13.020 -0.5764 -0.0993 -0.4279
  403MPD2    H7 6028   1.238   1.234  12.927  0.4092 -0.7570 -0.5064
  404TMC3    C1 6029   1.164   1.061  13.077  0.1429  0.0613  0.4679
  404TMC3    C2 6030   1.155   0.970  13.178  0.5550  0.3905 -0.4706
  404TMC3    C3 6031   1.121   0.841  13.149 -0.5566 -0.7749 -0.2269
  404TMC3    C4 6032   1.138   1.024  12.950 -0.0605  0.5483 -0.4380
  404TMC3    C5 6033   1.114   0.893  12.919 -0.3027  0.6331 -0.0801
  404TMC3    C6 6034   1.101   0.802  13.019  0.2227  0.3381 -0.2215
  404TMC3     C 6035   1.220   1.191  13.123 -0.7166 -0.0626  0.1381
  404TMC3     O 6036   1.217   1.211  13.245  0.4593 -0.8590 -0.3703
  404TMC3     H 6037   1.180   1.001  13.279 -1.7676 -1.0649  0.5549
  404TMC3    H1 6038   1.152   1.097  12.871 -0.2489 -0.8771 -1.8099
  404TMC3    H2 6039   1.102   0.697  12.990  2.9504  0.2179  0.3034
  404TMC3    C7 6040   1.167   0.857  12.785 -0.3667  0.2682  0.2244
  404TMC3    C8 6041   1.183   0.740  13.232 -0.5960 -0.1367 -0.2276
  404TMC3    O1 6042   1.222   0.948  12.725 -0.4302  0.1823  0.1747
  404TMC3    O2 6043   1.222   0.638  13.180 -0.1579  0.4995 -0.2079
  405MPD2     C 6044   1.861   1.478  14.589 -0.5971  0.4617 -0.0141
  405MPD2    C1 6045   1.806   1.447  14.468  0.4135  0.3588 -0.3834
  405MPD2    C2 6046   1.823   1.546  14.365  0.2974 -0.3052 -0.0027
  405MPD2    C3 6047   1.887   1.666  14.388  0.4406 -0.4295 -1.0557
  405MPD2    C4 6048   1.939   1.687  14.511 -0.1090  0.4196 -0.1965
  405MPD2    C5 6049   1.931   1.593  14.608  0.7052 -0.1168  0.1311
  405MPD2     H 6050   1.771   1.539  14.271  1.0207 -1.3243 -0.3283
  405MPD2    H1 6051   1.985   1.779  14.546 -3.2740  2.2906 -0.9571
  405MPD2    H2 6052   1.858   1.416  14.678 -0.8526  1.9478  1.0227
  405MPD2    H3 6053   1.989   1.600  14.699  0.4260  1.1797  0.1983
  405MPD2     N 6054   1.887   1.763  14.283  0.5928 -0.5918 -0.5314
  405MPD2    H5 6055   1.839   1.744  14.195 -1.0288 -1.7350  0.5983
  405MPD2    N1 6056   1.720   1.339  14.456 -0.9750  0.3138  0.0620
  405MPD2    H7 6057   1.704   1.289  14.543  0.6466  1.6492  1.1128
  406TMC3    C1 6058   1.678   2.152  14.144 -0.0492  0.4674 -0.2756
  406TMC3    C2 6059   1.638   2.097  14.023  0.0719 -0.7610 -0.3026
  406TMC3    C3 6060   1.684   1.969  13.998 -0.2278  0.3726 -0.2497
  406TMC3    C4 6061   1.774   2.094  14.230 -0.3353 -0.2306  0.2095
  406TMC3    C5 6062   1.826   1.972  14.193 -0.4310 -0.6324 -0.2211
  406TMC3    C6 6063   1.784   1.911  14.079  0.4854  0.0291  0.1289
  406TMC3     C 6064   1.586   2.248  14.194  0.4398 -0.0737  0.0352
  406TMC3     O 6065   1.629   2.336  14.269  0.5505  0.0219 -0.4113
  406TMC3     H 6066   1.585   2.155  13.949  1.3695  0.6946 -0.0863
  406TMC3    H1 6067   1.807   2.136  14.324 -1.7485 -2.0591  1.5444
  406TMC3    H2 6068   1.817   1.810  14.062  0.3305 -0.4484  2.6182
  406TMC3    C7 6069   1.898   1.899  14.303 -0.3188 -0.5607 -0.1556
  406TMC3    C8 6070   1.597   1.896  13.907  0.8216  0.4064  0.2794
  406TMC3    O1 6071   1.918   1.952  14.407  0.1194  0.4283  0.5403
  406TMC3    O2 6072   1.506   1.957  13.851 -0.8459 -0.4081  0.0345
  407MPD2     C 6073   4.042   3.874   9.730 -0.0871  0.0385 -0.2967
  407MPD2    C1 6074   4.137   3.774   9.701  0.4175 -0.4587  0.3201
  407MPD2    C2 6075   4.229   3.738   9.797  0.3715 -0.6505 -0.5572
  407MPD2    C3 6076   4.236   3.805   9.912 -1.1097 -0.0165  0.2958
  407MPD2    C4 6077   4.155   3.915   9.944  0.0041  0.5822  0.5459
  407MPD2    C5 6078   4.054   3.945   9.851  0.3609  0.7392  0.4229
  407MPD2     H 6079   4.304   3.663   9.777  0.7166 -0.4625  0.0288
  407MPD2    H1 6080   4.169   3.965  10.038 -2.4443  0.6766  0.8669
  407MPD2    H2 6081   3.968   3.905   9.658  0.9838 -0.0108 -1.4173
  407MPD2    H3 6082   3.988   4.027   9.876 -0.6011 -0.2238  0.9892
  407MPD2     N 6083   4.334   3.787  10.009 -0.0998 -0.0516  0.3076
  407MPD2    H5 6084   4.343   3.853  10.086 -0.2235 -1.1311  1.2499
  407MPD2    N1 6085   4.135   3.699   9.581 -0.3724 -0.6256 -0.1060
  407MPD2    H7 6086   4.212   3.633   9.573 -0.3869 -0.6754  0.1587
  408TMC3    C1 6087   4.069   3.615   9.374  0.2903  0.1550 -0.0151
  408TMC3    C2 6088   4.189   3.556   9.347 -0.2423  0.4296  0.2185
  408TMC3    C3 6089   4.207   3.463   9.254 -0.0740  0.5213  0.1559
  408TMC3    C4 6090   3.967   3.584   9.295 -0.4997 -0.3391 -0.3659
  408TMC3    C5 6091   3.983   3.486   9.204  0.0094 -0.3610 -1.1161
  408TMC3    C6 6092   4.094   3.412   9.191  0.3934  0.0493 -0.2882
  408TMC3     C 6093   4.041   3.708   9.488 -0.0885  0.2087  0.0953
  408TMC3     O 6094   3.951   3.789   9.464 -0.2160 -0.6002  0.6629
  408TMC3     H 6095   4.273   3.577   9.412 -0.1134  0.0899  0.1631
  408TMC3    H1 6096   3.871   3.627   9.321  1.6070  2.9864  1.9355
  408TMC3    H2 6097   4.100   3.325   9.126  0.4759  1.1544 -1.7633
  408TMC3    C7 6098   3.856   3.437   9.147  0.1699 -0.4527 -0.2274
  408TMC3    C8 6099   4.330   3.391   9.236 -0.7174  0.0386 -0.5656
  408TMC3    O1 6100   3.839   3.319   9.141  0.6157  0.1960  0.0732
  408TMC3    O2 6101   4.330   3.275   9.206 -0.0390 -0.3523 -0.8076
  409MPD2     C 6102   3.165   3.881  17.255  0.2767  0.4122 -0.2111
  409MPD2    C1 6103   3.276   3.900  17.329  0.5302  0.1939  0.7555
  409MPD2    C2 6104   3.379   3.980  17.283 -0.1215  0.1886 -0.0269
  409MPD2    C3 6105   3.369   4.040  17.158  0.1601  0.1167 -0.4527
  409MPD2    C4 6106   3.252   4.025  17.093  0.1182  0.4155  0.3052
  409MPD2    C5 6107   3.152   3.947  17.143 -0.4183 -0.3403  0.4415
  409MPD2     H 6108   3.464   3.980  17.350  0.2055 -2.3430 -0.4453
  409MPD2    H1 6109   3.234   4.070  16.996 -1.6186 -0.0085  0.4278
  409MPD2    H2 6110   3.090   3.807  17.278  0.7258 -0.4308 -1.4884
  409MPD2    H3 6111   3.060   3.919  17.091 -0.3233 -0.7462  0.4927
  409MPD2     N 6112   3.471   4.122  17.109 -0.0339  0.2507 -0.1650
  409MPD2    H5 6113   3.470   4.160  17.015  0.0573  0.7222  0.0193
  409MPD2    N1 6114   3.295   3.851  17.464 -0.1070 -0.2178  0.5608
  409MPD2    H7 6115   3.371   3.891  17.518  1.5455 -1.4994 -0.7993
  410TMC3    C1 6116   3.690   4.216  17.083 -0.2471 -0.2773 -0.5380
  410TMC3    C2 6117   3.786   4.298  17.133  0.2852 -0.3456  0.6349
  410TMC3    C3 6118   3.876   4.350  17.042  0.4238 -0.5703  0.0608
  410TMC3    C4 6119   3.678   4.184  16.950 -0.2194  0.6283  0.9011
  410TMC3    C5 6120   3.785   4.227  16.872  0.4858 -0.6385  0.3685
  410TMC3    C6 6121   3.875   4.319  16.913 -0.3188 -1.0585 -0.2724
  410TMC3     C 6122   3.586   4.163  17.177  0.8349  0.4722  0.2653
  410TMC3     O 6123   3.613   4.162  17.296 -0.0178  0.2731  0.5243
  410TMC3     H 6124   3.801   4.317  17.239 -0.3890  2.9479  0.1361
  410TMC3    H1 6125   3.608   4.121  16.895 -1.0699 -0.4950  3.2936
  410TMC3    H2 6126   3.958   4.352  16.850 -0.0264 -0.8528  0.2232
  410TMC3    C7 6127   3.767   4.201  16.730 -0.4010  0.2799  1.3199
  410TMC3    C8 6128   3.969   4.449  17.099  0.3731 -0.8716 -0.3343
  410TMC3    O1 6129   3.703   4.099  16.708  0.0360  0.1632 -0.2292
  410TMC3    O2 6130   3.941   4.498  17.210  0.1256  0.0857  0.3097
  411MPD2     C 6131   3.689   4.595  14.729  0.3010 -0.1834  0.2557
  411MPD2    C1 6132   3.623   4.658  14.629  0.2503  0.5172  0.5762
  411MPD2    C2 6133   3.552   4.588  14.538 -0.1966 -0.4586  0.8818
  411MPD2    C3 6134   3.537   4.447  14.555  0.2253 -0.6159 -0.4938
  411MPD2    C4 6135   3.599   4.381  14.660 -0.1949 -0.0834 -0.7178
  411MPD2    C5 6136   3.680   4.459  14.736 -0.0171 -0.9857  0.6420
  411MPD2     H 6137   3.520   4.647  14.453  0.6261 -1.4715 -0.1255
  411MPD2    H1 6138   3.595   4.273  14.676  1.2552  0.2147  1.7026
  411MPD2    H2 6139   3.750   4.658  14.794  0.0766 -2.8714  3.0928
  411MPD2    H3 6140   3.739   4.407  14.810  0.6298  1.0940  1.5939
  411MPD2     N 6141   3.461   4.368  14.466  0.7041  0.1379  0.1177
  411MPD2    H5 6142   3.459   4.267  14.483 -3.4159  0.0926 -0.6523
  411MPD2    N1 6143   3.637   0.077  14.639 -0.0555  0.2415 -0.5553
  411MPD2    H7 6144   3.706   0.106  14.706 -1.7473 -1.4492  1.9328
  412TMC3    C1 6145   3.351   4.313  14.256 -0.1446 -0.4401 -0.3227
  412TMC3    C2 6146   3.265   4.356  14.163  0.4078 -0.3303 -0.2064
  412TMC3    C3 6147   3.296   4.334  14.034 -0.5980 -0.1171  0.0179
  412TMC3    C4 6148   3.453   4.227  14.227  0.8583 -0.1064 -0.0855
  412TMC3    C5 6149   3.475   4.198  14.096  0.0390 -0.2297  0.0225
  412TMC3    C6 6150   3.407   4.263  13.999  0.5155 -0.1421 -0.3356
  412TMC3     C 6151   3.375   4.411  14.366 -0.0500  0.2103  0.1861
  412TMC3     O 6152   3.338   4.529  14.346 -0.3003  0.5190 -0.3626
  412TMC3     H 6153   3.193   4.434  14.184  0.6923 -0.2583  0.5007
  412TMC3    H1 6154   3.523   4.183  14.297  1.7970  2.0595  0.3456
  412TMC3    H2 6155   3.427   4.248  13.894 -0.6823 -1.9165 -0.3038
  412TMC3    C7 6156   3.609   4.171  14.060  0.0239 -0.1525  0.4098
  412TMC3    C8 6157   3.228   4.418  13.933  0.1968 -0.4852 -0.2313
  412TMC3    O1 6158   3.664   4.074  14.115  0.3262 -0.2465  0.0126
  412TMC3    O2 6159   3.105   4.416  13.937  0.1985 -0.0857  0.2290
  413MPD2     C 6160   1.039   2.894  15.473 -0.4731 -0.2299  0.7968
  413MPD2    C1 6161   0.958   2.826  15.389  0.3219 -0.1404  0.1269
  413MPD2    C2 6162   1.009   2.735  15.300 -0.5136  0.6754  0.0155
  413MPD2    C3 6163   1.140   2.696  15.299  0.2791  0.1666  0.0160
  413MPD2    C4 6164   1.224   2.775  15.372 -0.1235  0.8962 -0.1386
  413MPD2    C5 6165   1.176   2.871  15.456  1.1609 -0.0625 -0.0918
  413MPD2     H 6166   0.942   2.685  15.230  1.7476  0.7210 -2.1756
  413MPD2    H1 6167   1.332   2.766  15.367 -0.0868  0.9625  0.4893
  413MPD2    H2 6168   1.003   2.973  15.538 -1.4925  0.1564 -0.2333
  413MPD2    H3 6169   1.249   2.938  15.500 -0.8865  2.9507 -1.2872
  413MPD2     N 6170   1.180   2.598  15.202 -0.2599  0.1777  0.0575
  413MPD2    H5 6171   1.103   2.569  15.142  0.2492 -0.3175 -0.3511
  413MPD2    N1 6172   0.819   2.849  15.407 -0.1090 -0.0061  0.4251
  413MPD2    H7 6173   0.785   2.910  15.480  1.0537  1.0733  0.0759
  414TMC3    C1 6174   1.305   2.428  15.099 -0.0969 -0.0858 -0.5654
  414TMC3    C2 6175   1.371   2.315  15.142 -0.3279  0.5807 -0.4935
  414TMC3    C3 6176   1.409   2.224  15.046 -1.2553 -0.2613 -0.2315
  414TMC3    C4 6177   1.297   2.454  14.963  0.3528  0.1484  0.4378
  414TMC3    C5 6178   1.326   2.359  14.872  0.7887  0.2253  0.8970
  414TMC3    C6 6179   1.375   2.240  14.918  0.0062  0.5220 -0.6732
  414TMC3     C 6180   1.300   2.534  15.197 -0.5893 -0.5695 -0.2804
  414TMC3     O 6181   1.389   2.525  15.279 -0.2355 -0.6561 -0.1727
  414TMC3     H 6182   1.386   2.299  15.248  1.7001  4.2736 -0.2254
  414TMC3    H1 6183   1.269   2.555  14.935 -0.1758 -0.4163 -1.0788
  414TMC3    H2 6184   1.373   2.152  14.855 -2.6430 -0.9766  1.5280
  414TMC3    C7 6185   1.291   2.375  14.724  0.1597 -0.0293 -0.2673
  414TMC3    C8 6186   1.454   2.092  15.083 -0.2119  0.0118 -0.0954
  414TMC3    O1 6187   1.191   2.436  14.699  0.2110 -0.0370  0.0263
  414TMC3    O2 6188   1.368   2.009  15.109 -0.2306  0.1266  0.1709
  415TMC3    C1 6189   1.080   0.462  10.150  0.4552  0.4644  0.7514
  415TMC3    C2 6190   1.122   0.571  10.080  0.6581  0.4889 -0.1138
  415TMC3    C3 6191   1.122   0.554   9.944  0.0623 -0.2405 -0.7763
  415TMC3    C4 6192   1.013   0.353  10.090 -0.8719  0.1740  0.0714
  415TMC3    C5 6193   1.011   0.348   9.958  0.1649  0.2606 -0.3963
  415TMC3    C6 6194   1.064   0.446   9.880 -0.4288 -1.0441  0.1786
  415TMC3     C 6195   1.137   0.432  10.274  0.6155  1.0956 -0.2912
  415TMC3     O 6196   1.167   0.316  10.300  0.5532 -0.0694 -0.0145
  415TMC3     H 6197   1.165   0.661  10.122 -0.1592 -0.0186  1.8482
  415TMC3    H1 6198   0.972   0.272  10.149  0.9346 -1.1797 -0.5258
  415TMC3    H2 6199   1.056   0.429   9.773  2.7824  0.1258 -0.2423
  415TMC3    C7 6200   0.981   0.220   9.888 -0.2107 -0.4622 -0.0327
  415TMC3    C8 6201   1.210   0.627   9.852 -0.6053 -0.5373 -0.7230
  415TMC3    O1 6202   0.970   0.221   9.766 -0.0130  0.1090  0.0049
  415TMC3    O2 6203   1.179   0.633   9.735  0.6897 -0.7137 -0.3407
  416MPD2     C 6204   2.771   3.912  12.459  0.3880 -0.7114  0.2385
  416MPD2    C1 6205   2.709   3.905  12.338 -0.6998 -0.6034  0.8186
  416MPD2    C2 6206   2.692   3.785  12.272  0.4624  0.2258 -0.0447
  416MPD2    C3 6207   2.748   3.671  12.326  0.1285  0.2098 -0.0065
  416MPD2    C4 6208   2.813   3.679  12.444 -0.6270 -0.1173 -0.1314
  416MPD2    C5 6209   2.823   3.796  12.519 -0.1673 -0.2069  0.3418
  416MPD2     H 6210   2.645   3.783  12.174 -0.1252 -0.0238  0.2416
  416MPD2    H1 6211   2.880   3.599  12.473 -0.5004 -0.3903 -1.1992
  416MPD2    H2 6212   2.791   4.001  12.516  0.0998 -0.2976 -0.3047
  416MPD2    H3 6213   2.885   3.798  12.607  1.0799 -0.7455 -0.5124
  416MPD2     N 6214   2.750   3.544  12.259  0.9851  0.8403 -0.2926
  416MPD2    H5 6215   2.821   3.475  12.280  1.4970  0.7958 -2.1723
  416MPD2    N1 6216   2.664   4.029  12.288 -0.0760 -0.4767  0.4325
  416MPD2    H7 6217   2.688   4.108  12.348  0.9320 -0.4366 -0.0210
  417TMC3    C1 6218   2.594   4.212  12.144 -0.5345  0.3573  0.2735
  417TMC3    C2 6219   2.582   4.292  12.256 -0.2785  0.3543 -0.1321
  417TMC3    C3 6220   2.536   4.418  12.234  0.2294  0.5171 -0.2381
  417TMC3    C4 6221   2.582   4.255  12.015  0.3987 -0.5314  0.3937
  417TMC3    C5 6222   2.563   4.391  12.002 -0.0846  1.0346 -0.3546
  417TMC3    C6 6223   2.535   4.476  12.108 -0.1629  0.5532 -0.4012
  417TMC3     C 6224   2.623   4.068  12.161 -0.9823 -0.2530 -1.0028
  417TMC3     O 6225   2.607   3.992  12.064 -0.5046 -0.3362 -0.4786
  417TMC3     H 6226   2.563   4.249  12.354  1.8416  0.3918  0.2982
  417TMC3    H1 6227   2.608   4.188  11.934 -1.2091 -0.5981 -0.0647
  417TMC3    H2 6228   2.503   4.578  12.089 -1.2173  0.8535  3.0950
  417TMC3    C7 6229   2.577   4.454  11.874 -0.2121 -0.6302  0.2042
  417TMC3    C8 6230   2.524   4.507  12.344  0.3150  0.7522 -0.3821
  417TMC3    O1 6231   2.627   4.562  11.874 -0.5772  0.3668 -0.3250
  417TMC3    O2 6232   2.591   4.478  12.443 -0.3650  0.7126 -0.2356
  418TMC3    C1 6233   1.392   1.391   1.047  0.2589  0.1022 -0.1507
  418TMC3    C2 6234   1.338   1.478   0.956 -0.0493  0.0369 -0.5304
  418TMC3    C3 6235   1.216   1.442   0.897  0.1757 -0.0904 -0.7042
  418TMC3    C4 6236   1.326   1.274   1.096 -0.2740 -0.1298 -0.2494
  418TMC3    C5 6237   1.197   1.260   1.043  0.1167  0.4741 -0.0618
  418TMC3    C6 6238   1.152   1.331   0.936  0.1759  0.6274 -0.0871
  418TMC3     C 6239   1.538   1.402   1.069 -0.1312 -0.1495 -0.4478
  418TMC3     O 6240   1.591   1.507   1.110 -0.5370  0.1603  0.0230
  418TMC3     H 6241   1.393   1.567   0.930 -0.3700 -0.2625 -2.2454
  418TMC3    H1 6242   1.370   1.194   1.155  0.2741 -0.5551 -1.2470
  418TMC3    H2 6243   1.051   1.318   0.899 -0.4716  2.3828  1.0242
  418TMC3    C7 6244   1.113   1.148   1.072 -0.1537  1.0014 -0.3911
  418TMC3    C8 6245   1.184   1.484   0.758  0.1862 -0.7097  0.4977
  418TMC3    O1 6246   1.043   1.107   0.981  0.1624  0.1739  0.3740
  418TMC3    O2 6247   1.207   1.602   0.739  0.4975 -0.5866 -0.5857
  419MPD2     C 6248   0.613   3.844  12.151 -0.4482 -0.0531 -0.0482
  419MPD2    C1 6249   0.542   3.966  12.127 -0.6897  0.2513  0.4526
  419MPD2    C2 6250   0.518   4.049  12.232 -0.6072  0.0268 -0.9367
  419MPD2    C3 6251   0.563   4.019  12.355 -0.2716  0.9072  0.0608
  419MPD2    C4 6252   0.634   3.899  12.379  0.4554  0.3261  0.4470
  419MPD2    C5 6253   0.659   3.814  12.277  0.4002 -0.2841 -1.0541
  419MPD2     H 6254   0.460   4.138  12.211 -0.2600  0.4406 -0.1318
  419MPD2    H1 6255   0.651   3.869  12.481 -0.2399  0.3445  0.5725
  419MPD2    H2 6256   0.638   3.787  12.063  2.3166 -0.6954  1.1285
  419MPD2    H3 6257   0.719   3.724  12.288 -0.2631 -0.7133 -0.9212
  419MPD2     N 6258   0.538   4.104  12.468 -0.1805  0.3872 -0.0551
  419MPD2    H5 6259   0.477   4.181  12.443 -2.6103 -0.8104  2.2110
  419MPD2    N1 6260   0.515   4.020  12.002 -0.3337  0.1056  0.5320
  419MPD2    H7 6261   0.473   4.112  12.004 -1.3769 -0.2986 -2.8445
  420TMC3    C1 6262   0.457   4.151  12.685 -0.1286 -0.2683  0.5081
  420TMC3    C2 6263   0.339   4.201  12.628  1.2442 -0.0317  0.1411
  420TMC3    C3 6264   0.255   4.261  12.716  0.5629  0.5156 -0.1482
  420TMC3    C4 6265   0.487   4.157  12.817  0.5642  0.4437 -0.1857
  420TMC3    C5 6266   0.392   4.216  12.896 -0.5020 -0.5172  0.2965
  420TMC3    C6 6267   0.278   4.272  12.852 -0.0331  0.3420  0.2113
  420TMC3     C 6268   0.556   4.077  12.603  0.3286 -0.2884  0.2184
  420TMC3     O 6269   0.638   3.999  12.653  0.4149 -0.2554  0.7801
  420TMC3     H 6270   0.314   4.213  12.523  1.1974 -0.0444  0.1510
  420TMC3    H1 6271   0.585   4.129  12.855  0.0306 -2.7044 -1.1316
  420TMC3    H2 6272   0.214   4.313  12.929  0.2697 -1.7181  1.5506
  420TMC3    C7 6273   0.438   4.277  13.025  0.3519  0.3716 -0.3224
  420TMC3    C8 6274   0.178   4.364  12.652 -1.0329 -0.3370  0.6183
  420TMC3    O1 6275   0.350   4.317  13.096 -0.2185 -0.8522 -0.7983
  420TMC3    O2 6276   0.148   4.357  12.533 -0.1253  0.2250  0.2782
  421TMC3    C1 6277   1.639   1.696  13.460  0.1748  0.0351  0.2905
  421TMC3    C2 6278   1.715   1.804  13.500  0.5025  0.3333  0.5686
  421TMC3    C3 6279   1.800   1.779  13.606 -0.3722 -0.2165 -0.0943
  421TMC3    C4 6280   1.656   1.568  13.517 -0.4277 -0.3998  0.0722
  421TMC3    C5 6281   1.740   1.551  13.623 -0.4473 -1.0167 -0.3999
  421TMC3    C6 6282   1.815   1.659  13.666 -0.5993  0.9183  0.2006
  421TMC3     C 6283   1.574   1.710  13.329  0.2763 -0.5253  0.3683
  421TMC3     O 6284   1.607   1.805  13.257  0.1495  0.0585 -0.2361
  421TMC3     H 6285   1.683   1.904  13.471 -0.1727 -0.5275 -1.6270
  421TMC3    H1 6286   1.619   1.483  13.459 -2.5260  1.7505 -1.7494
  421TMC3    H2 6287   1.873   1.655  13.757  1.0154 -0.2295 -0.8725
  421TMC3    C7 6288   1.725   1.439  13.716  0.5141 -0.2901  0.2702
  421TMC3    C8 6289   1.859   1.890  13.673  0.6641 -0.8059  0.2361
  421TMC3    O1 6290   1.808   1.446  13.807 -0.1550  0.1437  1.0027
  421TMC3    O2 6291   1.901   1.869  13.789  0.2833  0.0109  0.3313
  422TMC3    C1 6292   4.302   2.554  12.945 -0.3103  0.1398  0.4677
  422TMC3    C2 6293   4.266   2.675  12.891  0.0019  0.4753  0.1247
  422TMC3    C3 6294   4.133   2.711  12.883 -0.0081  0.6227  0.3336
  422TMC3    C4 6295   4.202   2.458  12.966 -0.2877  0.2647 -0.7108
  422TMC3    C5 6296   4.070   2.497  12.940 -0.6999  0.8493 -0.0193
  422TMC3    C6 6297   4.033   2.622  12.904 -0.2743  0.0345 -0.2575
  422TMC3     C 6298   4.417   2.512  12.873  0.0500  0.2740 -0.7459
  422TMC3     O 6299   4.442   2.574  12.767 -0.1917  0.1104 -0.2822
  422TMC3     H 6300   4.334   2.759  12.883 -0.6058  0.5504 -4.4498
  422TMC3    H1 6301   4.221   2.358  13.002  0.8752  0.8279  0.2312
  422TMC3    H2 6302   3.934   2.652  12.871 -1.5115 -1.9035  1.7236
  422TMC3    C7 6303   3.977   2.385  12.911 -0.2737 -0.0909  0.0729
  422TMC3    C8 6304   4.098   2.825  12.805  0.1730  0.0609 -0.0810
  422TMC3    O1 6305   4.024   2.267  12.931 -0.1319  0.2504 -0.0055
  422TMC3    O2 6306   4.000   2.884  12.848  0.3353 -0.0487 -0.4167
  423MPD2     C 6307   0.473   4.102   0.416 -0.5521  0.2189  0.4618
  423MPD2    C1 6308   0.429   3.977   0.437  0.6761  0.3297 -0.4559
  423MPD2    C2 6309   0.438   3.876   0.338 -0.2809  0.7308  0.3324
  423MPD2    C3 6310   0.477   3.916   0.211 -0.4872  0.4746  0.3327
  423MPD2    C4 6311   0.508   4.049   0.188 -0.0997 -0.3631 -0.0732
  423MPD2    C5 6312   0.511   4.139   0.290 -0.1797 -0.6442 -0.4063
  423MPD2     H 6313   0.406   3.774   0.356 -1.3539  0.9910 -0.0933
  423MPD2    H1 6314   0.544   4.080   0.090  1.8930  0.3491  0.8884
  423MPD2    H2 6315   0.457   4.175   0.494  2.0800 -0.0977  1.2887
  423MPD2    H3 6316   0.555   4.237   0.272 -2.9722  1.3574  3.7174
  423MPD2     N 6317   0.459   3.845   0.091  0.6497  0.5642 -0.2823
  423MPD2    H5 6318   0.459   3.895   0.003  1.0864  2.2982  0.6993
  423MPD2    N1 6319   0.378   3.938   0.562  0.2021 -0.5062  0.1287
  423MPD2    H7 6320   0.331   3.848   0.570 -0.6791 -0.1398 -0.9383
  424TMC3    C1 6321   0.285   3.978   0.776 -0.5011  0.2561 -0.0519
  424TMC3    C2 6322   0.350   3.941   0.893 -0.6098  0.4243 -0.7114
  424TMC3    C3 6323   0.286   3.868   0.986 -0.4036 -0.1278  0.3130
  424TMC3    C4 6324   0.154   3.946   0.755 -0.2569 -0.2958 -0.9401
  424TMC3    C5 6325   0.096   3.868   0.848 -0.0333  0.6117  0.1911
  424TMC3    C6 6326   0.158   3.827   0.964  0.0233 -0.5987 -0.4985
  424TMC3     C 6327   0.364   4.024   0.668  0.9513  0.1964 -0.8711
  424TMC3     O 6328   0.442   4.112   0.700 -0.0225  0.0823 -0.2648
  424TMC3     H 6329   0.451   3.976   0.910  0.0769 -0.5547 -2.7311
  424TMC3    H1 6330   0.106   3.988   0.667  0.1945  1.0254 -0.5557
  424TMC3    H2 6331   0.105   3.762   1.033  2.5663 -2.0152  0.1374
  424TMC3    C7 6332   4.684   3.826   0.816 -0.9604 -0.5856  0.6984
  424TMC3    C8 6333   0.349   3.858   1.115  0.7913  0.6539 -0.2120
  424TMC3    O1 6334   4.643   3.842   0.700  0.0135 -0.0243  0.3441
  424TMC3    O2 6335   0.467   3.895   1.123  0.2685  0.0263  0.3189
  425MPD2     C 6336   4.197   3.000  17.441  0.7563 -0.0100  0.9215
  425MPD2    C1 6337   4.143   2.873  17.418 -0.3025 -0.3861  0.2870
  425MPD2    C2 6338   4.010   2.852  17.459  0.1246 -0.5042  0.4322
  425MPD2    C3 6339   3.941   2.942  17.533  0.6225 -0.4415  0.0098
  425MPD2    C4 6340   3.994   3.064  17.548 -0.0286  0.0701 -0.5437
  425MPD2    C5 6341   4.114   3.101  17.493  0.4497  0.3135  0.2544
  425MPD2     H 6342   3.953   2.765  17.430  0.4046 -0.1075 -1.3540
  425MPD2    H1 6343   3.948   3.141  17.610 -0.7591  1.6268 -3.0131
  425MPD2    H2 6344   4.298   3.031  17.415  0.5968 -1.0151 -0.8595
  425MPD2    H3 6345   4.156   3.199  17.510  0.7546  0.0817  0.8492
  425MPD2     N 6346   3.820   2.903  17.589 -0.4000 -0.5978 -0.1420
  425MPD2    H5 6347   3.778   2.820  17.549  1.0161 -1.1133 -0.5666
  425MPD2    N1 6348   4.229   2.774  17.356 -0.3210 -0.4161 -0.2940
  425MPD2    H7 6349   4.317   2.811  17.320 -0.7362 -1.0249 -1.9249
  426TMC3    C1 6350   4.293   2.565  17.273  0.2974  0.3538  1.0260
  426TMC3    C2 6351   4.253   2.488  17.171  0.3384 -0.7101 -0.2440
  426TMC3    C3 6352   4.334   2.381  17.137  0.5852  0.0266 -0.9188
  426TMC3    C4 6353   4.400   2.546  17.352 -0.0663  0.4536 -0.2027
  426TMC3    C5 6354   4.477   2.438  17.315 -0.0941  0.6990  0.3861
  426TMC3    C6 6355   4.450   2.361  17.203  0.3060 -0.3540  0.4900
  426TMC3     C 6356   4.192   2.646  17.331  0.0345  0.6574  0.5766
  426TMC3     O 6357   4.089   2.583  17.357  0.0336 -0.3512 -0.1881
  426TMC3     H 6358   4.170   2.515  17.107  0.4736 -0.0178 -0.1261
  426TMC3    H1 6359   4.407   2.602  17.445 -1.1768  1.2148 -0.5700
  426TMC3    H2 6360   4.524   2.286  17.176  0.2666 -0.5649  0.9661
  426TMC3    C7 6361   4.578   2.383  17.407 -0.2444 -0.1858 -0.0869
  426TMC3    C8 6362   4.327   2.335  16.998  0.3861 -0.1408  0.0273
  426TMC3    O1 6363   4.646   2.294  17.363 -0.3041  0.2362  0.1532
  426TMC3    O2 6364   4.438   2.334  16.950  0.2492  0.0317 -0.6443
  427MPD2     C 6365   2.882   4.724  14.837 -0.3026 -0.2559 -0.0165
  427MPD2    C1 6366   2.869   0.009  14.975 -0.8672  0.0489  0.1657
  427MPD2    C2 6367   2.736   0.025  15.029 -0.6833 -0.3263 -0.1632
  427MPD2    C3 6368   2.630   0.018  14.943  0.2316 -0.6105 -0.1155
  427MPD2    C4 6369   2.646   0.019  14.805  0.5482 -0.9706 -0.6479
  427MPD2    C5 6370   2.772   0.027  14.757  0.2785 -0.0086  0.5367
  427MPD2     H 6371   2.723   0.035  15.136  1.2824  3.7944 -0.2969
  427MPD2    H1 6372   2.560   0.030  14.741  0.1577  0.1739  0.0737
  427MPD2    H2 6373   2.980   4.718  14.790  0.0503  2.2398  0.4041
  427MPD2    H3 6374   2.789   0.078  14.662  2.5199 -1.5964  0.0831
  427MPD2     N 6375   2.493   0.026  14.984  0.3885 -0.7167  0.2974
  427MPD2    H5 6376   2.426   0.030  14.907  0.4765 -3.5715  0.0976
  427MPD2    N1 6377   2.972   0.009  15.069 -0.0051  0.1676  0.6000
  427MPD2    H7 6378   2.948   4.721  15.166  1.6597  0.9504  1.1081
  428TMC3    C1 6379   3.185   4.702  15.150 -0.0125  0.0641  1.3267
  428TMC3    C2 6380   3.141   4.606  15.231 -0.1335  0.1476 -0.8509
  428TMC3    C3 6381   3.228   4.559  15.324  1.0888 -0.5943  0.4393
  428TMC3    C4 6382   3.314   0.017  15.147  0.3158  0.2246  0.2514
  428TMC3    C5 6383   3.395   4.690  15.245  0.1993  0.0122  0.5362
  428TMC3    C6 6384   3.350   4.607  15.342  0.4861 -0.4096 -0.4136
  428TMC3     C 6385   3.100   0.012  15.038  0.1158  0.2518 -0.5685
  428TMC3     O 6386   3.159   0.060  14.942 -0.7901 -1.0517  0.1291
  428TMC3     H 6387   3.055   4.549  15.199 -1.0318  2.1835 -2.0139
  428TMC3    H1 6388   3.339   0.095  15.076  0.2762  0.6621  0.7161
  428TMC3    H2 6389   3.414   4.572  15.422 -0.3479 -0.6162  0.1604
  428TMC3    C7 6390   3.531   0.018  15.262 -0.2205  0.3225 -0.0025
  428TMC3    C8 6391   3.210   4.420  15.357  0.2501 -0.3185 -0.8042
  428TMC3    O1 6392   3.571   0.008  15.376 -1.0881 -0.4524  0.8650
  428TMC3    O2 6393   3.317   4.360  15.364  0.2408 -0.5363 -0.5754
  429MPD2     C 6394   3.776   0.251  17.567  0.4047 -0.0749  0.0944
  429MPD2    C1 6395   3.878   0.183  17.500 -0.5256 -0.1871  0.3656
  429MPD2    C2 6396   3.952   0.254  17.406 -0.0027  0.4703  0.9865
  429MPD2    C3 6397   3.940   0.390  17.394  0.3115 -0.2887  0.3871
  429MPD2    C4 6398   3.849   0.456  17.471 -0.0732 -0.2952  0.4031
  429MPD2    C5 6399   3.771   0.387  17.557  0.4033 -0.0264 -0.4192
  429MPD2     H 6400   4.022   0.201  17.342  0.1653 -0.4683  1.9253
  429MPD2    H1 6401   3.831   0.561  17.487  2.5141  0.4089 -1.2620
  429MPD2    H2 6402   3.716   0.205  17.645 -2.0224  2.3788 -0.3499
  429MPD2    H3 6403   3.704   0.446  17.617 -0.5790 -0.6288 -0.9103
  429MPD2     N 6404   4.011   0.458  17.295 -0.1086  0.3404  0.1816
  429MPD2    H5 6405   4.075   0.411  17.232  1.1414  0.5436  1.2832
  429MPD2    N1 6406   3.900   0.047  17.514  0.2816  0.0141 -0.4838
  429MPD2    H7 6407   3.977   0.011  17.458 -0.1331 -0.4405 -0.7622
  430TMC3    C1 6408   4.100   0.615  17.163  0.8685 -0.0378  0.5038
  430TMC3    C2 6409   4.052   0.635  17.033  0.1380  0.2576  0.0303
  430TMC3    C3 6410   4.138   0.626  16.930  0.4960 -0.0594  0.0609
  430TMC3    C4 6411   4.226   0.562  17.191 -0.1840  0.0610 -0.5087
  430TMC3    C5 6412   4.306   0.544  17.079 -0.5187 -0.4718  0.4092
  430TMC3    C6 6413   4.267   0.581  16.951 -0.1294  0.3096  0.1447
  430TMC3     C 6414   3.998   0.590  17.263  0.5464  0.2158 -0.5700
  430TMC3     O 6415   3.916   0.681  17.290  0.1399 -0.2402 -0.0256
  430TMC3     H 6416   3.949   0.662  17.017 -0.3397 -2.3793 -1.4257
  430TMC3    H1 6417   4.267   0.539  17.288  0.0841  0.9430 -0.4077
  430TMC3    H2 6418   4.338   0.556  16.873  1.2695  1.5772  1.0092
  430TMC3    C7 6419   4.426   0.461  17.088  0.4938  0.2423 -0.6061
  430TMC3    C8 6420   4.091   0.597  16.794 -0.0954 -0.5018 -0.4905
  430TMC3    O1 6421   4.432   0.375  17.174 -0.1096 -0.1550  0.5913
  430TMC3    O2 6422   3.975   0.559  16.777 -0.2522 -0.0112 -0.1550
  431MPD2     C 6423   0.297   4.639  12.240  0.8991  1.0695  0.0419
  431MPD2    C1 6424   0.390   4.672  12.149  0.8512 -0.5178 -0.3507
  431MPD2    C2 6425   0.404   4.589  12.040  0.3961  0.3997 -0.2288
  431MPD2    C3 6426   0.333   4.473  12.019  0.1054  1.1378  0.1132
  431MPD2    C4 6427   0.237   4.445  12.108  0.9253  0.7555  0.1882
  431MPD2    C5 6428   0.219   4.524  12.219  0.1601  0.7592 -0.4113
  431MPD2     H 6429   0.475   4.615  11.963  1.2213 -3.4238 -0.7536
  431MPD2    H1 6430   0.175   4.357  12.103 -0.1098  1.7669 -4.3974
  431MPD2    H2 6431   0.289   4.699  12.330  0.3905 -0.0448  0.7264
  431MPD2    H3 6432   0.143   4.496  12.291 -0.1109 -0.3213 -1.1218
  431MPD2     N 6433   0.339   4.388  11.900  0.4208 -0.2384 -0.4006
  431MPD2    H5 6434   0.267   4.317  11.893 -0.1983  0.6567 -3.0799
  431MPD2    N1 6435   0.478   0.056  12.154 -0.6726  0.6837 -0.6261
  431MPD2    H7 6436   0.547   0.060  12.080 -2.3977  1.5420 -2.2079
  432TMC3    C1 6437   0.438   4.292  11.716  0.2092  0.9348  0.2384
  432TMC3    C2 6438   0.546   4.301  11.620  0.0855 -0.2447 -0.5048
  432TMC3    C3 6439   0.643   4.205  11.614  0.0070  0.8229  0.1975
  432TMC3    C4 6440   0.429   4.174  11.792 -0.6779 -0.0596  0.4148
  432TMC3    C5 6441   0.529   4.080  11.788 -0.6370 -0.3764 -0.4500
  432TMC3    C6 6442   0.641   4.096  11.700 -0.3476 -0.0339  0.9087
  432TMC3     C 6443   0.414   4.410  11.786 -1.1276  0.2406  0.6299
  432TMC3     O 6444   0.490   4.504  11.762  0.2867 -0.0241 -0.6214
  432TMC3     H 6445   0.566   4.392  11.566  2.5144 -0.9215 -0.7855
  432TMC3    H1 6446   0.346   4.145  11.855 -0.3727 -1.3904  0.2003
  432TMC3    H2 6447   0.725   4.028  11.702  0.1943  0.6138  0.5387
  432TMC3    C7 6448   0.546   3.966  11.882  0.2158  0.2416 -0.2295
  432TMC3    C8 6449   0.771   4.254  11.560 -0.8698  0.1194  0.5594
  432TMC3    O1 6450   0.617   3.876  11.855  0.0171  0.3139  0.3052
  432TMC3    O2 6451   0.764   4.319  11.459 -0.2584  0.5545 -0.2066
  433MPD2     C 6452   4.662   3.896  11.143  0.5392 -0.0712 -0.0018
  433MPD2    C1 6453   4.542   3.877  11.206 -0.3533 -0.6404  0.0817
  433MPD2    C2 6454   4.544   3.870  11.344  0.2732 -0.3612 -0.0998
  433MPD2    C3 6455   4.666   3.878  11.418 -0.1075 -0.3550 -0.3057
  433MPD2    C4 6456   0.058   3.900  11.351 -0.2230 -0.1963 -0.5259
  433MPD2    C5 6457   0.058   3.907  11.215 -1.0010 -0.3519  0.0391
  433MPD2     H 6458   4.452   3.862  11.401  1.9746  1.1525  2.8996
  433MPD2    H1 6459   0.153   3.899  11.404  0.1052  1.8213 -1.0871
  433MPD2    H2 6460   4.671   3.899  11.035  0.1894 -0.0742 -0.0301
  433MPD2    H3 6461   0.153   3.928  11.168 -1.4603 -0.8626 -1.1211
  433MPD2     N 6462   4.667   3.876  11.559  0.0798 -0.6354 -0.2814
  433MPD2    H5 6463   4.580   3.901  11.604 -0.2096 -0.1249 -1.1210
  433MPD2    N1 6464   4.427   3.858  11.127 -0.1651  0.1766 -0.7425
  433MPD2    H7 6465   4.452   3.830  11.033  0.6476  1.3805 -0.8724
  434TMC3    C1 6466   4.239   3.743  11.073 -0.3728 -0.0087  1.2835
  434TMC3    C2 6467   4.184   3.635  11.136  0.5384 -0.2330  0.2781
  434TMC3    C3 6468   4.154   3.530  11.052 -0.5388 -0.2124 -0.3542
  434TMC3    C4 6469   4.267   3.751  10.940  0.3322 -0.4653 -0.2844
  434TMC3    C5 6470   4.220   3.650  10.861 -0.1478  0.2847  0.3840
  434TMC3    C6 6471   4.176   3.536  10.920  0.1482  0.0631 -0.6144
  434TMC3     C 6472   4.304   3.826  11.169 -0.3455 -0.3345  0.0493
  434TMC3     O 6473   4.257   3.826  11.281  0.1417 -0.0310 -0.2759
  434TMC3     H 6474   4.173   3.632  11.244 -0.4161 -0.7942  0.1642
  434TMC3    H1 6475   4.319   3.834  10.891 -1.3933  2.2447  2.4665
  434TMC3    H2 6476   4.141   3.450  10.863 -0.0259  0.2750 -0.8262
  434TMC3    C7 6477   4.182   3.683  10.725  0.0520 -0.0048  0.3865
  434TMC3    C8 6478   4.182   3.402  11.118  0.2613  0.0423  0.1534
  434TMC3    O1 6479   4.212   3.795  10.688  0.1580 -0.0783  0.8131
  434TMC3    O2 6480   4.271   3.395  11.202 -0.0586 -0.5813  0.3966
  435MPD2     C 6481   1.350   3.580  15.437 -0.0574  0.2012 -0.7142
  435MPD2    C1 6482   1.339   3.627  15.563  0.3038 -0.0749  0.3067
  435MPD2    C2 6483   1.427   3.571  15.659 -0.0190  0.0567 -0.5609
  435MPD2    C3 6484   1.522   3.468  15.627  0.6582 -0.1278 -0.0146
  435MPD2    C4 6485   1.527   3.425  15.496 -0.2791  0.7231  0.0855
  435MPD2    C5 6486   1.446   3.490  15.406 -0.7883 -0.0870 -0.7038
  435MPD2     H 6487   1.423   3.602  15.763 -0.5694  0.1506 -0.6103
  435MPD2    H1 6488   1.595   3.352  15.453 -0.4027  0.7148 -0.0968
  435MPD2    H2 6489   1.286   3.625  15.362  0.5076 -0.7878 -1.7944
  435MPD2    H3 6490   1.470   3.468  15.303  0.7612  1.8880 -0.7905
  435MPD2     N 6491   1.604   3.415  15.729 -0.4578  0.5870 -0.2536
  435MPD2    H5 6492   1.592   3.437  15.827 -1.2054 -0.0181 -0.2100
  435MPD2    N1 6493   1.246   3.728  15.603 -0.0583 -0.2736 -0.0524
  435MPD2    H7 6494   1.271   3.777  15.689  3.2130 -0.7203 -0.7357
  436TMC3    C1 6495   0.998   3.983  15.813 -0.3723  0.0698 -0.0600
  436TMC3    C2 6496   1.080   3.898  15.742 -0.0275 -0.2440  0.4733
  436TMC3    C3 6497   1.069   3.885  15.611 -0.5646 -0.0897 -0.1690
  436TMC3    C4 6498   0.902   4.051  15.742  0.4782  0.2151  0.1563
  436TMC3    C5 6499   0.884   4.026  15.607  0.2086  1.0088  0.4708
  436TMC3    C6 6500   0.973   3.949  15.533  0.0325 -0.5828  0.0523
  436TMC3     C 6501   1.056   4.060  15.924 -0.1916 -0.0596  0.3648
  436TMC3     O 6502   1.174   4.048  15.941 -0.0464 -0.0233 -0.2270
  436TMC3     H 6503   1.147   3.835  15.799 -2.1632 -1.9165  1.1401
  436TMC3    H1 6504   0.846   4.126  15.797  1.1089  1.2017 -0.5414
  436TMC3    H2 6505   0.962   3.923  15.429 -0.4131  0.7401 -0.2289
  436TMC3    C7 6506   0.789   4.098  15.534  0.0510  0.0484  0.0711
  436TMC3    C8 6507   1.143   3.786  15.535 -0.7384 -0.1307 -1.0606
  436TMC3    O1 6508   0.804   4.109  15.410 -0.4237  0.3912 -0.0309
  436TMC3    O2 6509   1.110   3.750  15.421 -0.0940 -0.4367 -0.4115
  437TMC3    C1 6510   4.684   1.067  11.894  0.2306  0.4185  0.2524
  437TMC3    C2 6511   4.656   1.178  11.819 -0.0850 -0.6871 -0.3216
  437TMC3    C3 6512   0.000   1.199  11.696 -0.3824  0.1285  0.9460
  437TMC3    C4 6513   0.067   0.983  11.870 -0.4258 -0.5358  0.6056
  437TMC3    C5 6514   0.135   1.014  11.751  0.0244 -0.0099 -0.5508
  437TMC3    C6 6515   0.091   1.107  11.663 -0.1101  0.4101 -0.5575
  437TMC3     C 6516   4.642   1.073  12.033  0.4380 -0.1822  0.2244
  437TMC3     O 6517   4.609   1.180  12.072  0.2850  0.1535  0.1863
  437TMC3     H 6518   4.568   1.235  11.847  0.9408  0.3443  0.8117
  437TMC3    H1 6519   0.093   0.903  11.939  0.0934 -0.3625  0.6093
  437TMC3    H2 6520   0.144   1.123  11.570 -0.3716  2.3653 -0.3640
  437TMC3    C7 6521   0.265   0.949  11.727 -0.2309 -0.3340 -0.0436
  437TMC3    C8 6522   4.699   1.306  11.609  0.4410 -0.6043 -0.2815
  437TMC3    O1 6523   0.295   0.930  11.608  0.1985 -0.2919  0.2473
  437TMC3    O2 6524   4.704   1.279  11.490 -0.2949 -0.5086  0.3542
  438MPD2     C 6525   1.911   1.445  16.911  0.1885  0.4848 -0.0753
  438MPD2    C1 6526   1.978   1.335  16.965  0.2361  0.3862  0.6511
  438MPD2    C2 6527   1.943   1.295  17.095 -0.3986 -0.1106 -0.3279
  438MPD2    C3 6528   1.847   1.362  17.165 -0.0523  0.4428  0.9957
  438MPD2    C4 6529   1.784   1.471  17.104  0.4729 -0.0724 -0.4466
  438MPD2    C5 6530   1.816   1.515  16.977 -0.3651 -0.3242  0.3745
  438MPD2     H 6531   2.003   1.221  17.147 -0.2516 -1.5892 -2.6275
  438MPD2    H1 6532   1.703   1.526  17.150  1.2855  0.5725  0.2249
  438MPD2    H2 6533   1.941   1.484  16.814 -2.5963 -1.0767 -1.5541
  438MPD2    H3 6534   1.747   1.587  16.935  1.3537  0.7819 -0.5460
  438MPD2     N 6535   1.811   1.317  17.295 -0.7131  0.0319 -0.0757
  438MPD2    H5 6536   1.848   1.224  17.313 -0.7765 -0.3991 -2.1514
  438MPD2    N1 6537   2.091   1.270  16.899  0.4373  0.1409  0.0089
  438MPD2    H7 6538   2.152   1.213  16.957 -1.3395 -1.8076 -0.0336
  439TMC3    C1 6539   2.214   1.176  16.730 -0.1343 -0.1419  0.6018
  439TMC3    C2 6540   2.288   1.206  16.616  0.0873  0.3893 -0.9887
  439TMC3    C3 6541   2.390   1.116  16.592  0.2097 -0.1893 -0.3221
  439TMC3    C4 6542   2.231   1.062  16.805 -0.6851  0.1099 -0.9154
  439TMC3    C5 6543   2.338   0.983  16.775  0.0402  0.5769 -0.1435
  439TMC3    C6 6544   2.424   1.015  16.676 -0.0679 -0.2664 -0.1764
  439TMC3     C 6545   2.127   1.288  16.772 -1.4605 -0.7418  0.1035
  439TMC3     O 6546   2.084   1.359  16.687  0.2340 -0.2880 -0.1975
  439TMC3     H 6547   2.278   1.305  16.576  2.0228  1.2965  0.7572
  439TMC3    H1 6548   2.160   1.029  16.880  0.0457 -1.2393 -0.8166
  439TMC3    H2 6549   2.509   0.951  16.653  0.1128 -0.0092 -0.2149
  439TMC3    C7 6550   2.393   0.901  16.884 -0.1286  0.1486 -0.5841
  439TMC3    C8 6551   2.465   1.141  16.474 -0.0717 -0.7796 -0.6867
  439TMC3    O1 6552   2.307   0.840  16.948  0.3306  0.2643  0.2036
  439TMC3    O2 6553   2.585   1.116  16.470 -0.3376 -0.4066  0.1225
  440MPD2     C 6554   1.040   1.870  14.533  0.6793  0.0948 -0.8501
  440MPD2    C1 6555   1.001   1.851  14.659  0.2311 -0.6281  0.4806
  440MPD2    C2 6556   1.046   1.746  14.729 -0.4593 -1.0453 -0.5149
  440MPD2    C3 6557   1.132   1.657  14.662 -0.3446 -0.1534 -0.4160
  440MPD2    C4 6558   1.183   1.691  14.538  0.3631 -0.2670  0.8352
  440MPD2    C5 6559   1.129   1.792  14.470  0.2169 -0.0447 -0.4477
  440MPD2     H 6560   1.032   1.745  14.836 -2.3432 -1.4032 -0.7600
  440MPD2    H1 6561   1.236   1.615  14.482  1.3645  1.5968 -0.7616
  440MPD2    H2 6562   0.991   1.946  14.474 -2.1385 -0.2497  1.0670
  440MPD2    H3 6563   1.144   1.811  14.364  1.5541  2.6445  0.2139
  440MPD2     N 6564   1.195   1.547  14.718  0.0193 -0.4478  0.2485
  440MPD2    H5 6565   1.271   1.501  14.669  1.0496  1.8441 -0.2977
  440MPD2    N1 6566   0.930   1.949  14.727  0.7146 -0.1016  0.0714
  440MPD2    H7 6567   0.913   1.931  14.826  1.4954 -0.0384  0.2164
  441TMC3    C1 6568   1.253   1.388  14.868 -0.3496 -0.4136  0.7114
  441TMC3    C2 6569   1.380   1.433  14.858  0.1689  0.0165  0.2116
  441TMC3    C3 6570   1.467   1.400  14.955  0.1864 -0.1455 -0.3318
  441TMC3    C4 6571   1.218   1.303  14.972 -0.4979  0.4204 -0.0455
  441TMC3    C5 6572   1.312   1.281  15.071  0.8289 -0.2741  0.2348
  441TMC3    C6 6573   1.436   1.339  15.070 -0.4089  0.3940 -0.2243
  441TMC3     C 6574   1.149   1.478  14.827 -0.1459 -0.3243  0.1230
  441TMC3     O 6575   1.048   1.492  14.893  0.3675  0.1547  0.2986
  441TMC3     H 6576   1.416   1.504  14.784 -1.1954  2.1180  1.5621
  441TMC3    H1 6577   1.114   1.273  14.975 -0.4118  0.0598 -0.8389
  441TMC3    H2 6578   1.512   1.324  15.146 -0.5522 -0.7448 -0.3104
  441TMC3    C7 6579   1.274   1.248  15.204  0.3756 -0.6087 -1.2198
  441TMC3    C8 6580   1.591   1.479  14.965 -0.6142  0.0802 -0.1497
  441TMC3    O1 6581   1.341   1.279  15.302  0.0268  0.0416 -0.3862
  441TMC3    O2 6582   1.695   1.431  15.001 -0.0996 -0.5580 -0.5004
  442MPD2     C 6583   3.911   2.740  16.608 -0.5019  0.1432  0.6293
  442MPD2    C1 6584   3.822   2.645  16.657  0.1488  0.1946 -0.2177
  442MPD2    C2 6585   3.831   2.516  16.614  0.1053 -0.3104  0.1785
  442MPD2    C3 6586   3.923   2.480  16.509 -0.2921  0.0648 -0.2006
  442MPD2    C4 6587   4.005   2.580  16.462  0.1213 -0.4258  1.1177
  442MPD2    C5 6588   4.001   2.708  16.511 -0.4988 -0.0620  0.0197
  442MPD2     H 6589   3.763   2.443  16.655  0.1470 -0.6486 -0.3457
  442MPD2    H1 6590   4.078   2.550  16.388 -0.7965 -1.1599  0.5180
  442MPD2    H2 6591   3.911   2.845  16.635  0.3060  0.3738 -0.2810
  442MPD2    H3 6592   4.065   2.780  16.462  1.1990 -0.0981  2.1527
  442MPD2     N 6593   3.935   2.349  16.459  0.1316  0.4375 -0.1890
  442MPD2    H5 6594   4.009   2.348  16.389  0.5537  1.4883  0.2372
  442MPD2    N1 6595   3.734   2.671  16.760  0.0996 -0.0444  0.2841
  442MPD2    H7 6596   3.682   2.591  16.796  2.1448 -1.2447  0.5314
  443TMC3    C1 6597   3.642   2.779  16.944 -0.5594  0.6809  0.2858
  443TMC3    C2 6598   3.563   2.886  16.958  0.2219 -0.2204 -0.3989
  443TMC3    C3 6599   3.434   2.865  17.003  0.1513 -0.3081  0.3390
  443TMC3    C4 6600   3.613   2.650  16.989 -0.3440 -0.1994  0.8320
  443TMC3    C5 6601   3.496   2.640  17.059 -0.0318  0.1234  0.0121
  443TMC3    C6 6602   3.398   2.744  17.062  0.0838  0.0238 -0.1552
  443TMC3     C 6603   3.729   2.792  16.825 -0.4150  0.9163 -0.1547
  443TMC3     O 6604   3.791   2.895  16.813 -0.2804 -0.4506 -0.2101
  443TMC3     H 6605   3.590   2.976  16.905  0.2318  0.3699  0.6153
  443TMC3    H1 6606   3.682   2.569  16.970 -1.5485 -0.7867 -1.1137
  443TMC3    H2 6607   3.298   2.735  17.104 -0.3616  0.4042 -1.1107
  443TMC3    C7 6608   3.478   2.512  17.124 -0.1627 -0.0858  0.7176
  443TMC3    C8 6609   3.322   2.957  16.989  0.1629  0.2038  0.7018
  443TMC3    O1 6610   3.550   2.422  17.089 -0.1152  0.0789  0.4894
  443TMC3    O2 6611   3.258   2.969  17.094  0.5467 -0.5347 -0.4591
  444MPD2     C 6612   4.398   1.900  16.940 -0.5990  0.0855 -0.8973
  444MPD2    C1 6613   4.291   1.826  16.914 -0.1896  0.5254 -0.2964
  444MPD2    C2 6614   4.306   1.711  16.842 -0.2468 -0.0403 -0.0028
  444MPD2    C3 6615   4.429   1.664  16.814 -0.1741  0.3941  0.6452
  444MPD2    C4 6616   4.542   1.738  16.846  0.8085  0.5087 -0.5416
  444MPD2    C5 6617   4.522   1.862  16.903 -0.4750 -0.2627 -0.0797
  444MPD2     H 6618   4.219   1.651  16.816  0.1477 -0.3751 -0.5362
  444MPD2    H1 6619   4.645   1.709  16.826  1.2317  2.1353 -0.7002
  444MPD2    H2 6620   4.392   1.992  16.998  1.7213 -0.8325  0.7796
  444MPD2    H3 6621   4.607   1.921  16.936  0.5980 -1.1933 -1.1753
  444MPD2     N 6622   4.439   1.539  16.745 -0.4264  0.1423 -0.4560
  444MPD2    H5 6623   4.352   1.486  16.742  0.7002 -1.7207  0.0692
  444MPD2    N1 6624   4.158   1.872  16.952 -0.7083 -0.5687 -0.0320
  444MPD2    H7 6625   4.086   1.814  16.910 -1.5507  0.0079  0.5968
  445TMC3    C1 6626   4.549   1.343  16.697 -1.0000  0.0217 -0.3607
  445TMC3    C2 6627   4.460   1.302  16.603  0.6799 -0.2395 -0.2855
  445TMC3    C3 6628   4.483   1.178  16.545  0.3188 -0.0393 -0.8326
  445TMC3    C4 6629   4.664   1.272  16.724  0.0119  0.4335 -0.1165
  445TMC3    C5 6630   4.671   1.145  16.672 -0.4249  0.3880 -0.2598
  445TMC3    C6 6631   4.588   1.098  16.576 -0.1817 -0.2823 -0.7947
  445TMC3     C 6632   4.563   1.482  16.722  0.0571  0.4454  0.7030
  445TMC3     O 6633   4.678   1.527  16.712  0.0295 -0.0266  0.8393
  445TMC3     H 6634   4.384   1.368  16.564  0.0495 -1.8183 -1.7258
  445TMC3    H1 6635   0.006   1.304  16.804  1.0002 -0.4207 -0.5967
  445TMC3    H2 6636   4.605   1.003  16.527  0.3382  0.3647 -1.8469
  445TMC3    C7 6637   0.088   1.102  16.651  0.4873  0.5807  0.9742
  445TMC3    C8 6638   4.382   1.146  16.449 -0.2355 -0.4313 -0.5686
  445TMC3    O1 6639   0.117   1.040  16.548 -0.2366 -0.1058 -0.0431
  445TMC3    O2 6640   4.278   1.208  16.459 -0.2052  0.3286  0.0695
  446MPD2     C 6641   4.102   3.159  11.678  0.1290 -0.2833  0.4225
  446MPD2    C1 6642   4.071   3.188  11.543 -0.0802  0.4990  0.0358
  446MPD2    C2 6643   4.144   3.294  11.484 -0.3465 -0.6147 -0.7484
  446MPD2    C3 6644   4.246   3.369  11.551  0.0917  0.1711 -0.2790
  446MPD2    C4 6645   4.243   3.357  11.687  0.7986  1.6096 -0.6221
  446MPD2    C5 6646   4.169   3.256  11.750  0.4403  0.3610 -0.5002
  446MPD2     H 6647   4.142   3.309  11.377 -0.8702 -1.2866 -0.8311
  446MPD2    H1 6648   4.307   3.407  11.760  2.8440 -0.4254 -1.0340
  446MPD2    H2 6649   4.057   3.091  11.750  1.0376  0.9930  2.2004
  446MPD2    H3 6650   4.173   3.255  11.859 -2.7088  1.7453 -0.3923
  446MPD2     N 6651   4.336   3.445  11.484  0.2638  0.4484 -0.0914
  446MPD2    H5 6652   4.329   3.449  11.383  0.0950  2.2917 -0.0121
  446MPD2    N1 6653   3.977   3.116  11.461 -0.0806  0.4009 -0.3746
  446MPD2    H7 6654   3.958   3.157  11.370  1.7340 -0.1943 -1.0194
  447TMC3    C1 6655   4.551   3.531  11.441  0.3991 -0.6770 -0.7473
  447TMC3    C2 6656   4.520   3.537  11.305  0.4444 -0.0275 -0.1103
  447TMC3    C3 6657   4.621   3.557  11.222 -0.3773  0.3746 -0.0090
  447TMC3    C4 6658   4.683   3.537  11.481 -0.4037 -0.2328 -0.0490
  447TMC3    C5 6659   0.054   3.544  11.385 -0.1748  0.0132 -0.1605
  447TMC3    C6 6660   0.028   3.552  11.255 -0.1515 -0.0496  0.4446
  447TMC3     C 6661   4.447   3.512  11.537 -0.1626 -0.2708  0.2222
  447TMC3     O 6662   4.468   3.531  11.655 -0.7882 -0.4365 -0.4861
  447TMC3     H 6663   4.422   3.562  11.268  0.7386 -1.4425 -1.8361
  447TMC3    H1 6664   4.709   3.533  11.586  0.4190 -2.0538 -0.3280
  447TMC3    H2 6665   0.109   3.554  11.183 -0.5283 -1.0345 -0.0003
  447TMC3    C7 6666   0.185   3.496  11.421 -0.3179 -0.4245  0.1528
  447TMC3    C8 6667   4.598   3.540  11.078 -0.9464 -0.0689  0.0611
  447TMC3    O1 6668   0.239   3.423  11.339  0.3645 -0.0264 -0.1546
  447TMC3    O2 6669   4.649   3.631  11.008  0.9259  0.0123  0.0970
  448TMC3    C1 6670   2.374   2.816  17.005 -0.6546  0.3171  0.0717
  448TMC3    C2 6671   2.307   2.718  16.938 -0.1195  0.0789  0.1654
  448TMC3    C3 6672   2.341   2.588  16.956  0.2035 -0.9636 -0.5047
  448TMC3    C4 6673   2.478   2.788  17.089 -0.4711  0.5699 -0.0435
  448TMC3    C5 6674   2.509   2.655  17.103  0.7134 -0.3106 -0.3360
  448TMC3    C6 6675   2.445   2.551  17.042  0.1631  0.1820  0.5582
  448TMC3     C 6676   2.317   2.948  17.024 -0.1661  0.1941 -0.2268
  448TMC3     O 6677   2.349   3.000  17.126 -0.1970 -0.1742 -0.0393
  448TMC3     H 6678   2.208   2.739  16.899  0.0246  2.2724  1.0338
  448TMC3    H1 6679   2.539   2.865  17.134  0.6435 -1.3959  1.8154
  448TMC3    H2 6680   2.472   2.446  17.040  0.3517  0.2079  1.6502
  448TMC3    C7 6681   2.612   2.627  17.195  0.3245  0.6048  0.0443
  448TMC3    C8 6682   2.250   2.480  16.920 -0.0610 -0.1144  0.4998
  448TMC3    O1 6683   2.706   2.702  17.217 -0.1890  0.4293  0.2434
  448TMC3    O2 6684   2.235   2.384  16.991  0.5437  0.8826 -0.4214
  449MPD2     C 6685   3.627   0.920  14.134 -0.2619  0.4407 -0.5455
  449MPD2    C1 6686   3.533   0.902  14.031  0.7386 -0.3111 -0.2024
  449MPD2    C2 6687   3.402   0.924  14.064 -0.0721 -0.2720  0.0088
  449MPD2    C3 6688   3.365   0.963  14.192 -0.6578 -0.2166 -0.1042
  449MPD2    C4 6689   3.460   0.995  14.288  0.3521  0.1195 -0.6192
  449MPD2    C5 6690   3.592   0.967  14.262  0.1350 -0.5157 -0.2872
  449MPD2     H 6691   3.325   0.911  13.989  0.4015  0.6910 -0.6506
  449MPD2    H1 6692   3.425   1.031  14.384 -0.1355 -1.6741 -0.1061
  449MPD2    H2 6693   3.731   0.913  14.102 -0.8354 -0.0714 -2.3292
  449MPD2    H3 6694   3.667   0.997  14.334 -0.6322  1.8520 -0.4829
  449MPD2     N 6695   3.227   0.966  14.221 -0.4260 -0.6244 -0.1657
  449MPD2    H5 6696   3.170   0.942  14.140 -1.3920 -2.8839  1.1834
  449MPD2    N1 6697   3.563   0.845  13.902 -0.4339  0.1416 -0.0136
  449MPD2    H7 6698   3.474   0.826  13.857  0.7622  0.6366 -2.6169
  450TMC3    C1 6699   3.676   0.809  13.700  0.7243  0.0635  0.0001
  450TMC3    C2 6700   3.752   0.906  13.646 -0.0024  0.1247 -0.4456
  450TMC3    C3 6701   3.681   0.990  13.565 -0.8493  0.3068 -0.4075
  450TMC3    C4 6702   3.549   0.778  13.661 -0.3820  0.0256  0.3355
  450TMC3    C5 6703   3.484   0.856  13.575  0.5715 -0.5517 -0.6936
  450TMC3    C6 6704   3.545   0.971  13.537 -0.4119 -0.1403 -0.3643
  450TMC3     C 6705   3.690   0.832  13.845 -0.0126 -0.0453  0.8718
  450TMC3     O 6706   3.801   0.867  13.888  0.4756  0.3952 -0.4274
  450TMC3     H 6707   3.850   0.928  13.687 -0.3127  1.2458 -0.3092
  450TMC3    H1 6708   3.494   0.696  13.705 -0.8645  1.8059  3.0828
  450TMC3    H2 6709   3.497   1.041  13.470 -2.7114 -0.9840  0.3882
  450TMC3    C7 6710   3.352   0.880  13.630 -0.2780  0.2470  0.4503
  450TMC3    C8 6711   3.751   1.064  13.465 -0.6423 -0.3079  0.5271
  450TMC3    O1 6712   3.325   0.822  13.734 -0.4301 -0.0250  0.3237
  450TMC3    O2 6713   3.685   1.119  13.382 -0.1347 -0.0699  0.4274
  451MPD2     C 6714   0.629   0.647   1.448 -0.5334  0.2087  0.1045
  451MPD2    C1 6715   0.564   0.633   1.328  0.4623  0.6347  0.2439
  451MPD2    C2 6716   0.517   0.510   1.283  0.2274 -0.1211  0.6756
  451MPD2    C3 6717   0.526   0.398   1.349  0.2680  0.4901 -0.3713
  451MPD2    C4 6718   0.584   0.410   1.474  0.1803  0.3376 -0.4500
  451MPD2    C5 6719   0.635   0.532   1.522 -0.3241  0.2857  0.3453
  451MPD2     H 6720   0.453   0.517   1.196 -0.4245  3.2254  1.4153
  451MPD2    H1 6721   0.594   0.323   1.538 -1.6893  0.1833 -0.3576
  451MPD2    H2 6722   0.671   0.739   1.488 -0.2395 -0.4592  1.3345
  451MPD2    H3 6723   0.674   0.535   1.624  2.7624  0.3406 -0.8246
  451MPD2     N 6724   0.473   0.267   1.314  0.2829 -0.0379 -0.0738
  451MPD2    H5 6725   0.480   0.201   1.391 -0.3767 -1.1756 -0.9874
  451MPD2    N1 6726   0.537   0.757   1.257  0.3300  0.4344 -0.3446
  451MPD2    H7 6727   0.558   0.837   1.316 -1.7890  1.3381 -0.8111
  452TMC3    C1 6728   0.349   0.120   1.169 -0.2010 -0.0559  0.1820
  452TMC3    C2 6729   0.318   0.022   1.259  0.2421 -0.2399 -0.8232
  452TMC3    C3 6730   0.228   4.646   1.219 -0.8546 -0.1268 -0.3175
  452TMC3    C4 6731   0.310   0.106   1.034  0.6570 -0.0115  0.2521
  452TMC3    C5 6732   0.230   4.723   1.001 -0.3245 -0.6339  0.3885
  452TMC3    C6 6733   0.186   4.628   1.086 -0.3381 -0.0999 -0.3360
  452TMC3     C 6734   0.423   0.242   1.189 -0.1838 -0.6050 -0.4512
  452TMC3     O 6735   0.425   0.319   1.094  0.1637 -0.9880 -0.5791
  452TMC3     H 6736   0.359   0.033   1.359  0.2793 -0.7327 -0.7813
  452TMC3    H1 6737   0.337   0.171   0.952 -1.1389  1.0823  0.5187
  452TMC3    H2 6738   0.133   4.538   1.058  0.2785 -0.9164  1.0670
  452TMC3    C7 6739   0.174   0.003   0.872  0.3570 -0.1001 -0.1446
  452TMC3    C8 6740   0.171   4.565   1.329 -0.4956 -0.1222 -0.2799
  452TMC3    O1 6741   0.249   0.054   0.792  0.5476  0.3362  0.0540
  452TMC3    O2 6742   0.238   4.576   1.432  0.1354 -0.6649  0.0785
  453TMC3    C1 6743   1.664   2.004  12.109  0.0019 -0.5618  0.4213
  453TMC3    C2 6744   1.617   1.876  12.092  0.0790  0.0570 -0.0359
  453TMC3    C3 6745   1.489   1.856  12.054  0.1490 -0.0623  1.2890
  453TMC3    C4 6746   1.584   2.103  12.074  0.1190  0.2139  0.1557
  453TMC3    C5 6747   1.465   2.087  12.005  0.4046  0.3517  0.2449
  453TMC3    C6 6748   1.414   1.959  12.004 -0.7029 -0.5066 -0.3323
  453TMC3     C 6749   1.805   2.040  12.075 -0.3920  0.0610  0.9749
  453TMC3     O 6750   1.826   2.158  12.050  0.0631 -0.2506 -0.3344
  453TMC3     H 6751   1.661   1.805  12.162  0.6346 -0.6110 -1.0668
  453TMC3    H1 6752   1.609   2.204  12.106  1.9614 -0.3702  0.5599
  453TMC3    H2 6753   1.321   1.936  11.952 -0.2389 -1.8796 -0.5425
  453TMC3    C7 6754   1.468   2.146  11.873  1.0714 -0.6540  0.1493
  453TMC3    C8 6755   1.419   1.725  12.072 -0.6353  0.3731  0.8156
  453TMC3    O1 6756   1.373   2.131  11.797 -0.3473 -0.5967  0.0663
  453TMC3    O2 6757   1.294   1.720  12.065 -0.2473 -0.0509 -0.2107
  454MPD2     C 6758   0.360   1.566  16.495  0.0675  0.5374 -0.5852
  454MPD2    C1 6759   0.306   1.677  16.443  0.3982 -0.1817 -0.1952
  454MPD2    C2 6760   0.251   1.774  16.532  0.0126 -0.2166  0.8381
  454MPD2    C3 6761   0.247   1.757  16.668  0.6847  0.1074 -0.1079
  454MPD2    C4 6762   0.303   1.643  16.720 -0.0295  0.1185 -0.2942
  454MPD2    C5 6763   0.351   1.547  16.631  0.3999 -0.4075  0.6324
  454MPD2     H 6764   0.219   1.868  16.489  2.4415  0.0523 -0.3800
  454MPD2    H1 6765   0.311   1.621  16.826  0.5184  1.4683 -0.0514
  454MPD2    H2 6766   0.399   1.486  16.434  1.2743  1.6316 -1.2473
  454MPD2    H3 6767   0.416   1.472  16.672  0.5898 -1.1511 -1.0293
  454MPD2     N 6768   0.185   1.853  16.750  0.1208 -0.3110  0.5605
  454MPD2    H5 6769   0.184   1.833  16.849  1.8182  0.4522  0.7221
  454MPD2    N1 6770   0.289   1.690  16.301  0.1226 -0.5340 -0.2826
  454MPD2    H7 6771   0.250   1.777  16.266  3.7416  1.4321  0.5488
  455TMC3    C1 6772   0.010   1.926  16.585 -0.1021  0.1880  0.1735
  455TMC3    C2 6773   4.671   2.038  16.543  0.1691  0.1209 -0.7944
  455TMC3    C3 6774   4.549   2.013  16.477 -0.0803 -0.0517 -0.5714
  455TMC3    C4 6775   4.693   1.796  16.562  0.3200  0.3446 -0.2769
  455TMC3    C5 6776   4.593   1.783  16.465 -0.1212 -0.5179  0.2291
  455TMC3    C6 6777   4.519   1.893  16.427 -0.2014 -0.0540 -0.4245
  455TMC3     C 6778   0.090   1.953  16.707  0.5962 -0.5750 -0.3019
  455TMC3     O 6779   0.041   2.034  16.782 -0.5217  0.7314 -0.3581
  455TMC3     H 6780   4.705   2.133  16.584 -0.3638 -0.2799  0.5722
  455TMC3    H1 6781   0.020   1.711  16.607  2.7894  1.3569 -1.1373
  455TMC3    H2 6782   4.440   1.878  16.354 -0.5200  1.7141 -0.4495
  455TMC3    C7 6783   4.582   1.657  16.383 -0.3175 -0.0537 -0.0590
  455TMC3    C8 6784   4.446   2.096  16.532 -0.0239 -0.1720  1.0640
  455TMC3    O1 6785   4.492   1.648  16.299 -0.1091  0.3803  0.4863
  455TMC3    O2 6786   4.485   2.208  16.559  0.2974  0.3871  0.8933
  456MPD2     C 6787   2.322   1.628  16.102  0.7317 -0.1934 -0.8847
  456MPD2    C1 6788   2.410   1.623  16.205 -0.1076 -0.4512 -0.2582
  456MPD2    C2 6789   2.363   1.623  16.333  0.2879  0.1714  0.0181
  456MPD2    C3 6790   2.228   1.629  16.359 -0.8065  0.7030 -0.1605
  456MPD2    C4 6791   2.143   1.647  16.252  0.2078  0.7282 -0.2204
  456MPD2    C5 6792   2.189   1.639  16.128  0.5851 -0.1935 -0.9000
  456MPD2     H 6793   2.431   1.621  16.418 -0.3878  0.9415  0.5797
  456MPD2    H1 6794   2.036   1.651  16.266 -0.0048  2.4291 -2.3037
  456MPD2    H2 6795   2.343   1.613  15.997  0.7848 -1.0819 -0.7505
  456MPD2    H3 6796   2.121   1.646  16.044  0.2007 -1.5530 -0.7088
  456MPD2     N 6797   2.182   1.643  16.491  0.0005 -0.5523 -0.4267
  456MPD2    H5 6798   2.248   1.637  16.568 -3.2971 -3.0475  2.2366
  456MPD2    N1 6799   2.543   1.610  16.174  0.3219  0.7060  0.1398
  456MPD2    H7 6800   2.571   1.608  16.076 -0.3982  0.5390 -0.0645
  457TMC3    C1 6801   2.023   1.727  16.659  0.3782 -0.6918 -0.3751
  457TMC3    C2 6802   1.930   1.831  16.674  0.7740 -0.7085  0.3306
  457TMC3    C3 6803   1.901   1.878  16.801  0.2959  0.4130 -0.0482
  457TMC3    C4 6804   2.097   1.681  16.762  0.7861  0.1149 -0.3768
  457TMC3    C5 6805   2.073   1.732  16.886 -0.1678  0.0186  0.9140
  457TMC3    C6 6806   1.966   1.815  16.909 -0.2735 -0.1731 -0.2027
  457TMC3     C 6807   2.052   1.689  16.522  0.3089  0.0751 -0.1609
  457TMC3     O 6808   1.951   1.693  16.453 -0.1111  0.4749  0.0919
  457TMC3     H 6809   1.879   1.857  16.582 -0.6290 -0.4357  1.1900
  457TMC3    H1 6810   2.185   1.618  16.750  0.4555 -0.8915  2.5254
  457TMC3    H2 6811   1.941   1.845  17.010  2.2533  0.1929  0.3161
  457TMC3    C7 6812   2.177   1.747  16.990  0.3591  0.5689 -0.1542
  457TMC3    C8 6813   1.928   2.021  16.824  0.0130  0.1365  0.3222
  457TMC3    O1 6814   2.273   1.676  16.965 -0.5880  0.1639 -0.1302
  457TMC3    O2 6815   1.993   2.049  16.926  0.3686 -0.3366 -0.6782
  458MPD2     C 6816   0.699   0.742  11.918  0.8873 -0.1637  0.4886
  458MPD2    C1 6817   0.629   0.796  12.018  0.0415 -0.3440 -0.9346
  458MPD2    C2 6818   0.499   0.848  11.991  0.1021  0.4271  0.0077
  458MPD2    C3 6819   0.452   0.848  11.865 -0.3587  0.0606 -0.0718
  458MPD2    C4 6820   0.528   0.792  11.759  0.4274 -0.6421 -0.6336
  458MPD2    C5 6821   0.648   0.734  11.789  0.0044  0.0338  0.1834
  458MPD2     H 6822   0.440   0.888  12.073  1.6910  0.1695  1.2969
  458MPD2    H1 6823   0.495   0.803  11.656 -2.4043  1.0027  0.4367
  458MPD2    H2 6824   0.798   0.698  11.921  0.2228 -1.7343 -0.5399
  458MPD2    H3 6825   0.703   0.691  11.707  0.5493 -0.1616  0.6463
  458MPD2     N 6826   0.335   0.926  11.844 -1.1791  0.1435 -0.5742
  458MPD2    H5 6827   0.296   0.967  11.928 -0.5172 -0.5946  0.0914
  458MPD2    N1 6828   0.699   0.806  12.138  0.0124 -0.0725 -0.9322
  458MPD2    H7 6829   0.795   0.772  12.143  0.2451  0.8196  0.6072
  459TMC3    C1 6830   0.727   0.849  12.365  0.0076 -0.2337  0.7282
  459TMC3    C2 6831   0.856   0.893  12.345  0.8619 -0.2548  0.7455
  459TMC3    C3 6832   0.915   0.979  12.433  0.1734 -0.4811 -0.6244
  459TMC3    C4 6833   0.671   0.868  12.485 -0.1361  0.2529  0.3151
  459TMC3    C5 6834   0.739   0.945  12.575  0.0172 -0.1273  0.3467
  459TMC3    C6 6835   0.861   0.999  12.556  0.6661 -0.0138 -0.9840
  459TMC3     C 6836   0.643   0.830  12.260  0.2883 -0.3000 -0.3551
  459TMC3     O 6837   0.521   0.828  12.285 -0.5870 -0.2831  0.3947
  459TMC3     H 6838   0.895   0.893  12.244 -1.1747  0.9632 -0.0505
  459TMC3    H1 6839   0.573   0.835  12.515  0.1168 -1.1491 -0.3767
  459TMC3    H2 6840   0.913   1.058  12.631  0.5463  0.8891 -1.6110
  459TMC3    C7 6841   0.726   0.897  12.709 -0.6504  0.8341  0.0165
  459TMC3    C8 6842   1.052   1.024  12.412  0.0072  0.3480  0.2213
  459TMC3    O1 6843   0.670   0.794  12.724 -0.7551  0.4115  0.2797
  459TMC3    O2 6844   1.100   1.109  12.485  0.3950  0.0749  0.1263
  460MPD2     C 6845   4.423   3.296  10.871  0.7764  0.3655  0.0627
  460MPD2    C1 6846   4.486   3.409  10.903  0.5939  0.0757  0.3749
  460MPD2    C2 6847   4.499   3.501  10.796  0.0737  0.4565 -0.2659
  460MPD2    C3 6848   4.466   3.461  10.669 -0.1343 -0.6451 -0.0354
  460MPD2    C4 6849   4.401   3.335  10.646  0.1809  0.3394  0.1434
  460MPD2    C5 6850   4.377   3.255  10.752 -0.7468  0.0322  0.2816
  460MPD2     H 6851   4.545   3.598  10.811 -1.0691  1.3102 -2.2460
  460MPD2    H1 6852   4.381   3.303  10.545  0.2331 -0.7458  0.4695
  460MPD2    H2 6853   4.406   3.222  10.947  0.4709  1.1451  0.7545
  460MPD2    H3 6854   4.315   3.166  10.745 -1.3139  0.4154  0.4863
  460MPD2     N 6855   4.493   3.548  10.562  0.1786  0.5205  0.4693
  460MPD2    H5 6856   4.523   3.643  10.584 -2.1796  1.3480  0.0201
  460MPD2    N1 6857   4.530   3.426  11.036 -0.4126  0.1064  0.0373
  460MPD2    H7 6858   4.510   3.350  11.100 -0.6110  0.0818 -0.0536
  461TMC3    C1 6859   4.479   3.636  10.350  0.1935 -0.6933  0.2725
  461TMC3    C2 6860   4.501   3.606  10.217  0.9829 -0.3538 -0.1345
  461TMC3    C3 6861   4.511   3.706  10.129 -0.5369  0.1777 -0.0163
  461TMC3    C4 6862   4.461   3.764  10.400 -1.0151  0.3625 -0.6052
  461TMC3    C5 6863   4.481   3.867  10.309  0.0678  0.2966  0.0956
  461TMC3    C6 6864   4.503   3.834  10.180  0.1524 -0.1700 -0.2381
  461TMC3     C 6865   4.488   3.517  10.431 -0.0365 -0.6306  0.4295
  461TMC3     O 6866   4.504   3.408  10.378  0.2920 -0.0252  0.1048
  461TMC3     H 6867   4.515   3.508  10.173 -0.1167  0.6638 -2.7164
  461TMC3    H1 6868   4.438   3.775  10.505  0.4879 -1.7722 -0.0514
  461TMC3    H2 6869   4.513   3.917  10.110  0.1012 -1.6616 -2.0088
  461TMC3    C7 6870   4.392   3.978  10.319  0.8539 -0.2487  0.2046
  461TMC3    C8 6871   4.428   3.687  10.013  0.1290  0.8545  1.0819
  461TMC3    O1 6872   4.352   4.022  10.211  1.1050  0.6780  0.4118
  461TMC3    O2 6873   4.441   3.590   9.944 -0.3903 -0.0253 -0.1048
  462TMC3    C1 6874   4.285   4.063  17.658  0.2236  0.2976  0.1718
  462TMC3    C2 6875   4.274   3.950  17.575 -0.0658 -0.1691 -0.3429
  462TMC3    C3 6876   4.171   3.861  17.602  0.7418  0.8750  0.8019
  462TMC3    C4 6877   4.212   4.078   0.073  0.0218 -0.7952  0.0103
  462TMC3    C5 6878   4.101   3.999   0.084 -0.1058 -0.2521 -0.1726
  462TMC3    C6 6879   4.079   3.887   0.007 -1.0345 -0.2242  0.1699
  462TMC3     C 6880   4.401   4.143  17.654  0.6124 -0.3873  0.2173
  462TMC3     O 6881   4.427   4.205   0.063  0.1608 -0.4365  0.3244
  462TMC3     H 6882   4.353   3.937  17.502 -1.4458  1.0643 -2.0434
  462TMC3    H1 6883   4.240   4.143   0.155  0.8743 -0.7790 -0.2945
  462TMC3    H2 6884   3.986   3.832   0.020 -1.3197  0.2714  0.2483
  462TMC3    C7 6885   4.024   3.993   0.203 -0.0444 -0.6857 -0.4366
  462TMC3    C8 6886   4.155   3.736  17.535  0.2177  0.0383 -0.3568
  462TMC3    O1 6887   3.970   3.888   0.231  0.0255 -0.2672  0.1928
  462TMC3    O2 6888   4.083   3.653  17.581  0.4241  0.2099 -0.1597
  463MPD2     C 6889   0.122   3.585   1.946 -0.2250  0.0146  0.1957
  463MPD2    C1 6890   0.025   3.627   1.861 -0.1475 -0.1702  0.1987
  463MPD2    C2 6891   0.041   3.743   1.790 -0.6799 -0.2353 -0.5844
  463MPD2    C3 6892   0.159   3.807   1.792  0.4844 -0.2117  0.0385
  463MPD2    C4 6893   0.263   3.762   1.873 -0.1100 -0.4947  0.4695
  463MPD2    C5 6894   0.240   3.650   1.947  0.3048 -0.4571  0.3758
  463MPD2     H 6895   4.684   3.773   1.724  0.6648  1.6563 -1.3594
  463MPD2    H1 6896   0.363   3.804   1.879 -1.3366  2.5021  0.3063
  463MPD2    H2 6897   0.113   3.488   1.995 -0.6229  0.3909  0.8759
  463MPD2    H3 6898   0.321   3.598   1.998  1.0403 -1.1926 -1.5380
  463MPD2     N 6899   0.195   3.913   1.709 -0.5705 -0.6703 -0.4244
  463MPD2    H5 6900   0.292   3.941   1.715 -0.5770 -0.6023 -0.6315
  463MPD2    N1 6901   4.627   3.552   1.842  0.4774  0.2535  0.4055
  463MPD2    H7 6902   4.559   3.595   1.780  0.8093  0.9008  0.4977
  464TMC3    C1 6903   4.439   3.425   1.900  0.5078 -0.5344  0.1786
  464TMC3    C2 6904   4.394   3.412   1.772  0.0587 -0.1872  0.0329
  464TMC3    C3 6905   4.278   3.343   1.748  0.5438  0.2669 -0.0323
  464TMC3    C4 6906   4.372   3.395   2.020  0.6389  0.7923  0.6642
  464TMC3    C5 6907   4.252   3.329   1.990  1.0137  0.3583 -0.2210
  464TMC3    C6 6908   4.212   3.305   1.860 -1.0485  0.2518  0.9664
  464TMC3     C 6909   4.580   3.451   1.918 -0.1203 -0.5938  0.3415
  464TMC3     O 6910   4.633   3.409   2.017  0.3276 -0.3052  0.4339
  464TMC3     H 6911   4.451   3.438   1.683  2.9918 -4.1910  0.7513
  464TMC3    H1 6912   4.424   3.388   2.115  0.7754 -2.8811  0.3081
  464TMC3    H2 6913   4.108   3.276   1.848 -0.7218 -0.1369 -0.8484
  464TMC3    C7 6914   4.212   3.247   2.103  0.3626  0.2044  0.1570
  464TMC3    C8 6915   4.199   3.365   1.625  0.1274 -0.2621 -1.1880
  464TMC3    O1 6916   4.221   3.292   2.216  0.7522  0.1205  0.2446
  464TMC3    O2 6917   4.238   3.453   1.551  0.1301 -0.5342  0.4160
  465MPD2     C 6918   1.538   1.814  16.965  0.0160 -0.6243  0.3062
  465MPD2    C1 6919   1.429   1.800  17.056 -0.1125  0.2580  0.2658
  465MPD2    C2 6920   1.295   1.799  17.019 -0.5055 -0.3567 -0.2381
  465MPD2    C3 6921   1.270   1.837  16.891  0.8358 -0.5574 -0.2966
  465MPD2    C4 6922   1.372   1.841  16.795  0.1845 -0.7065 -0.7396
  465MPD2    C5 6923   1.507   1.836  16.835  0.1061  0.0931 -0.4953
  465MPD2     H 6924   1.213   1.777  17.087 -1.2166 -0.0097 -0.9791
  465MPD2    H1 6925   1.355   1.856  16.689  0.1020  0.8226 -0.5037
  465MPD2    H2 6926   1.643   1.812  16.993  0.1319  1.1032 -0.0353
  465MPD2    H3 6927   1.590   1.847  16.765  0.6224 -1.5369 -0.1351
  465MPD2     N 6928   1.135   1.863  16.856  0.8110  0.9367  0.9142
  465MPD2    H5 6929   1.065   1.874  16.928  0.4426  1.5181  0.4693
  465MPD2    N1 6930   1.459   1.773  17.190 -0.5149 -0.3150  0.5313
  465MPD2    H7 6931   1.380   1.762  17.253  0.0651  1.1286  1.5047
  466TMC3    C1 6932   0.815   2.063  16.872  0.3545  0.0716  0.9552
  466TMC3    C2 6933   0.807   2.157  16.773 -1.4837  0.6790 -0.6959
  466TMC3    C3 6934   0.861   2.127  16.653 -0.3068 -1.2686  0.0322
  466TMC3    C4 6935   0.889   1.950  16.855 -0.1892 -0.1353  0.8331
  466TMC3    C5 6936   0.946   1.926  16.736  0.0283  0.3877  0.6032
  466TMC3    C6 6937   0.930   2.012  16.636 -0.1229  0.3599  0.5296
  466TMC3     C 6938   0.779   2.092  17.010  0.1447  0.1551 -0.3282
  466TMC3     O 6939   0.831   2.011  17.088  0.0948 -0.0758 -0.3341
  466TMC3     H 6940   0.740   2.240  16.791 -1.4126  0.2800  1.3970
  466TMC3    H1 6941   0.894   1.870  16.927 -1.8809 -0.5763  0.4693
  466TMC3    H2 6942   0.980   2.011  16.540 -2.3414  0.5565 -0.6302
  466TMC3    C7 6943   1.081   1.865  16.733 -0.4111  0.5044 -0.5236
  466TMC3    C8 6944   0.908   2.230  16.572 -0.4865  0.1786  0.4424
  466TMC3    O1 6945   1.135   1.842  16.625  0.0745  0.3751 -0.4054
  466TMC3    O2 6946   0.962   2.201  16.466  0.7403 -0.0435 -0.3678
  467TMC3    C1 6947   2.666   0.237  13.929  0.2957  0.1630  0.4837
  467TMC3    C2 6948   2.615   0.349  13.867  0.4525  0.4910 -0.3967
  467TMC3    C3 6949   2.509   0.416  13.918  0.1199 -0.4177 -0.8807
  467TMC3    C4 6950   2.605   0.188  14.044 -0.1278 -0.5491 -0.2831
  467TMC3    C5 6951   2.492   0.248  14.084 -0.1279  0.0065  0.2249
  467TMC3    C6 6952   2.449   0.368  14.032 -0.0364  0.6845  0.2627
  467TMC3     C 6953   2.804   0.208  13.903 -0.0548 -0.2650  0.3470
  467TMC3     O 6954   2.850   0.262  13.803  0.7113 -0.3876  0.3697
  467TMC3     H 6955   2.669   0.388  13.781 -2.8871  1.2364 -2.1879
  467TMC3    H1 6956   2.623   0.086  14.074  0.6996  0.2141  1.8687
  467TMC3    H2 6957   2.370   0.423  14.082 -2.3191 -0.1446 -2.4437
  467TMC3    C7 6958   2.418   0.191  14.196 -0.0489  0.0417  0.6222
  467TMC3    C8 6959   2.468   0.542  13.862 -0.7896 -0.2201  0.0126
  467TMC3    O1 6960   2.491   0.127  14.264  0.4552  0.4837 -0.3027
  467TMC3    O2 6961   2.541   0.593  13.778 -0.0500  0.1626  0.1369
  468MPD2     C 6962   1.433   2.961  10.320 -0.6771 -0.1564 -0.7088
  468MPD2    C1 6963   1.555   2.995  10.374  0.3864 -0.5401 -0.4078
  468MPD2    C2 6964   1.589   2.928  10.492 -0.1869  0.4890  0.7470
  468MPD2    C3 6965   1.514   2.826  10.547  0.5313  0.0142  0.7897
  468MPD2    C4 6966   1.394   2.800  10.488 -0.7664  0.5609 -0.5547
  468MPD2    C5 6967   1.352   2.870  10.381 -0.1580 -0.1855  0.2148
  468MPD2     H 6968   1.689   2.943  10.530  0.9270 -0.3766 -1.8950
  468MPD2    H1 6969   1.325   2.725  10.523 -0.7513 -0.0178 -1.7765
  468MPD2    H2 6970   1.394   3.003  10.228  0.1991  2.0253 -0.0879
  468MPD2    H3 6971   1.259   2.848  10.330 -1.0552  2.4504  0.7517
  468MPD2     N 6972   1.544   2.741  10.663 -0.1946 -0.6260  0.2877
  468MPD2    H5 6973   1.468   2.677  10.683 -1.1224  0.0991 -0.8905
  468MPD2    N1 6974   1.639   3.090  10.313  0.5343  0.1612  0.0838
  468MPD2    H7 6975   1.722   3.108  10.368 -0.0993  0.0199  1.0696
  469TMC3    C1 6976   1.736   3.231  10.157 -0.0287 -0.1518  0.1699
  469TMC3    C2 6977   1.811   3.291  10.251 -0.0326  0.1449  0.3448
  469TMC3    C3 6978   1.925   3.358  10.214  0.2617 -0.1857  0.7024
  469TMC3    C4 6979   1.758   3.249  10.025 -0.6994  0.9216 -0.0840
  469TMC3    C5 6980   1.872   3.319   9.995  0.6070 -0.6047  0.1696
  469TMC3    C6 6981   1.960   3.373  10.080  0.0232  0.2787  0.2751
  469TMC3     C 6982   1.624   3.147  10.190  0.5587 -0.8044  0.3501
  469TMC3     O 6983   1.556   3.108  10.099  0.3400  0.0876  0.1184
  469TMC3     H 6984   1.791   3.281  10.357 -1.0770 -0.2785  0.1100
  469TMC3    H1 6985   1.699   3.196   9.952 -0.4613 -2.6281  2.2542
  469TMC3    H2 6986   2.044   3.429  10.041 -1.6170  2.6003  0.0681
  469TMC3    C7 6987   1.867   3.366   9.857  0.2278 -0.0198  0.2379
  469TMC3    C8 6988   1.981   3.456  10.303 -0.5065  0.2413  0.2389
  469TMC3    O1 6989   1.763   3.341   9.800 -0.2403 -0.1067  0.4308
  469TMC3    O2 6990   2.036   3.556  10.258  0.1612 -0.2635 -0.0685
  470TMC3    C1 6991   4.308   4.592   1.429  0.5710 -1.0327  0.2667
  470TMC3    C2 6992   4.276   0.002   1.412  0.2266  0.1646 -0.2979
  470TMC3    C3 6993   4.288   0.088   1.514 -0.8327  0.2431 -0.1065
  470TMC3    C4 6994   4.346   4.548   1.557 -0.4879 -0.4747 -0.1246
  470TMC3    C5 6995   4.361   4.640   1.657  0.1700 -0.3807 -0.1720
  470TMC3    C6 6996   4.349   0.051   1.633 -0.2244 -0.3885 -0.7159
  470TMC3     C 6997   4.263   4.493   1.344  0.0350 -0.4504  0.7196
  470TMC3     O 6998   4.236   4.385   1.393 -0.5833 -0.0314  0.2480
  470TMC3     H 6999   4.249   0.040   1.315 -2.1711 -0.4014  0.1477
  470TMC3    H1 7000   4.377   4.446   1.573 -1.4650 -0.9307 -1.1160
  470TMC3    H2 7001   4.359   0.119   1.717 -1.0710  0.6767 -1.4747
  470TMC3    C7 7002   4.439   4.597   1.774 -0.1569  0.4346  0.1446
  470TMC3    C8 7003   4.236   0.221   1.499  0.6257 -0.1769 -0.3417
  470TMC3    O1 7004   4.519   4.679   1.818 -0.1227  0.4680  0.6306
  470TMC3    O2 7005   4.289   0.297   1.576  0.0830 -0.0416 -0.0149
  471MPD2     C 7006   4.200   0.574  16.314  0.6815  0.5030  0.4884
  471MPD2    C1 7007   4.124   0.489  16.390  0.0107 -0.1239  0.1558
  471MPD2    C2 7008   4.115   0.515  16.522  0.0858  0.3127 -0.6049
  471MPD2    C3 7009   4.189   0.616  16.574 -1.3178  0.6848 -0.1486
  471MPD2    C4 7010   4.262   0.706  16.501 -0.5486 -0.2438  0.2322
  471MPD2    C5 7011   4.271   0.682  16.363  0.0065 -0.6406 -0.5714
  471MPD2     H 7012   4.054   0.454  16.587 -0.6777 -1.0860 -2.6101
  471MPD2    H1 7013   4.325   0.785  16.541  0.3214  0.7794 -3.1787
  471MPD2    H2 7014   4.204   0.568  16.205 -0.8083  0.0905  0.4439
  471MPD2    H3 7015   4.332   0.737  16.292  1.2810 -0.0012  1.0174
  471MPD2     N 7016   4.189   0.636  16.706  0.3349  0.1646 -0.1415
  471MPD2    H5 7017   4.264   0.694  16.744  0.9777 -0.4650 -0.4485
  471MPD2    N1 7018   4.066   0.370  16.336  0.1610  0.2524 -0.2908
  471MPD2    H7 7019   4.033   0.297  16.398 -2.0046  0.5059 -1.1314
  472TMC3    C1 7020   3.969   0.237  16.171 -0.4151 -0.3902 -0.4569
  472TMC3    C2 7021   3.860   0.240  16.084 -1.0749 -0.3786  0.6403
  472TMC3    C3 7022   3.805   0.122  16.046  0.2750  0.4187  0.1441
  472TMC3    C4 7023   4.033   0.124  16.216  0.4559 -0.2054 -0.0927
  472TMC3    C5 7024   3.980   0.005  16.168 -0.3813 -0.2882 -0.2963
  472TMC3    C6 7025   3.868   0.008  16.088  0.5820 -0.3186 -0.1201
  472TMC3     C 7026   4.050   0.355  16.198  0.2255  0.0742 -0.8464
  472TMC3     O 7027   4.057   0.435  16.110 -0.2574  0.3554  0.0724
  472TMC3     H 7028   3.805   0.329  16.055  1.8547  1.4333  0.6452
  472TMC3    H1 7029   4.123   0.122  16.277  1.0739  1.7042 -0.9329
  472TMC3    H2 7030   3.814   4.642  16.060 -0.2765  0.4121 -0.8182
  472TMC3    C7 7031   3.985   4.627  16.273  0.3312  0.0909 -0.3532
  472TMC3    C8 7032   3.659   0.116  16.047 -0.2887 -0.3651 -0.6978
  472TMC3    O1 7033   4.018   4.652  16.387 -0.0121 -0.3136  0.3264
  472TMC3    O2 7034   3.603   0.198  15.975 -0.1358  0.0666  0.0052
  473MPD2     C 7035   4.251   2.656  13.954  0.9738  0.7878  0.5128
  473MPD2    C1 7036   4.197   2.775  13.903 -0.1429 -0.6605 -0.5993
  473MPD2    C2 7037   4.191   2.895  13.980  0.0814 -0.3376 -0.3121
  473MPD2    C3 7038   4.253   2.892  14.096  0.0470 -0.2882  0.5786
  473MPD2    C4 7039   4.319   2.777  14.144 -0.2850  0.0480  0.4284
  473MPD2    C5 7040   4.316   2.655  14.078  0.3946  0.5986 -0.1869
  473MPD2     H 7041   4.133   2.977  13.939 -1.2615 -0.8204  0.6112
  473MPD2    H1 7042   4.365   2.772  14.242 -0.7339  1.6447  0.7257
  473MPD2    H2 7043   4.261   2.566  13.893 -0.0937  1.5645 -0.8019
  473MPD2    H3 7044   4.365   2.569  14.122  1.4198  0.3340 -1.8677
  473MPD2     N 7045   4.244   3.001  14.185 -0.0931  0.0486  0.0244
  473MPD2    H5 7046   4.277   2.971  14.277  1.0082  0.0257 -0.3737
  473MPD2    N1 7047   4.150   2.783  13.766 -0.3402  0.4732  0.4526
  473MPD2    H7 7048   4.107   2.867  13.729  0.1564 -0.0286 -1.2712
  474TMC3    C1 7049   4.232   3.221  14.269 -0.1058  0.3118  0.6344
  474TMC3    C2 7050   4.156   3.332  14.298 -0.1478 -0.2042 -0.0620
  474TMC3    C3 7051   4.189   3.411  14.401 -0.7875  0.1223 -0.3832
  474TMC3    C4 7052   4.347   3.192  14.337  0.1086 -0.1569  0.3863
  474TMC3    C5 7053   4.376   3.276  14.438 -0.0708  0.8517  0.2154
  474TMC3    C6 7054   4.295   3.382  14.479 -0.2975 -0.1666 -0.4425
  474TMC3     C 7055   4.193   3.127  14.163  0.9389 -0.5263 -0.2197
  474TMC3     O 7056   4.135   3.169  14.066 -0.3141  0.3046  0.2429
  474TMC3     H 7057   4.062   3.343  14.246 -0.5439 -2.5658  0.1711
  474TMC3    H1 7058   4.415   3.111  14.313 -1.7867 -0.5274 -3.7599
  474TMC3    H2 7059   4.309   3.450  14.563 -0.6045 -0.3460 -0.2458
  474TMC3    C7 7060   4.498   3.259  14.502 -0.7382  0.0321  0.0433
  474TMC3    C8 7061   4.116   3.533  14.417 -0.9197  1.1712 -0.1157
  474TMC3    O1 7062   4.591   3.235  14.429  0.6411  0.4735 -0.0900
  474TMC3    O2 7063   4.169   3.639  14.435 -0.2972  0.0896 -0.1185
  475MPD2     C 7064   2.979   0.558  10.132  0.7577  0.4609  0.6233
  475MPD2    C1 7065   3.045   0.658  10.197  0.3445  0.0031  0.0579
  475MPD2    C2 7066   3.004   0.697  10.328 -0.0218 -0.8792  0.1730
  475MPD2    C3 7067   2.898   0.628  10.389 -0.0582 -0.5685  0.0760
  475MPD2    C4 7068   2.852   0.513  10.330  0.1405  0.3390 -0.6057
  475MPD2    C5 7069   2.884   0.484  10.199  0.4680 -0.0596  0.1673
  475MPD2     H 7070   3.055   0.779  10.377 -0.5355 -0.3638 -0.1504
  475MPD2    H1 7071   2.770   0.458  10.374 -1.1772  2.4032 -0.4939
  475MPD2    H2 7072   2.991   0.526  10.029  1.4908  2.1593  0.1636
  475MPD2    H3 7073   2.836   0.411  10.134 -0.2285 -0.2093  0.8594
  475MPD2     N 7074   2.854   0.683  10.509 -0.1626 -0.4568  0.2451
  475MPD2    H5 7075   2.887   0.774  10.540 -1.7788  0.6703 -1.2925
  475MPD2    N1 7076   3.150   0.720  10.124 -0.1238 -0.1542 -0.4686
  475MPD2    H7 7077   3.184   0.663  10.047 -1.0002  0.5068 -1.3407
  476TMC3    C1 7078   3.160   0.942  10.220  0.1317  0.5008  0.1412
  476TMC3    C2 7079   3.037   1.004  10.184 -0.3226 -0.0261  0.9097
  476TMC3    C3 7080   3.004   1.124  10.235  0.3514  0.0973  0.8651
  476TMC3    C4 7081   3.256   1.020  10.274 -0.1416 -0.4317 -0.3527
  476TMC3    C5 7082   3.216   1.133  10.338  0.8403 -0.1311 -0.8201
  476TMC3    C6 7083   3.092   1.190  10.317 -0.4753  0.3661 -0.1126
  476TMC3     C 7084   3.218   0.835  10.147 -0.0720  0.1848  0.1251
  476TMC3     O 7085   3.319   0.864  10.085  0.1697  0.1259 -0.0425
  476TMC3     H 7086   2.976   0.961  10.105  3.1776  0.3190 -1.9394
  476TMC3    H1 7087   3.350   0.967  10.290  0.2723 -0.0165 -1.3705
  476TMC3    H2 7088   3.060   1.276  10.376  1.2738 -0.8278  2.5989
  476TMC3    C7 7089   3.257   1.150  10.472 -0.3241 -1.1861 -0.2153
  476TMC3    C8 7090   2.860   1.146  10.266  0.7320  0.0050 -0.1126
  476TMC3    O1 7091   3.282   1.049  10.531  0.5655  0.2472  0.0072
  476TMC3    O2 7092   2.823   1.260  10.298  0.2942  0.7257 -0.7489
  477MPD2     C 7093   0.307   2.972  11.769 -0.3919  0.0044 -0.7856
  477MPD2    C1 7094   0.224   2.864  11.743 -0.3030  0.0589 -0.3488
  477MPD2    C2 7095   0.221   2.756  11.830  0.6660 -0.1204 -0.2281
  477MPD2    C3 7096   0.317   2.747  11.930 -0.7550 -0.4233  0.2094
  477MPD2    C4 7097   0.401   2.853  11.951 -0.1161  0.1343  1.0393
  477MPD2    C5 7098   0.402   2.965  11.869  0.1569  0.1373 -0.3384
  477MPD2     H 7099   0.148   2.678  11.810  0.8377 -0.6113  1.0339
  477MPD2    H1 7100   0.470   2.854  12.035 -0.2217 -1.2541  1.1336
  477MPD2    H2 7101   0.308   3.063  11.711  2.8207 -0.3335 -1.2283
  477MPD2    H3 7102   0.467   3.049  11.893 -1.8367  0.7455  2.9640
  477MPD2     N 7103   0.311   2.633  12.010 -0.4192 -0.4588  0.7735
  477MPD2    H5 7104   0.232   2.572  11.990 -0.8716  0.3963 -0.0845
  477MPD2    N1 7105   0.120   2.893  11.646 -0.0984  0.1072 -0.5588
  477MPD2    H7 7106   0.130   2.983  11.599 -3.3150  0.5576 -0.3425
  478TMC3    C1 7107   4.632   2.874  11.534 -0.0203  0.0488  0.4609
  478TMC3    C2 7108   4.599   2.986  11.597 -0.7854 -0.4787 -0.0914
  478TMC3    C3 7109   4.467   3.012  11.628  1.1517 -0.1101 -0.0314
  478TMC3    C4 7110   4.533   2.787  11.493  0.6205 -0.0156  0.1838
  478TMC3    C5 7111   4.395   2.826  11.510 -0.4740  0.7068 -0.1004
  478TMC3    C6 7112   4.364   2.941  11.580 -0.2993  0.6180 -0.1174
  478TMC3     C 7113   0.027   2.804  11.590  0.3558 -0.1997  0.3125
  478TMC3     O 7114   0.027   2.680  11.591 -0.0040  0.6398  0.6572
  478TMC3     H 7115   4.671   3.040  11.659 -0.6972 -0.9753  0.2386
  478TMC3    H1 7116   4.569   2.700  11.439 -1.3156  0.9348 -2.6064
  478TMC3    H2 7117   4.259   2.957  11.603 -0.5597 -0.6354 -0.4014
  478TMC3    C7 7118   4.314   2.818  11.390 -0.3896 -0.4631  0.1789
  478TMC3    C8 7119   4.450   3.053  11.766 -0.5597  1.4434 -0.2494
  478TMC3    O1 7120   4.278   2.705  11.351  0.0393  0.3663  0.5483
  478TMC3    O2 7121   4.369   2.987  11.830 -0.0811  0.1626 -0.4373
  479MPD2     C 7122   3.746   0.187  15.027  0.2740 -0.9394 -0.0054
  479MPD2    C1 7123   3.715   0.132  15.146  0.3669 -0.3544 -0.2794
  479MPD2    C2 7124   3.811   0.130  15.247 -0.6225  0.1167 -0.7030
  479MPD2    C3 7125   3.940   0.184  15.230  0.8918  0.9654  0.0870
  479MPD2    C4 7126   3.958   0.256  15.113 -0.3423 -0.1298 -0.2051
  479MPD2    C5 7127   3.865   0.255  15.011  0.4722  1.2223 -0.4606
  479MPD2     H 7128   3.789   0.076  15.339 -2.1402 -0.6491 -1.5075
  479MPD2    H1 7129   4.055   0.301  15.098  1.4015 -3.3729  1.2099
  479MPD2    H2 7130   3.673   0.180  14.947  0.5709 -2.2641 -0.1527
  479MPD2    H3 7131   3.884   0.296  14.912  1.4314  0.1086 -0.7411
  479MPD2     N 7132   4.049   0.181  15.326 -0.9586  0.0049 -0.2065
  479MPD2    H5 7133   4.140   0.215  15.297  0.4697 -1.1077  3.0190
  479MPD2    N1 7134   3.582   0.081  15.153 -0.5382 -0.1157 -0.0021
  479MPD2    H7 7135   3.530   0.097  15.068 -0.2584 -3.7168 -0.8555
  480TMC3    C1 7136   3.781   0.051  15.669  0.2402 -0.0304  0.7573
  480TMC3    C2 7137   3.698   0.158  15.668 -0.2346 -0.2794 -0.1759
  480TMC3    C3 7138   3.727   0.266  15.584  0.4847 -0.3484 -0.6487
  480TMC3    C4 7139   3.894   0.047  15.598 -0.2055  0.0627 -0.1967
  480TMC3    C5 7140   3.925   0.157  15.528  0.2617 -0.4315 -0.4594
  480TMC3    C6 7141   3.846   0.275  15.523  0.1241  0.4629  0.1568
  480TMC3     C 7142   3.726   4.648  15.716  0.5757 -0.1272  0.2343
  480TMC3     O 7143   3.804   4.566  15.766  0.5589  0.0690 -0.0767
  480TMC3     H 7144   3.602   0.158  15.719 -0.0410  1.8855  0.1597
  480TMC3    H1 7145   3.952   4.679  15.603 -0.9267 -0.4182 -0.6307
  480TMC3    H2 7146   3.874   0.361  15.463  0.0693  0.1676 -0.2922
  480TMC3    C7 7147   4.049   0.153  15.456 -0.5203 -0.5167 -0.2738
  480TMC3    C8 7148   3.614   0.338  15.535  0.2499 -0.5350 -0.5038
  480TMC3    O1 7149   4.149   0.134  15.523  0.1849  0.1248 -0.0649
  480TMC3    O2 7150   3.512   0.346  15.600 -0.2225 -0.1716  0.3039
  481MPD2     C 7151   0.930   4.563  14.162  0.2118  0.0541  0.1906
  481MPD2    C1 7152   0.823   4.480  14.190 -0.7004  0.0780  0.0005
  481MPD2    C2 7153   0.806   4.438  14.319  0.1794 -0.1276  0.7119
  481MPD2    C3 7154   0.887   4.479  14.425 -0.4548  0.1878  1.4434
  481MPD2    C4 7155   0.994   4.554  14.394  0.0315 -0.4125 -0.2546
  481MPD2    C5 7156   1.014   4.594  14.268  0.3739 -0.1240 -0.6822
  481MPD2     H 7157   0.717   4.383  14.350 -0.6394 -1.5002 -4.1688
  481MPD2    H1 7158   1.063   4.579  14.474  0.5697  0.4092 -0.9702
  481MPD2    H2 7159   0.941   4.610  14.065 -0.9669  0.7318  0.3989
  481MPD2    H3 7160   1.096   4.660  14.243  0.2302  0.4609  0.4284
  481MPD2     N 7161   0.870   4.444  14.556  0.3874  0.2316 -0.3709
  481MPD2    H5 7162   0.928   4.485  14.629 -0.3728 -0.6770  0.7503
  481MPD2    N1 7163   0.740   4.451  14.079  0.8299 -0.0433  0.1834
  481MPD2    H7 7164   0.770   4.493  13.992 -0.0966  1.1915  0.4456
  482TMC3    C1 7165   0.553   4.376  13.960 -0.1166  0.4290  0.3287
  482TMC3    C2 7166   0.418   4.350  13.966 -1.8573  0.0764 -0.2259
  482TMC3    C3 7167   0.342   4.369  13.858  0.5341 -0.0801  0.3139
  482TMC3    C4 7168   0.613   4.418  13.844  0.5088  0.4227 -0.2264
  482TMC3    C5 7169   0.534   4.443  13.734 -0.2680  0.1117  0.3197
  482TMC3    C6 7170   0.400   4.418  13.740 -0.2580 -0.5043 -0.3889
  482TMC3     C 7171   0.633   4.368  14.080 -0.9181  0.5283 -0.2791
  482TMC3     O 7172   0.586   4.316  14.175  0.2612 -0.5339  0.4900
  482TMC3     H 7173   0.378   4.308  14.058 -0.7047  0.6294  0.5216
  482TMC3    H1 7174   0.721   4.417  13.829  0.5032 -1.8334 -0.0285
  482TMC3    H2 7175   0.335   4.432  13.654  0.7385  0.6375 -0.9403
  482TMC3    C7 7176   0.608   4.493  13.617  0.2906  0.6142 -0.4789
  482TMC3    C8 7177   0.203   4.319  13.859 -0.8562  0.4584  0.3798
  482TMC3    O1 7178   0.672   4.599  13.627  0.6212 -0.5596 -0.1106
  482TMC3    O2 7179   0.163   4.262  13.963  0.3270 -0.0402  0.1602
  483TMC3    C1 7180   2.813   2.906   1.113  0.0346  0.0696  0.5964
  483TMC3    C2 7181   2.828   3.038   1.136 -0.0591  0.1972  0.0368
  483TMC3    C3 7182   2.929   3.064   1.217  0.2985 -0.0662  0.4739
  483TMC3    C4 7183   2.872   2.802   1.184  0.3400  0.5652 -0.0594
  483TMC3    C5 7184   2.965   2.840   1.279 -0.2448 -0.6180 -0.3401
  483TMC3    C6 7185   3.000   2.968   1.292  0.5594  0.9009 -0.4820
  483TMC3     C 7186   2.745   2.887   0.986 -0.1480 -0.2035 -0.1664
  483TMC3     O 7187   2.678   2.975   0.940  0.4744 -0.1743 -0.6109
  483TMC3     H 7188   2.758   3.110   1.094 -0.5907 -0.2562  0.1431
  483TMC3    H1 7189   2.861   2.698   1.157 -1.5841  0.2211  2.0289
  483TMC3    H2 7190   3.072   2.990   1.371 -0.6574 -1.2282  1.2222
  483TMC3    C7 7191   3.067   2.741   1.316  0.3235 -0.0240  0.8280
  483TMC3    C8 7192   2.970   3.199   1.210 -0.4986  0.5584  0.5688
  483TMC3    O1 7193   3.177   2.788   1.334  0.2263 -0.2591 -0.0681
  483TMC3    O2 7194   2.929   3.261   1.113  0.5408  0.0377  0.7002
  484MPD2     C 7195   1.294   0.877  12.179  0.0566 -0.6737 -0.0986
  484MPD2    C1 7196   1.250   0.976  12.266 -0.0533  0.1221  0.6823
  484MPD2    C2 7197   1.341   1.063  12.315  0.1453  0.5823  0.2617
  484MPD2    C3 7198   1.472   1.048  12.277 -0.2656 -0.5360 -0.4230
  484MPD2    C4 7199   1.512   0.942  12.188  0.0250 -0.3115 -0.9391
  484MPD2    C5 7200   1.420   0.856  12.139  0.3074  0.3898 -0.0066
  484MPD2     H 7201   1.303   1.141  12.380 -1.0698  1.1250 -1.1008
  484MPD2    H1 7202   1.613   0.922  12.155  0.2403  0.1146 -0.5393
  484MPD2    H2 7203   1.223   0.807  12.137 -0.4626 -0.1241 -0.1467
  484MPD2    H3 7204   1.445   0.769  12.080 -0.3297  0.9344 -1.0863
  484MPD2     N 7205   1.573   1.136  12.313  0.0188 -0.5547 -0.4295
  484MPD2    H5 7206   1.665   1.103  12.287 -1.0021 -1.1191 -3.3420
  484MPD2    N1 7207   1.107   0.972  12.301 -0.3479  0.3295 -0.1523
  484MPD2    H7 7208   1.054   0.906  12.245 -3.2124  3.3181 -1.0019
  485TMC3    C1 7209   1.686   1.321  12.390  0.1444 -0.1001 -0.3778
  485TMC3    C2 7210   1.753   1.270  12.501  0.0112  0.0620 -0.1888
  485TMC3    C3 7211   1.891   1.289  12.507 -0.0567 -0.2610  0.6126
  485TMC3    C4 7212   1.742   1.374  12.277 -0.0708  0.5392  0.0561
  485TMC3    C5 7213   1.880   1.398  12.294 -0.1110 -0.3130 -0.3102
  485TMC3    C6 7214   1.948   1.356  12.399  0.4287 -0.2918  0.9134
  485TMC3     C 7215   1.559   1.261  12.365  0.0017  0.6848  0.0331
  485TMC3     O 7216   1.456   1.325  12.359 -0.4360 -0.4156 -0.7119
  485TMC3     H 7217   1.698   1.212  12.574 -3.4558  2.1065 -1.1720
  485TMC3    H1 7218   1.690   1.377  12.182 -0.3237  0.3788  0.1867
  485TMC3    H2 7219   2.051   1.386  12.383 -0.3781  2.7698  1.3612
  485TMC3    C7 7220   1.954   1.380  12.171  0.2391 -0.5279  0.3074
  485TMC3    C8 7221   1.970   1.176  12.539 -0.0124  0.5926  0.3772
  485TMC3    O1 7222   1.966   1.476  12.094  0.5674 -0.2757  0.6124
  485TMC3    O2 7223   2.058   1.151  12.455  0.6419  0.5856 -0.3324
  486MPD2     C 7224   3.761   0.248  12.746  0.4525  0.1263  0.5111
  486MPD2    C1 7225   3.628   0.204  12.735 -1.0981 -0.1744 -0.2879
  486MPD2    C2 7226   3.526   0.296  12.747  0.7332 -0.0207  0.0582
  486MPD2    C3 7227   3.554   0.428  12.772 -0.0064  0.9035  0.0178
  486MPD2    C4 7228   3.685   0.473  12.774  0.2705 -0.3235 -0.5271
  486MPD2    C5 7229   3.787   0.383  12.769 -0.0602  0.3317  0.7052
  486MPD2     H 7230   3.420   0.274  12.739  0.3011  1.3953  1.8313
  486MPD2    H1 7231   3.713   0.577  12.785 -1.8941  0.1325  0.5138
  486MPD2    H2 7232   3.844   0.181  12.732  0.8042  0.5662  0.4820
  486MPD2    H3 7233   3.888   0.419  12.758 -0.6087  1.9976  1.2077
  486MPD2     N 7234   3.445   0.517  12.772  0.6172 -0.1283  0.6119
  486MPD2    H5 7235   3.353   0.477  12.760 -0.3975  2.7022 -1.0460
  486MPD2    N1 7236   3.604   0.064  12.731  0.4675  0.5984  0.1924
  486MPD2    H7 7237   3.691   0.011  12.737  0.0738 -0.4787 -3.6939
  487TMC3    C1 7238   3.477   4.584  12.733 -0.6211  0.2073 -0.0348
  487TMC3    C2 7239   3.406   4.531  12.836 -0.2133 -0.5502  0.3824
  487TMC3    C3 7240   3.449   4.412  12.887  0.6677 -1.0395 -0.0053
  487TMC3    C4 7241   3.573   4.518  12.669 -0.1359 -0.1543  0.0772
  487TMC3    C5 7242   3.618   4.402  12.723  0.2695  0.5146  0.0987
  487TMC3    C6 7243   3.560   4.352  12.834 -0.3491 -0.0862 -0.0428
  487TMC3     C 7244   3.478   0.007  12.733 -0.1392 -1.1889 -0.2959
  487TMC3     O 7245   3.373   0.057  12.764  0.1963 -0.1010  0.5541
  487TMC3     H 7246   3.327   4.583  12.889 -1.4493 -1.9108 -0.1183
  487TMC3    H1 7247   3.612   4.570  12.582 -0.0808  0.9541  0.7544
  487TMC3    H2 7248   3.565   4.247  12.860  1.2717  0.4503  1.7920
  487TMC3    C7 7249   3.709   4.323  12.642  0.0275 -0.7220  0.7502
  487TMC3    C8 7250   3.396   4.368  13.015  0.0367  0.6747  0.2191
  487TMC3    O1 7251   3.685   4.337  12.525  0.0746  0.3008  0.3452
  487TMC3    O2 7252   3.291   4.416  13.058 -0.0994  0.2402 -0.5021
  488MPD2     C 7253   3.341   1.930  16.446 -0.2612  0.1833 -0.5920
  488MPD2    C1 7254   3.405   1.998  16.543  0.4369  0.6938  0.4514
  488MPD2    C2 7255   3.400   1.946  16.668  0.5560 -0.2478 -0.1763
  488MPD2    C3 7256   3.320   1.837  16.704  0.1803 -0.6982  0.9964
  488MPD2    C4 7257   3.258   1.767  16.606 -0.0044 -0.0605  0.0953
  488MPD2    C5 7258   3.264   1.825  16.479 -0.5912  1.0952 -0.3068
  488MPD2     H 7259   3.446   1.996  16.752  0.7109  0.9032 -0.9497
  488MPD2    H1 7260   3.193   1.681  16.619  0.8550 -1.1678 -3.1002
  488MPD2    H2 7261   3.342   1.970  16.346 -0.8471 -0.4705 -0.8602
  488MPD2    H3 7262   3.197   1.780  16.406  0.9893 -1.0025 -0.4588
  488MPD2     N 7263   3.313   1.797  16.841 -0.1859  0.0464  0.3012
  488MPD2    H5 7264   3.378   1.858  16.888  0.6274 -0.8855  0.3876
  488MPD2    N1 7265   3.468   2.122  16.513 -0.5105  0.2093  0.2624
  488MPD2    H7 7266   3.504   2.173  16.593  0.6886 -1.5445  0.8331
  489TMC3    C1 7267   3.274   1.691  17.042  0.7181 -0.4601 -0.6976
  489TMC3    C2 7268   3.356   1.788  17.087 -0.1931  0.2534  0.8312
  489TMC3    C3 7269   3.342   1.840  17.207 -0.1519 -0.1283  0.3831
  489TMC3    C4 7270   3.170   1.639  17.125  0.6078  0.1224 -0.3726
  489TMC3    C5 7271   3.169   1.691  17.247  0.4814 -0.1808  0.4308
  489TMC3    C6 7272   3.257   1.786  17.297  0.4040 -0.4091  0.2397
  489TMC3     C 7273   3.242   1.693  16.902 -0.1574 -0.6351 -0.5589
  489TMC3     O 7274   3.153   1.627  16.848 -0.8416  0.0205 -0.6268
  489TMC3     H 7275   3.446   1.819  17.036 -1.7750  1.1616 -1.3742
  489TMC3    H1 7276   3.106   1.566  17.078 -1.7816  1.0810  1.4364
  489TMC3    H2 7277   3.267   1.815  17.401 -1.2763 -1.9250  0.8128
  489TMC3    C7 7278   3.093   1.624  17.355  0.7124  0.0009 -0.0515
  489TMC3    C8 7279   3.359   1.974  17.215  0.4856 -0.2013 -0.6510
  489TMC3    O1 7280   3.150   1.626  17.462  0.2654  0.2588 -0.4785
  489TMC3    O2 7281   3.420   2.025  17.123 -0.1119  0.8289  0.3771
  490MPD2     C 7282   0.295   1.455  17.168 -0.0475 -0.1231  0.0205
  490MPD2    C1 7283   0.187   1.505  17.239  0.1693 -0.3596 -0.3588
  490MPD2    C2 7284   0.202   1.566  17.361 -0.0090 -0.3835  0.4452
  490MPD2    C3 7285   0.328   1.573  17.417 -0.3198 -0.1754  0.8401
  490MPD2    C4 7286   0.432   1.515  17.353 -0.1609  0.7408 -0.1697
  490MPD2    C5 7287   0.420   1.462  17.231 -0.0621  0.8267  0.0640
  490MPD2     H 7288   0.112   1.590  17.416  0.8210 -0.9620  2.0634
  490MPD2    H1 7289   0.526   1.502  17.407 -0.4884  2.3167  0.7975
  490MPD2    H2 7290   0.296   1.412  17.068  2.4210 -1.2633  0.5454
  490MPD2    H3 7291   0.499   1.413  17.176  0.1638  0.7222  0.4795
  490MPD2     N 7292   0.348   1.610  17.554  0.1446  0.4578  0.0949
  490MPD2    H5 7293   0.436   1.579  17.592 -0.6218 -2.7448 -0.7715
  490MPD2    N1 7294   0.065   1.508  17.181 -0.3990 -0.0409 -0.0400
  490MPD2    H7 7295   4.720   1.565  17.229 -1.2706  2.4070 -4.1951
  491TMC3    C1 7296   4.596   1.447  17.068 -0.7242 -1.2283  0.7375
  491TMC3    C2 7297   4.560   1.565  17.123 -0.1121 -0.4698 -0.3776
  491TMC3    C3 7298   4.426   1.587  17.144  0.6600  0.6835  0.5428
  491TMC3    C4 7299   4.508   1.341  17.051  0.3142  0.1992 -0.7898
  491TMC3    C5 7300   4.377   1.365  17.068  1.0109 -0.2063 -0.0630
  491TMC3    C6 7301   4.334   1.489  17.103 -0.0264  0.2777 -0.2960
  491TMC3     C 7302   0.011   1.421  17.088 -0.1029  0.1153  0.2757
  491TMC3     O 7303   0.070   1.333  17.023 -0.3911 -0.2121 -0.0393
  491TMC3     H 7304   4.618   1.653  17.149  0.5492 -1.4689  1.5452
  491TMC3    H1 7305   4.539   1.243  17.016  1.7737  0.3698  0.0240
  491TMC3    H2 7306   4.230   1.519  17.096 -0.1468  0.3589  1.6477
  491TMC3    C7 7307   4.277   1.259  17.062 -0.1236 -0.3497  0.0552
  491TMC3    C8 7308   4.377   1.675  17.248  0.5679 -0.5961  0.0285
  491TMC3    O1 7309   4.264   1.198  16.957 -0.0478 -0.3166 -0.1972
  491TMC3    O2 7310   4.252   1.676  17.253  0.1864 -0.1731 -0.4685
  492MPD2     C 7311   0.057   1.412  10.887 -0.1367 -0.1538 -0.0776
  492MPD2    C1 7312   4.669   1.347  10.856 -0.1229  0.2419  0.3013
  492MPD2    C2 7313   4.575   1.308  10.955  0.5390 -0.2517  0.3140
  492MPD2    C3 7314   4.602   1.319  11.091 -0.2749  0.0194  0.2299
  492MPD2    C4 7315   0.002   1.370  11.123  0.0094 -0.7282 -0.4981
  492MPD2    C5 7316   0.087   1.423  11.027 -0.2493 -0.4611 -0.0300
  492MPD2     H 7317   4.480   1.264  10.927  0.9318 -0.6056 -0.4695
  492MPD2    H1 7318   0.033   1.367  11.227 -1.1203 -0.5136 -0.1561
  492MPD2    H2 7319   0.120   1.469  10.819  0.7388 -0.0304  0.8326
  492MPD2    H3 7320   0.186   1.458  11.053  0.3634 -0.4890 -2.2749
  492MPD2     N 7321   4.519   1.276  11.199 -0.1393 -0.5915 -0.1697
  492MPD2    H5 7322   4.558   1.269  11.292 -1.2082 -0.0087  0.3157
  492MPD2    N1 7323   4.623   1.312  10.729 -0.3870 -0.1498  0.8993
  492MPD2    H7 7324   4.547   1.245  10.723 -2.5573  2.3644  0.2355
  493TMC3    C1 7325   4.618   1.314  10.499 -0.4772 -0.0276  0.5717
  493TMC3    C2 7326   4.613   1.397  10.391 -0.3417  0.5213  0.1750
  493TMC3    C3 7327   4.552   1.353  10.279  0.5672  0.1612  0.7184
  493TMC3    C4 7328   4.567   1.192  10.500  0.5149 -0.2406 -0.2305
  493TMC3    C5 7329   4.501   1.147  10.388  0.1405 -0.1347 -0.7057
  493TMC3    C6 7330   4.491   1.228  10.280 -0.0170 -0.0913 -0.1236
  493TMC3     C 7331   4.683   1.366  10.614  1.0326  1.1095 -0.2562
  493TMC3     O 7332   0.027   1.469  10.606 -0.3018  0.2680 -0.1672
  493TMC3     H 7333   4.659   1.495  10.386  2.2266 -0.7141 -0.1000
  493TMC3    H1 7334   4.588   1.129  10.585  2.9062 -0.4888 -1.0168
  493TMC3    H2 7335   4.430   1.204  10.194  1.1349  2.7759 -1.7276
  493TMC3    C7 7336   4.408   1.038  10.400 -0.2199 -0.2242 -0.4345
  493TMC3    C8 7337   4.501   1.449  10.175  0.6943  1.0674 -0.6568
  493TMC3    O1 7338   4.304   1.037  10.333 -0.5112 -0.1657 -0.1394
  493TMC3    O2 7339   4.392   1.428  10.122  0.2208 -0.3992 -0.3718
  494TMC3    C1 7340   4.575   3.580   0.385  0.4801  0.1045 -0.3787
  494TMC3    C2 7341   4.617   3.455   0.415  0.1302 -0.3795  0.7943
  494TMC3    C3 7342   4.714   3.403   0.335 -0.3992 -0.1685  0.2169
  494TMC3    C4 7343   4.631   3.653   0.286  0.0261 -0.2664  0.6634
  494TMC3    C5 7344   0.004   3.596   0.213 -0.0369  0.5887  0.3954
  494TMC3    C6 7345   0.050   3.470   0.228 -0.4603  0.3655 -0.1759
  494TMC3     C 7346   4.463   3.623   0.465  0.0080 -0.0916  0.4277
  494TMC3     O 7347   4.409   3.547   0.544 -0.8258  0.8348 -0.2287
  494TMC3     H 7348   4.578   3.400   0.500 -0.2977  1.2013  1.6027
  494TMC3    H1 7349   4.581   3.742   0.250  1.4699  0.0335 -0.5681
  494TMC3    H2 7350   0.133   3.427   0.173  0.2737  0.0942  1.1419
  494TMC3    C7 7351   0.066   3.676   0.104 -0.5676 -0.4275  0.0149
  494TMC3    C8 7352   0.053   3.277   0.377  0.1041  0.4902  0.3003
  494TMC3    O1 7353   0.118   3.613   0.013  0.1061  0.1450  0.0769
  494TMC3    O2 7354   0.062   3.250   0.493 -0.0605 -0.2683  0.0008
  495TMC3    C1 7355   3.616   0.304  14.577  0.5650 -0.6262 -0.0812
  495TMC3    C2 7356   3.547   0.393  14.498 -0.1352 -0.5236  0.2112
  495TMC3    C3 7357   3.516   0.517  14.549 -0.2609 -0.2476 -0.2358
  495TMC3    C4 7358   3.654   0.333  14.704 -0.1596  0.3941  0.0245
  495TMC3    C5 7359   3.614   0.450  14.752 -0.2690 -0.3512  0.3220
  495TMC3    C6 7360   3.543   0.547  14.681  0.2153  0.2568 -0.4589
  495TMC3     C 7361   3.579   0.166  14.549  0.1042 -0.0066  0.7880
  495TMC3     O 7362   3.501   0.140  14.457 -0.1253 -0.4353  0.4457
  495TMC3     H 7363   3.519   0.354  14.401 -1.5916 -1.2955  0.9432
  495TMC3    H1 7364   3.694   0.259  14.772  0.8653 -0.1532 -1.1700
  495TMC3    H2 7365   3.511   0.644  14.715  0.7609  0.4416 -0.4724
  495TMC3    C7 7366   3.606   0.461  14.894 -0.2115  0.4364 -0.6260
  495TMC3    C8 7367   3.446   0.614  14.468 -0.1211 -0.0099 -0.2652
  495TMC3    O1 7368   3.704   0.496  14.955 -0.6697 -0.1112 -0.3726
  495TMC3    O2 7369   3.351   0.679  14.513 -0.0846  0.0998  0.0749
  496MPD2     C 7370   1.371   0.177  15.910 -0.1632  0.0009  0.0477
  496MPD2    C1 7371   1.256   0.123  15.865  0.3269  0.4333  0.5859
  496MPD2    C2 7372   1.144   0.166  15.932  0.1947 -0.3564  0.2352
  496MPD2    C3 7373   1.142   0.268  16.026 -0.5205  0.4824 -0.7759
  496MPD2    C4 7374   1.264   0.318  16.072  0.4254 -0.0724  0.7247
  496MPD2    C5 7375   1.376   0.270  16.016 -0.3884  0.0951  0.3087
  496MPD2     H 7376   1.049   0.128  15.894  0.2354 -1.2262  1.0076
  496MPD2    H1 7377   1.267   0.402  16.140 -2.0888  1.1027 -0.6023
  496MPD2    H2 7378   1.468   0.141  15.880 -0.1184 -0.1106  0.3224
  496MPD2    H3 7379   1.473   0.309  16.046  0.6502 -1.2267 -1.3176
  496MPD2     N 7380   1.026   0.314  16.096  0.3169  0.2522 -0.2729
  496MPD2    H5 7381   1.047   0.372  16.177 -0.2345  0.4654 -0.2804
  496MPD2    N1 7382   1.251   0.029  15.759  0.0579 -0.1008 -0.7196
  496MPD2    H7 7383   1.166   4.701  15.743  0.4404 -0.9702  0.0975
  497TMC3    C1 7384   0.793   0.370  16.135  0.3564 -0.1838 -0.7380
  497TMC3    C2 7385   0.673   0.390  16.074  0.3881  0.4531 -0.2282
  497TMC3    C3 7386   0.581   0.473  16.134  0.1281 -0.7447 -0.4027
  497TMC3    C4 7387   0.834   0.436  16.245 -0.4057  0.2334  0.0845
  497TMC3    C5 7388   0.731   0.512  16.300  0.6877  0.1531  0.2801
  497TMC3    C6 7389   0.603   0.526  16.253  0.2029 -0.2906  0.2236
  497TMC3     C 7390   0.895   0.310  16.047  0.0266  0.2329 -0.3383
  497TMC3     O 7391   0.858   0.252  15.945 -0.0542  0.7176 -0.3338
  497TMC3     H 7392   0.660   0.366  15.969  0.4049 -1.4220  0.2057
  497TMC3    H1 7393   0.936   0.443  16.282 -0.2482  0.7341 -0.4371
  497TMC3    H2 7394   0.532   0.591  16.303 -0.3898  1.0679 -2.3792
  497TMC3    C7 7395   0.752   0.573  16.433  0.3838  0.2011  0.1302
  497TMC3    C8 7396   0.465   0.494  16.052  0.3758 -0.3856  0.0389
  497TMC3    O1 7397   0.662   0.644  16.472  0.0128  0.0629 -0.4070
  497TMC3    O2 7398   0.492   0.502  15.935  0.0244  0.0895  0.5251
  498MPD2     C 7399   1.647   0.886   9.776 -0.7587  0.6218 -0.1202
  498MPD2    C1 7400   1.664   0.812   9.887 -0.1342 -1.3531 -0.3343
  498MPD2    C2 7401   1.554   0.749   9.937 -0.2976 -0.1847 -0.4562
  498MPD2    C3 7402   1.431   0.756   9.872 -0.0002  0.3502 -0.5324
  498MPD2    C4 7403   1.410   0.831   9.759  0.5830  0.5768  0.4778
  498MPD2    C5 7404   1.526   0.891   9.711  0.3230  0.2980 -0.0974
  498MPD2     H 7405   1.574   0.677  10.015 -0.1646 -0.0687 -0.3823
  498MPD2    H1 7406   1.313   0.832   9.712 -0.2321  1.0240  2.1719
  498MPD2    H2 7407   1.730   0.942   9.733 -1.0882 -1.3509 -3.3426
  498MPD2    H3 7408   1.519   0.954   9.623  0.7622 -0.6657 -0.8180
  498MPD2     N 7409   1.320   0.677   9.919  0.4412  0.0871 -0.7060
  498MPD2    H5 7410   1.330   0.634  10.010  1.0218  1.6048 -0.0627
  498MPD2    N1 7411   1.784   0.792   9.959 -0.0221  0.6226 -0.3183
  498MPD2    H7 7412   1.773   0.730  10.039  0.8215  3.1095  1.7386
  499TMC3    C1 7413   1.999   0.825  10.048 -0.6423 -0.6275  0.4086
  499TMC3    C2 7414   2.006   0.697  10.090  0.7445 -0.5958  0.7127
  499TMC3    C3 7415   2.125   0.658  10.139  0.3664  0.5731 -0.1456
  499TMC3    C4 7416   2.102   0.912  10.064 -0.1944 -0.2137 -0.5264
  499TMC3    C5 7417   2.218   0.873  10.117 -0.4379  0.5327  0.4679
  499TMC3    C6 7418   2.230   0.743  10.156 -0.1637  0.5556  0.8582
  499TMC3     C 7419   1.906   0.850   9.938 -0.4646  0.4035  0.5745
  499TMC3     O 7420   1.939   0.936   9.862 -0.5440 -0.3587 -1.0204
  499TMC3     H 7421   1.939   0.616  10.068  0.5857 -0.9596  2.5601
  499TMC3    H1 7422   2.099   1.015  10.031 -2.8835 -0.4280 -0.8720
  499TMC3    H2 7423   2.316   0.702  10.207 -0.3185 -0.4814  0.2948
  499TMC3    C7 7424   2.333   0.953  10.103 -0.0808 -0.4666  0.0089
  499TMC3    C8 7425   2.145   0.521  10.169  0.3298 -0.1596  0.3721
  499TMC3    O1 7426   2.319   1.073  10.105 -0.4934 -0.5130  0.1010
  499TMC3    O2 7427   2.264   0.484  10.165  0.5240 -0.4957 -0.1754
  500MPD2     C 7428   3.672   3.020   9.776 -0.3422 -0.3400  0.0718
  500MPD2    C1 7429   3.656   2.966   9.903 -0.1149 -0.0585  0.3450
  500MPD2    C2 7430   3.529   2.911   9.935  0.0859  0.1197 -0.4861
  500MPD2    C3 7431   3.432   2.892   9.834  0.2019  0.3101  0.1494
  500MPD2    C4 7432   3.457   2.926   9.707 -0.3989 -0.4452 -0.2306
  500MPD2    C5 7433   3.576   2.997   9.678  0.1532 -0.8054 -0.2928
  500MPD2     H 7434   3.515   2.887  10.040  1.1030  0.8430 -0.1913
  500MPD2    H1 7435   3.379   2.904   9.636  0.9163 -1.1723 -1.4623
  500MPD2    H2 7436   3.754   3.088   9.756 -1.2479  1.0735  1.0637
  500MPD2    H3 7437   3.592   3.022   9.574 -1.3991  0.0802 -0.3292
  500MPD2     N 7438   3.308   2.822   9.857  0.4912 -0.4581  0.5799
  500MPD2    H5 7439   3.245   2.806   9.779  0.3356  1.5226  0.3076
  500MPD2    N1 7440   3.763   2.964   9.995 -0.3635 -0.5415  0.5493
  500MPD2    H7 7441   3.853   3.004   9.970 -1.7396  0.6330 -2.5429
  501TMC3    C1 7442   3.891   2.913  10.186 -0.0756  0.9191 -0.1858
  501TMC3    C2 7443   3.945   3.039  10.182 -0.6367  0.0284 -0.5727
  501TMC3    C3 7444   4.067   3.058  10.240  0.2149 -0.1461 -0.2401
  501TMC3    C4 7445   3.947   2.803  10.239  0.0801  0.0952 -0.1329
  501TMC3    C5 7446   4.076   2.822  10.277  0.7368  0.4844 -0.8920
  501TMC3    C6 7447   4.136   2.947  10.279  0.1263 -0.2775 -0.4391
  501TMC3     C 7448   3.768   2.894  10.117  0.1002 -0.5714  0.5224
  501TMC3     O 7449   3.693   2.818  10.171  0.1107  0.4587  0.0476
  501TMC3     H 7450   3.881   3.119  10.147 -2.1516 -1.0397 -0.2270
  501TMC3    H1 7451   3.898   2.706  10.239 -0.6039  0.4323  1.5633
  501TMC3    H2 7452   4.235   2.964  10.320  0.4975 -2.0394 -0.6104
  501TMC3    C7 7453   4.113   2.730  10.377  0.3893 -0.9441  0.0968
  501TMC3    C8 7454   4.081   3.165  10.333 -0.1185 -0.5597 -0.3077
  501TMC3    O1 7455   4.108   2.607  10.369 -0.1606  0.1623 -0.1328
  501TMC3    O2 7456   4.139   3.143  10.435 -0.2124  0.4562  0.0544
  502TMC3    C1 7457   2.778   0.736  15.165 -0.4801 -0.4491  0.1749
  502TMC3    C2 7458   2.754   0.841  15.074 -0.5935  0.5946  0.6842
  502TMC3    C3 7459   2.626   0.884  15.046 -0.1077  0.0397 -0.2456
  502TMC3    C4 7460   2.673   0.667  15.217 -0.5601 -0.3801 -0.4502
  502TMC3    C5 7461   2.546   0.714  15.193 -0.2017  0.2492 -0.0858
  502TMC3    C6 7462   2.518   0.813  15.101 -0.8340  0.2076 -0.3440
  502TMC3     C 7463   2.884   0.755  15.263  0.1708  1.0102 -0.4724
  502TMC3     O 7464   2.859   0.725  15.380  0.1176  0.1022  0.1285
  502TMC3     H 7465   2.840   0.898  15.040  2.0829 -2.7887  1.7912
  502TMC3    H1 7466   2.685   0.609  15.308  0.5743 -2.8211 -2.1838
  502TMC3    H2 7467   2.419   0.829  15.061  0.1434 -1.1052 -3.2521
  502TMC3    C7 7468   2.446   0.680  15.306 -0.0785 -0.0683 -0.3961
  502TMC3    C8 7469   2.625   1.029  15.066 -0.0655 -0.0539  0.0753
  502TMC3    O1 7470   2.470   0.584  15.376  0.4089  0.0449 -0.2865
  502TMC3    O2 7471   2.730   1.089  15.042 -0.1000 -0.2376  0.0463
  503MPD2     C 7472   0.416   2.190  16.646  0.1060  0.4133 -0.0813
  503MPD2    C1 7473   0.379   2.223  16.768 -0.4089 -0.2516  0.0412
  503MPD2    C2 7474   0.379   2.129  16.871  0.4501 -0.2617  0.1431
  503MPD2    C3 7475   0.444   2.009  16.853  0.0963 -0.5579  0.1102
  503MPD2    C4 7476   0.463   1.966  16.725 -0.3661 -0.3228 -0.6026
  503MPD2    C5 7477   0.448   2.054  16.618  0.5737  0.2545 -0.0686
  503MPD2     H 7478   0.354   2.171  16.968 -1.1453 -1.2334  0.1598
  503MPD2    H1 7479   0.496   1.865  16.704  0.1988 -0.3319  0.3163
  503MPD2    H2 7480   0.411   2.258  16.562  1.5566  0.1873 -0.3547
  503MPD2    H3 7481   0.465   2.018  16.517  1.8763  0.1597  0.1843
  503MPD2     N 7482   0.475   1.931  16.969 -0.6422 -0.6838 -0.3681
  503MPD2    H5 7483   0.458   1.964  17.063 -0.4489  1.1019 -0.9566
  503MPD2    N1 7484   0.338   2.357  16.801 -0.2275  0.3284  0.9358
  503MPD2    H7 7485   0.307   2.367  16.897  0.9561  1.0441  1.2382
  504TMC3    C1 7486   0.595   1.763  17.087 -1.4757 -0.1437  0.0687
  504TMC3    C2 7487   0.566   1.833  17.200 -0.4569 -1.3032 -0.5399
  504TMC3    C3 7488   0.654   1.846  17.302  0.2457  0.1322 -0.5790
  504TMC3    C4 7489   0.717   1.701  17.066 -0.1569 -0.0780 -1.0877
  504TMC3    C5 7490   0.802   1.704  17.174  0.3327  0.2671 -0.8153
  504TMC3    C6 7491   0.778   1.783  17.287  0.0049 -0.1257 -0.5686
  504TMC3     C 7492   0.548   1.814  16.962 -0.8518  0.0883 -0.7567
  504TMC3     O 7493   0.580   1.743  16.869  0.3302 -0.0654  0.8743
  504TMC3     H 7494   0.467   1.873  17.221 -0.2715 -1.6236  0.9570
  504TMC3    H1 7495   0.737   1.635  16.982 -0.3394 -1.4187 -0.0923
  504TMC3    H2 7496   0.854   1.783  17.364 -2.0314  0.5301  1.4305
  504TMC3    C7 7497   0.932   1.646  17.138  0.2328 -0.1124 -0.2383
  504TMC3    C8 7498   0.595   1.867  17.431 -0.2276 -0.1313 -0.5189
  504TMC3    O1 7499   0.957   1.634  17.019 -0.2067  0.6297  0.2405
  504TMC3    O2 7500   0.493   1.932  17.432  0.4926  0.8532  0.3515
  505MPD2     C 7501   0.808   4.509  10.675  0.0260  0.6238 -0.3022
  505MPD2    C1 7502   0.923   4.435  10.649  0.2488  0.2739 -0.6933
  505MPD2    C2 7503   1.038   4.492  10.695  0.1248 -0.7801  0.9568
  505MPD2    C3 7504   1.041   4.602  10.778 -0.4129 -0.0429  0.0350
  505MPD2    C4 7505   0.918   4.665  10.806  0.0658  0.0575  0.1417
  505MPD2    C5 7506   0.809   4.624  10.743  0.1520 -0.4731 -0.0492
  505MPD2     H 7507   1.130   4.445  10.661 -0.4825 -1.1292 -0.2209
  505MPD2    H1 7508   0.909   0.027  10.872 -3.0048 -0.9756  1.0562
  505MPD2    H2 7509   0.718   4.474  10.627 -0.6614  2.0304 -0.0280
  505MPD2    H3 7510   0.715   4.670  10.769  1.4264  1.5415  1.0405
  505MPD2     N 7511   1.159   4.659  10.825  0.8079  0.3951 -0.1796
  505MPD2    H5 7512   1.151   0.018  10.883  0.8345  1.2370 -1.3619
  505MPD2    N1 7513   0.911   4.321  10.564  0.2835  1.0602  0.2083
  505MPD2    H7 7514   0.818   4.292  10.535  0.8522 -0.6224  0.0496
  506TMC3    C1 7515   1.005   4.157  10.420 -0.4439  0.7499 -0.0840
  506TMC3    C2 7516   0.962   4.215  10.304 -0.1280 -0.0627  0.1036
  506TMC3    C3 7517   1.012   4.178  10.180  0.3348 -0.3423 -0.2036
  506TMC3    C4 7518   1.108   4.071  10.409  0.5504 -0.1071  0.1544
  506TMC3    C5 7519   1.170   4.044  10.291  0.0785 -0.6640 -0.0490
  506TMC3    C6 7520   1.120   4.094  10.170  0.1835 -0.3948  0.0789
  506TMC3     C 7521   1.024   4.247  10.535 -0.2617 -0.1984  0.4847
  506TMC3     O 7522   1.138   4.245  10.582 -0.0584  0.4960  0.1963
  506TMC3     H 7523   0.879   4.283  10.314  0.5361  0.8482 -0.6923
  506TMC3    H1 7524   1.138   4.018  10.499  0.1562  0.3903  0.5825
  506TMC3    H2 7525   1.180   4.087  10.080  2.8194 -1.3335  1.9160
  506TMC3    C7 7526   1.314   4.054  10.307  0.3025  0.0136 -0.2750
  506TMC3    C8 7527   0.944   4.242  10.072  0.1629  0.2430  0.0611
  506TMC3    O1 7528   1.382   3.999  10.223  0.0915  0.0071  0.1007
  506TMC3    O2 7529   0.939   4.182   9.971  0.1417  0.2676  0.4785
  507TMC3    C1 7530   1.361   1.188  14.423 -1.0120  0.6966  0.5076
  507TMC3    C2 7531   1.321   1.166  14.296  0.6654  0.2145 -0.2241
  507TMC3    C3 7532   1.405   1.156  14.192  0.3307  0.2174 -0.4441
  507TMC3    C4 7533   1.493   1.208  14.447  0.4881 -0.1500 -0.0475
  507TMC3    C5 7534   1.577   1.199  14.339  0.1696 -0.6180  0.0403
  507TMC3    C6 7535   1.538   1.168  14.211  0.1753  0.2726  0.2808
  507TMC3     C 7536   1.276   1.160  14.537  0.1295 -0.7730  1.4604
  507TMC3     O 7537   1.335   1.110  14.639 -0.3086 -0.3064 -0.0469
  507TMC3     H 7538   1.215   1.156  14.273  1.2141 -0.9366 -2.3079
  507TMC3    H1 7539   1.526   1.219  14.550  1.1086  1.8902 -0.4656
  507TMC3    H2 7540   1.611   1.146  14.133  1.7276  1.3375  1.4287
  507TMC3    C7 7541   1.683   1.290  14.335 -0.0654 -0.5337 -0.1540
  507TMC3    C8 7542   1.360   1.243  14.082  0.2283  0.7161  0.0497
  507TMC3    O1 7543   1.733   1.313  14.226 -0.4882 -0.6070 -0.4454
  507TMC3    O2 7544   1.239   1.249  14.056 -0.2697  0.0254 -0.1130
  508MPD2     C 7545   2.235   3.495  16.457 -0.5140 -0.9156  0.3569
  508MPD2    C1 7546   2.356   3.549  16.429  0.5938  0.6702 -0.1238
  508MPD2    C2 7547   2.370   3.625  16.316  0.4495  0.3411  0.1397
  508MPD2    C3 7548   2.267   3.636  16.216  0.3626  0.6717  0.5703
  508MPD2    C4 7549   2.143   3.583  16.244  0.5302  0.1813 -0.6121
  508MPD2    C5 7550   2.131   3.516  16.364  0.0058 -0.4750  0.1680
  508MPD2     H 7551   2.457   3.679  16.279  0.9984  0.1227  1.1335
  508MPD2    H1 7552   2.058   3.587  16.177  0.1610 -1.1295 -0.2121
  508MPD2    H2 7553   2.218   3.424  16.537 -0.5185 -2.1640 -0.7561
  508MPD2    H3 7554   2.038   3.464  16.385 -0.9269  0.9112 -0.5486
  508MPD2     N 7555   2.296   3.714  16.098  0.0299  0.1757 -0.6364
  508MPD2    H5 7556   2.389   3.753  16.098 -0.2920  0.9585 -0.2447
  508MPD2    N1 7557   2.460   3.533  16.521 -0.2141 -0.0806 -0.1018
  508MPD2    H7 7558   2.446   3.484  16.609 -2.0153 -0.0625 -0.3728
  509TMC3    C1 7559   2.224   3.999  15.743 -0.2348  0.6279 -0.6051
  509TMC3    C2 7560   2.350   4.043  15.755  0.2376 -0.3509 -0.5718
  509TMC3    C3 7561   2.447   3.969  15.824  0.4453  0.0778 -0.4326
  509TMC3    C4 7562   2.187   3.882  15.812  0.3249  0.3450 -0.1913
  509TMC3    C5 7563   2.274   3.823  15.900 -0.6659  0.1104  0.1586
  509TMC3    C6 7564   2.407   3.861  15.898  0.3756 -0.3890 -0.0963
  509TMC3     C 7565   2.137   4.111  15.746  0.1727 -0.2104  0.4177
  509TMC3     O 7566   2.050   4.115  15.831 -0.7438  0.0692  0.4659
  509TMC3     H 7567   2.389   4.130  15.704 -0.2590  0.6745  0.8051
  509TMC3    H1 7568   2.082   3.855  15.818  0.5605 -0.8505 -1.3872
  509TMC3    H2 7569   2.474   3.817  15.972 -0.7294 -3.8233 -1.1159
  509TMC3    C7 7570   2.219   3.724  15.988 -0.0996 -0.1193  1.0307
  509TMC3    C8 7571   2.585   4.018  15.829  0.8018 -0.6443 -0.7719
  509TMC3    O1 7572   2.100   3.689  15.977  0.2057 -0.5393  0.4269
  509TMC3    O2 7573   2.675   3.937  15.848 -0.7410  0.4183 -0.1561
  510MPD2     C 7574   0.250   0.814  14.136  0.0529  0.0252  0.2307
  510MPD2    C1 7575   0.307   0.805  14.257 -0.0128  0.2552 -0.0125
  510MPD2    C2 7576   0.444   0.775  14.272  0.4189 -0.2627  0.4033
  510MPD2    C3 7577   0.508   0.732  14.157 -0.4153 -0.0032 -0.1595
  510MPD2    C4 7578   0.438   0.739  14.037  0.2596  0.1909  1.0119
  510MPD2    C5 7579   0.307   0.783  14.023  0.5167 -0.6633  0.2447
  510MPD2     H 7580   0.499   0.770  14.365 -0.2484 -0.2517  0.8026
  510MPD2    H1 7581   0.477   0.688  13.949  0.2306  1.0150  0.5175
  510MPD2    H2 7582   0.143   0.824  14.122  0.2204 -0.8494 -1.6200
  510MPD2    H3 7583   0.258   0.781  13.927  1.0357 -0.2388 -0.0305
  510MPD2     N 7584   0.635   0.673  14.172 -0.2349 -0.3428  0.1222
  510MPD2    H5 7585   0.676   0.658  14.263  1.5308 -0.6144 -0.7088
  510MPD2    N1 7586   0.215   0.808  14.366 -0.2279  0.4187 -0.0428
  510MPD2    H7 7587   0.117   0.828  14.352 -0.4917 -2.5723 -2.4067
  511TMC3    C1 7588   0.147   0.746  14.578 -0.6831  0.3086 -1.0263
  511TMC3    C2 7589   0.153   0.776  14.713 -1.2180 -0.4716 -1.2071
  511TMC3    C3 7590   0.088   0.686  14.799  0.2612  0.0620  0.1934
  511TMC3    C4 7591   0.096   0.636  14.524 -0.5651  0.5477  0.3736
  511TMC3    C5 7592   0.030   0.554  14.609 -0.4731 -0.2229 -0.1712
  511TMC3    C6 7593   0.019   0.574  14.749 -0.2131 -0.3718  0.2956
  511TMC3     C 7594   0.251   0.796  14.499 -0.6576 -0.0895  0.1407
  511TMC3     O 7595   0.368   0.791  14.542 -0.6251 -0.3889 -0.3695
  511TMC3     H 7596   0.200   0.872  14.735  1.9461 -2.0323 -1.1712
  511TMC3    H1 7597   0.104   0.609  14.419  0.2818  0.4723  0.4561
  511TMC3    H2 7598   4.694   0.504  14.815  3.2537 -1.9324  1.1928
  511TMC3    C7 7599   4.708   0.434  14.545 -0.8575 -0.3226 -0.1245
  511TMC3    C8 7600   0.067   0.734  14.935 -0.2197 -1.0500  0.6723
  511TMC3    O1 7601   4.671   0.449  14.431 -0.0380  0.4135  0.4690
  511TMC3    O2 7602   0.071   0.851  14.957  0.0697  0.1800 -0.9405
  512TMC3    C1 7603   4.270   0.109  13.071 -0.3580  1.1880  0.4341
  512TMC3    C2 7604   4.295   0.036  13.184  0.5691 -0.2764  0.0889
  512TMC3    C3 7605   4.278   4.621  13.180 -0.6700 -0.1045 -0.2144
  512TMC3    C4 7606   4.228   0.050  12.951  0.4971 -0.8214 -0.7445
  512TMC3    C5 7607   4.225   4.637  12.954  0.6015 -0.9755  0.4531
  512TMC3    C6 7608   4.243   4.553  13.068  0.5884 -0.2377 -0.3380
  512TMC3     C 7609   4.287   0.256  13.065 -0.1723 -0.0105 -0.0913
  512TMC3     O 7610   4.292   0.292  12.948  0.1933 -0.6217 -0.4597
  512TMC3     H 7611   4.335   0.092  13.268  0.7092  1.5817 -1.2075
  512TMC3    H1 7612   4.212   0.099  12.855  0.0052  0.2961 -0.0961
  512TMC3    H2 7613   4.241   4.445  13.073  1.8807 -0.2675 -0.3118
  512TMC3    C7 7614   4.185   4.578  12.824  0.2946  0.3845  0.3164
  512TMC3    C8 7615   4.295   4.548  13.301 -0.2208 -0.5784 -0.6032
  512TMC3    O1 7616   4.151   4.659  12.738  0.0413 -0.4297 -0.0171
  512TMC3    O2 7617   4.290   4.431  13.284  0.1253 -0.1553  0.1124
  513MPD2     C 7618   0.980   4.281  13.638  0.0494 -0.2627  0.4919
  513MPD2    C1 7619   1.062   4.333  13.546  0.3532 -0.3741 -0.6760
  513MPD2    C2 7620   1.139   4.444  13.579 -0.1109  0.7839 -0.1758
  513MPD2    C3 7621   1.127   4.496  13.706 -0.0746  0.1122  0.0080
  513MPD2    C4 7622   1.043   4.441  13.797  0.4064  0.3775 -0.2584
  513MPD2    C5 7623   0.974   4.335  13.761  0.1326  0.4004 -0.1614
  513MPD2     H 7624   1.210   4.492  13.514  0.8072 -0.8180 -0.3632
  513MPD2    H1 7625   1.040   4.475  13.900 -0.0934  0.2831 -0.2435
  513MPD2    H2 7626   0.913   4.201  13.609  0.0782 -0.2443  0.3772
  513MPD2    H3 7627   0.917   4.274  13.830 -0.1564 -0.7063 -1.3693
  513MPD2     N 7628   1.198   4.617  13.732  0.7031  0.0995  0.3922
  513MPD2    H5 7629   1.230   4.660  13.646  0.2562  2.3783  1.3602
  513MPD2    N1 7630   1.088   4.277  13.417 -0.1728  0.5158  0.2212
  513MPD2    H7 7631   1.163   4.328  13.372  0.9227 -0.9742  0.3638
  514TMC3    C1 7632   1.098   4.157  13.238 -1.3258  0.0852  0.8171
  514TMC3    C2 7633   1.009   4.157  13.127 -0.3030  0.5228  0.9350
  514TMC3    C3 7634   1.058   4.210  13.008 -0.1695  0.1178  0.3774
  514TMC3    C4 7635   1.225   4.202  13.231 -0.1763 -0.0168 -0.1934
  514TMC3    C5 7636   1.261   4.270  13.114 -0.2551  0.4210 -0.4873
  514TMC3    C6 7637   1.178   4.277  13.010  0.2927 -0.3912  0.5398
  514TMC3     C 7638   1.032   4.174  13.363 -0.1783  0.4323  0.1625
  514TMC3     O 7639   0.920   4.118  13.383  0.4862  0.2388  0.2171
  514TMC3     H 7640   0.906   4.126  13.135 -0.3760  1.2559  2.8464
  514TMC3    H1 7641   1.287   4.213  13.319 -1.4985  1.6313  0.5351
  514TMC3    H2 7642   1.197   4.348  12.930  0.4453 -0.2242  0.7238
  514TMC3    C7 7643   1.296   4.405  13.161 -0.1949 -0.0092  0.0362
  514TMC3    C8 7644   0.976   4.196  12.885  1.2385 -0.2439  0.1238
  514TMC3    O1 7645   1.227   4.457  13.250 -0.3756 -0.1340 -0.3106
  514TMC3    O2 7646   0.858   4.166  12.899  0.3003  0.1093  1.2093
  515MPD2     C 7647   3.347   1.911  14.958  1.3869  0.3470  0.4673
  515MPD2    C1 7648   3.456   1.836  14.923 -0.4406 -0.5405  0.1461
  515MPD2    C2 7649   3.579   1.876  14.968 -0.0036  0.6025  0.1225
  515MPD2    C3 7650   3.595   1.994  15.045 -0.2531  0.6267  0.2585
  515MPD2    C4 7651   3.485   2.079  15.059 -0.9756 -0.2331 -0.3532
  515MPD2    C5 7652   3.361   2.037  15.018 -0.0837  0.5413  0.2743
  515MPD2     H 7653   3.660   1.808  14.947 -1.9368 -1.1311 -1.7363
  515MPD2    H1 7654   3.492   2.171  15.117  0.2048  1.5626 -3.3758
  515MPD2    H2 7655   3.250   1.880  14.921  1.4052 -0.5864  1.1970
  515MPD2    H3 7656   3.277   2.098  15.051  0.7502  1.2712  1.0414
  515MPD2     N 7657   3.719   2.043  15.092 -0.2155  0.4319 -0.0416
  515MPD2    H5 7658   3.718   2.139  15.125 -1.7822  0.2699  0.3684
  515MPD2    N1 7659   3.443   1.728  14.835  1.1077 -0.1135  0.4451
  515MPD2    H7 7660   3.520   1.663  14.828  0.3415 -0.8712 -0.9394
  516TMC3    C1 7661   3.342   1.566  14.698  0.1094 -0.1499  0.4241
  516TMC3    C2 7662   3.282   1.546  14.579 -0.5145 -0.2610 -0.0175
  516TMC3    C3 7663   3.298   1.420  14.522  0.7210  0.7663  0.9064
  516TMC3    C4 7664   3.415   1.469  14.758  0.2997  0.5802 -0.5799
  516TMC3    C5 7665   3.423   1.344  14.703  0.4703  0.7200  0.2691
  516TMC3    C6 7666   3.376   1.320  14.573  0.6675 -0.3101  0.0609
  516TMC3     C 7667   3.329   1.699  14.764 -0.4360  0.0707 -0.3052
  516TMC3     O 7668   3.252   1.779  14.712 -0.2486  0.1605  0.5621
  516TMC3     H 7669   3.235   1.627  14.524 -1.3493 -1.2109 -0.7068
  516TMC3    H1 7670   3.471   1.489  14.848  0.1216 -2.5222  0.2094
  516TMC3    H2 7671   3.363   1.219  14.535  0.2991  0.0978 -0.8922
  516TMC3    C7 7672   3.486   1.241  14.778 -0.0604 -0.7511 -0.2252
  516TMC3    C8 7673   3.260   1.418  14.380  1.0987  0.6083 -0.0122
  516TMC3    O1 7674   3.486   1.256  14.898 -0.2098 -0.2092  0.0868
  516TMC3    O2 7675   3.173   1.494  14.347  0.7310 -0.6276  0.2247
  517MPD2     C 7676   3.107   3.190   0.330 -0.2282  0.1358 -0.6412
  517MPD2    C1 7677   3.245   3.214   0.307  0.5204 -0.7764  0.7079
  517MPD2    C2 7678   3.298   3.318   0.374  0.4210 -1.0127  0.5296
  517MPD2    C3 7679   3.219   3.381   0.470 -0.2394 -0.3703  0.7268
  517MPD2    C4 7680   3.093   3.347   0.499  0.1445  0.5302 -0.5821
  517MPD2    C5 7681   3.035   3.255   0.422  0.1900  0.2755 -0.7865
  517MPD2     H 7682   3.404   3.336   0.357  0.2828 -1.7652 -1.1507
  517MPD2    H1 7683   3.039   3.393   0.580  0.9615  1.1612 -0.3943
  517MPD2    H2 7684   3.053   3.111   0.279  1.3956 -0.7571 -0.9691
  517MPD2    H3 7685   2.933   3.227   0.445  1.0811 -1.1958  1.3703
  517MPD2     N 7686   3.268   3.488   0.551  0.6791  0.2408  0.0967
  517MPD2    H5 7687   3.198   3.522   0.616  0.2497  1.4232 -0.9904
  517MPD2    N1 7688   3.340   3.136   0.223  0.0234 -0.1129  0.5781
  517MPD2    H7 7689   3.441   3.150   0.227 -0.0439  0.6556 -0.3421
  518TMC3    C1 7690   3.409   2.940   0.120  0.1667  0.0461 -0.6067
  518TMC3    C2 7691   3.377   2.809   0.095 -0.2216  0.5812 -0.2213
  518TMC3    C3 7692   3.471   2.732   0.028 -0.9848  0.1570  0.5536
  518TMC3    C4 7693   3.534   2.993   0.110  0.0803  0.4070  0.0633
  518TMC3    C5 7694   3.631   2.907   0.046  0.0527  0.3142 -0.7082
  518TMC3    C6 7695   3.600   2.776   0.014  0.2497  0.1237 -0.9924
  518TMC3     C 7696   3.298   3.028   0.157  0.2962 -0.4378 -0.4360
  518TMC3     O 7697   3.189   2.981   0.130 -0.6468 -0.0982 -0.2603
  518TMC3     H 7698   3.279   2.770   0.115  0.6664 -2.0538 -1.0866
  518TMC3    H1 7699   3.553   3.099   0.116  1.9779  0.0275  0.7626
  518TMC3    H2 7700   3.675   2.709  17.671  1.3930  1.3618 -0.9189
  518TMC3    C7 7701   3.751   2.972  17.690 -0.3057  0.4931 -0.5452
  518TMC3    C8 7702   3.442   2.589   0.011 -0.2126 -0.0221  0.2111
  518TMC3    O1 7703   3.795   3.070   0.051  0.6303 -0.5184  0.6540
  518TMC3    O2 7704   3.345   2.548   0.067 -0.0090  0.1875  0.3041
  519MPD2     C 7705   0.328   1.851  14.308 -0.0304 -0.1924  0.6127
  519MPD2    C1 7706   0.357   1.824  14.173 -0.1592  0.4640 -0.2772
  519MPD2    C2 7707   0.421   1.711  14.131 -1.1851 -0.2036 -0.2705
  519MPD2    C3 7708   0.450   1.610  14.215 -0.4879 -0.1805  0.8151
  519MPD2    C4 7709   0.415   1.634  14.346 -0.7045 -0.0484  0.5855
  519MPD2    C5 7710   0.362   1.748  14.396 -0.4232 -0.6885  0.1195
  519MPD2     H 7711   0.442   1.695  14.025  2.1891  2.9800 -0.0971
  519MPD2    H1 7712   0.409   1.550  14.414  2.9128  0.7430  1.9075
  519MPD2    H2 7713   0.276   1.942  14.336 -0.2662 -0.3966  0.8476
  519MPD2    H3 7714   0.352   1.768  14.502  2.0270 -1.1498  0.4433
  519MPD2     N 7715   0.495   1.474  14.183  0.0380  0.7717  0.0848
  519MPD2    H5 7716   0.505   1.407  14.260 -2.0513 -0.1967 -0.5052
  519MPD2    N1 7717   0.324   1.933  14.082  0.9863 -0.2342  0.1095
  519MPD2    H7 7718   0.258   2.007  14.108  0.2297 -1.2874  1.1772
  520TMC3    C1 7719   0.507   1.271  14.044 -0.6262 -0.0645  0.6243
  520TMC3    C2 7720   0.459   1.206  13.924  0.2621 -0.3652  0.4505
  520TMC3    C3 7721   0.500   1.083  13.905  0.4932 -0.3384 -0.2090
  520TMC3    C4 7722   0.589   1.204  14.131  0.6597 -0.2624  0.2910
  520TMC3    C5 7723   0.635   1.082  14.103 -0.7379 -0.8617 -0.4147
  520TMC3    C6 7724   0.591   1.022  13.986 -0.5203 -0.1943 -0.6920
  520TMC3     C 7725   0.499   1.418  14.059 -0.0956  0.4085 -0.3338
  520TMC3     O 7726   0.478   1.473  13.958  0.2653 -0.3846  0.4480
  520TMC3     H 7727   0.398   1.268  13.858 -1.2915 -1.4769  0.8257
  520TMC3    H1 7728   0.637   1.257  14.213 -0.8707 -0.3061  1.2318
  520TMC3    H2 7729   0.641   0.930  13.958 -0.6377 -0.4538 -0.0379
  520TMC3    C7 7730   0.773   1.062  14.145  0.3075 -0.5458 -0.0194
  520TMC3    C8 7731   0.494   1.027  13.770  0.2114  0.2506 -0.7398
  520TMC3    O1 7732   0.809   1.077  14.264 -0.1780 -0.3887  0.3987
  520TMC3    O2 7733   0.581   0.940  13.758 -0.1070  0.5792 -0.4167
  521MPD2     C 7734   1.665   4.503   0.176 -0.1262 -0.4079  0.3984
  521MPD2    C1 7735   1.616   4.411   0.078 -0.4149  0.5693 -0.5606
  521MPD2    C2 7736   1.705   4.343   0.001 -0.6758 -0.0332  0.1214
  521MPD2    C3 7737   1.841   4.351   0.024  0.1778  0.1143 -0.2649
  521MPD2    C4 7738   1.892   4.438   0.114 -0.5209  0.4220 -0.4138
  521MPD2    C5 7739   1.801   4.525   0.181 -0.0117  0.9610 -0.5573
  521MPD2     H 7740   1.672   4.264  17.632  3.8594 -3.1505  1.5945
  521MPD2    H1 7741   1.999   4.452   0.126 -0.1828 -4.0563  1.6881
  521MPD2    H2 7742   1.597   4.555   0.242 -2.4979 -0.8851 -1.6540
  521MPD2    H3 7743   1.841   4.606   0.240 -0.0405  1.2076 -0.8757
  521MPD2     N 7744   1.922   4.257  17.643  0.5301  0.2109  0.1934
  521MPD2    H5 7745   1.888   4.217  17.556  0.5040  0.5805  0.0355
  521MPD2    N1 7746   1.476   4.403   0.065 -0.0685 -0.9287 -0.5071
  521MPD2    H7 7747   1.421   4.461   0.129 -0.3086 -1.7573  0.0338
  522TMC3    C1 7748   2.108   4.151  17.554 -0.6130  0.1249  0.3485
  522TMC3    C2 7749   2.228   4.088  17.586 -0.2161  0.2584 -0.0560
  522TMC3    C3 7750   2.272   3.995  17.495  1.1286 -0.4329 -0.4566
  522TMC3    C4 7751   2.050   4.156  17.432  0.4978 -0.0920 -0.1339
  522TMC3    C5 7752   2.100   4.059  17.345 -0.4686  0.1411 -0.2968
  522TMC3    C6 7753   2.209   3.977  17.375 -0.1299  0.1687  0.2251
  522TMC3     C 7754   2.055   4.232  17.661  0.5576 -1.1220 -0.2758
  522TMC3     O 7755   2.114   4.249   0.066  0.0026  0.1026 -0.0718
  522TMC3     H 7756   2.270   4.113  17.682 -1.8443 -1.1678  1.0153
  522TMC3    H1 7757   1.964   4.218  17.406  0.4935  0.3888  1.0293
  522TMC3    H2 7758   2.214   3.887  17.314  1.8444  0.2028  0.3421
  522TMC3    C7 7759   2.026   4.034  17.218 -0.1692 -0.0211  0.5969
  522TMC3    C8 7760   2.416   3.991  17.486  0.1500  0.3752 -0.5671
  522TMC3    O1 7761   2.019   3.917  17.181  0.4122 -0.1147 -0.4629
  522TMC3    O2 7762   2.479   4.011  17.590 -0.2299  0.8535 -0.1645
  523MPD2     C 7763   4.202   4.102  10.596 -0.6665 -0.1036  0.1564
  523MPD2    C1 7764   4.235   4.084  10.467  0.1105 -0.1038 -0.1402
  523MPD2    C2 7765   4.167   4.157  10.374  0.1472 -0.6382 -0.5415
  523MPD2    C3 7766   4.074   4.249  10.409 -0.3713  0.8882  0.1278
  523MPD2    C4 7767   4.051   4.276  10.543  0.1557  0.1089 -0.0555
  523MPD2    C5 7768   4.111   4.197  10.632  0.2179  0.1974  0.2508
  523MPD2     H 7769   4.184   4.140  10.268 -0.3283 -1.1911 -0.5292
  523MPD2    H1 7770   3.985   4.348  10.589 -1.3498 -2.0890  1.2131
  523MPD2    H2 7771   4.256   4.045  10.671  0.7350 -0.0207 -0.7986
  523MPD2    H3 7772   4.087   4.220  10.735  0.2049 -0.9129  0.4964
  523MPD2     N 7773   4.004   4.317  10.303 -0.7204 -0.2838  0.6058
  523MPD2    H5 7774   4.032   4.304  10.206  0.7714 -2.6605  1.3404
  523MPD2    N1 7775   4.335   3.990  10.443  0.6626  0.3054  0.6730
  523MPD2    H7 7776   4.370   3.935  10.520 -0.1770 -2.0551 -0.6574
  524TMC3    C1 7777   3.827   4.452  10.204  0.0018  0.0688 -0.3750
  524TMC3    C2 7778   3.880   4.432  10.078  0.4029 -0.1268 -0.1199
  524TMC3    C3 7779   3.806   4.499   9.977  0.5702  0.6506  0.6212
  524TMC3    C4 7780   3.741   4.560  10.229 -0.2027  0.4143  0.1742
  524TMC3    C5 7781   3.677   4.632  10.125 -0.2406 -0.7682  0.0965
  524TMC3    C6 7782   3.711   4.594   9.993 -0.5875 -0.0999 -0.3162
  524TMC3     C 7783   3.893   4.399  10.333  0.3655 -1.1619 -0.8441
  524TMC3     O 7784   3.859   4.443  10.438  0.0162 -0.0507 -0.0542
  524TMC3     H 7785   3.916   4.334  10.049 -0.8681 -1.2082  2.0017
  524TMC3    H1 7786   3.739   4.588  10.333 -1.4633 -0.0968  0.2824
  524TMC3    H2 7787   3.655   4.640   9.912  1.5540  1.8238 -0.6703
  524TMC3    C7 7788   3.568   0.000  10.149 -0.6705  0.1226 -0.5975
  524TMC3    C8 7789   3.820   4.442   9.844 -0.1439  0.1408 -0.0613
  524TMC3    O1 7790   3.500   4.707  10.250  0.1276 -0.1877 -0.0923
  524TMC3    O2 7791   3.744   4.482   9.759 -0.3340  0.0145  0.7290
  525MPD2     C 7792   1.804   0.929  14.542 -0.7397  0.1108  0.0301
  525MPD2    C1 7793   1.923   0.917  14.610 -0.6608 -0.5537 -0.1298
  525MPD2    C2 7794   2.044   0.970  14.550 -0.7290  0.4277  0.3604
  525MPD2    C3 7795   2.040   1.033  14.429 -0.7973 -0.1311  0.2569
  525MPD2    C4 7796   1.915   1.033  14.361 -0.4835  0.0559  0.4711
  525MPD2    C5 7797   1.801   0.975  14.415 -0.8610  1.0909  0.2936
  525MPD2     H 7798   2.138   0.959  14.604  0.4515  0.8696 -1.6053
  525MPD2    H1 7799   1.904   1.079  14.264 -0.1097 -0.9369 -0.0458
  525MPD2    H2 7800   1.712   0.885  14.578 -0.1128 -2.2964 -1.3164
  525MPD2    H3 7801   1.707   0.975  14.362 -0.0374  1.5878 -1.1570
  525MPD2     N 7802   2.134   1.128  14.397  0.7501 -0.2497 -0.1632
  525MPD2    H5 7803   2.106   1.207  14.339  0.7247 -1.6507 -2.0694
  525MPD2    N1 7804   1.939   0.847  14.734  0.4789 -0.1611  1.0708
  525MPD2    H7 7805   2.035   0.834  14.765  0.1026 -1.2683  1.7433
  526TMC3    C1 7806   1.886   0.744  14.933  0.3126 -0.2616 -0.0636
  526TMC3    C2 7807   1.811   0.752  15.047 -0.1451  0.0898  0.2355
  526TMC3    C3 7808   1.861   0.713  15.164  0.4355 -0.7446 -0.4303
  526TMC3    C4 7809   2.007   0.674  14.928 -0.6076 -0.5900  0.0442
  526TMC3    C5 7810   2.055   0.633  15.048  0.3609 -0.0510 -0.4002
  526TMC3    C6 7811   1.986   0.649  15.169  0.2272 -0.9094 -0.2282
  526TMC3     C 7812   1.834   0.801  14.814 -0.5738 -0.2740 -0.1952
  526TMC3     O 7813   1.718   0.836  14.816  0.1423  0.2621  0.2315
  526TMC3     H 7814   1.724   0.817  15.049  0.3225  0.6498  2.5510
  526TMC3    H1 7815   2.042   0.636  14.833 -0.5910 -1.8954  0.5760
  526TMC3    H2 7816   2.021   0.609  15.263 -0.7128 -0.8388  0.1540
  526TMC3    C7 7817   2.176   0.559  15.065  0.1743  0.1511 -0.0743
  526TMC3    C8 7818   1.794   0.751  15.285 -0.1812 -0.0278 -0.1561
  526TMC3    O1 7819   2.187   0.479  15.162  0.0579  0.2520 -0.0354
  526TMC3    O2 7820   1.843   0.843  15.349  0.0554  0.4538  0.1064
  527MPD2     C 7821   4.228   3.649   0.993 -0.4571  0.4278  0.6801
  527MPD2    C1 7822   4.300   3.711   1.095 -0.0835 -0.7504 -0.8943
  527MPD2    C2 7823   4.420   3.761   1.068 -0.4687 -1.2019 -0.5458
  527MPD2    C3 7824   4.484   3.752   0.946 -0.6722 -0.2993  0.5927
  527MPD2    C4 7825   4.416   3.691   0.846 -0.2371 -0.6598  0.2233
  527MPD2    C5 7826   4.294   3.633   0.872 -0.5250  0.2054  0.3249
  527MPD2     H 7827   4.470   3.824   1.142 -1.5730 -0.4105 -0.4647
  527MPD2    H1 7828   4.468   3.664   0.755  1.9083  0.6323  1.0847
  527MPD2    H2 7829   4.128   3.610   0.998  0.1633 -0.9494  2.1879
  527MPD2    H3 7830   4.248   3.570   0.797  0.5464  1.6787 -1.5715
  527MPD2     N 7831   4.617   3.798   0.936 -0.2531  0.4660  0.1152
  527MPD2    H5 7832   4.656   3.832   1.024  1.3396  3.1507 -1.6358
  527MPD2    N1 7833   4.251   3.742   1.224 -0.4639  0.5178  0.3707
  527MPD2    H7 7834   4.321   3.782   1.286  0.5119 -1.5595  0.6177
  528TMC3    C1 7835   4.116   3.765   1.407  0.0095 -0.5947  0.5916
  528TMC3    C2 7836   4.220   3.742   1.495 -0.0947  0.1987 -0.1080
  528TMC3    C3 7837   4.185   3.756   1.628  0.2069  0.0267 -0.0794
  528TMC3    C4 7838   3.991   3.805   1.445  0.5625 -0.6347  0.0264
  528TMC3    C5 7839   3.968   3.835   1.578  0.0592 -0.0687 -0.3527
  528TMC3    C6 7840   4.061   3.806   1.675 -0.4482 -0.1602  0.7947
  528TMC3     C 7841   4.126   3.722   1.268 -0.3565 -0.2214  0.3132
  528TMC3     O 7842   4.021   3.700   1.208  0.2784  0.3115  0.6461
  528TMC3     H 7843   4.315   3.699   1.465 -0.5194 -1.1619  0.4646
  528TMC3    H1 7844   3.918   3.812   1.366  1.8120 -0.1643 -1.0917
  528TMC3    H2 7845   4.037   3.812   1.781  3.4735 -1.3811  1.7530
  528TMC3    C7 7846   3.886   3.950   1.589 -0.1599  0.6587 -0.3577
  528TMC3    C8 7847   4.293   3.726   1.726  0.6406  0.1394  0.2361
  528TMC3    O1 7848   3.818   3.984   1.491 -0.0177 -0.0090 -0.2413
  528TMC3    O2 7849   4.410   3.725   1.687 -0.0745  0.5706  0.1044
  529MPD2     C 7850   2.938   1.645   0.706 -0.5072 -0.3093 -0.1939
  529MPD2    C1 7851   2.803   1.663   0.724 -0.6914 -0.9110 -0.4707
  529MPD2    C2 7852   2.727   1.715   0.623 -0.0835 -1.0179  0.1248
  529MPD2    C3 7853   2.789   1.749   0.503 -0.5746 -0.8874 -0.2090
  529MPD2    C4 7854   2.928   1.733   0.488  0.6957  0.6691  1.0788
  529MPD2    C5 7855   2.997   1.674   0.588 -0.1170  0.4626  0.2678
  529MPD2     H 7856   2.618   1.723   0.627  0.1213  1.1407  1.7953
  529MPD2    H1 7857   2.970   1.754   0.390  0.6491  0.4732  1.0175
  529MPD2    H2 7858   3.001   1.603   0.784 -0.3867 -0.3802 -0.3294
  529MPD2    H3 7859   3.100   1.648   0.570 -0.5800 -1.3926  0.3462
  529MPD2     N 7860   2.722   1.802   0.381 -0.2795  0.0117  0.2903
  529MPD2    H5 7861   2.786   1.835   0.309 -0.2215 -1.2428 -0.2317
  529MPD2    N1 7862   2.737   1.633   0.845 -0.7943 -0.2649 -0.1966
  529MPD2    H7 7863   2.637   1.648   0.844 -1.0008 -1.5061  1.4981
  530TMC3    C1 7864   2.713   1.606   1.080 -0.3309  0.2258  0.9920
  530TMC3    C2 7865   2.780   1.595   1.199  0.3453 -0.2132  0.0779
  530TMC3    C3 7866   2.703   1.570   1.310 -0.4833  0.8377 -0.3200
  530TMC3    C4 7867   2.575   1.611   1.075 -0.8197 -0.2427 -0.2335
  530TMC3    C5 7868   2.507   1.602   1.197 -0.1982 -0.0597 -0.0121
  530TMC3    C6 7869   2.569   1.573   1.317 -0.9098 -0.4283 -0.6180
  530TMC3     C 7870   2.799   1.592   0.961 -0.8543  0.3109  0.1773
  530TMC3     O 7871   2.921   1.570   0.983  0.0620  0.0530  0.1092
  530TMC3     H 7872   2.888   1.588   1.201  0.3683  0.8789  1.8854
  530TMC3    H1 7873   2.514   1.619   0.986  0.1408  2.6497 -0.6498
  530TMC3    H2 7874   2.519   1.563   1.412  0.6891 -0.0226  0.2735
  530TMC3    C7 7875   2.360   1.612   1.192 -0.6060  0.1335 -0.5284
  530TMC3    C8 7876   2.763   1.578   1.444 -0.5371  0.0060  0.3277
  530TMC3    O1 7877   2.300   1.586   1.089 -0.1477 -0.4997  0.4713
  530TMC3    O2 7878   2.696   1.621   1.535  0.6133 -0.2223  0.1649
  531MPD2     C 7879   1.641   0.047  13.218 -0.2242  0.4117  0.4973
  531MPD2    C1 7880   1.534   0.014  13.298 -0.2864 -0.0096 -1.3074
  531MPD2    C2 7881   1.451   4.643  13.247 -0.1421 -0.2508  0.8338
  531MPD2    C3 7882   1.474   4.575  13.127 -0.2994  0.4290 -0.2263
  531MPD2    C4 7883   1.574   4.614  13.045  0.5328 -0.1143  0.1975
  531MPD2    C5 7884   1.655   4.714  13.093  0.5127  0.5327 -0.1060
  531MPD2     H 7885   1.381   4.603  13.319 -0.9294 -0.1639  0.1127
  531MPD2    H1 7886   1.596   4.560  12.953 -2.3051  3.2929 -2.4762
  531MPD2    H2 7887   1.709   0.123  13.254 -0.0234  0.3205  0.3104
  531MPD2    H3 7888   1.741   0.021  13.033  0.6826 -1.4780 -0.9139
  531MPD2     N 7889   1.405   4.458  13.098  0.5120  0.2089  0.3845
  531MPD2    H5 7890   1.432   4.405  13.015 -1.0595  2.1663 -1.3873
  531MPD2    N1 7891   1.519   0.080  13.423  0.1029  0.2556 -0.1909
  531MPD2    H7 7892   1.599   0.140  13.443  1.0616 -0.2509 -2.5192
  532TMC3    C1 7893   1.436   0.113  13.643 -0.6344  0.0321  0.0959
  532TMC3    C2 7894   1.317   0.107  13.710 -0.3574 -0.1693  0.4001
  532TMC3    C3 7895   1.321   0.049  13.834 -0.5779 -0.1819 -0.7992
  532TMC3    C4 7896   1.556   0.088  13.699 -0.7069 -0.4600  0.2214
  532TMC3    C5 7897   1.555   0.054  13.826 -0.0291 -0.0692 -0.3864
  532TMC3    C6 7898   1.443   0.031  13.897 -0.4058  0.2186 -0.2098
  532TMC3     C 7899   1.413   0.055  13.512 -0.5347  0.3022 -0.1262
  532TMC3     O 7900   1.305   4.720  13.493 -0.3496  0.1084 -0.2428
  532TMC3     H 7901   1.223   0.117  13.658 -1.8721 -1.1395  2.9730
  532TMC3    H1 7902   1.645   0.088  13.638 -0.6350  5.6086  0.3974
  532TMC3    H2 7903   1.448   4.723  14.000  0.6431  1.7864  0.2351
  532TMC3    C7 7904   1.678   0.003  13.870 -0.5261 -1.3765  0.0356
  532TMC3    C8 7905   1.228   4.665  13.856 -0.0541 -0.4073  0.1508
  532TMC3    O1 7906   1.719   0.058  13.971 -0.5927  0.2174  0.0733
  532TMC3    O2 7907   1.226   4.617  13.967  0.2270  0.9836 -0.4950
  533TMC3    C1 7908   2.318   1.265  14.446  0.6526 -0.0471 -1.0286
  533TMC3    C2 7909   2.453   1.281  14.446 -0.8027  0.5663 -0.2042
  533TMC3    C3 7910   2.500   1.394  14.513  0.0729  0.1179 -0.6128
  533TMC3    C4 7911   2.233   1.348  14.508 -0.0970 -0.2796  0.5324
  533TMC3    C5 7912   2.281   1.459  14.578 -0.3226 -0.2402  0.1690
  533TMC3    C6 7913   2.417   1.482  14.573 -0.0695 -0.7501  0.5344
  533TMC3     C 7914   2.267   1.133  14.435 -0.2403  0.4915 -0.7911
  533TMC3     O 7915   2.341   1.036  14.464  0.0809 -0.2961 -0.1148
  533TMC3     H 7916   2.519   1.210  14.398 -1.4848 -0.3993  0.2895
  533TMC3    H1 7917   2.127   1.324  14.513 -0.4345  0.7237 -1.8137
  533TMC3    H2 7918   2.462   1.571  14.616  0.9860 -0.6618 -0.7649
  533TMC3    C7 7919   2.231   1.450  14.719  0.4658 -0.5752  0.5718
  533TMC3    C8 7920   2.643   1.418  14.549  0.2762  0.1888 -0.1970
  533TMC3    O1 7921   2.145   1.368  14.740  0.0535 -0.1918  0.9289
  533TMC3    O2 7922   2.670   1.540  14.554 -0.3316 -0.0551  0.0161
  534MPD2     C 7923   4.053   3.056   2.271 -0.2997 -0.1597 -0.0378
  534MPD2    C1 7924   4.103   3.036   2.150  0.2859 -0.7713  0.0651
  534MPD2    C2 7925   4.088   2.913   2.088 -0.0947 -0.1985 -0.4062
  534MPD2    C3 7926   4.021   2.813   2.159  0.5217  0.2488  0.5549
  534MPD2    C4 7927   3.981   2.830   2.285 -0.2258 -0.3975 -0.2271
  534MPD2    C5 7928   3.995   2.952   2.343 -0.0329 -0.7240  0.0068
  534MPD2     H 7929   4.130   2.895   1.990 -0.0709 -1.8569 -0.0967
  534MPD2    H1 7930   3.943   2.742   2.336  0.2250 -2.0971 -2.8255
  534MPD2    H2 7931   4.064   3.150   2.325 -0.5929 -1.7286  2.7294
  534MPD2    H3 7932   3.964   2.966   2.446  1.8876  0.4700  0.4306
  534MPD2     N 7933   3.999   2.684   2.097 -0.0623 -0.2475 -0.2302
  534MPD2    H5 7934   3.932   2.624   2.145  0.4759 -0.5711  0.1103
  534MPD2    N1 7935   4.161   3.126   2.064  0.3370  0.0894  1.1537
  534MPD2    H7 7936   4.171   3.102   1.966 -0.2997  2.3022  0.5399
  535TMC3    C1 7937   4.002   2.518   1.917  0.1572 -0.4152  0.4435
  535TMC3    C2 7938   3.871   2.480   1.950 -0.2566  0.6674  0.1297
  535TMC3    C3 7939   3.805   2.393   1.865  0.1559  0.7450  0.1915
  535TMC3    C4 7940   4.069   2.458   1.818  0.1551  0.0418 -0.8964
  535TMC3    C5 7941   4.003   2.365   1.742 -0.2897 -0.2157 -0.0013
  535TMC3    C6 7942   3.874   2.325   1.766 -0.2027  0.3079  0.1430
  535TMC3     C 7943   4.064   2.634   1.989 -0.0908  0.2184 -0.5472
  535TMC3     O 7944   4.170   2.678   1.950 -0.1241  0.0970 -0.3536
  535TMC3     H 7945   3.810   2.530   2.024 -0.4456 -0.4640  0.7501
  535TMC3    H1 7946   4.176   2.473   1.811  0.0466  0.7740 -0.9682
  535TMC3    H2 7947   3.823   2.265   1.692  0.9908 -0.7928  0.2092
  535TMC3    C7 7948   4.072   2.294   1.638 -0.1859  0.2695  0.9700
  535TMC3    C8 7949   3.661   2.377   1.858  0.6407  0.4498  0.2271
  535TMC3    O1 7950   4.189   2.331   1.611  0.4649 -0.3564 -0.0376
  535TMC3    O2 7951   3.637   2.282   1.786 -0.3263  0.0093  0.0388
  536MPD2     C 7952   3.737   0.975  16.269 -1.3682  0.0422 -0.5274
  536MPD2    C1 7953   3.619   1.011  16.332 -0.2895  0.8921 -0.4155
  536MPD2    C2 7954   3.508   1.045  16.266 -0.1184 -0.0324 -0.9697
  536MPD2    C3 7955   3.500   1.053  16.134  0.9104  0.1154 -0.6352
  536MPD2    C4 7956   3.612   1.021  16.061 -0.8222  0.3469 -0.8937
  536MPD2    C5 7957   3.734   0.987  16.128  0.6110  0.2464  0.4150
  536MPD2     H 7958   3.419   1.069  16.324  2.1810  3.0901  1.2233
  536MPD2    H1 7959   3.606   1.035  15.954  1.8233 -0.1932 -1.1149
  536MPD2    H2 7960   3.827   0.955  16.325 -0.7801 -0.6094 -1.7032
  536MPD2    H3 7961   3.819   0.968  16.063  0.2427 -0.9677  0.2821
  536MPD2     N 7962   3.383   1.089  16.065 -0.4125 -0.6122 -0.0651
  536MPD2    H5 7963   3.396   1.088  15.964 -0.6329 -0.5139 -0.0962
  536MPD2    N1 7964   3.628   0.998  16.477 -0.8189 -0.0903 -0.2260
  536MPD2    H7 7965   3.710   0.954  16.517 -0.4992 -0.1961 -0.9961
  537TMC3    C1 7966   3.555   0.994  16.698 -0.7214 -0.5089 -0.2063
  537TMC3    C2 7967   3.681   0.989  16.746 -0.0686 -0.4446  0.6273
  537TMC3    C3 7968   3.689   0.951  16.884  0.4661  0.2935  1.0230
  537TMC3    C4 7969   3.448   0.964  16.773  0.5602 -0.6151  1.0394
  537TMC3    C5 7970   3.461   0.935  16.902 -0.3027 -0.4738  0.0354
  537TMC3    C6 7971   3.584   0.940  16.967 -0.2107 -0.0956  0.1863
  537TMC3     C 7972   3.528   1.030  16.562 -0.9459  0.2794  0.1315
  537TMC3     O 7973   3.431   1.096  16.537  0.1344 -0.1253  0.1627
  537TMC3     H 7974   3.772   1.005  16.690 -0.6579 -1.1099 -0.5271
  537TMC3    H1 7975   3.350   0.966  16.725  1.8813 -0.0822 -1.6150
  537TMC3    H2 7976   3.601   0.904  17.068  1.0993 -1.8259 -0.6509
  537TMC3    C7 7977   3.351   0.868  16.966 -0.0170 -0.0083  0.2801
  537TMC3    C8 7978   3.825   0.995  16.931 -0.0166 -0.1731  0.2865
  537TMC3    O1 7979   3.235   0.889  16.938  0.1450  0.1642 -0.7296
  537TMC3    O2 7980   3.889   1.067  16.856 -0.6089  0.5149  0.1867
  538TMC3    C1 7981   0.432   3.979  10.983 -0.5478 -0.1054 -0.4770
  538TMC3    C2 7982   0.448   3.874  10.898 -0.5528 -0.0058 -0.5482
  538TMC3    C3 7983   0.359   3.865  10.793  0.2032  0.2237 -0.5098
  538TMC3    C4 7984   0.319   4.056  10.986  1.0191  0.3070 -0.2366
  538TMC3    C5 7985   0.223   4.033  10.887  0.1270 -0.4657 -0.6087
  538TMC3    C6 7986   0.250   3.943  10.786  0.4828  0.1367  0.4519
  538TMC3     C 7987   0.542   4.002  11.080  0.2217 -0.4789  0.2661
  538TMC3     O 7988   0.525   4.094  11.160 -0.4452  0.1939  0.3318
  538TMC3     H 7989   0.543   3.824  10.882 -0.8321 -0.6060 -0.3295
  538TMC3    H1 7990   0.303   4.124  11.069 -1.1870  0.2590 -0.6232
  538TMC3    H2 7991   0.178   3.931  10.705 -1.7449 -1.4893  2.6867
  538TMC3    C7 7992   0.094   4.085  10.905  0.0304 -0.4893 -0.3158
  538TMC3    C8 7993   0.389   3.783  10.678  0.5587  0.1088 -0.7292
  538TMC3    O1 7994   0.001   4.039  10.837  0.4861 -0.4690 -0.0783
  538TMC3    O2 7995   0.340   3.830  10.577  0.4848 -0.7361  0.0145
  539MPD2     C 7996   4.410   3.205  12.014 -0.1310 -0.4144  0.5661
  539MPD2    C1 7997   4.497   3.247  11.915  1.1762  0.4550  0.0249
  539MPD2    C2 7998   4.577   3.359  11.929 -0.7821 -0.5003  0.5599
  539MPD2    C3 7999   4.564   3.439  12.042  0.4989 -0.9268 -0.0953
  539MPD2    C4 8000   4.463   3.399  12.133 -0.5426 -0.0931 -0.5719
  539MPD2    C5 8001   4.396   3.281  12.118 -0.6833  0.4533 -0.3212
  539MPD2     H 8002   4.642   3.385  11.846 -0.0614 -3.3913  0.2237
  539MPD2    H1 8003   4.439   3.461  12.219 -1.2158 -0.8644 -0.2021
  539MPD2    H2 8004   4.354   3.112  12.014  1.1393 -1.1816 -0.0207
  539MPD2    H3 8005   4.324   3.248  12.192  0.5637 -0.6414  0.4120
  539MPD2     N 8006   4.622   3.563  12.063 -0.2017 -0.4148  0.3131
  539MPD2    H5 8007   4.577   3.618  12.136  0.1646 -0.6234  0.6931
  539MPD2    N1 8008   4.514   3.168  11.797 -0.4232 -0.4339 -0.2663
  539MPD2    H7 8009   4.568   3.217  11.727 -0.4012  1.8557  1.3604
  540TMC3    C1 8010   0.011   3.753  11.978  0.1293 -0.3163  0.3506
  540TMC3    C2 8011   0.074   3.781  11.863 -0.5983  0.3802 -0.1132
  540TMC3    C3 8012   0.020   3.876  11.784 -0.3493  0.7570 -1.0276
  540TMC3    C4 8013   4.629   3.815  12.031 -0.3110  0.4196 -0.0006
  540TMC3    C5 8014   4.584   3.920  11.948 -0.8134 -0.1208 -0.3791
  540TMC3    C6 8015   4.628   3.944  11.822 -0.1726 -0.6598  0.6202
  540TMC3     C 8016   0.012   3.606  12.005 -0.5045  0.0735 -0.6402
  540TMC3     O 8017   0.106   3.542  11.951  0.4079  0.2895 -0.0332
  540TMC3     H 8018   0.158   3.722  11.827 -0.7140  1.7111 -2.5344
  540TMC3    H1 8019   4.596   3.800  12.134 -1.6663 -1.9996 -0.7910
  540TMC3    H2 8020   4.581   4.015  11.754  0.0098 -2.6024 -1.5418
  540TMC3    C7 8021   4.453   3.980  11.991 -0.2183 -0.0047 -0.0131
  540TMC3    C8 8022   0.058   3.867  11.642  0.0530  0.2338 -0.2686
  540TMC3    O1 8023   4.404   3.937  12.093  0.1466  0.0525  0.0147
  540TMC3    O2 8024   0.163   3.805  11.615  0.1444 -0.2663  0.7837
  541MPD2     C 8025   2.715   4.685  13.603 -0.1360 -0.1195  0.1136
  541MPD2    C1 8026   2.806   4.622  13.517 -0.5038  0.4845 -0.4943
  541MPD2    C2 8027   2.856   4.691  13.407 -0.4540 -0.4385 -0.4152
  541MPD2    C3 8028   2.810   0.090  13.375 -0.0501 -0.6727  0.2616
  541MPD2    C4 8029   2.724   0.154  13.464  0.3975  0.2130 -0.1976
  541MPD2    C5 8030   2.680   0.087  13.570 -0.2396 -0.3453  0.3480
  541MPD2     H 8031   2.934   4.640  13.351  1.7012  0.8754  1.3594
  541MPD2    H1 8032   2.679   0.251  13.445 -0.0133 -0.1499 -1.0974
  541MPD2    H2 8033   2.684   4.650  13.700  1.3461 -2.4949 -0.2798
  541MPD2    H3 8034   2.611   0.141  13.635 -1.1418 -0.0336 -0.8645
  541MPD2     N 8035   2.838   0.164  13.255  0.0985  0.1512 -0.2231
  541MPD2    H5 8036   2.781   0.247  13.251  1.5375  1.0494 -2.1237
  541MPD2    N1 8037   2.867   4.503  13.558 -0.6130 -0.4156  0.1201
  541MPD2    H7 8038   2.941   4.472  13.496  0.4430 -2.2673  2.3141
  542TMC3    C1 8039   2.900   0.198  13.039 -0.2119 -0.4289  0.5373
  542TMC3    C2 8040   2.855   0.130  12.933 -0.2506 -0.3207 -0.5233
  542TMC3    C3 8041   2.767   0.190  12.846  0.3180  1.3332 -0.5310
  542TMC3    C4 8042   2.881   0.335  13.053  0.3977  0.3230 -0.0445
  542TMC3    C5 8043   2.806   0.392  12.953 -0.1728  0.3317  1.0366
  542TMC3    C6 8044   2.743   0.324  12.852 -0.0774 -0.0632 -0.2137
  542TMC3     C 8045   2.910   0.118  13.151  0.1725 -0.4729  0.3719
  542TMC3     O 8046   2.974   0.011  13.135  0.8840 -0.2509 -0.4564
  542TMC3     H 8047   2.877   0.024  12.930  0.2570 -0.1796 -2.0662
  542TMC3    H1 8048   2.918   0.379  13.146  0.9838  2.5294 -1.3077
  542TMC3    H2 8049   2.707   0.379  12.766  0.3711 -1.6494 -1.4255
  542TMC3    C7 8050   2.775   0.534  12.966 -0.8151  0.0913 -0.4354
  542TMC3    C8 8051   2.709   0.112  12.743  0.5854  0.4352 -0.7712
  542TMC3    O1 8052   2.674   0.577  12.912  0.2474 -0.0675  0.3801
  542TMC3    O2 8053   2.753   0.000  12.721  0.7811 -0.1181 -0.0011
  543TMC3    C1 8054   1.685   1.314  17.495  0.1406 -0.2025 -0.0496
  543TMC3    C2 8055   1.746   1.193  17.524 -0.4549 -0.3255 -0.5021
  543TMC3    C3 8056   1.765   1.162  17.656  0.0783  0.6927  0.2508
  543TMC3    C4 8057   1.628   1.378  17.603 -0.1499 -0.1062  0.2277
  543TMC3    C5 8058   1.655   1.339   0.036 -0.2583 -0.9355 -0.1312
  543TMC3    C6 8059   1.729   1.231   0.069  0.1095  0.1905  0.3852
  543TMC3     C 8060   1.725   1.387  17.379  0.2237  0.1387 -0.1327
  543TMC3     O 8061   1.700   1.504  17.372 -0.4412  0.1230 -0.1128
  543TMC3     H 8062   1.777   1.117  17.452  0.9430  1.1376 -1.4603
  543TMC3    H1 8063   1.575   1.471  17.584  1.6001 -0.1522 -4.7633
  543TMC3    H2 8064   1.727   1.199   0.173  1.8070  3.1454  1.3135
  543TMC3    C7 8065   1.579   1.413   0.133  0.1225  0.2125 -1.0234
  543TMC3    C8 8066   1.845   1.041  17.680  0.2491 -0.3505  0.3341
  543TMC3    O1 8067   1.488   1.485   0.093 -0.0184 -0.8133  0.0604
  543TMC3    O2 8068   1.839   0.956  17.591 -0.1155 -0.0860  0.5234
  544MPD2     C 8069   2.087   0.697   0.288  0.0303 -0.7061 -0.6681
  544MPD2    C1 8070   2.013   0.675   0.174  0.1646  0.1624 -0.6184
  544MPD2    C2 8071   1.944   0.791   0.123 -0.6009  0.2654 -0.0149
  544MPD2    C3 8072   1.963   0.921   0.163  0.5485  0.0348  0.0217
  544MPD2    C4 8073   2.025   0.934   0.286 -0.0449  0.0204  0.6590
  544MPD2    C5 8074   2.091   0.825   0.345 -0.0754 -0.3548 -0.1455
  544MPD2     H 8075   1.886   0.778   0.032 -0.7485 -0.3920  0.1709
  544MPD2    H1 8076   2.022   1.023   0.347  0.0682  0.6610 -0.2824
  544MPD2    H2 8077   2.162   0.628   0.324  1.9464  1.1822 -1.0907
  544MPD2    H3 8078   2.150   0.843   0.435  0.9228  0.0046 -0.8717
  544MPD2     N 8079   1.904   1.039   0.109  0.6291  0.3020  0.1524
  544MPD2    H5 8080   1.905   1.124   0.165 -1.0632  0.6764 -0.3599
  544MPD2    N1 8081   2.019   0.541   0.117  0.0258  0.8708 -0.6530
  544MPD2    H7 8082   2.089   0.482   0.160 -3.4905 -0.9402  2.5551
  545TMC3    C1 8083   1.939   0.356  17.685  0.3127 -0.5900 -0.4842
  545TMC3    C2 8084   1.824   0.284  17.671  0.1093 -0.4218  0.2931
  545TMC3    C3 8085   1.830   0.151  17.668 -0.2756  0.0014 -0.1196
  545TMC3    C4 8086   2.062   0.299  17.695  0.5491 -0.1070 -0.7814
  545TMC3    C5 8087   2.059   0.158  17.691  0.0308 -0.3567  0.1444
  545TMC3    C6 8088   1.944   0.081  17.682 -0.1336 -0.2163 -0.1297
  545TMC3     C 8089   1.929   0.502   0.024  0.4122  0.5543  0.2753
  545TMC3     O 8090   1.829   0.563  17.692  0.2108  0.2252 -0.0492
  545TMC3     H 8091   1.725   0.327  17.659 -0.0463 -0.4460  1.4922
  545TMC3    H1 8092   2.154   0.356  17.694 -1.0916  2.5930  2.5825
  545TMC3    H2 8093   1.949   4.698   0.001 -0.9924 -0.2001  0.2473
  545TMC3    C7 8094   2.179   0.100   0.049  0.9888  0.0412 -0.1676
  545TMC3    C8 8095   1.709   0.075  17.624  0.4314  0.2324  0.0135
  545TMC3    O1 8096   2.245   0.189   0.100  0.1998 -0.5728 -0.4202
  545TMC3    O2 8097   1.602   0.100  17.677  0.1876 -0.3765 -0.5414
  546MPD2     C 8098   3.482   1.340  16.887  0.1089 -0.1446 -0.3958
  546MPD2    C1 8099   3.468   1.389  17.016  0.4097 -0.3234 -0.3137
  546MPD2    C2 8100   3.551   1.488  17.063  0.0599  0.0820 -0.4323
  546MPD2    C3 8101   3.640   1.548  16.974  0.0657 -0.1747  0.0096
  546MPD2    C4 8102   3.657   1.499  16.848 -0.3814 -0.1961 -0.4307
  546MPD2    C5 8103   3.581   1.394  16.809 -0.1910  0.1421 -0.1378
  546MPD2     H 8104   3.532   1.520  17.164  0.0027  0.6491 -0.6242
  546MPD2    H1 8105   3.710   1.556  16.773 -0.2461 -0.3263 -0.4335
  546MPD2    H2 8106   3.436   1.250  16.847 -0.1429 -0.5364  0.7659
  546MPD2    H3 8107   3.581   1.357  16.707  2.0893  0.5664 -0.3039
  546MPD2     N 8108   3.725   1.656  17.012  0.3486  0.7051  0.5277
  546MPD2    H5 8109   3.795   1.690  16.947  0.2119  0.7634  0.4114
  546MPD2    N1 8110   3.380   1.318  17.102 -0.3534  0.4134 -0.5281
  546MPD2    H7 8111   3.329   1.246  17.052  1.4105 -0.4731 -1.0518
  547TMC3    C1 8112   3.254   1.242  17.288 -0.1140 -0.4527  0.3083
  547TMC3    C2 8113   3.151   1.217  17.207  0.3644  0.1424 -0.1588
  547TMC3    C3 8114   3.045   1.146  17.268  0.2541 -0.0564  0.0939
  547TMC3    C4 8115   3.270   1.197  17.416  0.8409 -0.4014  0.0633
  547TMC3    C5 8116   3.163   1.124  17.462  0.3293  0.3241  0.4474
  547TMC3    C6 8117   3.049   1.098  17.396 -0.5114 -0.2341  0.9532
  547TMC3     C 8118   3.355   1.335  17.238 -0.3648 -0.3433 -1.1187
  547TMC3     O 8119   3.416   1.407  17.319  0.3267 -0.3614  0.3766
  547TMC3     H 8120   3.150   1.257  17.107  0.5514  0.2469 -0.1190
  547TMC3    H1 8121   3.359   1.228  17.470  0.6130 -2.1161  1.4249
  547TMC3    H2 8122   2.955   1.074  17.444  0.2882 -2.3232  1.4905
  547TMC3    C7 8123   3.165   1.058  17.596 -0.1166 -0.1769 -0.3028
  547TMC3    C8 8124   2.958   1.080  17.171  0.1097  0.0309 -0.6308
  547TMC3    O1 8125   3.082   0.974  17.626 -0.0115 -0.1970 -0.0987
  547TMC3    O2 8126   2.952   1.116  17.055  0.1571 -0.1652 -0.0385
  548MPD2     C 8127   3.769   2.172  12.420  0.1763 -0.3603  0.3268
  548MPD2    C1 8128   3.726   2.040  12.410 -0.4989 -0.6744  0.4229
  548MPD2    C2 8129   3.816   1.946  12.372  0.3115 -0.8413 -0.9369
  548MPD2    C3 8130   3.946   1.976  12.339 -0.3578 -0.3550  0.3131
  548MPD2    C4 8131   3.988   2.112  12.341 -0.4457  0.3983  0.4858
  548MPD2    C5 8132   3.898   2.210  12.385 -0.0386 -0.0495  0.0378
  548MPD2     H 8133   3.784   1.842  12.368  1.0484 -1.0996 -0.3956
  548MPD2    H1 8134   4.090   2.139  12.314 -0.6294  0.6326  0.0297
  548MPD2    H2 8135   3.690   2.245  12.437 -1.2989 -2.2430  1.4638
  548MPD2    H3 8136   3.936   2.310  12.369 -0.6226 -0.0260 -1.1593
  548MPD2     N 8137   4.038   1.878  12.296 -0.2190 -0.8572  0.2259
  548MPD2    H5 8138   4.135   1.905  12.286 -0.2764 -1.1420 -1.1146
  548MPD2    N1 8139   3.591   2.007  12.438 -1.3170 -0.1448  0.2994
  548MPD2    H7 8140   3.533   2.086  12.464 -2.0550 -0.6459  0.1777
  549TMC3    C1 8141   3.394   1.878  12.478 -0.2438  0.1858  0.5024
  549TMC3    C2 8142   3.330   1.981  12.421  0.6508 -0.2690 -0.0563
  549TMC3    C3 8143   3.196   1.988  12.414 -1.4908  0.2944 -0.1484
  549TMC3    C4 8144   3.317   1.774  12.541  0.1123 -0.5495 -0.2237
  549TMC3    C5 8145   3.182   1.791  12.540  0.1222 -0.1827  0.1183
  549TMC3    C6 8146   3.116   1.893  12.479  0.1135 -0.0441 -0.3244
  549TMC3     C 8147   3.539   1.878  12.462 -0.4879  0.7448 -0.0132
  549TMC3     O 8148   3.600   1.775  12.497  0.2271 -0.2170  0.1400
  549TMC3     H 8149   3.389   2.056  12.368 -2.5311  2.6381  0.5760
  549TMC3    H1 8150   3.363   1.688  12.588  0.0120  0.3103  1.4120
  549TMC3    H2 8151   3.008   1.895  12.469 -0.0993  0.8121  2.1299
  549TMC3    C7 8152   3.094   1.709  12.626  0.3698  0.0640 -0.0377
  549TMC3    C8 8153   3.130   2.097  12.342  0.6198 -0.4302  0.3577
  549TMC3    O1 8154   2.998   1.767  12.672 -0.0130 -0.4020  0.4032
  549TMC3    O2 8155   3.026   2.061  12.287  0.3537  0.3580  0.2338
  550TMC3    C1 8156   2.160   4.331  12.788  0.1883  0.8071 -1.5691
  550TMC3    C2 8157   2.171   4.446  12.863 -1.0792  0.3564  0.2037
  550TMC3    C3 8158   2.241   4.549  12.806  0.6372 -0.4768  0.1096
  550TMC3    C4 8159   2.231   4.312  12.672  0.4246  0.0100 -0.2549
  550TMC3    C5 8160   2.276   4.421  12.614  0.4161  0.1543 -0.3344
  550TMC3    C6 8161   2.308   4.533  12.688  0.5707 -0.0515  0.0631
  550TMC3     C 8162   2.042   4.252  12.816  0.7064 -0.0793  0.1548
  550TMC3     O 8163   1.989   4.282  12.923 -0.0758 -0.0892  0.9760
  550TMC3     H 8164   2.120   4.457  12.958 -0.8729 -1.9958  0.5849
  550TMC3    H1 8165   2.223   4.214  12.626  2.0373 -0.4326  0.4065
  550TMC3    H2 8166   2.376   4.611  12.655  0.1941 -0.0271 -0.6650
  550TMC3    C7 8167   2.177   4.453  12.514  0.4943 -0.5414  0.1518
  550TMC3    C8 8168   2.184   4.675  12.846 -0.4911  0.0248 -0.2657
  550TMC3    O1 8169   2.122   4.357  12.461 -0.1610 -0.3130  0.0493
  550TMC3    O2 8170   2.167   0.030  12.758  0.6648  0.3162 -0.3617
  551TMC3    C1 8171   4.497   2.521  13.382  0.4757  0.1248  0.7487
  551TMC3    C2 8172   4.591   2.572  13.297 -0.3982  0.9870  0.2432
  551TMC3    C3 8173   4.665   2.674  13.340  1.0905  0.1136  0.8111
  551TMC3    C4 8174   4.471   2.579  13.503  0.2954  0.4152 -0.1769
  551TMC3    C5 8175   4.546   2.687  13.542 -0.6049 -0.4669 -0.6625
  551TMC3    C6 8176   4.641   2.742  13.457 -0.7282 -0.3014 -0.1100
  551TMC3     C 8177   4.401   2.437  13.318 -0.6789 -0.0189 -0.0823
  551TMC3     O 8178   4.413   2.391  13.207 -0.2480 -0.2558 -0.2304
  551TMC3     H 8179   4.608   2.538  13.196  0.2225 -1.7260  1.2642
  551TMC3    H1 8180   4.414   2.528  13.581  1.3461  0.5778  0.6971
  551TMC3    H2 8181   4.695   2.833  13.480  3.0477 -2.5117 -0.2706
  551TMC3    C7 8182   4.568   2.712  13.680  0.5580 -0.3936  0.2987
  551TMC3    C8 8183   0.051   2.709  13.258 -0.3962 -0.3013  0.1812
  551TMC3    O1 8184   4.561   2.609  13.746  0.3981 -0.1655  0.0432
  551TMC3    O2 8185   0.115   2.610  13.215 -0.0094  0.3111 -0.2186
  552MPD2     C 8186   1.724   4.463  14.165  0.2705 -0.2339  0.6186
  552MPD2    C1 8187   1.732   4.325  14.163 -0.9046  0.7115  0.1130
  552MPD2    C2 8188   1.851   4.261  14.208 -0.6535 -0.3420  0.0179
  552MPD2    C3 8189   1.959   4.341  14.247  0.0345  0.0942 -0.2061
  552MPD2    C4 8190   1.948   4.479  14.240 -0.2706  0.2659  0.2733
  552MPD2    C5 8191   1.834   4.531  14.205  0.0126  0.8668 -0.1259
  552MPD2     H 8192   1.853   4.154  14.198  1.5344 -0.6038  3.3888
  552MPD2    H1 8193   2.032   4.544  14.265  0.1378  0.2214 -0.9880
  552MPD2    H2 8194   1.631   4.513  14.142 -0.7538 -2.5250 -0.2765
  552MPD2    H3 8195   1.824   4.638  14.208 -1.1446  0.7516  0.0707
  552MPD2     N 8196   2.088   4.285  14.263  0.1563 -0.2119  0.0189
  552MPD2    H5 8197   2.164   4.348  14.283 -1.4325  2.1346 -1.2390
  552MPD2    N1 8198   1.629   4.246  14.109  0.8548  0.7090 -0.2212
  552MPD2    H7 8199   1.640   4.146  14.110  1.9581  0.8284 -0.3837
  553TMC3    C1 8200   1.425   4.183  14.008  0.6737  0.2306  0.3066
  553TMC3    C2 8201   1.336   4.218  13.907  0.2007  0.0722 -0.2887
  553TMC3    C3 8202   1.282   4.118  13.830 -0.2822 -0.1994 -0.3959
  553TMC3    C4 8203   1.446   4.053  14.051  0.2648  1.1782 -0.1113
  553TMC3    C5 8204   1.391   3.961  13.970 -0.0817  0.1527 -0.2411
  553TMC3    C6 8205   1.302   3.990  13.867  0.2286  0.0346 -0.1681
  553TMC3     C 8206   1.514   4.289  14.054 -0.1622  0.0424  0.6577
  553TMC3     O 8207   1.471   4.401  14.049  0.3651 -0.1575  0.9638
  553TMC3     H 8208   1.333   4.319  13.868  0.4302  0.4488  0.6971
  553TMC3    H1 8209   1.502   4.030  14.141  0.1784  1.2613 -0.0357
  553TMC3    H2 8210   1.285   3.902  13.806  0.3926 -0.6553  0.7692
  553TMC3    C7 8211   1.407   3.820  13.993 -0.0973 -0.2427  0.1729
  553TMC3    C8 8212   1.339   4.134  13.693 -0.2711 -0.9342 -0.0714
  553TMC3    O1 8213   1.301   3.760  14.001  0.1591 -0.1469 -0.7112
  553TMC3    O2 8214   1.421   4.222  13.681 -0.2163 -0.4348  0.2460
  554TMC3    C1 8215   3.340   3.282  11.727 -0.4630 -0.4273  0.0893
  554TMC3    C2 8216   3.278   3.300  11.599 -0.3677 -0.0483  0.1589
  554TMC3    C3 8217   3.307   3.412  11.522  0.0899  1.3276 -0.6340
  554TMC3    C4 8218   3.430   3.376  11.767 -0.0482 -0.3696 -0.2210
  554TMC3    C5 8219   3.462   3.480  11.679  0.1253 -0.4661  0.0263
  554TMC3    C6 8220   3.407   3.496  11.559 -0.3232  0.4243  0.2853
  554TMC3     C 8221   3.305   3.158  11.796  0.2907 -0.0828  0.1888
  554TMC3     O 8222   3.218   3.093  11.746 -0.9616  0.3987 -0.4736
  554TMC3     H 8223   3.214   3.220  11.563 -1.3906  1.2923 -0.9980
  554TMC3    H1 8224   3.484   3.365  11.860 -0.8220 -1.0591  0.1415
  554TMC3    H2 8225   3.421   3.589  11.506 -2.5572 -0.2759 -1.5377
  554TMC3    C7 8226   3.567   3.576  11.719 -0.1139 -0.2033 -0.4378
  554TMC3    C8 8227   3.255   3.416  11.387 -0.6729 -0.5356 -0.0289
  554TMC3    O1 8228   3.598   3.582  11.835 -0.5133 -0.3562 -0.4633
  554TMC3    O2 8229   3.307   3.495  11.310  0.6299 -0.5132  0.5053
  555TMC3    C1 8230   2.268   3.097  15.392 -0.5061 -0.4635 -0.1784
  555TMC3    C2 8231   2.329   3.122  15.510 -0.9416  0.0163  0.5613
  555TMC3    C3 8232   2.376   3.018  15.573  0.2525 -0.1108  0.4512
  555TMC3    C4 8233   2.253   2.966  15.339 -0.4618 -0.0164  0.0560
  555TMC3    C5 8234   2.296   2.862  15.418  0.0744 -0.6063  0.4556
  555TMC3    C6 8235   2.368   2.884  15.532  0.4037 -0.2187 -0.1174
  555TMC3     C 8236   2.242   3.205  15.309  0.4770 -0.3167  0.4947
  555TMC3     O 8237   2.313   3.306  15.320 -0.2806  0.3713 -0.3990
  555TMC3     H 8238   2.320   3.219  15.557  1.4608  0.6565 -0.3111
  555TMC3    H1 8239   2.208   2.944  15.242  1.7474  0.2890 -1.0317
  555TMC3    H2 8240   2.427   2.805  15.576 -0.4250 -0.9599 -0.3299
  555TMC3    C7 8241   2.337   2.743  15.338 -0.4573  0.9185  1.0775
  555TMC3    C8 8242   2.493   3.053  15.655  0.3242  0.0516  0.2979
  555TMC3    O1 8243   2.368   2.755  15.221  0.7177 -0.3699 -0.4777
  555TMC3    O2 8244   2.566   3.142  15.618 -0.1168  0.0512 -0.4241
  556MPD2     C 8245   0.997   3.948  10.896 -0.5591  0.3633  0.4249
  556MPD2    C1 8246   0.913   4.041  10.851 -0.5303  0.5020  0.4177
  556MPD2    C2 8247   0.847   4.022  10.733 -0.9503 -0.1022  0.4220
  556MPD2    C3 8248   0.857   3.904  10.662 -0.7503 -0.4100  0.8260
  556MPD2    C4 8249   0.946   3.816  10.710 -0.0277 -0.5176 -0.5362
  556MPD2    C5 8250   1.017   3.831  10.828  0.7867  0.0430  0.1495
  556MPD2     H 8251   0.784   4.099  10.689  0.6637  0.6858 -0.4921
  556MPD2    H1 8252   0.984   3.736  10.647 -0.4083 -0.6447 -0.6010
  556MPD2    H2 8253   1.056   3.970  10.984 -0.9139  3.4203 -0.0992
  556MPD2    H3 8254   1.087   3.758  10.865 -0.4317 -1.2166 -0.0199
  556MPD2     N 8255   0.805   3.902  10.530  0.7798 -0.1566 -0.4888
  556MPD2    H5 8256   0.744   3.979  10.504  0.2738 -0.7924 -1.1700
  556MPD2    N1 8257   0.894   4.158  10.927 -0.4240 -0.2023  0.3338
  556MPD2    H7 8258   0.955   4.182  11.005  0.9967  1.6295 -1.3651
  557TMC3    C1 8259   0.741   3.796  10.322 -0.7938 -0.9335  0.1070
  557TMC3    C2 8260   0.701   3.918  10.280  0.5030 -0.4041 -0.4695
  557TMC3    C3 8261   0.599   3.932  10.190  0.4946 -1.0871  0.0369
  557TMC3    C4 8262   0.671   3.685  10.277  0.1728 -0.0680  0.2196
  557TMC3    C5 8263   0.550   3.704  10.211  0.3519  0.0644 -0.2050
  557TMC3    C6 8264   0.512   3.831  10.165 -0.6912  0.2587 -0.3288
  557TMC3     C 8265   0.815   3.792  10.443 -0.2824 -0.8267 -0.1610
  557TMC3     O 8266   0.856   3.682  10.476 -0.4285  0.9578 -0.7066
  557TMC3     H 8267   0.770   3.999  10.302 -2.0616  2.2773 -2.3011
  557TMC3    H1 8268   0.695   3.589  10.320  1.6091 -0.0037 -0.4122
  557TMC3    H2 8269   0.417   3.840  10.113 -1.1088  1.5185  0.6596
  557TMC3    C7 8270   0.469   3.584  10.176 -0.6933 -0.4543  0.2953
  557TMC3    C8 8271   0.602   4.044  10.104  0.4000 -0.3217 -0.1568
  557TMC3    O1 8272   0.449   3.584  10.055 -0.2742  0.4409 -0.3450
  557TMC3    O2 8273   0.632   4.150  10.156 -0.2447  0.2514 -0.0471
  558TMC3    C1 8274   3.162   2.672   9.970 -0.5034  0.0947 -0.2063
  558TMC3    C2 8275   3.092   2.637  10.081  0.8841  0.5192 -0.2841
  558TMC3    C3 8276   2.990   2.543  10.055  0.0458 -0.5956 -0.1617
  558TMC3    C4 8277   3.149   2.612   9.846  0.2423 -0.5750 -0.4507
  558TMC3    C5 8278   3.035   2.539   9.822  0.0194  0.2921 -0.2213
  558TMC3    C6 8279   2.962   2.501   9.930 -0.2530  0.7592 -0.4812
  558TMC3     C 8280   3.255   2.784   9.979  0.5393  0.3177  0.5431
  558TMC3     O 8281   3.280   2.816  10.090 -0.2821  0.7683 -0.2463
  558TMC3     H 8282   3.108   2.679  10.179 -0.0748  2.1419 -0.8255
  558TMC3    H1 8283   3.228   2.608   9.771  3.2925  2.0838  2.6481
  558TMC3    H2 8284   2.878   2.433   9.921 -0.0841 -0.0803  4.3174
  558TMC3    C7 8285   3.037   2.434   9.721  0.0282 -0.5400 -0.1946
  558TMC3    C8 8286   2.910   2.501  10.168 -0.4438  0.2388  0.5783
  558TMC3    O1 8287   3.074   2.456   9.607  0.3877 -0.3630  0.3797
  558TMC3    O2 8288   2.799   2.463  10.150  0.0445  0.5388  0.0923
  559MPD2     C 8289   3.300   3.156  10.729  0.2662  0.2975 -0.2340
  559MPD2    C1 8290   3.246   3.082  10.831 -0.0095 -0.1906  0.6189
  559MPD2    C2 8291   3.325   3.041  10.937  0.5748 -0.7634 -0.0599
  559MPD2    C3 8292   3.459   3.076  10.936  0.6057 -0.2223  0.0681
  559MPD2    C4 8293   3.514   3.157  10.844 -0.1528  0.6234  1.2258
  559MPD2    C5 8294   3.432   3.187  10.740 -0.4261  0.2958  0.3805
  559MPD2     H 8295   3.291   2.984  11.022 -0.0041 -1.5930 -0.8481
  559MPD2    H1 8296   3.618   3.187  10.845 -0.0573  0.3451 -1.1088
  559MPD2    H2 8297   3.249   3.182  10.638  3.2120 -0.0497 -1.9932
  559MPD2    H3 8298   3.471   3.241  10.655 -0.6823 -0.1019  0.0115
  559MPD2     N 8299   3.534   3.029  11.049  0.3541  0.1706  0.0397
  559MPD2    H5 8300   3.489   2.969  11.117 -0.1953  0.4608 -0.0707
  559MPD2    N1 8301   3.103   3.055  10.815 -0.1681  0.5520  0.0273
  559MPD2    H7 8302   3.060   3.079  10.726  1.8982  1.5413 -0.7069
  560TMC3    C1 8303   3.714   2.984  11.194 -0.9412  0.0147 -0.2521
  560TMC3    C2 8304   3.683   2.852  11.185  0.8613 -0.8657  0.3721
  560TMC3    C3 8305   3.730   2.768  11.283 -0.4516 -0.0078  0.4628
  560TMC3    C4 8306   3.793   3.043  11.289 -0.8685 -0.3121 -1.0027
  560TMC3    C5 8307   3.845   2.949  11.380 -0.2869 -0.3140 -0.0414
  560TMC3    C6 8308   3.810   2.818  11.386 -0.1777  0.2747 -0.3826
  560TMC3     C 8309   3.664   3.069  11.083  0.5370  0.2047  0.2163
  560TMC3     O 8310   3.727   3.169  11.046 -0.0633 -0.4611 -0.2735
  560TMC3     H 8311   3.642   2.818  11.091  0.5296  1.1602 -0.2293
  560TMC3    H1 8312   3.797   3.151  11.297 -0.4587 -0.5164  1.7035
  560TMC3    H2 8313   3.854   2.753  11.460  2.3377  2.2164 -0.1988
  560TMC3    C7 8314   3.908   3.006  11.500 -0.8575  0.5911 -0.0777
  560TMC3    C8 8315   3.682   2.627  11.260  0.0919 -0.2636  0.1841
  560TMC3    O1 8316   3.915   2.931  11.594  0.6338 -0.4295 -0.0202
  560TMC3    O2 8317   3.609   2.607  11.160 -0.4468  0.2632  0.0639
  561TMC3    C1 8318   0.738   1.964  11.133 -0.3827 -0.4022  0.0516
  561TMC3    C2 8319   0.611   1.972  11.172  0.0333  0.1592  0.7865
  561TMC3    C3 8320   0.582   2.053  11.278  0.8130 -0.1220 -0.0730
  561TMC3    C4 8321   0.840   2.036  11.182  0.1577 -0.4210 -0.3313
  561TMC3    C5 8322   0.811   2.119  11.282 -0.7258  0.1712  0.2574
  561TMC3    C6 8323   0.682   2.133  11.329 -1.0011 -0.5332  0.3247
  561TMC3     C 8324   0.753   1.890  11.009 -0.3185  0.5600  0.4047
  561TMC3     O 8325   0.652   1.880  10.942 -0.4066 -0.0984  0.2043
  561TMC3     H 8326   0.545   1.892  11.141 -1.4299  0.9245  1.9177
  561TMC3    H1 8327   0.934   2.039  11.127 -0.9234 -0.2126 -2.1529
  561TMC3    H2 8328   0.669   2.194  11.418 -2.0498  0.8651 -0.7979
  561TMC3    C7 8329   0.916   2.166  11.368  0.1612 -0.3169 -0.2990
  561TMC3    C8 8330   0.479   2.002  11.362 -0.1656 -1.1804  1.0907
  561TMC3    O1 8331   0.883   2.201  11.481  0.0951  0.5869 -0.2236
  561TMC3    O2 8332   0.416   1.908  11.317  1.0754  0.4001 -0.3833
  562TMC3    C1 8333   2.333   3.102  16.412 -0.5872  0.4718  0.3240
  562TMC3    C2 8334   2.359   3.216  16.336 -0.7422  0.4197  0.0191
  562TMC3    C3 8335   2.325   3.215  16.198 -0.1716 -0.6353  0.4175
  562TMC3    C4 8336   2.279   2.994  16.357  0.0516  0.6602  0.3711
  562TMC3    C5 8337   2.264   2.988  16.215 -0.2013  0.6915 -0.1701
  562TMC3    C6 8338   2.289   3.097  16.139  0.4229 -0.3560 -0.6968
  562TMC3     C 8339   2.408   3.083  16.538 -0.4368  0.2089  0.0293
  562TMC3     O 8340   2.359   3.012  16.626  0.8991  0.3255 -0.2935
  562TMC3     H 8341   2.408   3.301  16.381  1.5073 -0.8889  0.0377
  562TMC3    H1 8342   2.264   2.908  16.421 -2.0604  1.8431  1.4652
  562TMC3    H2 8343   2.286   3.095  16.031  1.5070 -1.8297 -0.7115
  562TMC3    C7 8344   2.205   2.872  16.146  0.3630 -0.2456  0.9224
  562TMC3    C8 8345   2.404   3.299  16.108 -0.3567 -0.1702 -0.5883
  562TMC3    O1 8346   2.179   2.877  16.025 -0.2670 -0.9340  0.2858
  562TMC3    O2 8347   2.496   3.362  16.158  0.7146  0.6194  0.0654
  563MPD2     C 8348   0.051   0.238  15.723 -0.0001 -0.1679 -0.5431
  563MPD2    C1 8349   0.037   0.214  15.856 -0.2045  0.2250  0.5142
  563MPD2    C2 8350   0.154   0.181  15.931  0.0376 -0.2924  0.0058
  563MPD2    C3 8351   0.273   0.169  15.868 -0.0967  0.1841  0.4557
  563MPD2    C4 8352   0.284   0.217  15.739  0.6601  1.1622  0.7029
  563MPD2    C5 8353   0.177   0.240  15.661  0.4363  0.2399  0.8360
  563MPD2     H 8354   0.140   0.147  16.033 -5.7767 -1.2582 -1.1039
  563MPD2    H1 8355   0.376   0.206  15.681  0.0568 -0.7666  0.1090
  563MPD2    H2 8356   4.690   0.246  15.655  1.3720  1.0998 -2.1002
  563MPD2    H3 8357   0.184   0.251  15.554 -0.6694  0.9259  0.8325
  563MPD2     N 8358   0.378   0.111  15.941  0.1880 -0.4548  0.2223
  563MPD2    H5 8359   0.356   0.104  16.040  0.3085  0.1681  0.2944
  563MPD2    N1 8360   4.633   0.228  15.925  0.0950  0.6348  0.1773
  563MPD2    H7 8361   4.623   0.207  16.023 -0.8060  0.2023 -0.0045
  564TMC3    C1 8362   4.406   0.217  15.969 -0.6182 -0.2736 -0.8575
  564TMC3    C2 8363   4.360   0.091  15.978 -0.5588 -0.2994 -0.3708
  564TMC3    C3 8364   4.347   0.027  16.097  0.1578 -0.1339  0.1912
  564TMC3    C4 8365   4.433   0.286  16.095 -0.0411 -0.3960 -0.7848
  564TMC3    C5 8366   4.429   0.214  16.216 -0.3541  0.1940 -0.4155
  564TMC3    C6 8367   4.380   0.088  16.214 -0.7192  0.3689 -0.0004
  564TMC3     C 8368   4.510   0.230  15.870 -0.0586  0.1484  0.5345
  564TMC3     O 8369   4.477   0.216  15.750  0.2301 -0.1162  0.0140
  564TMC3     H 8370   4.336   0.045  15.882  2.8589  0.5167 -1.6101
  564TMC3    H1 8371   4.475   0.386  16.100 -1.1932  0.1872 -2.6728
  564TMC3    H2 8372   4.380   0.034  16.308 -0.1349  1.3937  0.5866
  564TMC3    C7 8373   4.536   0.249  16.298 -0.4317  0.3331  0.0527
  564TMC3    C8 8374   4.300   4.612  16.114 -0.1843  0.2746 -0.1971
  564TMC3    O1 8375   4.547   0.371  16.313 -0.8403  0.1228  0.3572
  564TMC3    O2 8376   4.294   4.572  16.231  0.3341  0.2298 -0.1178
  565TMC3    C1 8377   0.076   1.153   9.532 -0.0519 -0.3700 -0.0638
  565TMC3    C2 8378   0.107   1.062   9.629  0.4891 -0.9919  0.0024
  565TMC3    C3 8379   0.022   0.957   9.645  0.0456 -0.2760 -0.9881
  565TMC3    C4 8380   4.696   1.138   9.451 -0.8830 -0.4482  0.2718
  565TMC3    C5 8381   4.613   1.026   9.469 -0.5741  0.0332 -0.3801
  565TMC3    C6 8382   4.643   0.933   9.559  0.1991 -0.0639 -0.8805
  565TMC3     C 8383   0.128   1.289   9.542 -0.1334  0.4922 -0.3431
  565TMC3     O 8384   0.067   1.384   9.496  0.3513  0.2310 -0.5784
  565TMC3     H 8385   0.194   1.063   9.695  0.8461  0.2932 -0.4715
  565TMC3    H1 8386   4.679   1.213   9.374  0.3943  0.4924  0.9032
  565TMC3    H2 8387   4.569   0.869   9.606  1.2061 -0.7972 -0.2829
  565TMC3    C7 8388   4.491   1.008   9.387 -0.3212  0.4473  0.0681
  565TMC3    C8 8389   0.070   0.854   9.736  0.0676 -1.0785 -0.0894
  565TMC3    O1 8390   4.422   0.911   9.424 -0.3213 -0.1796 -0.2320
  565TMC3    O2 8391   0.141   0.888   9.833  0.2950 -0.2860  0.1993
  566MPD2     C 8392   1.597   3.098  14.258  0.1061 -0.1027 -0.6502
  566MPD2    C1 8393   1.708   3.116  14.176 -0.1147  0.3918  0.6435
  566MPD2    C2 8394   1.700   3.062  14.051  0.3106  0.1955 -0.0290
  566MPD2    C3 8395   1.604   2.972  14.017 -0.4757 -0.0426  0.4086
  566MPD2    C4 8396   1.489   2.958  14.094 -0.1314 -0.7840  0.4093
  566MPD2    C5 8397   1.494   3.020  14.215 -0.5157  0.4275 -0.0715
  566MPD2     H 8398   1.782   3.096  13.988  0.4667  1.1529  0.6881
  566MPD2    H1 8399   1.407   2.893  14.067 -0.1449 -0.7699  0.4163
  566MPD2    H2 8400   1.598   3.145  14.356 -0.7692  1.2191 -1.2762
  566MPD2    H3 8401   1.414   3.004  14.286 -1.3685 -2.4344 -1.6790
  566MPD2     N 8402   1.607   2.924  13.883  0.3286  0.1108  0.1725
  566MPD2    H5 8403   1.525   2.898  13.829 -0.3815  1.5960  0.5235
  566MPD2    N1 8404   1.818   3.196  14.217  0.2804 -0.2584 -0.0426
  566MPD2    H7 8405   1.889   3.222  14.149 -0.7571 -0.1667 -1.0942
  567TMC3    C1 8406   1.975   3.302  14.352 -0.0744  0.3261  0.5855
  567TMC3    C2 8407   2.033   3.358  14.248 -0.0022 -0.5085 -0.6418
  567TMC3    C3 8408   2.167   3.383  14.241 -0.0992  0.2757  0.8034
  567TMC3    C4 8409   2.058   3.267  14.458 -0.5064  0.1657  0.1518
  567TMC3    C5 8410   2.194   3.273  14.449  0.3958  0.4682 -0.2419
  567TMC3    C6 8411   2.250   3.339  14.342  0.0867  0.8403 -0.2414
  567TMC3     C 8412   1.841   3.236  14.348 -0.2996  0.2639 -0.7127
  567TMC3     O 8413   1.782   3.214  14.454  0.1484  0.2694  1.0281
  567TMC3     H 8414   1.971   3.401  14.171  1.1034  2.4069  0.0804
  567TMC3    H1 8415   2.009   3.217  14.541  0.4805  1.0541  1.2638
  567TMC3    H2 8416   2.358   3.348  14.339  0.1906  0.4407  2.1145
  567TMC3    C7 8417   2.281   3.249  14.563 -0.5520  0.2300 -0.1144
  567TMC3    C8 8418   2.224   3.428  14.114 -0.3510 -0.0909  0.5843
  567TMC3    O1 8419   2.382   3.319  14.577 -0.4972 -0.5052  0.0554
  567TMC3    O2 8420   2.140   3.447  14.027  0.0581  0.0027  0.0584
  568MPD2     C 8421   3.754   3.159  16.568 -0.7207 -0.8057 -0.4392
  568MPD2    C1 8422   3.821   3.230  16.668  0.9362  0.0447 -0.5306
  568MPD2    C2 8423   3.884   3.349  16.631  0.4100 -0.6001  0.4414
  568MPD2    C3 8424   3.878   3.398  16.502 -0.6284 -0.2256 -0.0448
  568MPD2    C4 8425   3.820   3.321  16.409 -0.7331 -0.2379  0.8079
  568MPD2    C5 8426   3.753   3.210  16.443  0.4395  0.4624 -0.0584
  568MPD2     H 8427   3.949   3.398  16.702  0.0458  0.5353 -0.0182
  568MPD2    H1 8428   3.800   3.366  16.312  0.6749  3.2806  2.1681
  568MPD2    H2 8429   3.701   3.066  16.584 -1.0839 -0.6522 -0.7829
  568MPD2    H3 8430   3.697   3.169  16.360  1.0637 -1.3104  0.3876
  568MPD2     N 8431   3.922   3.532  16.491 -0.2675 -0.4864  0.3086
  568MPD2    H5 8432   3.943   3.582  16.576  0.9958  0.1917 -0.4062
  568MPD2    N1 8433   3.862   3.163  16.789 -0.0023 -0.4001 -0.4266
  568MPD2    H7 8434   3.848   3.063  16.801 -0.2402 -0.4791 -1.3441
  569TMC3    C1 8435   3.962   3.737  16.389 -0.6396 -0.2201 -0.3034
  569TMC3    C2 8436   3.975   3.792  16.523  0.3170 -0.2073 -0.0315
  569TMC3    C3 8437   4.034   3.914  16.533 -0.3991  0.4025  0.6130
  569TMC3    C4 8438   4.000   3.808  16.279  0.5958 -0.6385  0.6221
  569TMC3    C5 8439   4.058   3.930  16.300  0.3428  0.0789  0.0108
  569TMC3    C6 8440   4.071   3.986  16.430 -0.4760  0.5504  0.4555
  569TMC3     C 8441   3.924   3.595  16.369 -0.1613 -0.2978  0.5942
  569TMC3     O 8442   3.924   3.551  16.259 -0.0150  0.0313 -0.4360
  569TMC3     H 8443   3.923   3.749  16.608 -1.1781 -2.3891 -2.0394
  569TMC3    H1 8444   3.986   3.769  16.179  0.3652 -1.5208  0.9992
  569TMC3    H2 8445   4.108   4.086  16.444  0.4751  0.5321 -1.8640
  569TMC3    C7 8446   4.139   3.978  16.190  0.0244 -0.3570  0.4511
  569TMC3    C8 8447   4.041   3.967  16.666  0.0365  0.6485  0.0094
  569TMC3    O1 8448   4.153   3.900  16.100  0.4784 -0.6486  0.3445
  569TMC3    O2 8449   3.970   3.911  16.749 -0.2658  0.2923 -0.1984
  570TMC3    C1 8450   3.544   2.306  16.387 -0.2088 -0.3835 -0.4324
  570TMC3    C2 8451   3.623   2.337  16.283  0.2779  0.3740 -0.1851
  570TMC3    C3 8452   3.647   2.472  16.263 -0.9074 -0.0133  0.3335
  570TMC3    C4 8453   3.506   2.398  16.477 -0.3652  0.6911  0.3228
  570TMC3    C5 8454   3.528   2.533  16.454  0.1015 -0.5168  0.2534
  570TMC3    C6 8455   3.604   2.573  16.347  0.3406  0.2577 -0.3125
  570TMC3     C 8456   3.494   2.169  16.387  0.1499 -0.5496 -0.2629
  570TMC3     O 8457   3.493   2.110  16.281 -0.1153 -0.5546 -0.2800
  570TMC3     H 8458   3.671   2.258  16.227  0.1691  0.0406  0.1938
  570TMC3    H1 8459   3.451   2.367  16.565 -0.6891 -1.1046 -0.5101
  570TMC3    H2 8460   3.638   2.674  16.325  0.5421  0.4112  0.6694
  570TMC3    C7 8461   3.460   2.630  16.540 -0.1110 -0.6665 -0.0438
  570TMC3    C8 8462   3.735   2.510  16.149 -0.8234 -0.1906  0.7920
  570TMC3    O1 8463   3.417   2.587  16.650 -0.3798  0.1122 -0.4772
  570TMC3    O2 8464   3.795   2.618  16.159  0.2553  0.8834 -0.1728
  571MPD2     C 8465   2.117   3.788  17.688  0.1751 -0.1939 -0.7374
  571MPD2    C1 8466   1.992   3.818  17.643  0.2705  1.0215 -0.6733
  571MPD2    C2 8467   1.912   3.896   0.032 -0.3320 -0.1364 -0.4512
  571MPD2    C3 8468   1.949   3.946   0.152 -0.4422 -0.1659  0.2033
  571MPD2    C4 8469   2.078   3.916   0.195 -0.2901  0.2590  0.0465
  571MPD2    C5 8470   2.150   3.835   0.116  0.3195  0.1905  0.4150
  571MPD2     H 8471   1.811   3.926   0.006 -0.4381 -1.2739 -1.3437
  571MPD2    H1 8472   2.111   3.940   0.295  0.6350  2.4924 -0.7997
  571MPD2    H2 8473   2.186   3.719  17.641 -0.3913 -1.4531  0.2611
  571MPD2    H3 8474   2.247   3.825   0.163 -1.9709 -0.3708  5.0220
  571MPD2     N 8475   1.861   4.021   0.225  0.2273  0.1639  0.0894
  571MPD2    H5 8476   1.767   4.030   0.188  0.3932 -0.0430 -0.3800
  571MPD2    N1 8477   1.950   3.774  17.510 -0.7047  0.2673 -0.2909
  571MPD2    H7 8478   2.008   3.724  17.443  1.7482  2.9378 -0.1768
  572TMC3    C1 8479   1.769   4.145   0.399  0.1641 -0.4977  0.0510
  572TMC3    C2 8480   1.649   4.091   0.396 -0.2498 -0.6282 -0.1102
  572TMC3    C3 8481   1.534   4.167   0.426  0.0325  0.5485 -0.1884
  572TMC3    C4 8482   1.795   4.268   0.453  0.0473  0.6300  0.0257
  572TMC3    C5 8483   1.684   4.344   0.483  0.1734  0.0674  0.4792
  572TMC3    C6 8484   1.554   4.299   0.465 -0.6806  0.1449 -0.1630
  572TMC3     C 8485   1.885   4.073   0.346 -0.1980  0.1841 -0.3300
  572TMC3     O 8486   1.986   4.091   0.410  0.2807 -0.3984  0.1304
  572TMC3     H 8487   1.631   3.993   0.352  0.9201 -1.5157  1.4181
  572TMC3    H1 8488   1.897   4.306   0.460  0.5898 -0.5533 -1.5330
  572TMC3    H2 8489   1.465   4.355   0.494 -0.6798  0.4152 -0.6933
  572TMC3    C7 8490   1.692   4.490   0.485 -0.0806  0.1403 -0.3191
  572TMC3    C8 8491   1.412   4.128   0.354  0.4991 -1.2147  0.9541
  572TMC3    O1 8492   1.582   4.547   0.488  1.0330 -0.0961 -0.1614
  572TMC3    O2 8493   1.418   4.051   0.261  0.0627 -0.2293 -0.2777
  573MPD2     C 8494   2.539   4.606   1.247 -0.5910 -0.0476 -0.2710
  573MPD2    C1 8495   2.675   4.622   1.222  0.1157  0.4160 -1.0943
  573MPD2    C2 8496   2.727   4.631   1.097 -0.3178  0.3216 -0.5861
  573MPD2    C3 8497   2.636   4.630   0.994  0.2581  0.7467 -0.3305
  573MPD2    C4 8498   2.502   4.612   1.016 -0.4685  0.2750 -0.0313
  573MPD2    C5 8499   2.450   4.597   1.141 -0.2030 -0.5906 -0.0591
  573MPD2     H 8500   2.834   4.626   1.082  0.0280  2.1057  1.3180
  573MPD2    H1 8501   2.432   4.603   0.934 -1.1014  0.3870  0.4940
  573MPD2    H2 8502   2.493   4.592   1.344 -3.0445 -2.7283 -1.8061
  573MPD2    H3 8503   2.346   4.585   1.167 -0.1998  0.4874  0.4618
  573MPD2     N 8504   2.678   4.648   0.862  0.6591 -0.2797  0.5683
  573MPD2    H5 8505   2.615   4.622   0.786  3.1259 -1.5512 -1.0417
  573MPD2    N1 8506   2.765   4.607   1.333 -0.1790 -0.1763 -0.3249
  573MPD2    H7 8507   2.862   4.600   1.303 -0.4787 -1.8438 -0.9248
  574TMC3    C1 8508   2.798   4.722   0.670  0.2336  0.1692  0.0759
  574TMC3    C2 8509   2.741   4.627   0.590  0.1329 -0.0026 -0.2172
  574TMC3    C3 8510   2.750   4.648   0.455 -0.4132  1.0043  0.1075
  574TMC3    C4 8511   2.864   0.105   0.615 -0.3008  0.0485  0.2929
  574TMC3    C5 8512   2.870   0.115   0.479  0.4686 -0.1356  0.5669
  574TMC3    C6 8513   2.814   0.027   0.394  0.1170  0.1796 -0.4435
  574TMC3     C 8514   2.796   4.707   0.819 -0.2522  0.2510  0.1743
  574TMC3     O 8515   2.888   0.026   0.882 -0.0845  0.0037 -0.2331
  574TMC3     H 8516   2.682   4.544   0.629 -1.4017  0.7218 -1.0215
  574TMC3    H1 8517   2.907   0.182   0.678  0.4052  1.0530 -1.4207
  574TMC3    H2 8518   2.811   0.033   0.286  1.5801 -0.5312 -0.5257
  574TMC3    C7 8519   2.922   0.235   0.412 -0.9083 -0.7725  0.1401
  574TMC3    C8 8520   2.674   4.554   0.370  0.1638  0.2943  0.3209
  574TMC3    O1 8521   2.863   0.272   0.309 -0.0593  0.3522 -0.0788
  574TMC3    O2 8522   2.682   4.436   0.394  0.4746  0.1372 -0.0288
  575TMC3    C1 8523   0.386   0.537  10.506 -0.3608  0.2872  0.1538
  575TMC3    C2 8524   0.439   0.412  10.515  0.3250 -1.0512  0.5582
  575TMC3    C3 8525   0.416   0.330  10.399  0.5714  0.2000  0.1646
  575TMC3    C4 8526   0.334   0.588  10.390 -0.3266 -0.5940 -0.3859
  575TMC3    C5 8527   0.311   0.506  10.285  0.7173  0.1729 -0.4516
  575TMC3    C6 8528   0.353   0.375  10.289  0.2266 -0.5794 -0.3818
  575TMC3     C 8529   0.372   0.623  10.626 -0.0638  0.1011 -0.5872
  575TMC3     O 8530   0.384   0.746  10.611 -0.1317 -0.2273 -0.0515
  575TMC3     H 8531   0.478   0.383  10.612 -1.7343 -1.3934  1.2829
  575TMC3    H1 8532   0.310   0.694  10.382 -0.5692 -0.7225 -1.2508
  575TMC3    H2 8533   0.344   0.320  10.196 -0.6383 -1.6055  0.3060
  575TMC3    C7 8534   0.228   0.560  10.181 -0.5089 -1.0128  0.0234
  575TMC3    C8 8535   0.475   0.198  10.414 -0.5213 -0.8372 -0.5426
  575TMC3    O1 8536   0.231   0.686  10.177  0.3132 -0.3718 -0.5376
  575TMC3    O2 8537   0.554   0.179  10.503  0.1886  0.6685 -0.2669
  576MPD2     C 8538   0.192   2.390  12.756 -0.2577  0.2568 -0.9063
  576MPD2    C1 8539   0.233   2.490  12.668  0.3928 -0.2198 -0.1833
  576MPD2    C2 8540   0.188   2.621  12.688 -0.0509 -0.1376 -0.2239
  576MPD2    C3 8541   0.108   2.655  12.791  0.5802  0.3275 -0.1539
  576MPD2    C4 8542   0.068   2.558  12.881  0.0578 -0.0721  0.3968
  576MPD2    C5 8543   0.117   2.430  12.862  0.1987 -0.4711 -0.0461
  576MPD2     H 8544   0.216   2.708  12.629 -1.1169 -0.3626 -1.0532
  576MPD2    H1 8545   0.008   2.590  12.966 -2.0534 -1.8442 -0.4267
  576MPD2    H2 8546   0.209   2.283  12.753 -0.9101  0.1444 -0.5832
  576MPD2    H3 8547   0.086   2.360  12.938 -1.5521  1.6247  1.1518
  576MPD2     N 8548   0.071   2.791  12.800 -0.1349  0.9880 -0.4084
  576MPD2    H5 8549   0.116   2.854  12.735  1.0077  2.5079  1.8600
  576MPD2    N1 8550   0.308   2.461  12.547 -0.2184 -0.5138  0.2272
  576MPD2    H7 8551   0.334   2.540  12.490 -1.5873  0.6811  1.2494
  577TMC3    C1 8552   0.361   2.338  12.363  0.2191 -0.2262 -0.5359
  577TMC3    C2 8553   0.331   2.230  12.285  0.2803 -0.5674 -0.0522
  577TMC3    C3 8554   0.311   2.250  12.150 -0.0689  0.7263  0.1845
  577TMC3    C4 8555   0.381   2.464  12.309 -0.4862 -0.3672 -0.2415
  577TMC3    C5 8556   0.350   2.474  12.175  0.5827 -0.2954  0.9319
  577TMC3    C6 8557   0.312   2.373  12.096 -0.9507  0.4540  0.6810
  577TMC3     C 8558   0.338   2.333  12.504  0.4258 -0.2024 -0.0869
  577TMC3     O 8559   0.318   2.223  12.555 -0.5326 -0.3329 -0.2626
  577TMC3     H 8560   0.323   2.128  12.321 -1.0635 -0.9511 -1.4354
  577TMC3    H1 8561   0.426   2.549  12.359  2.3210 -2.1386  0.2269
  577TMC3    H2 8562   0.295   2.390  11.990 -0.3068 -1.8012  0.2132
  577TMC3    C7 8563   0.393   2.598  12.114 -0.6328  0.0699  0.1928
  577TMC3    C8 8564   0.301   2.131  12.072 -0.5034  0.0699  0.2662
  577TMC3    O1 8565   0.477   2.667  12.170 -0.1415 -0.2205  0.0148
  577TMC3    O2 8566   0.236   2.033  12.117 -0.1877 -0.0977 -0.1791
  578MPD2     C 8567   2.552   1.944   1.091  0.9376  0.2948  0.6007
  578MPD2    C1 8568   2.682   1.976   1.068  0.2919  0.0137 -0.0454
  578MPD2    C2 8569   2.774   1.977   1.175  0.7224  0.3289  0.4191
  578MPD2    C3 8570   2.730   1.939   1.299  0.0561 -1.1292  0.0417
  578MPD2    C4 8571   2.596   1.930   1.326 -0.3574 -0.2551 -0.4563
  578MPD2    C5 8572   2.510   1.924   1.218  0.5888 -0.6570 -0.1706
  578MPD2     H 8573   2.876   2.010   1.162  0.0883  2.2003  0.2100
  578MPD2    H1 8574   2.550   1.905   1.421  0.2183 -1.1861 -0.4251
  578MPD2    H2 8575   2.481   1.935   1.010  0.4319  3.8215  0.6725
  578MPD2    H3 8576   2.407   1.896   1.238  0.2478  0.6983 -0.0405
  578MPD2     N 8577   2.835   1.917   1.394  0.0068 -0.2383 -0.1805
  578MPD2    H5 8578   2.929   1.915   1.356  0.6810 -0.0027  1.5023
  578MPD2    N1 8579   2.722   1.998   0.934 -0.3556  0.3875 -0.0442
  578MPD2    H7 8580   2.653   1.998   0.860 -1.6500  0.1378  1.1584
  579TMC3    C1 8581   2.931   1.911   1.605  0.5337 -0.5846 -0.3096
  579TMC3    C2 8582   2.933   2.013   1.697  0.1071 -0.2071 -0.2595
  579TMC3    C3 8583   3.055   2.052   1.747 -0.2560 -0.6672 -0.2031
  579TMC3    C4 8584   3.047   1.853   1.553  0.5040  0.5677  0.2647
  579TMC3    C5 8585   3.167   1.900   1.606 -0.2258 -0.0984  0.0003
  579TMC3    C6 8586   3.172   1.993   1.700  0.0579 -0.7006 -0.0432
  579TMC3     C 8587   2.812   1.907   1.527  0.4977  0.2803 -0.0815
  579TMC3     O 8588   2.708   1.933   1.585 -0.2408 -0.2035 -0.1639
  579TMC3     H 8589   2.844   2.061   1.736 -0.2216  0.2666 -1.6030
  579TMC3    H1 8590   3.039   1.781   1.473  0.4072 -1.0459  1.7487
  579TMC3    H2 8591   3.266   2.046   1.716 -1.4516  2.2066 -0.7953
  579TMC3    C7 8592   3.298   1.856   1.555  0.5442 -1.2560  0.4181
  579TMC3    C8 8593   3.062   2.186   1.795  0.3424 -0.8028 -0.3488
  579TMC3    O1 8594   3.389   1.867   1.638  0.1699 -0.2232 -0.0243
  579TMC3    O2 8595   2.972   2.263   1.766  0.0423 -0.3785  0.2825
  580TMC3    C1 8596   2.534   1.108  11.970  0.4459  0.2368 -0.5554
  580TMC3    C2 8597   2.555   1.062  11.845 -0.6032 -0.2285  0.5618
  580TMC3    C3 8598   2.576   0.928  11.828  0.2669 -0.5023 -0.5011
  580TMC3    C4 8599   2.533   1.022  12.083  0.2070 -0.0290 -0.3508
  580TMC3    C5 8600   2.549   0.884  12.053  0.5288 -0.3112  0.8247
  580TMC3    C6 8601   2.582   0.840  11.928  0.2011 -0.0097  0.8600
  580TMC3     C 8602   2.596   1.234  12.001  0.8247 -0.4829  0.1296
  580TMC3     O 8603   2.620   1.309  11.906 -0.3286  0.0603  0.3593
  580TMC3     H 8604   2.553   1.135  11.765 -1.6162  0.6309  1.3777
  580TMC3    H1 8605   2.491   1.052  12.178  0.2691  1.7057 -0.8720
  580TMC3    H2 8606   2.612   0.738  11.912  1.2628  0.4597 -0.1196
  580TMC3    C7 8607   2.584   0.810  12.176 -0.0564 -0.0549 -1.3830
  580TMC3    C8 8608   2.646   0.889  11.711  0.2424 -0.6230 -0.1109
  580TMC3    O1 8609   2.585   0.872  12.283 -0.0795  0.2288 -0.1717
  580TMC3    O2 8610   2.656   0.769  11.687  0.4177 -0.0701  0.1333
  581MPD2     C 8611   0.365   1.149  14.536  0.2119  0.3065  0.0111
  581MPD2    C1 8612   0.333   1.257  14.622 -0.2748  0.3274 -0.6735
  581MPD2    C2 8613   0.266   1.361  14.561 -0.1171 -0.6006 -0.0566
  581MPD2    C3 8614   0.218   1.352  14.430  0.2040 -0.3702 -0.2032
  581MPD2    C4 8615   0.246   1.243  14.350  0.0454  0.0693  0.1145
  581MPD2    C5 8616   0.323   1.149  14.403  0.0938 -0.0524 -0.4326
  581MPD2     H 8617   0.244   1.447  14.624  0.6317 -0.1477 -0.4004
  581MPD2    H1 8618   0.210   1.222  14.249 -1.1657 -1.0155  0.7635
  581MPD2    H2 8619   0.418   1.060  14.567  0.0035  0.6141  1.2224
  581MPD2    H3 8620   0.339   1.060  14.344 -0.7975  0.8702 -2.0739
  581MPD2     N 8621   0.126   1.436  14.369  0.2576 -0.6511  0.9404
  581MPD2    H5 8622   0.097   1.409  14.275  1.5724  1.4427 -0.0909
  581MPD2    N1 8623   0.380   1.266  14.753 -0.4707  0.1737 -0.5176
  581MPD2    H7 8624   0.375   1.355  14.800 -0.2203 -0.4711  0.7354
  582TMC3    C1 8625   0.498   1.196  14.952  0.0665 -0.2536 -0.0199
  582TMC3    C2 8626   0.510   1.099  15.046  0.1393 -0.2448  0.6268
  582TMC3    C3 8627   0.613   1.123  15.131  0.2993 -0.0368  0.0012
  582TMC3    C4 8628   0.563   1.320  14.957  0.4031  0.2700  0.6859
  582TMC3    C5 8629   0.671   1.326  15.035  0.0634 -0.0071  0.4065
  582TMC3    C6 8630   0.688   1.234  15.132  0.5654  0.0140 -0.6169
  582TMC3     C 8631   0.425   1.161  14.833 -0.4502 -0.2603  0.2450
  582TMC3     O 8632   0.410   1.042  14.813 -0.5169 -0.7568  0.0599
  582TMC3     H 8633   0.443   1.015  15.059  1.5445 -1.4175  0.1813
  582TMC3    H1 8634   0.559   1.379  14.866 -0.1124  0.3442  0.7589
  582TMC3    H2 8635   0.757   1.251  15.215 -0.8124 -0.2832  0.5950
  582TMC3    C7 8636   0.748   1.446  15.044 -0.0576  0.1705 -0.1762
  582TMC3    C8 8637   0.596   1.065  15.260 -0.1955 -0.6615 -0.7947
  582TMC3    O1 8638   0.852   1.429  15.105  0.1415 -0.1800 -0.2347
  582TMC3    O2 8639   0.589   0.946  15.262  0.0524 -0.0946  0.0425
  583MPD2     C 8640   0.664   3.074  16.921  0.1474  0.4613  0.3179
  583MPD2    C1 8641   0.650   3.148  16.803  0.0336  0.3684  0.2383
  583MPD2    C2 8642   0.593   3.275  16.819  0.4383  0.2351  0.1602
  583MPD2    C3 8643   0.547   3.319  16.940  0.5361  0.1841  0.8158
  583MPD2    C4 8644   0.552   3.233  17.043 -0.4965  0.0883 -0.4401
  583MPD2    C5 8645   0.611   3.109  17.036  0.0029 -0.2884 -0.1505
  583MPD2     H 8646   0.595   3.345  16.736 -1.4280 -0.8889 -0.7980
  583MPD2    H1 8647   0.525   3.270  17.141  0.9911 -1.8939  0.7380
  583MPD2    H2 8648   0.713   2.978  16.917 -0.8551  0.0800 -2.9065
  583MPD2    H3 8649   0.615   3.052  17.128  0.6270  1.9249  1.1931
  583MPD2     N 8650   0.484   3.450  16.951  0.5450  0.4666  0.4208
  583MPD2    H5 8651   0.496   3.510  16.870 -0.2651  1.2358  0.8697
  583MPD2    N1 8652   0.719   3.109  16.681 -0.1507  0.4193 -0.3358
  583MPD2    H7 8653   0.714   3.167  16.598 -1.6962  0.0051 -0.5284
  584TMC3    C1 8654   0.380   3.633  17.078  0.1123  0.3239  1.2943
  584TMC3    C2 8655   0.457   3.726  17.018  0.2350  0.0545 -0.2515
  584TMC3    C3 8656   0.446   3.852  17.057 -0.0529 -0.3772  0.4452
  584TMC3    C4 8657   0.286   3.669  17.173  0.8752  0.9400  0.4680
  584TMC3    C5 8658   0.276   3.799  17.206  0.9500  0.5885  0.4416
  584TMC3    C6 8659   0.356   3.895  17.155 -0.2042 -0.1483 -0.5669
  584TMC3     C 8660   0.406   3.490  17.060  0.1508 -0.3157  0.2562
  584TMC3     O 8661   0.372   3.424  17.155 -0.0263  0.4433  0.0588
  584TMC3     H 8662   0.531   3.687  16.949 -1.7822  1.1756 -3.0480
  584TMC3    H1 8663   0.227   3.593  17.225  0.7474  1.3829  0.9693
  584TMC3    H2 8664   0.353   4.000  17.181  0.5642  0.1264 -1.5883
  584TMC3    C7 8665   0.193   3.816  17.326  0.1185 -0.0754 -0.2126
  584TMC3    C8 8666   0.538   3.948  16.999  0.2287 -0.1095 -0.2114
  584TMC3    O1 8667   0.107   3.732  17.353 -0.5891  0.2878 -0.2135
  584TMC3    O2 8668   0.581   3.926  16.887  0.0932 -0.0287  0.0733
  585MPD2     C 8669   0.009   1.511   0.865 -0.5795 -0.0938 -0.1287
  585MPD2    C1 8670   4.721   1.632   0.797  0.7124  0.5533  0.6298
  585MPD2    C2 8671   0.025   1.630   0.659 -0.6432  0.6733 -0.1272
  585MPD2    C3 8672   0.064   1.521   0.592 -0.0113 -0.2511 -0.3098
  585MPD2    C4 8673   0.070   1.400   0.665 -0.3020 -0.6157  0.3745
  585MPD2    C5 8674   0.052   1.397   0.802  0.2262  0.0376 -0.5572
  585MPD2     H 8675   0.011   1.719   0.599 -3.3507 -1.6669 -2.9473
  585MPD2    H1 8676   0.087   1.306   0.614  2.2921  1.0838 -1.8736
  585MPD2    H2 8677   4.694   1.514   0.966  0.5796 -1.4739  0.3661
  585MPD2    H3 8678   0.058   1.303   0.856  1.0639 -0.0729 -0.8345
  585MPD2     N 8679   0.099   1.510   0.457  0.4458  0.0193  0.4733
  585MPD2    H5 8680   0.140   1.425   0.420 -0.4428  0.2365 -0.9729
  585MPD2    N1 8681   4.661   1.747   0.858  0.2833  0.4556 -0.0077
  585MPD2    H7 8682   4.635   1.746   0.956  0.7966  2.6420  0.1409
  586TMC3    C1 8683   0.146   1.559   0.240 -0.8490 -0.1793  0.1147
  586TMC3    C2 8684   0.225   1.454   0.236 -0.3842 -0.0940 -0.1899
  586TMC3    C3 8685   0.342   1.453   0.167 -0.2122  0.8808 -0.4144
  586TMC3    C4 8686   0.173   1.667   0.161 -0.3117  0.4255 -0.5975
  586TMC3    C5 8687   0.284   1.659   0.078  0.1698 -0.3812  0.3131
  586TMC3    C6 8688   0.378   1.565   0.093  0.0189 -0.7498  0.5174
  586TMC3     C 8689   0.098   1.605   0.366 -0.5995  0.3039  0.5975
  586TMC3     O 8690   0.066   1.726   0.379 -0.2881 -0.2606 -0.2127
  586TMC3     H 8691   0.190   1.357   0.269  1.9376 -1.3642 -1.4794
  586TMC3    H1 8692   0.100   1.746   0.145 -1.8050 -1.3026 -2.3708
  586TMC3    H2 8693   0.474   1.573   0.044  0.1586 -1.1544  0.7230
  586TMC3    C7 8694   0.246   1.659  17.639  0.2430  0.6084  0.1474
  586TMC3    C8 8695   0.351   1.334   0.091 -0.0620  0.1189 -0.0955
  586TMC3    O1 8696   0.141   1.716  17.615  0.1045  0.0433  0.0905
  586TMC3    O2 8697   0.250   1.271   0.065  0.3098  0.0787  0.0558
  587TMC3    C1 8698   2.336   0.409  16.548  0.1118  0.1565  0.0275
  587TMC3    C2 8699   2.292   0.537  16.541  0.0616  0.4853  0.0382
  587TMC3    C3 8700   2.369   0.625  16.467  0.1033  0.0781  0.5993
  587TMC3    C4 8701   2.455   0.359  16.499 -0.8430  0.1045 -0.5324
  587TMC3    C5 8702   2.537   0.458  16.443 -0.1148  0.2184 -0.1804
  587TMC3    C6 8703   2.494   0.585  16.426  0.1730 -0.5613  0.7889
  587TMC3     C 8704   2.261   0.315  16.625  1.2085  0.2564  0.4024
  587TMC3     O 8705   2.294   0.197  16.628 -0.1138  0.5624 -0.0174
  587TMC3     H 8706   2.196   0.568  16.580 -0.0263  0.3324 -0.0550
  587TMC3    H1 8707   2.499   0.265  16.531 -0.9389  0.1802 -0.1756
  587TMC3    H2 8708   2.559   0.649  16.368  0.8579 -3.1871 -1.3379
  587TMC3    C7 8709   2.669   0.426  16.374  0.7219 -0.5070  0.3961
  587TMC3    C8 8710   2.329   0.763  16.445  0.0893 -0.4087  0.1329
  587TMC3    O1 8711   2.724   0.511  16.313  0.3165 -0.2074  0.1525
  587TMC3    O2 8712   2.402   0.833  16.377  0.3799  0.3936 -0.0454
  588TMC3    C1 8713   4.611   3.396   9.699 -1.0725  0.6140  0.3445
  588TMC3    C2 8714   4.587   3.272   9.642 -0.3165 -0.4970 -0.4088
  588TMC3    C3 8715   4.632   3.165   9.721 -0.1996  0.8129  0.1698
  588TMC3    C4 8716   4.667   3.420   9.824 -0.2218  0.0500  0.0007
  588TMC3    C5 8717   4.717   3.309   9.885  0.0721 -0.6218  0.5034
  588TMC3    C6 8718   4.697   3.181   9.840  0.5944  0.0545 -0.6918
  588TMC3     C 8719   4.554   3.506   9.628  0.1202 -0.4229  1.0196
  588TMC3     O 8720   4.462   3.478   9.557  0.3519  0.3350 -0.2049
  588TMC3     H 8721   4.546   3.268   9.542 -1.4077  0.1629  0.0202
  588TMC3    H1 8722   4.672   3.517   9.872 -2.5547 -0.4363  1.2359
  588TMC3    H2 8723   4.721   3.103   9.912  0.2308  0.0468 -0.5826
  588TMC3    C7 8724   0.062   3.329  10.017 -0.1340 -0.5092  0.6209
  588TMC3    C8 8725   4.568   3.035   9.686 -0.9005 -0.1681 -0.0195
  588TMC3    O1 8726   0.061   3.240  10.103 -0.3975  0.3492  0.4704
  588TMC3    O2 8727   4.497   3.043   9.586 -0.6087  0.3351 -0.1450
  589TMC3    C1 8728   3.953   0.998   1.775 -0.4082 -0.6251 -0.7752
  589TMC3    C2 8729   4.054   1.089   1.758  0.1666 -0.3838  0.1769
  589TMC3    C3 8730   4.177   1.051   1.710 -0.4848 -0.5839  0.6469
  589TMC3    C4 8731   3.970   0.864   1.753  0.3267 -0.2807  0.3124
  589TMC3    C5 8732   4.087   0.832   1.702  0.9773  0.4521 -1.0106
  589TMC3    C6 8733   4.191   0.922   1.675  0.2451 -0.3017  0.4475
  589TMC3     C 8734   3.818   1.036   1.807 -0.2019  0.1332  0.3942
  589TMC3     O 8735   3.727   0.965   1.774  0.1770  0.3429 -0.1721
  589TMC3     H 8736   4.035   1.193   1.780  0.5205 -0.2120 -0.3353
  589TMC3    H1 8737   3.893   0.789   1.769 -0.4793  0.5094  0.1711
  589TMC3    H2 8738   4.285   0.893   1.629  1.2035 -0.0488  2.2459
  589TMC3    C7 8739   4.096   0.703   1.640 -0.0510 -0.3775 -0.0784
  589TMC3    C8 8740   4.269   1.158   1.675  0.4120 -0.1025  0.1540
  589TMC3    O1 8741   4.204   0.655   1.652  0.5949  0.1365  0.2291
  589TMC3    O2 8742   4.226   1.270   1.693 -0.2807  0.1970  0.2296
  590MPD2     C 8743   3.328   3.780  16.774 -1.0422  0.1838  0.3190
  590MPD2    C1 8744   3.243   3.751  16.675 -0.2140  0.3209  0.0777
  590MPD2    C2 8745   3.284   3.775  16.546  0.5389  0.0777 -0.0230
  590MPD2    C3 8746   3.413   3.826  16.525 -0.0875 -0.1928 -0.1107
  590MPD2    C4 8747   3.494   3.861  16.634  0.1227 -0.2982  0.9779
  590MPD2    C5 8748   3.444   3.841  16.758 -0.0578  0.5558  0.0296
  590MPD2     H 8749   3.227   3.754  16.456  0.2968 -1.8635  0.5963
  590MPD2    H1 8750   3.588   3.915  16.633 -0.3714  0.5594  0.9664
  590MPD2    H2 8751   3.291   3.763  16.875  0.7349  2.4093  1.3338
  590MPD2    H3 8752   3.501   3.869  16.846  1.5051  0.4945 -0.9646
  590MPD2     N 8753   3.457   3.833  16.394  0.4661 -0.4050 -0.1786
  590MPD2    H5 8754   3.395   3.829  16.314  1.9669  0.6193 -1.4149
  590MPD2    N1 8755   3.116   3.690  16.704 -0.0710  0.4595 -0.0160
  590MPD2    H7 8756   3.089   3.675  16.801 -1.2847  3.4760  0.1076
  591TMC3    C1 8757   3.589   3.894  16.224 -0.0293 -0.1438 -0.5002
  591TMC3    C2 8758   3.698   3.850  16.162  0.1855 -0.1718  0.0225
  591TMC3    C3 8759   3.713   3.888  16.035  0.3919 -0.3906  0.1715
  591TMC3    C4 8760   3.497   3.994  16.180  0.1509  0.6892 -0.5000
  591TMC3    C5 8761   3.535   4.035  16.055 -0.4179  0.1646 -0.4753
  591TMC3    C6 8762   3.636   3.981  15.982 -0.0070  0.2287 -0.4054
  591TMC3     C 8763   3.585   3.856  16.361 -1.3268  0.0377  0.5663
  591TMC3     O 8764   3.686   3.845  16.429 -0.2818  0.3905  0.1019
  591TMC3     H 8765   3.762   3.773  16.204  0.2420 -0.0103  0.2334
  591TMC3    H1 8766   3.402   4.021  16.225  0.1735 -0.6981  0.3629
  591TMC3    H2 8767   3.659   4.014  15.881  1.3827  2.2840  0.5929
  591TMC3    C7 8768   3.448   4.124  15.993  0.0170 -0.6283  0.1148
  591TMC3    C8 8769   3.792   3.808  15.949 -0.2747  0.2684  0.5197
  591TMC3    O1 8770   3.328   4.107  16.008  0.4872 -0.0592  0.3650
  591TMC3    O2 8771   3.808   3.689  15.976  0.1928 -0.3866  0.2521
  592MPD2     C 8772   3.723   1.280  11.318  0.1527  0.6443 -0.3182
  592MPD2    C1 8773   3.786   1.283  11.435 -0.0494 -0.3895  0.2598
  592MPD2    C2 8774   3.729   1.224  11.544  0.2495 -0.2591 -0.7543
  592MPD2    C3 8775   3.605   1.166  11.536 -0.1387  0.0983  0.3340
  592MPD2    C4 8776   3.547   1.154  11.408  0.0230  1.0245  0.0150
  592MPD2    C5 8777   3.609   1.206  11.304 -0.4385  0.3444 -0.6004
  592MPD2     H 8778   3.780   1.228  11.640 -1.6120 -1.5939  0.3029
  592MPD2    H1 8779   3.450   1.107  11.391  0.7907 -0.8919  0.9323
  592MPD2    H2 8780   3.765   1.314  11.225 -0.4636  1.7805 -0.1962
  592MPD2    H3 8781   3.565   1.185  11.207 -2.1797 -0.3679  0.3532
  592MPD2     N 8782   3.545   1.111  11.656  0.4478  0.7672  0.4018
  592MPD2    H5 8783   3.590   1.142  11.742  0.5182  0.4351  0.4850
  592MPD2    N1 8784   3.899   1.365  11.444 -0.1639 -0.2554 -0.4630
  592MPD2    H7 8785   3.941   1.388  11.355 -0.7166 -0.4977 -0.7859
  593TMC3    C1 8786   4.070   1.502  11.526  0.1925 -0.0338  0.0096
  593TMC3    C2 8787   4.158   1.504  11.624  0.4017 -0.3935 -1.0738
  593TMC3    C3 8788   4.263   1.591  11.608 -0.5285 -0.0519 -0.4643
  593TMC3    C4 8789   4.076   1.571  11.407 -0.0155  0.2875  0.1990
  593TMC3    C5 8790   4.190   1.648  11.396 -0.1590  0.1349 -0.0670
  593TMC3    C6 8791   4.288   1.659  11.493 -0.1151 -0.7872 -0.1661
  593TMC3     C 8792   3.943   1.429  11.556  1.0257 -0.0779 -0.3865
  593TMC3     O 8793   3.902   1.425  11.669 -0.1054  0.5494  0.0162
  593TMC3     H 8794   4.132   1.467  11.722 -1.7156  0.4686 -1.3107
  593TMC3    H1 8795   3.992   1.568  11.338  1.0239  0.7774 -1.0700
  593TMC3    H2 8796   4.371   1.729  11.493 -0.9103  0.1736  0.3804
  593TMC3    C7 8797   4.227   1.713  11.267 -0.4079  0.3190  0.5691
  593TMC3    C8 8798   4.324   1.653  11.721  0.5701  0.3645  0.4698
  593TMC3    O1 8799   4.312   1.803  11.273 -0.3519 -0.3457 -0.2209
  593TMC3    O2 8800   4.344   1.773  11.715  0.0548 -0.3997 -0.4727
  594MPD2     C 8801   2.849   4.431  14.468 -0.3149  0.0696  1.1194
  594MPD2    C1 8802   2.721   4.461  14.427 -0.0011 -1.5234  0.1682
  594MPD2    C2 8803   2.693   4.587  14.397  0.1608 -0.0255 -0.0275
  594MPD2    C3 8804   2.789   4.690  14.407  0.1724  0.1976  0.1834
  594MPD2    C4 8805   2.919   4.654  14.438  0.5939 -0.1305  0.0437
  594MPD2    C5 8806   2.943   4.524  14.465  0.3415 -0.6145  0.1001
  594MPD2     H 8807   2.594   4.614  14.362  0.5210 -0.2884 -1.2545
  594MPD2    H1 8808   3.001   0.001  14.440  1.0544 -0.6711  0.0781
  594MPD2    H2 8809   2.886   4.331  14.489 -0.2219  0.0838  1.0154
  594MPD2    H3 8810   3.047   4.510  14.490  0.1985 -0.0813  0.9899
  594MPD2     N 8811   2.755   0.095  14.368 -0.5555 -0.1855  0.0650
  594MPD2    H5 8812   2.658   0.117  14.349 -0.5756 -1.0016 -0.8099
  594MPD2    N1 8813   2.640   4.355  14.427 -0.2635 -0.1205 -0.4113
  594MPD2    H7 8814   2.680   4.263  14.438  0.1715 -0.0811 -1.6732
  595TMC3    C1 8815   2.839   0.555  14.303  0.2294  0.5344  0.2296
  595TMC3    C2 8816   2.851   0.417  14.279  0.1173  0.3084  0.0394
  595TMC3    C3 8817   2.767   0.320  14.323 -0.5514  0.3758  0.3394
  595TMC3    C4 8818   2.745   0.592  14.386  0.3718 -0.5395  0.5960
  595TMC3    C5 8819   2.653   0.495  14.425 -1.2294  0.4374 -0.7050
  595TMC3    C6 8820   2.663   0.356  14.399  0.3159 -0.5534  0.3212
  595TMC3     C 8821   2.961   0.630  14.290 -0.4870 -1.4073  0.9815
  595TMC3     O 8822   2.997   0.707  14.378 -0.6440 -0.0626 -0.3641
  595TMC3     H 8823   2.947   0.391  14.237 -0.3940  0.8639 -1.4974
  595TMC3    H1 8824   2.737   0.693  14.423 -0.3933 -1.7358  3.7748
  595TMC3    H2 8825   2.626   0.279  14.466 -1.5156  0.6036  0.6496
  595TMC3    C7 8826   2.579   0.532  14.547 -0.1171 -0.2941 -0.0917
  595TMC3    C8 8827   2.840   0.203  14.369  0.0113  0.6628  0.4434
  595TMC3    O1 8828   2.489   0.616  14.546 -0.0267 -0.3462  0.3838
  595TMC3    O2 8829   2.957   0.216  14.387  0.1309 -0.3555 -0.5106
  596MPD2     C 8830   1.363   2.710  16.949  0.3112 -0.2832  0.3036
  596MPD2    C1 8831   1.397   2.826  16.872  0.3204 -0.0197 -0.5644
  596MPD2    C2 8832   1.428   2.799  16.740  0.0269  0.1242 -0.2075
  596MPD2    C3 8833   1.435   2.675  16.679 -0.6289 -1.1208 -0.6935
  596MPD2    C4 8834   1.411   2.573  16.758 -0.3304 -0.7092 -0.0614
  596MPD2    C5 8835   1.379   2.587  16.890 -0.1636 -0.0734  0.6471
  596MPD2     H 8836   1.472   2.884  16.689  1.9380 -0.0960  1.0747
  596MPD2    H1 8837   1.412   2.472  16.718  0.5004 -1.2947  1.4578
  596MPD2    H2 8838   1.326   2.711  17.051  0.6333 -1.0326  0.4208
  596MPD2    H3 8839   1.367   2.497  16.949  1.3733 -1.0957 -0.6227
  596MPD2     N 8840   1.477   2.653  16.546 -0.7751 -0.8174  0.3685
  596MPD2    H5 8841   1.501   2.562  16.509  0.5289 -0.1720 -0.3875
  596MPD2    N1 8842   1.380   2.958  16.916  0.5918  0.2041 -0.3449
  596MPD2    H7 8843   1.399   3.032  16.849  1.3381 -0.5049 -0.9258
  597TMC3    C1 8844   1.392   3.141  17.060 -0.6787  0.2090  0.2987
  597TMC3    C2 8845   1.476   3.203  16.971  0.4625  0.5427 -0.1795
  597TMC3    C3 8846   1.451   3.333  16.937 -0.9033  0.4386  0.1680
  597TMC3    C4 8847   1.307   3.208  17.137 -0.5086 -0.3638 -0.0902
  597TMC3    C5 8848   1.293   3.344  17.107 -0.3209 -0.6286 -0.3317
  597TMC3    C6 8849   1.360   3.408  17.007  0.2020 -0.0874 -0.2080
  597TMC3     C 8850   1.372   2.999  17.044  0.5280 -0.4219 -0.4079
  597TMC3     O 8851   1.361   2.927  17.140 -0.4591 -0.2724  0.2466
  597TMC3     H 8852   1.546   3.142  16.914  0.3446  0.8183 -0.6184
  597TMC3    H1 8853   1.236   3.158  17.202 -0.8973  1.0311  0.5699
  597TMC3    H2 8854   1.353   3.515  16.989 -1.9973 -0.3774 -1.0690
  597TMC3    C7 8855   1.192   3.418  17.176  0.3458 -0.7089  1.0203
  597TMC3    C8 8856   1.550   3.396  16.850 -0.2278  0.0999 -0.5364
  597TMC3    O1 8857   1.120   3.357  17.257  0.4312 -0.3986  0.4347
  597TMC3    O2 8858   1.650   3.339  16.808 -0.2668 -0.3730 -0.7498
  598TMC3    C1 8859   4.536   4.406  15.113  0.3079  0.1222  0.7364
  598TMC3    C2 8860   4.442   4.308  15.117  0.4725  0.0253  0.5313
  598TMC3    C3 8861   4.367   4.283  15.012  0.4148 -0.0464  0.4326
  598TMC3    C4 8862   4.547   4.488  15.005  0.1692  0.1288 -0.5083
  598TMC3    C5 8863   4.477   4.450  14.891  0.4864 -0.2784  0.5894
  598TMC3    C6 8864   4.386   4.348  14.891 -0.8362 -0.4871  0.2613
  598TMC3     C 8865   4.602   4.449  15.237 -0.3835 -0.0405  0.2197
  598TMC3     O 8866   4.561   4.400  15.340  0.5458  0.1681 -0.2149
  598TMC3     H 8867   4.435   4.239  15.201  1.5342 -0.7219  0.0024
  598TMC3    H1 8868   4.619   4.568  14.998  1.1087 -0.5628  1.1939
  598TMC3    H2 8869   4.319   4.321  14.810 -0.2474 -0.6767 -0.1601
  598TMC3    C7 8870   4.498   4.521  14.769  1.0349 -0.9879  0.3736
  598TMC3    C8 8871   4.243   4.210  15.025 -0.7181 -0.8693 -0.3137
  598TMC3    O1 8872   4.426   4.481  14.676  0.7754  0.4355  0.4342
  598TMC3    O2 8873   4.174   4.210  14.927 -0.1648  0.6036 -0.1236
  599MPD2     C 8874   4.637   2.094  16.104 -0.8559  0.0918  0.3111
  599MPD2    C1 8875   4.576   1.978  16.074  0.2952 -0.7194 -0.1088
  599MPD2    C2 8876   4.439   1.970  16.094  0.2171 -0.4479  0.1800
  599MPD2    C3 8877   4.373   2.077  16.162  1.2172  0.5109 -0.1047
  599MPD2    C4 8878   4.431   2.197  16.170 -0.3884  0.2931 -0.3651
  599MPD2    C5 8879   4.559   2.203  16.136 -0.0119  0.0816  0.2853
  599MPD2     H 8880   4.387   1.876  16.080 -1.1596  0.5815 -1.5794
  599MPD2    H1 8881   4.381   2.284  16.211 -0.3553 -0.6240  1.5940
  599MPD2    H2 8882   0.019   2.109  16.085 -1.0074  1.2037  0.3379
  599MPD2    H3 8883   4.607   2.298  16.156  2.5614 -0.9359 -0.9465
  599MPD2     N 8884   4.245   2.072  16.222  0.7270 -0.3857  0.5066
  599MPD2    H5 8885   4.208   2.161  16.255 -1.0673 -0.6544 -0.7762
  599MPD2    N1 8886   4.659   1.869  16.041  0.3434  0.1055  0.8664
  599MPD2    H7 8887   0.030   1.897  16.064 -1.0390  2.7413  3.2783
  600TMC3    C1 8888   4.047   1.993  16.308  0.3239  0.1817  0.0936
  600TMC3    C2 8889   3.972   1.881  16.340 -0.4988  0.1352 -0.2623
  600TMC3    C3 8890   3.849   1.893  16.391 -0.2097 -0.1547 -0.3742
  600TMC3    C4 8891   4.009   2.116  16.355  0.2517 -0.6313 -0.0169
  600TMC3    C5 8892   3.886   2.122  16.410  0.7674  0.2882  0.5004
  600TMC3    C6 8893   3.805   2.015  16.428 -0.8029 -0.0178 -0.2299
  600TMC3     C 8894   4.171   1.964  16.244  0.1734  0.4849  0.1442
  600TMC3     O 8895   4.189   1.855  16.198  0.2299 -0.5621 -0.1183
  600TMC3     H 8896   4.000   1.784  16.301 -0.8863 -0.5812  1.2201
  600TMC3    H1 8897   4.068   2.204  16.330 -0.1849 -0.7437 -1.4159
  600TMC3    H2 8898   3.709   2.019  16.479 -0.8216  0.4311 -0.2932
  600TMC3    C7 8899   3.858   2.241  16.493  0.2550  0.0597 -0.0376
  600TMC3    C8 8900   3.773   1.773  16.421  0.4660 -0.4464 -0.7631
  600TMC3    O1 8901   3.778   2.225  16.582 -0.7114 -0.2390  0.3220
  600TMC3    O2 8902   3.836   1.690  16.481  0.1766  0.3093 -0.1670
  601MPD2     C 8903   2.003   0.169   0.413 -0.2627 -0.2054  0.3186
  601MPD2    C1 8904   1.864   0.154   0.403 -0.1140  0.3453  0.2053
  601MPD2    C2 8905   1.806   0.040   0.445 -0.9609  0.1552  0.5699
  601MPD2    C3 8906   1.879   4.659   0.500  0.1726  0.5992 -0.3394
  601MPD2    C4 8907   2.013   4.677   0.526 -0.3435 -0.6142  0.0384
  601MPD2    C5 8908   2.067   0.071   0.484 -0.9367 -0.0562  0.2940
  601MPD2     H 8909   1.697   0.036   0.441 -0.9280 -1.3798  1.0345
  601MPD2    H1 8910   2.074   4.599   0.571  0.7560  0.0041 -0.4028
  601MPD2    H2 8911   2.063   0.255   0.385 -1.5968  0.7601  0.4387
  601MPD2    H3 8912   2.172   0.093   0.502 -1.0027  0.5358 -0.0615
  601MPD2     N 8913   1.816   4.533   0.515  0.5107  0.0218 -0.9028
  601MPD2    H5 8914   1.889   4.468   0.541 -1.5572 -1.1146  2.1140
  601MPD2    N1 8915   1.784   0.256   0.354  0.1494  0.5184  0.8151
  601MPD2    H7 8916   1.685   0.243   0.336  0.3873  0.6555 -0.5382
  602TMC3    C1 8917   1.721   0.462   0.296 -0.0122 -0.8368 -0.1037
  602TMC3    C2 8918   1.723   0.594   0.333  0.1453 -0.0196 -0.4014
  602TMC3    C3 8919   1.622   0.671   0.289 -0.3587 -0.0344  0.0770
  602TMC3    C4 8920   1.623   0.409   0.219 -0.2018 -0.0854  0.3059
  602TMC3    C5 8921   1.525   0.489   0.172 -0.4763 -0.3275 -0.1760
  602TMC3    C6 8922   1.523   0.625   0.207  0.2433 -0.0961  0.0065
  602TMC3     C 8923   1.825   0.385   0.351  0.9121 -0.2047  0.2567
  602TMC3     O 8924   1.933   0.430   0.382  0.5727 -0.9141  0.3242
  602TMC3     H 8925   1.804   0.632   0.396  1.3865 -1.7925 -0.9265
  602TMC3    H1 8926   1.632   0.315   0.165 -2.1097 -0.4097  0.5647
  602TMC3    H2 8927   1.443   0.687   0.168 -1.3441 -2.2195 -0.1496
  602TMC3    C7 8928   1.448   0.451   0.058 -0.1289  0.4593 -0.6914
  602TMC3    C8 8929   1.632   0.814   0.305 -0.3460  0.6494 -0.0789
  602TMC3    O1 8930   1.417   0.332   0.043 -0.1230 -0.0734  1.1092
  602TMC3    O2 8931   1.643   0.868   0.412 -0.6689 -0.0820  0.6281
  603TMC3    C1 8932   4.694   0.260  10.553 -0.4035  0.5146  0.8336
  603TMC3    C2 8933   4.671   0.273  10.688  0.2255 -0.7596  0.0492
  603TMC3    C3 8934   4.649   0.395  10.744 -0.1227  0.2189  0.4084
  603TMC3    C4 8935   4.691   0.369  10.473 -0.9294  0.0774  0.0047
  603TMC3    C5 8936   4.678   0.493  10.529 -0.5506  0.7256  0.1428
  603TMC3    C6 8937   4.649   0.508  10.668 -0.1635 -0.2837 -0.2100
  603TMC3     C 8938   0.059   0.153  10.500  0.0184 -0.4955 -0.4290
  603TMC3     O 8939   0.119   0.176  10.400  0.0688  0.0841  0.2323
  603TMC3     H 8940   4.691   0.182  10.744 -0.8003 -0.5555  0.7441
  603TMC3    H1 8941   4.698   0.353  10.366  0.5640  0.0763  0.1045
  603TMC3    H2 8942   4.636   0.606  10.713  0.3305 -0.0719 -0.5239
  603TMC3    C7 8943   4.659   0.615  10.444  0.3720  0.7589  0.4372
  603TMC3    C8 8944   4.664   0.396  10.889 -0.7968 -0.1320 -0.1319
  603TMC3    O1 8945   4.687   0.719  10.503  0.0115  0.1249  0.4354
  603TMC3    O2 8946   4.698   0.298  10.949  0.1807  0.2477 -0.4551
  604MPD2     C 8947   1.025   4.337  16.346  0.1201 -0.0782  0.1806
  604MPD2    C1 8948   0.898   4.285  16.318  0.8321  0.2717 -0.4454
  604MPD2    C2 8949   0.885   4.211  16.205 -0.4124  0.3163 -0.9250
  604MPD2    C3 8950   0.993   4.190  16.122  0.3433 -0.0260 -0.5256
  604MPD2    C4 8951   1.118   4.237  16.156 -0.8538  0.1542  0.2391
  604MPD2    C5 8952   1.130   4.315  16.264 -0.2619 -0.2217  0.1836
  604MPD2     H 8953   0.791   4.171  16.168  0.3871 -1.5121 -0.9581
  604MPD2    H1 8954   1.202   4.228  16.088 -0.9850 -2.2753  0.4173
  604MPD2    H2 8955   1.035   4.394  16.438 -0.5129  2.7956 -1.5726
  604MPD2    H3 8956   1.223   4.356  16.301  0.6348 -0.6985 -1.5554
  604MPD2     N 8957   0.967   4.116  16.010 -0.2433  1.1912 -0.3686
  604MPD2    H5 8958   0.869   4.103  15.988 -0.2350 -1.5371  1.2028
  604MPD2    N1 8959   0.801   4.315  16.418 -0.0900 -0.1303  0.1362
  604MPD2    H7 8960   0.837   4.367  16.498  0.9561  0.6277 -0.8193
  605TMC3    C1 8961   0.595   4.331  16.525 -0.4397 -0.6413  0.1049
  605TMC3    C2 8962   0.655   4.379  16.635  0.3416 -0.4127  0.6230
  605TMC3    C3 8963   0.596   4.480  16.701  0.1571  0.9028  0.3815
  605TMC3    C4 8964   0.474   4.380  16.485 -0.1379 -0.1232 -0.5152
  605TMC3    C5 8965   0.411   4.471  16.559 -0.5769 -0.0506 -0.3125
  605TMC3    C6 8966   0.472   4.528  16.670 -0.2115 -0.4982 -0.3923
  605TMC3     C 8967   0.673   4.274  16.416  0.6559  0.1245  0.2083
  605TMC3     O 8968   0.618   4.239  16.312 -0.6559 -0.6908 -0.4164
  605TMC3     H 8969   0.757   4.352  16.662 -0.2074 -3.9064 -0.7344
  605TMC3    H1 8970   0.420   4.327  16.407 -0.2095  0.9331 -1.1804
  605TMC3    H2 8971   0.419   4.586  16.744 -1.3741 -1.0961 -0.7473
  605TMC3    C7 8972   0.304   4.542  16.494  0.3003 -1.0275  0.6044
  605TMC3    C8 8973   0.654   4.525  16.827 -0.2454 -0.0886 -0.1796
  605TMC3    O1 8974   0.248   4.505  16.390 -0.2613 -0.1956 -0.2336
  605TMC3    O2 8975   0.578   4.572  16.909 -0.0111 -0.4766 -0.4681
  606TMC3    C1 8976   1.882   2.344  17.090 -0.1512 -0.5178  0.2110
  606TMC3    C2 8977   1.954   2.286  17.192  0.0314 -0.3005  0.1245
  606TMC3    C3 8978   1.909   2.167  17.239 -0.9181  0.3946  0.3783
  606TMC3    C4 8979   1.764   2.292  17.050  0.4290  0.0446 -0.0469
  606TMC3    C5 8980   1.715   2.183  17.113 -0.4900  0.0959 -0.8917
  606TMC3    C6 8981   1.788   2.112  17.207 -0.1703  0.1147 -0.1285
  606TMC3     C 8982   1.891   2.487  17.083  0.5278 -0.1801 -0.3584
  606TMC3     O 8983   1.930   2.540  17.188 -0.1961  0.2290 -0.3180
  606TMC3     H 8984   2.048   2.327  17.226 -0.1079 -1.2915  1.6881
  606TMC3    H1 8985   1.702   2.336  16.972  0.4802  0.6762  0.2679
  606TMC3    H2 8986   1.733   2.048  17.275  0.7720 -1.3113 -0.7162
  606TMC3    C7 8987   1.576   2.162  17.089  0.3877  0.1883  0.1583
  606TMC3    C8 8988   1.984   2.092  17.330 -0.8028 -0.1900  0.2110
  606TMC3    O1 8989   1.518   2.195  16.985  0.3792  0.6419 -0.2256
  606TMC3    O2 8990   2.073   2.149  17.394  0.2555  0.3819  0.3512
  607MPD2     C 8991   3.775   0.820  11.381  0.0440 -0.8011 -0.1214
  607MPD2    C1 8992   3.875   0.850  11.475 -0.2967 -0.3486  0.3312
  607MPD2    C2 8993   3.855   0.810  11.607 -1.1859  0.4560 -0.5606
  607MPD2    C3 8994   3.737   0.751  11.645  0.8906 -0.0973  0.2758
  607MPD2    C4 8995   3.652   0.705  11.546 -0.4844  0.5294 -0.2896
  607MPD2    C5 8996   3.666   0.747  11.418  0.0596 -0.7206  0.2142
  607MPD2     H 8997   3.920   0.862  11.677 -0.1390 -0.1098 -1.1126
  607MPD2    H1 8998   3.566   0.645  11.572  0.2830 -0.3968  0.1321
  607MPD2    H2 8999   3.791   0.849  11.278 -1.5442 -0.8636 -0.3830
  607MPD2    H3 9000   3.587   0.738  11.344 -0.5474 -0.3075  0.8032
  607MPD2     N 9001   3.740   0.707  11.779  0.2445 -0.1816  0.5635
  607MPD2    H5 9002   3.820   0.746  11.827  0.9628 -1.3860  0.3355
  607MPD2    N1 9003   3.984   0.934  11.458  0.1910  0.7814 -0.0977
  607MPD2    H7 9004   4.052   0.940  11.534  0.4242  0.6793 -0.2976
  608TMC3    C1 9005   4.121   1.111  11.377 -0.1155  0.3522  0.3088
  608TMC3    C2 9006   4.155   1.127  11.508  0.3849 -0.7941  0.7101
  608TMC3    C3 9007   4.279   1.181  11.532 -0.6149 -0.1057 -0.0613
  608TMC3    C4 9008   4.201   1.138  11.273  0.2990  0.2097  0.1989
  608TMC3    C5 9009   4.320   1.189  11.298 -0.3285  0.1361  0.5280
  608TMC3    C6 9010   4.359   1.212  11.428  0.7330  0.2051 -1.0188
  608TMC3     C 9011   4.015   1.015  11.350  0.1183  0.0541 -0.2006
  608TMC3     O 9012   3.956   1.024  11.245  0.1174 -0.5223 -0.1326
  608TMC3     H 9013   4.086   1.126  11.591  2.3104  0.8458  2.3371
  608TMC3    H1 9014   4.176   1.110  11.171  1.2195 -1.8678  0.5350
  608TMC3    H2 9015   4.445   1.271  11.457  1.4031 -0.0527 -2.4991
  608TMC3    C7 9016   4.396   1.217  11.180  0.1403 -0.6927 -0.3150
  608TMC3    C8 9017   4.321   1.192  11.675  0.8127  0.2891  0.2491
  608TMC3    O1 9018   4.351   1.186  11.071  0.4602  0.1784  0.4282
  608TMC3    O2 9019   4.367   1.297  11.713 -0.1874 -0.0968  0.4608
  609TMC3    C1 9020   2.755   4.250   9.005 -0.5011  0.1574  0.4761
  609TMC3    C2 9021   2.765   4.305   8.883  0.3603  0.1868 -0.3244
  609TMC3    C3 9022   2.854   4.245   8.795  0.6720 -0.0261 -0.1872
  609TMC3    C4 9023   2.835   4.149   9.049  0.9102  0.3076  0.6177
  609TMC3    C5 9024   2.937   4.111   8.965 -0.0383  0.2215  0.1322
  609TMC3    C6 9025   2.942   4.149   8.835 -0.4777 -0.0923  0.4800
  609TMC3     C 9026   2.653   4.304   9.098 -0.2971  0.3056  0.6311
  609TMC3     O 9027   2.636   4.227   9.192  0.1071  0.6740 -0.5242
  609TMC3     H 9028   2.696   4.380   8.846 -1.2596 -1.5511 -0.8110
  609TMC3    H1 9029   2.819   4.100   9.144 -1.7301  2.0049  1.0486
  609TMC3    H2 9030   3.027   4.117   8.776 -0.5353  1.5708 -0.5341
  609TMC3    C7 9031   3.047   4.047   9.029 -0.0800  0.4147 -0.1493
  609TMC3    C8 9032   2.868   4.294   8.658  0.0844  0.0149  0.6695
  609TMC3    O1 9033   3.051   4.047   9.152  0.8487  0.4560 -0.3347
  609TMC3    O2 9034   2.925   4.218   8.581  0.5646 -0.2695  0.3318
  610TMC3    C1 9035   4.391   0.214  12.181  0.4631 -0.6914  0.4464
  610TMC3    C2 9036   4.459   0.308  12.111  0.0152  0.2830 -0.4986
  610TMC3    C3 9037   4.603   0.289  12.100 -0.2226 -0.7930  0.6092
  610TMC3    C4 9038   4.453   0.122  12.256 -0.4023  0.5669 -0.3728
  610TMC3    C5 9039   4.588   0.115  12.248  0.9096 -0.2566 -0.1220
  610TMC3    C6 9040   4.671   0.198  12.178 -0.6115 -0.5985  0.1582
  610TMC3     C 9041   4.257   0.251  12.216  0.0428 -0.2147 -0.7404
  610TMC3     O 9042   4.241   0.370  12.233 -0.0268  0.0507 -0.0394
  610TMC3     H 9043   4.395   0.375  12.055  0.8398  0.6726 -0.9743
  610TMC3    H1 9044   4.403   0.054  12.324 -0.2200  1.8837  1.0980
  610TMC3    H2 9045   0.054   0.180  12.166 -0.2233  1.4840  0.4342
  610TMC3    C7 9046   4.655   0.032  12.346 -0.4943 -0.4786  0.5644
  610TMC3    C8 9047   4.676   0.364  12.004 -0.5164  0.5904  0.0847
  610TMC3    O1 9048   4.655   4.636  12.324 -0.4262  0.9293 -0.6577
  610TMC3    O2 9049   0.048   0.310  11.958  0.6548 -0.1417  0.1656
  611MPD2     C 9050   3.910   0.182  10.316 -0.1097 -0.2628  0.3377
  611MPD2    C1 9051   3.830   0.290  10.284 -0.4712  0.2252 -0.5494
  611MPD2    C2 9052   3.868   0.368  10.179  0.3684 -0.1455 -0.0165
  611MPD2    C3 9053   3.981   0.330  10.102 -0.2943 -1.0071 -0.3439
  611MPD2    C4 9054   4.066   0.233  10.149  0.5523 -0.5603  0.6535
  611MPD2    C5 9055   4.034   0.159  10.259 -0.2933  0.1151  0.5336
  611MPD2     H 9056   3.797   0.441  10.141 -1.1625 -2.0095 -0.6945
  611MPD2    H1 9057   4.159   0.209  10.097 -0.6687 -0.7985 -1.4193
  611MPD2    H2 9058   3.883   0.116  10.398  0.5310 -1.8098 -0.6758
  611MPD2    H3 9059   4.095   0.072  10.281  1.5604  0.6685 -2.3161
  611MPD2     N 9060   4.019   0.400   9.985  0.0317 -0.0968  0.4892
  611MPD2    H5 9061   4.115   0.392   9.953  0.5747 -0.5568  2.2628
  611MPD2    N1 9062   3.701   0.307  10.348  0.7381 -0.0098 -0.1179
  611MPD2    H7 9063   3.673   0.233  10.411  2.5936 -0.3262  0.3217
  612TMC3    C1 9064   4.020   0.556   9.823 -0.6911  0.3843 -0.5450
  612TMC3    C2 9065   4.147   0.603   9.853  0.6346  0.0568  0.3388
  612TMC3    C3 9066   4.203   0.688   9.765 -0.3682  0.2064  0.3061
  612TMC3    C4 9067   3.966   0.574   9.696 -0.5474 -0.2319  0.3615
  612TMC3    C5 9068   4.038   0.646   9.607 -0.5451 -0.5902 -0.2275
  612TMC3    C6 9069   4.158   0.709   9.640 -0.4676 -0.1954  0.4552
  612TMC3     C 9070   3.940   0.487   9.913  0.1008  0.3709  0.0539
  612TMC3     O 9071   3.816   0.498   9.907 -0.5088 -0.3273 -0.3555
  612TMC3     H 9072   4.178   0.610   9.956 -0.1905 -1.6696  0.7043
  612TMC3    H1 9073   3.873   0.519   9.683  0.4258 -1.6577 -0.5394
  612TMC3    H2 9074   4.209   0.758   9.558 -0.8803  0.1290  0.3912
  612TMC3    C7 9075   4.007   0.637   9.469  1.1116  0.4299 -0.3458
  612TMC3    C8 9076   4.335   0.737   9.797 -0.6572 -0.2401 -0.5459
  612TMC3    O1 9077   4.067   0.713   9.387  0.4091  0.8242  0.0596
  612TMC3    O2 9078   4.362   0.845   9.746  0.1887 -0.2342 -1.1876
  613MPD2     C 9079   2.768   2.396  16.955 -0.0512  0.0628 -0.4015
  613MPD2    C1 9080   2.693   2.451  16.853 -0.0740 -1.0438  0.8609
  613MPD2    C2 9081   2.591   2.375  16.802 -0.8511  0.7576  0.4629
  613MPD2    C3 9082   2.564   2.243  16.848 -0.0517  0.0165 -0.7745
  613MPD2    C4 9083   2.637   2.198  16.954 -0.1963  0.4168 -0.3334
  613MPD2    C5 9084   2.737   2.275  17.012  0.2385 -0.0111  0.4483
  613MPD2     H 9085   2.525   2.424  16.732 -1.1598 -0.4647 -0.0925
  613MPD2    H1 9086   2.620   2.096  16.987  1.9909  0.5431  1.1935
  613MPD2    H2 9087   2.835   2.463  17.009 -0.3264 -1.2450  1.5553
  613MPD2    H3 9088   2.790   2.238  17.099  0.6610  0.3735  0.3570
  613MPD2     N 9089   2.467   2.159  16.790 -0.1761 -0.4470  0.3405
  613MPD2    H5 9090   2.475   2.060  16.814 -1.0247 -0.5512  0.1971
  613MPD2    N1 9091   2.722   2.585  16.811  0.4541 -0.0292 -1.1584
  613MPD2    H7 9092   2.807   2.629  16.843 -0.3557  0.3944  0.4265
  614TMC3    C1 9093   2.758   2.666  16.606 -0.2656  0.8988 -1.3396
  614TMC3    C2 9094   2.810   2.550  16.547 -0.1527 -0.0834 -1.1221
  614TMC3    C3 9095   2.811   2.542  16.411  0.3738  0.6879  0.2778
  614TMC3    C4 9096   2.719   2.775  16.532 -0.2656 -0.0017 -0.4834
  614TMC3    C5 9097   2.732   2.759  16.401 -0.3287 -0.5849 -0.0670
  614TMC3    C6 9098   2.772   2.648  16.334 -0.3700 -0.4651  0.6915
  614TMC3     C 9099   2.660   2.641  16.702  0.3335  0.0035 -0.1714
  614TMC3     O 9100   2.541   2.659  16.669 -0.1657  0.3207 -0.3727
  614TMC3     H 9101   2.832   2.458  16.600  1.9659  1.9720  1.5180
  614TMC3    H1 9102   2.660   2.855  16.576  0.9840  1.2738 -1.1101
  614TMC3    H2 9103   2.760   2.630  16.228  1.0269 -0.3728  0.5140
  614TMC3    C7 9104   2.729   2.885  16.334  0.2561 -0.3251  0.5861
  614TMC3    C8 9105   2.774   2.406  16.364 -1.4231 -0.7523  0.1186
  614TMC3    O1 9106   2.746   2.988  16.396 -0.0681  0.2356 -0.0501
  614TMC3    O2 9107   2.723   2.341  16.451  0.5611 -0.0363  0.6300
  615MPD2     C 9108   1.705   3.838  16.161  0.0051 -0.0945  0.3406
  615MPD2    C1 9109   1.808   3.871  16.082  0.3588  0.8377  0.1466
  615MPD2    C2 9110   1.807   3.847  15.947  0.0904  0.3261  0.1867
  615MPD2    C3 9111   1.691   3.812  15.880 -0.5026  0.4793 -0.3963
  615MPD2    C4 9112   1.584   3.782  15.958 -0.5000  0.8758  0.5016
  615MPD2    C5 9113   1.589   3.794  16.100  0.0752 -0.6317  0.3239
  615MPD2     H 9114   1.900   3.867  15.896 -1.0456  2.0896 -1.2179
  615MPD2    H1 9115   1.487   3.771  15.911 -0.3329 -0.5757  0.4922
  615MPD2    H2 9116   1.706   3.851  16.268  2.7258 -0.2063  0.3370
  615MPD2    H3 9117   1.506   3.782  16.169 -1.2461  0.3278 -1.0901
  615MPD2     N 9118   1.696   3.796  15.741  0.4037 -0.5868  0.2025
  615MPD2    H5 9119   1.611   3.798  15.685 -1.9060 -0.1142  3.7046
  615MPD2    N1 9120   1.930   3.915  16.136 -0.0522 -0.0114  0.0493
  615MPD2    H7 9121   1.996   3.931  16.061  1.5616  1.2582  1.7161
  616TMC3    C1 9122   2.096   3.972  16.278  0.4639 -0.0494 -0.0149
  616TMC3    C2 9123   2.180   3.922  16.378 -0.4902  0.3307 -0.0939
  616TMC3    C3 9124   2.305   3.968  16.382  0.2237  0.4413 -0.6030
  616TMC3    C4 9125   2.139   4.060  16.180  0.0220 -0.9139  0.7753
  616TMC3    C5 9126   2.266   4.100  16.189 -0.1667  0.1100 -0.9732
  616TMC3    C6 9127   2.351   4.049  16.285  0.0966  0.3734 -0.6693
  616TMC3     C 9128   1.961   3.933  16.272 -0.6494  0.7062 -0.0435
  616TMC3     O 9129   1.907   3.885  16.367 -0.1465  0.6500 -0.2117
  616TMC3     H 9130   2.146   3.861  16.461  0.4971 -0.9348 -0.6115
  616TMC3    H1 9131   2.072   4.114  16.114  1.5580 -0.9199 -0.7780
  616TMC3    H2 9132   2.453   4.081  16.272  0.3347 -0.1964 -0.2128
  616TMC3    C7 9133   2.312   4.208  16.100  0.0429 -0.3704  0.2261
  616TMC3    C8 9134   2.385   3.958  16.505  0.0730  0.1422  0.6639
  616TMC3    O1 9135   2.425   4.212  16.055 -0.1709  0.1870 -0.5100
  616TMC3    O2 9136   2.326   3.910  16.600  0.1220  0.2974  0.2103
  617MPD2     C 9137   0.491   2.607  14.019  0.0805 -0.1691 -0.2390
  617MPD2    C1 9138   0.539   2.517  13.921  0.3446  0.9938 -0.1858
  617MPD2    C2 9139   0.456   2.491  13.816 -0.2840  0.1136 -0.5908
  617MPD2    C3 9140   0.331   2.550  13.804 -0.1657 -0.5751 -0.3556
  617MPD2    C4 9141   0.291   2.641  13.900  0.2969 -0.0146  0.6307
  617MPD2    C5 9142   0.366   2.666  14.006 -0.0313  0.3448 -0.0446
  617MPD2     H 9143   0.492   2.431  13.733  1.9665 -0.2892  0.6975
  617MPD2    H1 9144   0.187   2.672  13.895 -0.3468 -1.9018  2.4407
  617MPD2    H2 9145   0.559   2.634  14.099  0.5302 -0.4432 -0.5258
  617MPD2    H3 9146   0.328   2.741  14.074  1.3956  0.4170  0.6848
  617MPD2     N 9147   0.247   2.527  13.698  0.1634  0.0326  0.8213
  617MPD2    H5 9148   0.169   2.591  13.686  0.3952  0.6248  2.5515
  617MPD2    N1 9149   0.678   2.474  13.932  0.5409  0.2560 -0.5175
  617MPD2    H7 9150   0.737   2.521  14.000 -2.1732  0.5078  1.6638
  618TMC3    C1 9151   0.869   2.361  13.885 -0.1095  0.2476  0.0911
  618TMC3    C2 9152   0.938   2.243  13.859  0.0359  0.2242 -0.2457
  618TMC3    C3 9153   1.071   2.235  13.882  0.5135  0.7107  0.5492
  618TMC3    C4 9154   0.934   2.474  13.939  0.2025 -0.3355  0.2364
  618TMC3    C5 9155   1.075   2.456  13.965 -0.2646 -0.6957 -0.0815
  618TMC3    C6 9156   1.140   2.334  13.949  0.0349  0.3687 -0.5364
  618TMC3     C 9157   0.727   2.379  13.849  0.0065  0.7005 -0.3306
  618TMC3     O 9158   0.673   2.291  13.787  0.3801  0.7495 -1.3564
  618TMC3     H 9159   0.886   2.159  13.813 -0.7179  1.4251 -1.5614
  618TMC3    H1 9160   0.895   2.575  13.946  2.1887  0.2511  2.9225
  618TMC3    H2 9161   1.245   2.317  13.972 -0.4808 -2.8732 -0.6026
  618TMC3    C7 9162   1.141   2.554  14.054  0.0715 -0.4359 -0.7826
  618TMC3    C8 9163   1.136   2.135  13.795 -0.4929 -0.1000 -0.5968
  618TMC3    O1 9164   1.057   2.622  14.116 -0.4782  0.0367  0.4092
  618TMC3    O2 9165   1.081   2.030  13.777 -0.2044 -0.1503  0.0796
  619MPD2     C 9166   1.922   3.456  13.687  0.0381 -0.2103 -0.1212
  619MPD2    C1 9167   1.861   3.577  13.686  0.5705  0.0921 -1.3174
  619MPD2    C2 9168   1.727   3.590  13.697  0.7243  0.1938  0.1338
  619MPD2    C3 9169   1.648   3.479  13.693  0.5699 -0.3082  0.1063
  619MPD2    C4 9170   1.708   3.353  13.693 -0.5058 -0.1917 -0.2839
  619MPD2    C5 9171   1.848   3.348  13.695  0.2028 -0.0974 -0.3108
  619MPD2     H 9172   1.687   3.690  13.686  1.2646  0.2056 -1.6262
  619MPD2    H1 9173   1.647   3.263  13.694  0.6880 -0.9990  0.3337
  619MPD2    H2 9174   2.028   3.439  13.674  0.2206 -0.2825  1.4062
  619MPD2    H3 9175   1.900   3.254  13.681  1.9192  0.5713  1.6478
  619MPD2     N 9176   1.504   3.492  13.697  0.5259  0.0634  0.0674
  619MPD2    H5 9177   1.449   3.407  13.686  2.5241 -1.0378 -1.4501
  619MPD2    N1 9178   1.914   3.699  13.658 -0.1221  0.5493  0.1791
  619MPD2    H7 9179   1.858   3.783  13.653  1.3630  1.5992  1.3241
  620TMC3    C1 9180   2.057   3.856  13.567  0.6384 -0.1284  0.4277
  620TMC3    C2 9181   1.963   3.882  13.478 -0.1911  0.1826  0.2218
  620TMC3    C3 9182   1.930   4.015  13.450 -0.6171  0.7739 -0.0003
  620TMC3    C4 9183   2.129   3.957  13.628 -0.7630  0.1965  1.7585
  620TMC3    C5 9184   2.103   4.083  13.597  0.0013  0.0597  0.2283
  620TMC3    C6 9185   1.998   4.116  13.513  0.0938 -0.3110  0.2328
  620TMC3     C 9186   2.051   3.724  13.635  0.2762 -0.6948  0.3597
  620TMC3     O 9187   2.145   3.648  13.630  0.0765  0.0184 -0.0320
  620TMC3     H 9188   1.926   3.792  13.430  0.3149 -0.2307  0.6038
  620TMC3    H1 9189   2.198   3.928  13.706 -2.2661 -1.8950  2.3078
  620TMC3    H2 9190   1.980   4.215  13.471  0.3383 -0.6807 -0.7535
  620TMC3    C7 9191   2.129   4.187  13.701  0.4144 -0.0283  0.4097
  620TMC3    C8 9192   1.793   4.044  13.452 -0.8638 -0.3011  0.3682
  620TMC3    O1 9193   2.234   4.199  13.755 -0.1676 -0.2798 -0.1766
  620TMC3    O2 9194   1.767   4.131  13.536 -0.2421  0.2994 -0.5592
  621MPD2     C 9195   2.111   3.153   9.749  1.1462 -0.0624  0.1609
  621MPD2    C1 9196   2.129   3.212   9.627  1.0190  0.2094 -0.1918
  621MPD2    C2 9197   2.216   3.319   9.611  0.0745  0.3142 -0.4752
  621MPD2    C3 9198   2.290   3.378   9.725 -0.3909  0.6353 -0.7501
  621MPD2    C4 9199   2.270   3.314   9.846  0.5629 -1.4784 -0.5578
  621MPD2    C5 9200   2.178   3.204   9.856 -0.1713  0.0424 -0.1019
  621MPD2     H 9201   2.226   3.369   9.515 -0.7587 -0.2794 -0.8692
  621MPD2    H1 9202   2.333   3.330   9.932 -2.0626  0.9082  0.9442
  621MPD2    H2 9203   2.039   3.075   9.771  0.1751  0.7360 -0.2013
  621MPD2    H3 9204   2.167   3.152   9.950  1.5971 -0.9109 -0.4160
  621MPD2     N 9205   2.370   3.493   9.710  0.2872  0.0577 -0.0022
  621MPD2    H5 9206   2.389   3.524   9.616 -3.6849 -0.0081 -0.7928
  621MPD2    N1 9207   2.067   3.157   9.508 -0.0949 -1.0056  0.8889
  621MPD2    H7 9208   2.082   3.207   9.421 -0.2239  0.1429  1.5178
  622TMC3    C1 9209   1.902   3.028   9.377 -0.5763  0.8577  0.0972
  622TMC3    C2 9210   1.844   2.904   9.373 -0.9349 -0.0135  0.5086
  622TMC3    C3 9211   1.787   2.864   9.258 -0.1518 -0.3825 -0.5133
  622TMC3    C4 9212   1.885   3.118   9.275 -0.0227 -0.1653 -0.0308
  622TMC3    C5 9213   1.830   3.073   9.164  0.2604 -0.4405 -0.1563
  622TMC3    C6 9214   1.790   2.942   9.146  0.0305 -0.1478  0.1310
  622TMC3     C 9215   1.981   3.046   9.504 -0.2710 -0.1799 -0.1001
  622TMC3     O 9216   1.971   2.954   9.583  0.5271 -0.1732  0.7474
  622TMC3     H 9217   1.846   2.829   9.452  2.8620 -0.4211  0.0055
  622TMC3    H1 9218   1.924   3.218   9.290 -1.7326  0.0662  2.8019
  622TMC3    H2 9219   1.743   2.917   9.051  0.2048  2.4031 -0.6267
  622TMC3    C7 9220   1.793   3.165   9.055 -0.4809 -0.0134  0.2761
  622TMC3    C8 9221   1.648   2.811   9.272 -0.4643  0.0795 -0.5249
  622TMC3    O1 9222   1.800   3.116   8.941 -0.2390 -0.0027 -0.1894
  622TMC3    O2 9223   1.584   2.774   9.174  0.1156 -0.6006 -0.3559
  623MPD2     C 9224   1.229   4.566  16.076  0.3283 -0.0033 -0.1027
  623MPD2    C1 9225   1.148   4.625  16.171  0.6051 -0.5026  0.3632
  623MPD2    C2 9226   1.214   4.659  16.289  0.1156  0.2322  0.0806
  623MPD2    C3 9227   1.352   4.631  16.307  0.4495  0.1441  0.0879
  623MPD2    C4 9228   1.426   4.558  16.218 -0.6084 -0.0755  0.8263
  623MPD2    C5 9229   1.359   4.527  16.104  0.1047 -0.6776 -0.2195
  623MPD2     H 9230   1.162   4.703  16.373 -2.8836 -0.2995 -1.5066
  623MPD2    H1 9231   1.527   4.521  16.230 -1.0807 -1.7987 -0.5602
  623MPD2    H2 9232   1.198   4.538  15.976  1.5715  0.3271 -0.5789
  623MPD2    H3 9233   1.406   4.474  16.022 -0.4815  1.7464 -2.1177
  623MPD2     N 9234   1.408   4.680  16.427  0.2882  0.3892 -0.3493
  623MPD2    H5 9235   1.355   0.032  16.469  0.6911 -1.3397  3.2030
  623MPD2    N1 9236   1.007   4.650  16.151 -0.6997 -0.0644 -0.0858
  623MPD2    H7 9237   0.966   4.702  16.227  1.5275  1.5810  0.0122
  624TMC3    C1 9238   1.582   4.598  16.845  0.6875  0.3315 -0.3061
  624TMC3    C2 9239   1.499   4.688  16.900 -0.0839 -0.0097 -0.7714
  624TMC3    C3 9240   1.418   0.037  16.817  0.0383  0.0919 -0.4936
  624TMC3    C4 9241   1.599   4.591  16.710 -0.6608 -0.2500 -0.0448
  624TMC3    C5 9242   1.534   4.676  16.627 -0.5739  0.3412  0.3256
  624TMC3    C6 9243   1.438   0.031  16.683 -0.6647 -0.7745 -0.1116
  624TMC3     C 9244   1.649   4.503  16.928 -0.0320  0.0672  0.4761
  624TMC3     O 9245   1.690   4.541  17.039 -0.0219 -0.5479  0.2494
  624TMC3     H 9246   1.479   4.692  17.007  3.1308 -2.5339 -0.0914
  624TMC3    H1 9247   1.654   4.507  16.669 -2.4825 -2.4114  1.9336
  624TMC3    H2 9248   1.394   0.107  16.620 -0.1213 -0.2074  0.1848
  624TMC3    C7 9249   1.506   4.621  16.491 -0.9896 -0.3726 -0.0659
  624TMC3    C8 9250   1.275   0.000  16.832  0.2343 -0.3176 -0.5192
  624TMC3    O1 9251   1.579   4.534  16.453  0.6174  0.1855 -0.1166
  624TMC3    O2 9252   1.222   4.693  16.727 -0.1259 -0.0857  0.0814
  625MPD2     C 9253   0.634   0.747   0.397  0.3073 -1.2962  0.0396
  625MPD2    C1 9254   0.727   0.800   0.477  0.3146  0.0715  0.3278
  625MPD2    C2 9255   0.788   0.727   0.573 -0.2635  0.7396  0.1253
  625MPD2    C3 9256   0.763   0.595   0.582  0.1501 -0.6220 -0.1073
  625MPD2    C4 9257   0.676   0.532   0.498  1.1108 -0.3397 -0.6503
  625MPD2    C5 9258   0.611   0.612   0.407  0.5702  0.2031 -0.0369
  625MPD2     H 9259   0.853   0.766   0.650 -0.0902  0.2393  0.2345
  625MPD2    H1 9260   0.659   0.425   0.494 -0.5612 -0.1043  0.1916
  625MPD2    H2 9261   0.588   0.805   0.318 -3.3457 -1.4971  2.0481
  625MPD2    H3 9262   0.551   0.557   0.335  0.4156  3.0709 -2.0695
  625MPD2     N 9263   0.831   0.531   0.690  0.2691 -0.5146  0.1534
  625MPD2    H5 9264   0.886   0.587   0.755  0.6961 -0.0006 -0.6594
  625MPD2    N1 9265   0.759   0.940   0.466  0.5842 -0.3149 -0.5150
  625MPD2    H7 9266   0.815   0.976   0.542 -1.4586  0.7122  0.4922
  626TMC3    C1 9267   0.746   1.168   0.401 -0.2995 -0.4717 -0.0122
  626TMC3    C2 9268   0.732   1.264   0.306  0.3163 -0.9233 -0.1247
  626TMC3    C3 9269   0.737   1.392   0.346 -0.4270  0.2804  0.0403
  626TMC3    C4 9270   0.745   1.197   0.535 -0.1539 -0.0975 -0.0113
  626TMC3    C5 9271   0.763   1.326   0.571 -0.1505 -0.4517  0.3523
  626TMC3    C6 9272   0.760   1.427   0.475 -0.0120  0.1672  0.3141
  626TMC3     C 9273   0.725   1.028   0.369  0.1347 -0.4412 -0.2283
  626TMC3     O 9274   0.697   0.999   0.254  0.0148  0.0733  0.3144
  626TMC3     H 9275   0.710   1.229   0.206  0.9293  0.3350 -0.6924
  626TMC3    H1 9276   0.754   1.124   0.615  0.5253  0.3119  0.2894
  626TMC3    H2 9277   0.779   1.532   0.493  2.0550  0.0493 -1.1088
  626TMC3    C7 9278   0.812   1.348   0.700  0.2698  0.0826  0.2985
  626TMC3    C8 9279   0.708   1.493   0.244 -0.3565  0.7211  0.7721
  626TMC3    O1 9280   0.862   1.254   0.756  0.3438 -0.0019 -0.5152
  626TMC3    O2 9281   0.677   1.448   0.135  0.0255 -0.1898  0.2299
  627MPD2     C 9282   4.205   1.274  14.082  0.2681 -0.3768  0.6067
  627MPD2    C1 9283   4.276   1.271  14.202  0.4404 -0.3908 -0.6210
  627MPD2    C2 9284   4.252   1.166  14.289  0.1456  0.2594  0.0734
  627MPD2    C3 9285   4.151   1.077  14.272  0.0797 -0.3013  0.3154
  627MPD2    C4 9286   4.067   1.093  14.164 -0.6262  0.3025  0.3023
  627MPD2    C5 9287   4.096   1.191  14.071  0.0551  0.2476  0.2778
  627MPD2     H 9288   4.307   1.168  14.382  0.8077  1.1100 -0.3342
  627MPD2    H1 9289   3.991   1.022  14.135 -1.5113  1.2149  0.4088
  627MPD2    H2 9290   4.205   1.350  14.005  0.0514 -0.9223  0.0642
  627MPD2    H3 9291   4.023   1.206  13.993 -0.3312 -1.8915  0.2500
  627MPD2     N 9292   4.125   0.989  14.375 -0.3562 -0.0638  0.3302
  627MPD2    H5 9293   4.183   1.007  14.456  1.4964 -0.1085 -1.0029
  627MPD2    N1 9294   4.382   1.368  14.229 -0.1990 -0.5443 -0.1846
  627MPD2    H7 9295   4.432   1.355  14.316 -1.7773 -0.1805  0.7891
  628TMC3    C1 9296   4.519   1.550  14.188 -0.4064 -0.5380 -0.5501
  628TMC3    C2 9297   4.601   1.497  14.289  0.2512 -0.2186 -0.2299
  628TMC3    C3 9298   4.686   1.586  14.346 -0.0543  0.0872 -0.1807
  628TMC3    C4 9299   4.529   1.684  14.149 -0.1047 -0.0621  0.0910
  628TMC3    C5 9300   4.609   1.764  14.225 -0.1690 -0.1285  0.1293
  628TMC3    C6 9301   4.682   1.720  14.333 -1.1785  0.1952 -0.5322
  628TMC3     C 9302   4.391   1.489  14.163 -1.1877  0.5559  0.9813
  628TMC3     O 9303   4.308   1.545  14.088 -0.4828  0.6797  0.6177
  628TMC3     H 9304   4.609   1.402  14.340  0.0458  0.3921  0.9502
  628TMC3    H1 9305   4.457   1.722  14.078 -0.6375 -1.8980 -0.3424
  628TMC3    H2 9306   0.028   1.791  14.375 -2.2662  0.9470 -0.0000
  628TMC3    C7 9307   4.583   1.904  14.237 -0.1002  0.1609 -0.0920
  628TMC3    C8 9308   0.070   1.540  14.428  0.6265 -0.0578  0.0110
  628TMC3    O1 9309   4.619   1.962  14.341  0.2473 -0.2840  0.4431
  628TMC3    O2 9310   0.091   1.600  14.533 -0.2354  0.3159  0.4224
  629MPD2     C 9311   2.783   4.039  16.806 -0.9730 -0.0053  0.3638
  629MPD2    C1 9312   2.825   4.055  16.681 -0.0544  0.5516  0.2837
  629MPD2    C2 9313   2.734   4.048  16.572 -0.5596 -0.6044  0.1697
  629MPD2    C3 9314   2.598   4.026  16.594  0.3161  0.1585  0.8683
  629MPD2    C4 9315   2.561   4.017  16.730 -0.0089 -0.1801  0.3212
  629MPD2    C5 9316   2.656   4.028  16.831  0.1171  0.2150 -0.6097
  629MPD2     H 9317   2.767   4.055  16.469  1.9341 -0.4228  0.9579
  629MPD2    H1 9318   2.460   3.992  16.759  0.0017 -1.0411 -0.3941
  629MPD2    H2 9319   2.852   4.032  16.889 -1.6252  0.2553  0.9263
  629MPD2    H3 9320   2.620   4.027  16.933 -0.4203 -3.4706 -0.8070
  629MPD2     N 9321   2.510   4.012  16.488  0.3436 -0.1372  0.4455
  629MPD2    H5 9322   2.547   4.035  16.397 -2.0297  0.0965 -0.4584
  629MPD2    N1 9323   2.961   4.075  16.659  0.1608  0.5032 -0.0377
  629MPD2    H7 9324   3.020   4.085  16.742  0.5331 -0.7963 -0.1305
  630TMC3    C1 9325   3.159   4.143  16.539 -0.0678 -0.0150  0.0430
  630TMC3    C2 9326   3.206   4.187  16.416  0.5266 -1.4337 -0.2637
  630TMC3    C3 9327   3.336   4.214  16.404  0.2467 -0.0746  0.2103
  630TMC3    C4 9328   3.235   4.144  16.649 -0.1365  0.1426  0.3188
  630TMC3    C5 9329   3.363   4.188  16.634  0.2000  0.2153 -0.3460
  630TMC3    C6 9330   3.421   4.200  16.509 -1.2257 -0.4582  0.1478
  630TMC3     C 9331   3.021   4.088  16.533  0.3227  0.3554 -0.5519
  630TMC3     O 9332   2.973   4.076  16.419 -0.1782 -0.1438  0.4469
  630TMC3     H 9333   3.142   4.199  16.329  1.4365  1.9607 -0.4445
  630TMC3    H1 9334   3.183   4.149  16.744  1.4604 -0.7387  1.2391
  630TMC3    H2 9335   3.529   4.208  16.512 -1.2597 -0.0393  0.1385
  630TMC3    C7 9336   3.415   4.283  16.736 -0.2600 -0.0119  0.5845
  630TMC3    C8 9337   3.373   4.341  16.340 -0.5248  0.0487 -0.7020
  630TMC3    O1 9338   3.392   4.253  16.852  0.2265  0.0926  0.8628
  630TMC3    O2 9339   3.462   4.397  16.401 -0.1470  0.4621 -0.0052
  631MPD2     C 9340   1.122   4.095  15.235 -0.0918 -0.3522 -0.4047
  631MPD2    C1 9341   1.195   4.157  15.337  0.4364  0.5793  0.4519
  631MPD2    C2 9342   1.316   4.092  15.377  0.6653  0.1483 -0.2054
  631MPD2    C3 9343   1.360   3.972  15.318 -0.4648  0.2560 -0.4992
  631MPD2    C4 9344   1.277   3.916  15.222 -0.2346 -0.9918  0.2367
  631MPD2    C5 9345   1.163   3.982  15.177  0.7993 -0.0330  0.0793
  631MPD2     H 9346   1.376   4.139  15.454  0.2488  1.5046 -0.7067
  631MPD2    H1 9347   1.304   3.822  15.176  0.9440 -0.4995 -0.0656
  631MPD2    H2 9348   1.023   4.136  15.220  0.1779  0.4361  0.0003
  631MPD2    H3 9349   1.102   3.939  15.099  2.0826 -1.3285 -0.2070
  631MPD2     N 9350   1.479   3.918  15.353 -0.6836  0.0698 -0.5263
  631MPD2    H5 9351   1.530   3.959  15.431 -1.0543 -1.0664  0.3103
  631MPD2    N1 9352   1.144   4.284  15.383 -0.7016 -1.2018  0.1103
  631MPD2    H7 9353   1.058   4.308  15.334 -1.3511  0.7249  2.1530
  632TMC3    C1 9354   1.161   4.503  15.473  0.0636 -0.0482 -0.5473
  632TMC3    C2 9355   1.224   4.570  15.572  0.0143  0.3187 -0.4855
  632TMC3    C3 9356   1.291   4.687  15.555  0.6413 -0.3950  0.8477
  632TMC3    C4 9357   1.154   4.564  15.353 -0.6609 -0.6453  0.0805
  632TMC3    C5 9358   1.221   4.682  15.333  0.8309  0.7586 -0.1011
  632TMC3    C6 9359   1.300   0.019  15.430 -0.1700 -0.1929 -0.2277
  632TMC3     C 9360   1.210   4.369  15.476 -0.5447 -0.4636  0.0186
  632TMC3     O 9361   1.321   4.356  15.529  0.6822  0.5739  0.1589
  632TMC3     H 9362   1.224   4.521  15.669 -1.0786  3.2632  1.0027
  632TMC3    H1 9363   1.118   4.507  15.268 -1.8517  2.2351 -1.3575
  632TMC3    H2 9364   1.358   0.110  15.424 -1.1882  0.4222 -0.7248
  632TMC3    C7 9365   1.205   0.023  15.207 -0.1555 -0.2786 -0.2159
  632TMC3    C8 9366   1.345   0.029  15.663 -0.7559 -0.0786 -0.2052
  632TMC3    O1 9367   1.181   4.675  15.110 -0.2690  0.0795 -0.6418
  632TMC3    O2 9368   1.431   0.109  15.636  0.3852 -0.4025  0.3308
  633MPD2     C 9369   0.776   2.951  17.547  0.5843 -0.0595 -0.7843
  633MPD2    C1 9370   0.864   2.870  17.483 -0.2788  0.3812  0.2236
  633MPD2    C2 9371   0.891   2.748  17.534  1.2420  0.0789 -0.7360
  633MPD2    C3 9372   0.846   2.706  17.660  0.3372 -0.5452 -0.4219
  633MPD2    C4 9373   0.760   2.789   0.029  0.9332 -0.4284 -0.3588
  633MPD2    C5 9374   0.732   2.914  17.673  0.2083  0.3067  0.0191
  633MPD2     H 9375   0.954   2.689  17.469  0.3989 -0.9482 -0.6098
  633MPD2    H1 9376   0.715   2.775   0.126 -0.0534  1.2373 -0.5747
  633MPD2    H2 9377   0.752   3.049  17.507  1.2912  0.1084 -0.7976
  633MPD2    H3 9378   0.673   2.985   0.033  0.0222  1.4189 -1.5553
  633MPD2     N 9379   0.868   2.576   0.020 -0.1216  0.4604 -0.6238
  633MPD2    H5 9380   0.808   2.549   0.098  1.0231 -1.7074 -0.5001
  633MPD2    N1 9381   0.922   2.911  17.361 -0.1805 -0.7594 -0.0241
  633MPD2    H7 9382   0.985   2.847  17.313 -1.0736 -0.8575 -1.0655
  634TMC3    C1 9383   0.942   3.011  17.159  0.0886 -0.5318 -0.0031
  634TMC3    C2 9384   0.972   2.889  17.108 -0.1589 -0.3077 -0.2823
  634TMC3    C3 9385   1.041   2.892  16.984  0.3798  0.7603  0.0026
  634TMC3    C4 9386   0.957   3.128  17.087 -0.3505 -0.9092  0.3501
  634TMC3    C5 9387   1.018   3.121  16.967 -0.4227  0.8347 -0.0437
  634TMC3    C6 9388   1.056   3.001  16.910 -0.3705  0.0048 -0.2261
  634TMC3     C 9389   0.895   3.025  17.290 -1.1793  0.1635  0.1974
  634TMC3     O 9390   0.846   3.126  17.330 -0.1681  0.5275  0.4144
  634TMC3     H 9391   0.951   2.794  17.157  1.7550 -0.9185 -0.6630
  634TMC3    H1 9392   0.949   3.220  17.143  0.3362  0.8009 -2.3482
  634TMC3    H2 9393   1.110   3.008  16.817  1.1074 -1.7420  0.5013
  634TMC3    C7 9394   0.998   3.227  16.869  0.0719  0.0481  0.1602
  634TMC3    C8 9395   1.026   2.762  16.910 -0.7230  0.1222  0.0287
  634TMC3    O1 9396   1.044   3.216  16.755 -0.1077 -0.0333 -0.3612
  634TMC3    O2 9397   0.978   2.663  16.963  0.0236 -0.2607 -0.4044
  635TMC3    C1 9398   1.803   3.756  17.319 -1.1482 -0.4291  0.3956
  635TMC3    C2 9399   1.830   3.620  17.289  0.2253 -0.5185 -0.0342
  635TMC3    C3 9400   1.770   3.555  17.183  0.3839  0.4079  0.1926
  635TMC3    C4 9401   1.709   3.821  17.249 -0.3997 -0.1630 -0.3328
  635TMC3    C5 9402   1.643   3.756  17.144 -0.1165  0.1711 -0.0084
  635TMC3    C6 9403   1.672   3.621  17.112  0.6987  0.5400  0.3475
  635TMC3     C 9404   1.827   3.803  17.458 -1.1794  0.1924 -0.9053
  635TMC3     O 9405   1.731   3.862  17.503  0.9909  0.3393  0.1955
  635TMC3     H 9406   1.908   3.570  17.345  0.1399 -0.2684  0.3051
  635TMC3    H1 9407   1.677   3.920  17.279 -0.6486  0.0803 -1.4197
  635TMC3    H2 9408   1.647   3.574  17.018  0.1566 -1.3011  1.4197
  635TMC3    C7 9409   1.532   3.821  17.072 -0.5925 -0.0353 -0.3970
  635TMC3    C8 9410   1.737   3.411  17.206 -0.2265 -0.2963 -0.1423
  635TMC3    O1 9411   1.446   3.747  17.027  0.1973  1.3530 -0.1515
  635TMC3    O2 9412   1.615   3.386  17.217  0.4202  0.0346  0.0498
  636MPD2     C 9413   2.080   2.601  16.072  0.3236  0.1325 -0.3804
  636MPD2    C1 9414   2.131   2.635  16.197  0.2031 -0.1840 -0.0914
  636MPD2    C2 9415   2.143   2.531  16.291  0.2159 -0.9840  0.3820
  636MPD2    C3 9416   2.112   2.400  16.252 -0.0647 -0.1541 -0.0012
  636MPD2    C4 9417   2.067   2.374  16.125 -0.2803 -0.6465  0.1225
  636MPD2    C5 9418   2.043   2.479  16.037  0.4955 -0.1279  0.2956
  636MPD2     H 9419   2.169   2.551  16.395  0.5959  0.6710 -0.0224
  636MPD2    H1 9420   2.040   2.273  16.097 -0.4359 -0.1092 -1.6395
  636MPD2    H2 9421   2.069   2.681  15.999  0.8253  0.7503  0.2263
  636MPD2    H3 9422   2.011   2.456  15.936  0.6208 -0.0437  0.2365
  636MPD2     N 9423   2.153   2.295  16.345  0.0247 -0.2867 -0.3451
  636MPD2    H5 9424   2.203   2.323  16.428  0.7448 -2.5440 -0.0118
  636MPD2    N1 9425   2.184   2.763  16.233  0.0583  0.3498 -0.3212
  636MPD2    H7 9426   2.235   2.769  16.321 -0.6738  0.2474  0.1122
  637TMC3    C1 9427   2.213   2.083  16.421  0.1459  0.5883 -0.0490
  637TMC3    C2 9428   2.225   2.139  16.546  0.1218  0.0927  0.2862
  637TMC3    C3 9429   2.323   2.093  16.626  0.5585  0.0673  0.0551
  637TMC3    C4 9430   2.299   1.983  16.379 -0.0073 -0.8822 -0.1167
  637TMC3    C5 9431   2.400   1.943  16.461 -1.0999 -0.2146  0.0988
  637TMC3    C6 9432   2.404   1.988  16.592  0.0987  0.4128 -0.6800
  637TMC3     C 9433   2.146   2.157  16.319 -0.6572  0.6700 -0.2537
  637TMC3     O 9434   2.101   2.088  16.227 -0.4655  0.0013 -0.1558
  637TMC3     H 9435   2.157   2.216  16.583  0.4385  0.4978  0.0140
  637TMC3    H1 9436   2.282   1.950  16.277 -1.1381  1.2933 -0.6385
  637TMC3    H2 9437   2.482   1.943  16.652 -2.5167 -1.4560  1.3237
  637TMC3    C7 9438   2.532   1.929  16.402 -0.3753  0.2360  0.4552
  637TMC3    C8 9439   2.383   2.201  16.689 -0.8167  0.2045  0.3815
  637TMC3    O1 9440   2.627   1.957  16.475  0.2295 -0.0497 -0.1999
  637TMC3    O2 9441   2.357   2.314  16.647 -0.9092 -0.2985 -0.4312
  638MPD2     C 9442   2.292   1.681  15.005 -0.8801  0.3766  0.4949
  638MPD2    C1 9443   2.240   1.575  14.940  0.0798 -0.3562 -0.3640
  638MPD2    C2 9444   2.142   1.498  14.998 -0.0613 -0.0912  0.5207
  638MPD2    C3 9445   2.100   1.517  15.127 -0.2382  0.5228  0.4614
  638MPD2    C4 9446   2.157   1.628  15.189 -0.4374  0.5108  0.7764
  638MPD2    C5 9447   2.238   1.718  15.122  0.6143 -0.0513 -0.1205
  638MPD2     H 9448   2.097   1.407  14.961 -0.8276  1.5940 -2.7077
  638MPD2    H1 9449   2.123   1.656  15.288 -0.2828  1.3113  0.5994
  638MPD2    H2 9450   2.365   1.738  14.948  1.2913 -1.1778  1.6777
  638MPD2    H3 9451   2.288   1.800  15.173  0.0853  1.5717 -2.2339
  638MPD2     N 9452   2.011   1.430  15.183 -0.2687  0.7759  0.2747
  638MPD2    H5 9453   1.988   1.354  15.120 -1.9822  3.2142 -2.0072
  638MPD2    N1 9454   2.283   1.545  14.807  0.4635  0.1921 -0.4421
  638MPD2    H7 9455   2.340   1.620  14.770  1.2144  0.1015  0.5221
  639TMC3    C1 9456   1.893   1.314  15.347  0.2805 -0.2720  0.1301
  639TMC3    C2 9457   1.791   1.278  15.268 -0.5140  0.1042 -0.7509
  639TMC3    C3 9458   1.700   1.189  15.313  0.0618 -0.9083 -0.5369
  639TMC3    C4 9459   1.916   1.255  15.465 -0.4546 -0.3834 -0.4406
  639TMC3    C5 9460   1.821   1.163  15.510 -0.1523 -0.2836  0.1591
  639TMC3    C6 9461   1.716   1.128  15.431  0.4422 -0.5413 -0.0599
  639TMC3     C 9462   1.972   1.429  15.315 -0.0330  0.1105  0.0909
  639TMC3     O 9463   2.035   1.489  15.401 -0.3031 -0.0070 -0.7052
  639TMC3     H 9464   1.761   1.327  15.176  1.3123  1.0395 -0.8475
  639TMC3    H1 9465   1.991   1.294  15.533 -2.2389 -0.5168  1.6004
  639TMC3    H2 9466   1.645   1.056  15.472 -1.0098  0.4756 -0.7896
  639TMC3    C7 9467   1.879   1.052  15.579 -0.3335 -0.4917  0.5839
  639TMC3    C8 9468   1.655   1.102  15.204  0.4934  0.3378  0.0735
  639TMC3    O1 9469   1.801   0.985  15.646 -0.1491  0.1670  0.3649
  639TMC3    O2 9470   1.718   1.106  15.099  0.3155  0.0728  0.0203
  640MPD2     C 9471   2.657   4.548  10.077  0.0817 -0.0779 -0.2316
  640MPD2    C1 9472   2.686   4.679  10.055 -0.6196 -0.0064  0.7689
  640MPD2    C2 9473   2.629   0.054  10.139 -0.0581 -0.0183  0.2306
  640MPD2    C3 9474   2.548   0.010  10.244  0.5570 -0.0918 -0.6381
  640MPD2    C4 9475   2.533   4.598  10.264  0.0249 -0.5973 -0.1337
  640MPD2    C5 9476   2.582   4.510  10.180  0.0081 -1.2733 -0.1227
  640MPD2     H 9477   2.665   0.156  10.130 -0.7299 -0.0493 -2.7287
  640MPD2    H1 9478   2.473   4.568  10.348 -0.7143 -0.5471 -0.6470
  640MPD2    H2 9479   2.706   4.481  10.008 -2.5534 -1.0933 -1.1109
  640MPD2    H3 9480   2.575   4.402  10.191 -1.4100 -1.2200 -0.5620
  640MPD2     N 9481   2.479   0.091  10.335  0.1679  0.1575 -0.3330
  640MPD2    H5 9482   2.431   0.051  10.415  0.5261  0.4928  0.0494
  640MPD2    N1 9483   2.779   4.710   9.948 -0.1730 -0.5412 -0.5934
  640MPD2    H7 9484   2.820   4.636   9.893 -0.3632  0.0596 -1.5433
  641TMC3    C1 9485   2.941   0.127   9.840  0.1707 -0.0517 -0.9346
  641TMC3    C2 9486   3.035   0.029   9.845 -0.0566  0.9347 -0.3840
  641TMC3    C3 9487   3.149   0.051   9.778 -0.5265  0.1005  0.4257
  641TMC3    C4 9488   2.958   0.243   9.767 -0.1321 -0.7821 -0.8817
  641TMC3    C5 9489   3.077   0.264   9.702 -0.0272 -0.3904 -0.0896
  641TMC3    C6 9490   3.169   0.161   9.708  0.3709  0.6168  0.1844
  641TMC3     C 9491   2.818   0.115   9.916  1.1456 -0.1953  0.1692
  641TMC3     O 9492   2.755   0.222   9.936  0.6977  0.1333 -0.1374
  641TMC3     H 9493   3.020   4.666   9.908 -0.8901 -0.0406 -1.9376
  641TMC3    H1 9494   2.875   0.311   9.764  0.7642  0.3502  0.1196
  641TMC3    H2 9495   3.251   0.166   9.637 -1.6367  2.1845 -2.0334
  641TMC3    C7 9496   3.080   0.370   9.606 -1.1795 -0.5265  1.0262
  641TMC3    C8 9497   3.256   4.677   9.785 -0.0441  0.2259 -0.3442
  641TMC3    O1 9498   2.973   0.430   9.583 -0.1702  0.8189 -0.0557
  641TMC3    O2 9499   3.340   4.661   9.696 -0.5526 -0.0266  0.2621
  642TMC3    C1 9500   4.139   1.683  12.244  0.5199 -0.0858  0.1967
  642TMC3    C2 9501   4.207   1.669  12.360  0.0631  0.5985 -0.3834
  642TMC3    C3 9502   4.258   1.544  12.386  0.0342 -0.0328  0.3799
  642TMC3    C4 9503   4.118   1.574  12.163  0.0678 -0.3042 -0.3692
  642TMC3    C5 9504   4.163   1.451  12.197 -1.1460  0.3047 -0.8610
  642TMC3    C6 9505   4.227   1.433  12.317 -0.4560 -0.2032 -0.5241
  642TMC3     C 9506   4.016   1.751  12.267 -0.6150 -0.4147 -0.1683
  642TMC3     O 9507   3.911   1.684  12.290  0.6008 -0.2308  0.2767
  642TMC3     H 9508   4.221   1.751  12.430 -2.0683  0.4248  0.2597
  642TMC3    H1 9509   4.055   1.587  12.076 -0.6140  2.8916  0.5888
  642TMC3    H2 9510   4.275   1.339  12.343 -0.4146  0.4827  1.8543
  642TMC3    C7 9511   4.060   1.351  12.161 -0.1961  0.3660  0.0943
  642TMC3    C8 9512   4.289   1.525  12.529 -0.8624 -0.2680  0.5868
  642TMC3    O1 9513   3.993   1.368  12.060  0.0502  0.1778  0.2242
  642TMC3    O2 9514   4.246   1.413  12.562 -0.1856  0.3097  0.4705
  643TMC3    C1 9515   2.961   0.859   0.736 -0.1985 -0.6679  0.0244
  643TMC3    C2 9516   2.833   0.911   0.720 -0.3218  0.5591 -0.5581
  643TMC3    C3 9517   2.785   0.899   0.592  0.0016 -1.3625 -0.1603
  643TMC3    C4 9518   3.036   0.817   0.636  0.2563  0.1938 -0.1870
  643TMC3    C5 9519   2.984   0.811   0.505 -0.0860 -0.3841  0.1712
  643TMC3    C6 9520   2.860   0.859   0.487  0.1714 -0.4527 -0.1428
  643TMC3     C 9521   3.013   0.876   0.876  0.4790 -0.8295  0.6701
  643TMC3     O 9522   2.927   0.877   0.961 -0.2343 -0.1532 -0.0839
  643TMC3     H 9523   2.767   0.928   0.805  0.6912 -0.4265  0.4357
  643TMC3    H1 9524   3.140   0.795   0.655  0.5310  3.8951  2.7249
  643TMC3    H2 9525   2.814   0.865   0.389  2.8714 -0.6328 -1.4178
  643TMC3    C7 9526   3.069   0.840   0.389 -0.3335 -0.1192 -0.2154
  643TMC3    C8 9527   2.659   0.971   0.561 -1.1335  0.6972 -0.4989
  643TMC3    O1 9528   3.010   0.827   0.282 -1.1248 -0.1470 -0.3646
  643TMC3    O2 9529   2.561   0.965   0.634  0.1325 -0.1849  0.7106
  644MPD2     C 9530   3.355   1.282   9.330  0.5871  0.3474  0.3778
  644MPD2    C1 9531   3.303   1.231   9.444 -0.2783  0.0199 -0.7053
  644MPD2    C2 9532   3.177   1.274   9.484 -0.2405 -0.0662  0.0788
  644MPD2    C3 9533   3.108   1.371   9.415 -0.0452 -0.1763  0.8277
  644MPD2    C4 9534   3.170   1.436   9.310  0.5769  0.2352  0.1638
  644MPD2    C5 9535   3.298   1.394   9.269  0.3002 -0.1150  0.3413
  644MPD2     H 9536   3.135   1.231   9.574  0.1949  2.2388  1.3952
  644MPD2    H1 9537   3.133   1.518   9.249  0.6759  0.6295  0.6347
  644MPD2    H2 9538   3.454   1.253   9.297 -1.0661 -1.5709 -2.7764
  644MPD2    H3 9539   3.347   1.432   9.181 -1.7461 -0.2082 -0.8294
  644MPD2     N 9540   2.972   1.407   9.452 -0.0865 -0.4657 -0.1300
  644MPD2    H5 9541   2.929   1.367   9.535 -0.2250 -1.2370 -0.5771
  644MPD2    N1 9542   3.376   1.129   9.510 -0.3873 -0.3088 -0.2769
  644MPD2    H7 9543   3.466   1.107   9.468  0.2561  1.6829  0.0959
  645TMC3    C1 9544   2.767   1.528   9.472  0.8627  0.2091  0.8892
  645TMC3    C2 9545   2.762   1.647   9.540 -1.0708 -0.2321  0.0300
  645TMC3    C3 9546   2.666   1.653   9.640 -0.7479 -0.5440 -0.3620
  645TMC3    C4 9547   2.701   1.414   9.519 -0.5663 -0.0572  0.4131
  645TMC3    C5 9548   2.598   1.427   9.615 -0.1341 -0.0738 -0.4770
  645TMC3    C6 9549   2.586   1.548   9.681  0.0202 -0.0440 -0.4751
  645TMC3     C 9550   2.895   1.502   9.393  0.6493  0.2576  0.8724
  645TMC3     O 9551   2.925   1.583   9.308  0.4363 -0.3294  0.4530
  645TMC3     H 9552   2.833   1.727   9.521 -1.1248 -1.1115 -3.8542
  645TMC3    H1 9553   2.721   1.322   9.465 -0.4607 -0.9472  1.9869
  645TMC3    H2 9554   2.523   1.562   9.768 -0.9156  1.0318 -1.3315
  645TMC3    C7 9555   2.508   1.312   9.650  0.7282 -0.5865 -0.0911
  645TMC3    C8 9556   2.651   1.772   9.718 -0.1458 -0.3520 -0.3728
  645TMC3    O1 9557   2.427   1.337   9.737  0.5003 -0.4410 -0.9341
  645TMC3    O2 9558   2.618   1.759   9.837 -0.5467 -0.7291  0.5038
  646MPD2     C 9559   2.157   0.358  14.599  0.3389 -0.2872  0.0573
  646MPD2    C1 9560   2.077   0.355  14.711  0.4923  0.0938  0.7546
  646MPD2    C2 9561   1.957   0.427  14.708  0.2841  0.1983  0.2065
  646MPD2    C3 9562   1.925   0.504  14.591  0.2855 -0.1912 -0.4402
  646MPD2    C4 9563   2.012   0.512  14.488 -0.2684 -0.1921 -0.3219
  646MPD2    C5 9564   2.132   0.441  14.496  0.8845 -0.3187  0.2507
  646MPD2     H 9565   1.888   0.419  14.792 -0.0142  1.0914  0.0525
  646MPD2    H1 9566   1.997   0.581  14.405 -0.4860  0.0755 -0.0571
  646MPD2    H2 9567   2.246   0.297  14.593 -1.9080 -3.6580  0.8837
  646MPD2    H3 9568   2.199   0.443  14.411 -0.4305 -1.5610 -0.8222
  646MPD2     N 9569   1.791   0.555  14.589  0.6354 -0.1141  0.7239
  646MPD2    H5 9570   1.736   0.544  14.674  0.5493 -0.1098  0.6683
  646MPD2    N1 9571   2.115   0.271  14.819 -0.1429 -0.5053  0.3614
  646MPD2    H7 9572   2.186   0.203  14.792  0.2704 -0.3827  1.1394
  647TMC3    C1 9573   2.130   0.198  15.048 -0.1248 -0.7506 -0.0656
  647TMC3    C2 9574   2.054   0.149  15.151  0.6311 -0.6158 -0.0874
  647TMC3    C3 9575   2.108   0.055  15.227  0.4664  1.2641 -0.0653
  647TMC3    C4 9576   2.258   0.160  15.022 -0.1993  1.1319  0.1556
  647TMC3    C5 9577   2.315   0.083  15.118 -0.4401  0.3327  0.1780
  647TMC3    C6 9578   2.246   0.032  15.222  0.4001 -0.0402  0.1923
  647TMC3     C 9579   2.052   0.269  14.945  0.2334 -0.3142 -0.4910
  647TMC3     O 9580   1.956   0.331  14.983 -0.1246  0.4236  0.4645
  647TMC3     H 9581   1.953   0.187  15.160  0.6283 -0.2926 -1.4514
  647TMC3    H1 9582   2.323   0.203  14.947 -0.0430  2.8891  1.2926
  647TMC3    H2 9583   2.302   4.703  15.298 -1.1513  0.7738  1.9036
  647TMC3    C7 9584   2.451   0.030  15.112  0.5703 -0.2353 -0.3810
  647TMC3    C8 9585   2.038   0.002  15.343 -0.0839 -0.4008 -0.1132
  647TMC3    O1 9586   2.508   4.720  15.213  0.3422  0.0698  0.0504
  647TMC3    O2 9587   1.949   0.070  15.395  0.2124  0.3911 -0.0776
  648TMC3    C1 9588   1.484   2.710  16.318  0.5274 -0.0245 -0.2764
  648TMC3    C2 9589   1.533   2.587  16.286 -0.5835 -0.6345  0.5782
  648TMC3    C3 9590   1.527   2.554  16.156  0.2520 -0.9315 -0.8027
  648TMC3    C4 9591   1.435   2.799  16.221  0.1522  0.0266  0.9756
  648TMC3    C5 9592   1.432   2.753  16.087  0.5625 -0.0617 -0.1168
  648TMC3    C6 9593   1.491   2.636  16.055  0.7661  0.2784 -0.0275
  648TMC3     C 9594   1.464   2.752  16.457  0.4836 -0.2705 -0.1030
  648TMC3     O 9595   1.409   2.859  16.463  0.0494  0.3019  0.0423
  648TMC3     H 9596   1.591   2.532  16.358  0.0965  0.0176  0.5308
  648TMC3    H1 9597   1.410   2.900  16.250 -0.2242 -0.1526  1.2624
  648TMC3    H2 9598   1.495   2.603  15.952  1.1385 -0.9732  0.3839
  648TMC3    C7 9599   1.403   2.851  15.979 -0.2305  0.6743  0.2570
  648TMC3    C8 9600   1.581   2.424  16.111  0.9582  0.2338 -0.4990
  648TMC3    O1 9601   1.439   2.821  15.866  0.0300  0.4714 -0.6706
  648TMC3    O2 9602   1.590   2.399  15.993  0.4829  0.3624  0.1172
  649TMC3    C1 9603   0.361   3.768  12.775 -0.8131  0.2085 -0.2888
  649TMC3    C2 9604   0.497   3.750  12.746 -0.1139  0.0651  0.1362
  649TMC3    C3 9605   0.576   3.684  12.837  0.3982 -0.0530  0.5696
  649TMC3    C4 9606   0.312   3.725  12.895 -0.5658 -0.1533  0.0115
  649TMC3    C5 9607   0.389   3.648  12.973  0.2432  0.3558 -0.1652
  649TMC3    C6 9608   0.520   3.617  12.947  0.2894 -0.4215  0.0455
  649TMC3     C 9609   0.273   3.835  12.683  0.6439  1.1537  0.0513
  649TMC3     O 9610   0.176   3.890  12.734 -0.2621  0.2564 -0.1813
  649TMC3     H 9611   0.534   3.779  12.648  0.3872  1.3817  0.7136
  649TMC3    H1 9612   0.216   3.756  12.937  0.4149  0.4648  1.7954
  649TMC3    H2 9613   0.588   3.574  13.020 -1.4045 -0.4551  1.6058
  649TMC3    C7 9614   0.337   3.608  13.101 -0.1901  0.0520  0.1948
  649TMC3    C8 9615   0.722   3.671  12.811  0.5569  0.1979 -0.1438
  649TMC3    O1 9616   0.255   3.674  13.157 -0.1653 -0.3358 -0.3227
  649TMC3    O2 9617   0.790   3.599  12.882  0.0257 -0.0409 -0.0585
  650TMC3    C1 9618   3.309   0.712  12.773  0.3253 -0.6138 -0.0910
  650TMC3    C2 9619   3.302   0.849  12.749 -0.0285 -0.0440  0.6458
  650TMC3    C3 9620   3.185   0.902  12.712 -0.1825 -0.0744 -0.7919
  650TMC3    C4 9621   3.199   0.631  12.742  0.2388 -0.0256  0.6052
  650TMC3    C5 9622   3.077   0.690  12.698 -0.3315 -0.3908 -0.0011
  650TMC3    C6 9623   3.070   0.830  12.679  0.2461 -0.1060  0.2678
  650TMC3     C 9624   3.445   0.657  12.781  0.8913 -0.8032  0.3960
  650TMC3     O 9625   3.539   0.729  12.808  0.0505  0.3763 -0.4641
  650TMC3     H 9626   3.390   0.910  12.743 -1.8510  2.3548 -1.7185
  650TMC3    H1 9627   3.195   0.524  12.758 -0.3122 -0.6367 -3.6566
  650TMC3    H2 9628   2.979   0.876  12.640 -1.0779 -3.4565 -0.5728
  650TMC3    C7 9629   2.992   0.603  12.621  0.2832 -0.1078  0.6697
  650TMC3    C8 9630   3.189   1.047  12.697  0.1647  0.3611 -0.2509
  650TMC3    O1 9631   3.001   0.486  12.654 -0.5130  0.4750 -0.9053
  650TMC3    O2 9632   3.292   1.107  12.674  0.0698  0.0139  0.5868
  651MPD2     C 9633   2.222   2.422  11.079 -0.2542 -0.5082 -0.4982
  651MPD2    C1 9634   2.170   2.528  11.004 -0.0873 -0.2001  0.4283
  651MPD2    C2 9635   2.259   2.614  10.945 -0.2653  0.4611 -0.4363
  651MPD2    C3 9636   2.393   2.614  10.975  0.4182 -0.6276  0.0324
  651MPD2    C4 9637   2.443   2.499  11.041  0.1515  0.5774 -0.5469
  651MPD2    C5 9638   2.354   2.408  11.093 -0.0315 -0.1017  0.2000
  651MPD2     H 9639   2.218   2.703  10.898 -0.1226  0.0530 -1.3360
  651MPD2    H1 9640   2.549   2.482  11.055 -0.0109  1.1452  1.3089
  651MPD2    H2 9641   2.158   2.346  11.124 -2.4822  2.0983  0.7479
  651MPD2    H3 9642   2.396   2.324  11.147 -1.2707 -1.7321 -1.3740
  651MPD2     N 9643   2.483   2.717  10.923  0.3082 -0.1398 -0.1900
  651MPD2    H5 9644   2.444   2.800  10.880  3.1091  1.4669  0.3594
  651MPD2    N1 9645   2.036   2.562  10.987  0.1763 -0.1494 -0.1074
  651MPD2    H7 9646   2.014   2.638  10.923  1.8192 -0.7568 -1.4083
  652TMC3    C1 9647   2.878   2.983  10.849  0.0609  0.5796  0.3383
  652TMC3    C2 9648   2.820   2.860  10.887 -0.0513 -0.0561  0.3168
  652TMC3    C3 9649   2.684   2.845  10.886 -0.1959 -0.2468  0.5855
  652TMC3    C4 9650   2.805   3.086  10.805 -0.4058  0.1053 -0.2457
  652TMC3    C5 9651   2.669   3.061  10.809 -0.0421 -0.5029  0.9879
  652TMC3    C6 9652   2.604   2.949  10.853 -0.0605 -0.1278 -0.0311
  652TMC3     C 9653   3.016   2.999  10.903  0.1124 -1.2774 -0.1379
  652TMC3     O 9654   3.044   2.948  11.013  0.2071 -0.0862  0.4141
  652TMC3     H 9655   2.880   2.781  10.930 -1.6269 -1.2242  0.3852
  652TMC3    H1 9656   2.852   3.177  10.769  1.4975 -1.1890 -0.9698
  652TMC3    H2 9657   2.497   2.942  10.838 -0.6010  1.8674  2.9015
  652TMC3    C7 9658   2.579   3.184  10.810 -0.2034  0.4574  0.0955
  652TMC3    C8 9659   2.622   2.721  10.934 -0.2416  0.4067  0.5620
  652TMC3    O1 9660   2.461   3.162  10.840 -0.0889 -0.1608  0.2119
  652TMC3    O2 9661   2.697   2.632  10.963  0.1971 -0.4910  0.2717
  653MPD2     C 9662   0.416   3.023  17.505  0.3090  0.5333  0.0337
  653MPD2    C1 9663   0.391   3.112  17.403  0.3245 -0.5520 -0.6817
  653MPD2    C2 9664   0.363   3.067  17.279 -0.3743 -0.1763 -0.4042
  653MPD2    C3 9665   0.362   2.931  17.245 -0.3007  0.9695 -0.4691
  653MPD2    C4 9666   0.384   2.836  17.346 -0.6956 -1.2965  0.3899
  653MPD2    C5 9667   0.415   2.888  17.475  0.6842 -0.2242  0.4496
  653MPD2     H 9668   0.321   3.141  17.211  0.4805 -0.0020 -0.7469
  653MPD2    H1 9669   0.363   2.730  17.339 -0.8489 -1.1678 -1.0435
  653MPD2    H2 9670   0.424   3.049  17.610  0.1867 -1.3951  0.5285
  653MPD2    H3 9671   0.428   2.818  17.557 -1.7327 -1.8014 -0.5217
  653MPD2     N 9672   0.324   2.887  17.115  0.6146  0.7308  0.0067
  653MPD2    H5 9673   0.279   2.949  17.049  1.0009  2.5957  1.5041
  653MPD2    N1 9674   0.379   3.250  17.427 -0.0810  0.1004  0.3868
  653MPD2    H7 9675   0.369   3.305  17.342 -3.8835  1.4246  1.7069
  654TMC3    C1 9676   0.278   2.719  16.941  0.0284 -0.1062  0.7346
  654TMC3    C2 9677   0.161   2.781  16.904  0.3004  0.2379  0.0850
  654TMC3    C3 9678   0.096   2.739  16.795  0.5543  0.0065  0.0488
  654TMC3    C4 9679   0.324   2.617  16.875  0.6101 -0.0930 -0.0832
  654TMC3    C5 9680   0.254   2.571  16.770 -0.3890 -0.3384 -0.3509
  654TMC3    C6 9681   0.131   2.625  16.726 -0.5713  0.0940 -0.1090
  654TMC3     C 9682   0.344   2.755  17.064 -0.5686  0.3479 -0.2532
  654TMC3     O 9683   0.411   2.667  17.118  0.3255  0.5966 -0.4046
  654TMC3     H 9684   0.129   2.867  16.961  1.6638 -0.9288  2.6206
  654TMC3    H1 9685   0.410   2.562  16.912 -1.8266 -2.7873  1.6163
  654TMC3    H2 9686   0.098   2.609  16.624  0.2854  2.7959 -0.8313
  654TMC3    C7 9687   0.308   2.457  16.707 -0.3128 -0.3179  0.1082
  654TMC3    C8 9688   4.678   2.772  16.794  0.2947 -0.1414  0.1165
  654TMC3    O1 9689   0.303   2.453  16.585  0.5029 -0.6598  0.1327
  654TMC3    O2 9690   4.642   2.881  16.840 -0.1641 -0.1076 -0.0428
  655MPD2     C 9691   1.819   2.612  15.814 -0.0555 -0.0143 -0.1733
  655MPD2    C1 9692   1.838   2.724  15.737  0.3873  0.1336 -0.8461
  655MPD2    C2 9693   1.859   2.710  15.599  0.0444 -0.3937  0.3143
  655MPD2    C3 9694   1.860   2.582  15.545 -0.0671 -0.6451  0.3690
  655MPD2    C4 9695   1.845   2.466  15.623  0.3794  0.4393  0.0593
  655MPD2    C5 9696   1.822   2.485  15.753 -0.3222 -0.0341 -0.6754
  655MPD2     H 9697   1.850   2.797  15.535  1.3940  0.8355  1.8317
  655MPD2    H1 9698   1.849   2.370  15.574  0.4120  1.0026 -1.0336
  655MPD2    H2 9699   1.795   2.612  15.920  0.6928 -0.1916 -0.0026
  655MPD2    H3 9700   1.796   2.400  15.815  0.0309  0.0446 -0.4116
  655MPD2     N 9701   1.888   2.552  15.407 -0.0938 -0.3877  0.6501
  655MPD2    H5 9702   1.896   2.455  15.378 -1.1905 -0.8561  1.8958
  655MPD2    N1 9703   1.836   2.853  15.789 -0.2108  0.0824  0.3033
  655MPD2    H7 9704   1.842   2.922  15.715 -0.5123 -1.1549 -0.8618
  656TMC3    C1 9705   1.807   3.042  15.933  0.8801  0.4274  0.4278
  656TMC3    C2 9706   1.736   3.076  16.045 -0.4583  0.1518 -0.7729
  656TMC3    C3 9707   1.673   3.191  16.061  0.2961 -0.0568  0.3142
  656TMC3    C4 9708   1.801   3.133  15.827 -0.8112 -0.6699  0.2799
  656TMC3    C5 9709   1.727   3.246  15.840 -0.1240  0.4588 -0.0022
  656TMC3    C6 9710   1.656   3.275  15.952 -0.2056  0.7125 -0.5656
  656TMC3     C 9711   1.828   2.899  15.921  1.0083 -0.5904 -0.6227
  656TMC3     O 9712   1.800   2.830  16.018 -0.3275  0.3864 -0.4074
  656TMC3     H 9713   1.743   3.014  16.134  1.3076  0.9008 -0.3825
  656TMC3    H1 9714   1.846   3.117  15.730 -0.3691 -3.2000  0.9074
  656TMC3    H2 9715   1.598   3.366  15.962 -0.4140  0.6104 -0.8479
  656TMC3    C7 9716   1.690   3.311  15.714  1.6322  0.0009  0.7168
  656TMC3    C8 9717   1.593   3.203  16.186 -0.0450 -0.3013 -1.0175
  656TMC3    O1 9718   1.730   3.255  15.619  0.6257  0.3617  0.1717
  656TMC3    O2 9719   1.564   3.099  16.247  0.0979 -0.5185 -0.3477
  657TMC3    C1 9720   0.834   2.161  14.770 -0.1669 -0.4845 -0.0594
  657TMC3    C2 9721   0.908   2.189  14.879 -0.2288  0.5895 -0.1747
  657TMC3    C3 9722   0.876   2.294  14.957  0.1710 -0.9678  0.2461
  657TMC3    C4 9723   0.743   2.254  14.719 -0.2209 -0.3235  0.0034
  657TMC3    C5 9724   0.718   2.355  14.802  0.8128 -0.3689  0.2524
  657TMC3    C6 9725   0.766   2.364  14.931 -0.5053 -0.3026 -0.8104
  657TMC3     C 9726   0.877   2.063  14.670  1.2623  0.3289 -0.2065
  657TMC3     O 9727   0.865   2.101  14.553 -0.7648  0.1010  0.3675
  657TMC3     H 9728   0.998   2.136  14.908  1.5145  1.5323 -3.8208
  657TMC3    H1 9729   0.711   2.259  14.615 -0.8942 -0.5265  0.2019
  657TMC3    H2 9730   0.749   2.454  14.989 -0.7337  0.6179 -2.2979
  657TMC3    C7 9731   0.602   2.443  14.775 -0.5422 -0.0363 -0.5516
  657TMC3    C8 9732   0.931   2.315  15.091 -0.4283  0.0271 -0.3615
  657TMC3    O1 9733   0.549   2.503  14.867  0.4118  0.3560  0.0644
  657TMC3    O2 9734   1.042   2.271  15.105 -0.1912  0.3344 -0.0463
  658MPD2     C 9735   2.399   2.977  14.985 -0.2369 -0.2031 -0.3060
  658MPD2    C1 9736   2.308   2.905  14.908  0.2349  0.0656  0.1145
  658MPD2    C2 9737   2.251   2.965  14.793 -0.1791 -0.9699  0.1381
  658MPD2    C3 9738   2.293   3.090  14.751 -0.6731 -0.3612  0.4068
  658MPD2    C4 9739   2.384   3.159  14.823 -0.2072 -0.3944  0.0408
  658MPD2    C5 9740   2.436   3.096  14.937  0.6449 -0.2410 -0.1547
  658MPD2     H 9741   2.177   2.924  14.725 -1.7176  0.7334  0.7910
  658MPD2    H1 9742   2.415   3.260  14.800 -0.1094  0.0671  2.2767
  658MPD2    H2 9743   2.442   2.935  15.075  0.1638 -2.9515 -1.7988
  658MPD2    H3 9744   2.510   3.144  14.998  1.2007  0.6046 -1.4980
  658MPD2     N 9745   2.234   3.139  14.637 -0.0526 -0.0307  0.0531
  658MPD2    H5 9746   2.156   3.085  14.602 -1.0034  1.3166  0.0917
  658MPD2    N1 9747   2.260   2.781  14.953 -0.4403 -0.3771 -0.4449
  658MPD2    H7 9748   2.283   2.762  15.050 -0.1307 -1.0240 -0.6440
  659TMC3    C1 9749   2.091   2.601  14.988  0.1631  0.4170  1.0453
  659TMC3    C2 9750   2.064   2.640  15.110 -0.5138  0.2022 -0.4881
  659TMC3    C3 9751   1.964   2.584  15.183 -0.5890 -0.5057 -0.4729
  659TMC3    C4 9752   2.010   2.503  14.931 -0.5839 -1.0722 -0.2393
  659TMC3    C5 9753   1.914   2.441  15.013 -0.1875  0.0097  0.6703
  659TMC3    C6 9754   1.887   2.484  15.133  0.3122  0.5272 -0.4097
  659TMC3     C 9755   2.170   2.694  14.894  0.5839 -0.5281 -0.2971
  659TMC3     O 9756   2.114   2.693  14.782 -0.1352 -0.7300  0.4500
  659TMC3     H 9757   2.117   2.719  15.161 -0.4262 -1.2344  1.6697
  659TMC3    H1 9758   2.004   2.496  14.823  2.0034 -0.6235 -0.4088
  659TMC3    H2 9759   1.817   2.444  15.205 -1.9407  1.9092 -1.8228
  659TMC3    C7 9760   1.811   2.363  14.948 -0.1317 -0.2826  0.0566
  659TMC3    C8 9761   1.914   2.645  15.305  0.4504 -0.8698 -0.1446
  659TMC3    O1 9762   1.708   2.342  15.010 -0.8502  0.2583 -1.0190
  659TMC3    O2 9763   1.936   2.766  15.330  0.5253  0.7859  0.0847
  660MPD2     C 9764   0.335   0.838  12.789 -0.2987 -0.4562  0.5269
  660MPD2    C1 9765   0.229   0.931  12.787 -0.6951  0.5954 -0.6524
  660MPD2    C2 9766   0.161   0.948  12.904  0.1464 -0.3875  0.3198
  660MPD2    C3 9767   0.187   0.881  13.020 -0.3297  0.1398 -1.1551
  660MPD2    C4 9768   0.291   0.791  13.016 -0.7368  0.1990 -0.4211
  660MPD2    C5 9769   0.358   0.768  12.903 -0.9587  0.0105 -0.9789
  660MPD2     H 9770   0.075   1.014  12.903  0.4274 -0.0298 -1.8102
  660MPD2    H1 9771   0.327   0.743  13.107  0.9674  2.6671  0.1859
  660MPD2    H2 9772   0.405   0.829  12.707  0.3071  1.4098  0.8532
  660MPD2    H3 9773   0.444   0.703  12.909 -0.4161  0.9985  1.6435
  660MPD2     N 9774   0.133   0.904  13.148 -0.1934 -0.5365  0.2107
  660MPD2    H5 9775   0.170   0.841  13.220  1.1738 -0.7410 -0.6649
  660MPD2    N1 9776   0.195   0.999  12.663 -0.7263  0.3861 -0.5404
  660MPD2    H7 9777   0.249   0.977  12.580 -2.3112  0.2398 -1.5382
  661TMC3    C1 9778   0.097   1.146  12.503 -0.0309 -0.2620 -0.1484
  661TMC3    C2 9779   0.184   1.094  12.412  0.2826 -0.0371  0.6559
  661TMC3    C3 9780   0.179   1.136  12.283  0.1066  0.3513 -0.0666
  661TMC3    C4 9781   0.011   1.248  12.477 -0.0647 -0.1044 -0.4573
  661TMC3    C5 9782   0.022   1.298  12.345 -0.1723  0.1705  0.1094
  661TMC3    C6 9783   0.097   1.245  12.249  0.4998 -0.3848  0.4858
  661TMC3     C 9784   0.099   1.094  12.643  0.5162 -0.2473  0.4690
  661TMC3     O 9785   0.013   1.130  12.714  0.2393 -0.3755  0.1483
  661TMC3     H 9786   0.259   1.021  12.440 -0.0892 -2.0011 -3.3844
  661TMC3    H1 9787   4.682   1.296  12.559  0.7209 -2.7221  1.6003
  661TMC3    H2 9788   0.103   1.295  12.153 -1.6682 -0.6014  0.2285
  661TMC3    C7 9789   4.669   1.421  12.318  0.3374  0.1070  0.0492
  661TMC3    C8 9790   0.290   1.121  12.194  0.8066  0.1623 -0.0107
  661TMC3    O1 9791   4.644   1.498  12.413 -0.0641  0.3097 -0.2270
  661TMC3    O2 9792   0.258   1.107  12.078 -0.3381 -0.1707 -0.2458
  662MPD2     C 9793   0.624   1.097  17.432  0.4668  0.1334  0.3918
  662MPD2    C1 9794   0.490   1.119  17.422 -0.1567  0.6643 -0.0710
  662MPD2    C2 9795   0.430   1.201  17.515 -0.0893  0.3334 -0.4501
  662MPD2    C3 9796   0.508   1.239  17.619  0.5500  0.4964 -0.4443
  662MPD2    C4 9797   0.640   1.214  17.629  0.0860  0.0365 -0.1079
  662MPD2    C5 9798   0.702   1.143  17.529  0.0166 -0.8840  0.2058
  662MPD2     H 9799   0.325   1.227  17.517 -0.2244 -0.4461  1.5366
  662MPD2    H1 9800   0.704   1.258   0.008  0.8712 -1.2389 -0.0362
  662MPD2    H2 9801   0.669   1.032  17.358  0.9046  0.3488  0.4663
  662MPD2    H3 9802   0.809   1.132  17.524  0.1828  0.4703  0.9217
  662MPD2     N 9803   0.471   1.323   0.029  0.1930  0.3986 -0.4777
  662MPD2    H5 9804   0.542   1.390   0.057 -2.2314  1.9445  1.9386
  662MPD2    N1 9805   0.406   1.083  17.313 -0.2650  0.4128 -0.0754
  662MPD2    H7 9806   0.307   1.101  17.325 -0.5643 -0.7260 -0.8679
  663TMC3    C1 9807   0.341   0.994  17.105  0.1088  0.0117 -0.0171
  663TMC3    C2 9808   0.212   1.030  17.118  0.2596 -0.1715  0.0715
  663TMC3    C3 9809   0.121   0.988  17.026  0.1331  0.3641 -0.2103
  663TMC3    C4 9810   0.375   0.893  17.019 -0.1424 -0.1280  0.2506
  663TMC3    C5 9811   0.276   0.831  16.947 -0.0911  0.1481 -0.3265
  663TMC3    C6 9812   0.149   0.882  16.946  0.3075 -1.3140  1.2095
  663TMC3     C 9813   0.447   1.042  17.190  0.8118 -0.1782 -0.8457
  663TMC3     O 9814   0.561   1.036  17.147 -0.1404 -0.1040 -0.3277
  663TMC3     H 9815   0.183   1.115  17.179  1.2087 -0.3406  0.7630
  663TMC3    H1 9816   0.477   0.858  17.021 -0.2946 -0.6537 -1.1786
  663TMC3    H2 9817   0.069   0.829  16.894  1.2282 -0.1448 -1.3879
  663TMC3    C7 9818   0.281   0.690  16.969  0.0053 -0.5308  0.7233
  663TMC3    C8 9819   4.707   0.988  17.063 -0.9153 -0.2088 -0.9091
  663TMC3    O1 9820   0.358   0.632  16.898  0.6211  0.3574 -0.3451
  663TMC3    O2 9821   4.625   1.002  16.971 -0.1933  0.5266  0.2114
  664MPD2     C 9822   3.038   4.567  17.640  0.0462 -0.1617 -0.0827
  664MPD2    C1 9823   3.158   4.623  17.680 -0.3530  0.3282 -0.2718
  664MPD2    C2 9824   3.188   4.618   0.118 -0.5812  0.4953  0.6434
  664MPD2    C3 9825   3.108   4.550   0.208  0.8761  0.3501  0.1398
  664MPD2    C4 9826   2.986   4.493   0.160  0.5328  0.0430  0.1227
  664MPD2    C5 9827   2.958   4.497   0.026  0.2632  0.6157  0.2193
  664MPD2     H 9828   3.271   4.677   0.156 -1.2387  1.3725  0.7208
  664MPD2    H1 9829   2.909   4.447   0.220  1.0009 -0.6789  0.1655
  664MPD2    H2 9830   3.004   4.576  17.537  1.5711  1.9119 -0.3962
  664MPD2    H3 9831   2.870   4.453  17.678  0.6689  1.0069 -0.9765
  664MPD2     N 9832   3.131   4.567   0.344  0.0363  1.0492  0.8392
  664MPD2    H5 9833   3.211   4.626   0.361 -0.3290  1.4505  1.1756
  664MPD2    N1 9834   3.251   4.672  17.584  0.4170  0.4127 -0.9156
  664MPD2    H7 9835   3.233   4.650  17.486 -1.9974 -0.4973 -0.2536
  665TMC3    C1 9836   3.112   4.528   0.583 -0.0672 -0.2166  0.1141
  665TMC3    C2 9837   3.068   4.445   0.681 -0.3991 -0.3298 -0.1099
  665TMC3    C3 9838   3.094   4.482   0.807 -0.8867  0.0519 -0.2482
  665TMC3    C4 9839   3.190   4.636   0.606 -0.1612 -0.4583 -0.3486
  665TMC3    C5 9840   3.228   4.660   0.739 -0.5233  0.1063  0.2461
  665TMC3    C6 9841   3.176   4.584   0.841 -0.3473 -0.0557 -0.1666
  665TMC3     C 9842   3.074   4.487   0.442 -0.1042 -1.0282 -0.4690
  665TMC3     O 9843   3.003   4.386   0.435 -0.3963  0.1493 -0.1250
  665TMC3     H 9844   3.025   4.349   0.655  0.5651 -1.0078  0.8358
  665TMC3    H1 9845   3.227   4.700   0.527 -1.7940  0.3898 -0.4093
  665TMC3    H2 9846   3.200   4.606   0.945  0.1793  0.3827 -0.3820
  665TMC3    C7 9847   3.217   0.085   0.757  0.1535 -0.4528 -0.3698
  665TMC3    C8 9848   3.023   4.418   0.920 -0.5237 -0.4435  0.3030
  665TMC3    O1 9849   3.178   0.158   0.665  0.0792  0.5076 -0.2323
  665TMC3    O2 9850   3.063   4.465   1.030  0.3002  0.0016 -0.1391
  666TMC3    C1 9851   2.518   3.670   9.745  0.0650 -0.2394 -0.0040
  666TMC3    C2 9852   2.597   3.645   9.628 -0.2244 -0.3184  0.3759
  666TMC3    C3 9853   2.687   3.745   9.601 -0.0137  0.6404  0.0012
  666TMC3    C4 9854   2.525   3.791   9.810 -0.6080 -0.3042  1.3733
  666TMC3    C5 9855   2.605   3.888   9.751  0.6495  0.3284 -0.7135
  666TMC3    C6 9856   2.691   3.869   9.651  0.6925  0.3853  0.4639
  666TMC3     C 9857   2.447   3.557   9.804 -0.1429 -0.3799  0.5721
  666TMC3     O 9858   2.459   3.541   9.922 -0.0238 -0.0067  0.2007
  666TMC3     H 9859   2.589   3.551   9.575 -0.7738 -0.5214  0.8124
  666TMC3    H1 9860   2.466   3.810   9.899 -0.7535  1.8839  0.8183
  666TMC3    H2 9861   2.737   3.947   9.593  2.3257 -0.4006  0.7082
  666TMC3    C7 9862   2.653   3.985   9.850  0.0565  0.2719 -0.5511
  666TMC3    C8 9863   2.778   3.717   9.490 -0.1301 -0.6626 -0.1107
  666TMC3    O1 9864   2.591   3.982   9.954 -0.1723  0.0016 -0.2189
  666TMC3    O2 9865   2.730   3.651   9.401 -0.0689  0.3631  0.2133
  667MPD2     C 9866   3.273   4.471  14.893 -0.1319  0.3213  0.5359
  667MPD2    C1 9867   3.286   4.360  14.971 -0.1885 -0.3399  0.5315
  667MPD2    C2 9868   3.188   4.260  14.970  0.1280 -0.4921 -0.3819
  667MPD2    C3 9869   3.075   4.276  14.895 -0.0636  0.0466  0.0202
  667MPD2    C4 9870   3.061   4.389  14.821 -0.2502 -0.0100 -0.1652
  667MPD2    C5 9871   3.160   4.483  14.818  0.1502 -0.0037  0.0873
  667MPD2     H 9872   3.194   4.168  15.026 -1.3224  0.0516  0.6666
  667MPD2    H1 9873   2.971   4.385  14.761 -1.0281 -0.8401  1.0653
  667MPD2    H2 9874   3.362   4.530  14.872  0.5129 -1.2699 -1.2557
  667MPD2    H3 9875   3.156   4.568  14.750 -2.4906 -0.0343  0.1889
  667MPD2     N 9876   2.973   4.174  14.873 -0.7458 -0.0636 -0.7220
  667MPD2    H5 9877   2.894   4.200  14.814 -1.3474  0.3565  0.2658
  667MPD2    N1 9878   3.404   4.344  15.052 -0.1936  0.2434 -0.5403
  667MPD2    H7 9879   3.410   4.259  15.105  0.7873  1.1822  0.8465
  668TMC3    C1 9880   3.614   4.385  15.151 -0.6417  0.1461  0.1179
  668TMC3    C2 9881   3.723   4.469  15.155  0.4107  0.2195 -0.0934
  668TMC3    C3 9882   3.787   4.480  15.269  0.6129 -0.2190 -0.2568
  668TMC3    C4 9883   3.579   4.301  15.255  0.6848  0.8545  0.0695
  668TMC3    C5 9884   3.660   4.306  15.365 -0.3694  0.6038  0.6275
  668TMC3    C6 9885   3.751   4.407  15.382  0.3034 -0.9772 -0.0815
  668TMC3     C 9886   3.512   4.426  15.056 -0.5936  0.3564 -0.0774
  668TMC3     O 9887   3.540   4.525  14.995  0.0207  0.1630  0.5573
  668TMC3     H 9888   3.744   4.522  15.063  0.4305  0.8303  0.2659
  668TMC3    H1 9889   3.500   4.227  15.250  2.0605 -0.5752 -0.8285
  668TMC3    H2 9890   3.805   4.420  15.474 -1.6542 -0.4633  0.9870
  668TMC3    C7 9891   3.632   4.219  15.482  0.4204  0.2228 -0.2874
  668TMC3    C8 9892   3.929   4.525  15.269  0.8133  0.3156 -0.6566
  668TMC3    O1 9893   3.718   4.207  15.566 -0.8737 -0.5034  0.0492
  668TMC3    O2 9894   3.984   4.549  15.376 -0.0157 -0.5487 -0.0259
  669TMC3    C1 9895   2.368   4.064  14.526  0.0394 -0.0026 -0.5130
  669TMC3    C2 9896   2.261   4.045  14.446 -0.0473  0.5119  0.0181
  669TMC3    C3 9897   2.250   4.135  14.343 -0.0154  0.1603  0.3056
  669TMC3    C4 9898   2.465   4.160  14.504 -0.0181 -0.2510 -0.7111
  669TMC3    C5 9899   2.447   4.238  14.397 -0.0508 -0.0488 -0.1554
  669TMC3    C6 9900   2.339   4.236  14.318 -0.1596 -0.3813 -0.4330
  669TMC3     C 9901   2.359   4.000  14.653 -0.1060  0.5084  0.5526
  669TMC3     O 9902   2.307   3.887  14.656  0.0938 -0.3832  0.0208
  669TMC3     H 9903   2.192   3.967  14.476  1.5258 -0.7850  0.2832
  669TMC3    H1 9904   2.550   4.171  14.570 -0.5831  0.0575 -0.0327
  669TMC3    H2 9905   2.335   4.305  14.234 -2.4111  1.3414  1.0912
  669TMC3    C7 9906   2.506   4.363  14.405  0.1400 -0.8347 -0.6070
  669TMC3    C8 9907   2.118   4.151  14.280 -0.5884 -0.1259 -0.1476
  669TMC3    O1 9908   2.435   4.462  14.395 -0.6217 -0.5975  0.2967
  669TMC3    O2 9909   2.040   4.060  14.303 -0.3398 -0.3772  0.0938
  670MPD2     C 9910   0.727   1.940  13.193 -0.0632 -0.0783 -0.1658
  670MPD2    C1 9911   0.731   2.064  13.252 -0.1959 -0.4142  0.2908
  670MPD2    C2 9912   0.617   2.103  13.321 -0.1986 -0.0602 -0.3247
  670MPD2    C3 9913   0.525   2.016  13.363 -0.1267  0.2761 -0.1805
  670MPD2    C4 9914   0.538   1.887  13.331 -0.4373 -1.0030  0.6436
  670MPD2    C5 9915   0.628   1.854  13.233 -0.3152 -0.2981 -0.5249
  670MPD2     H 9916   0.607   2.206  13.354 -0.7459 -0.7641  1.6835
  670MPD2    H1 9917   0.469   1.808  13.361 -2.2851  0.0674 -0.7866
  670MPD2    H2 9918   0.809   1.898  13.135 -0.9489 -0.9768 -0.7606
  670MPD2    H3 9919   0.639   1.752  13.201  0.7688 -0.3592  0.0244
  670MPD2     N 9920   0.429   2.063  13.460 -0.1970 -0.4485 -0.8556
  670MPD2    H5 9921   0.456   2.149  13.506 -0.8287 -0.5776 -0.2467
  670MPD2    N1 9922   0.841   2.147  13.237  0.8600  0.7187  0.4972
  670MPD2    H7 9923   0.915   2.116  13.175  0.1443  1.1022 -0.5419
  671TMC3    C1 9924   0.265   2.050  13.636  0.6614 -0.4642  0.4173
  671TMC3    C2 9925   0.353   2.058  13.743 -1.2307  0.2569 -0.0896
  671TMC3    C3 9926   0.291   2.015  13.862 -0.5819  0.1359 -0.3585
  671TMC3    C4 9927   0.135   2.013  13.641 -0.3362 -0.0247  0.9314
  671TMC3    C5 9928   0.083   1.971  13.761 -0.5863 -0.0861  0.4295
  671TMC3    C6 9929   0.159   1.974  13.874 -0.2441  0.2000 -0.3738
  671TMC3     C 9930   0.329   1.990  13.518 -0.0683  0.3319  0.0114
  671TMC3     O 9931   0.260   1.893  13.483 -0.0276 -0.0418  0.2132
  671TMC3     H 9932   0.458   2.041  13.725 -1.5199  0.8679 -2.2943
  671TMC3    H1 9933   0.072   2.028  13.554  0.3982  1.7455  0.7017
  671TMC3    H2 9934   0.111   1.954  13.969 -1.7396  1.7779 -0.7829
  671TMC3    C7 9935   4.719   1.856  13.757  0.5786 -0.4613 -0.3383
  671TMC3    C8 9936   0.377   1.948  13.954 -0.8033 -0.2952 -0.8788
  671TMC3    O1 9937   4.659   1.829  13.859 -0.4122 -0.2763 -0.2679
  671TMC3    O2 9938   0.484   1.904  13.914 -0.1940 -0.0344 -0.1332
  672MPD2     C 9939   4.608   2.956   0.921 -0.6434 -0.0438  0.1813
  672MPD2    C1 9940   4.709   2.888   0.994  0.7435 -0.3161 -0.0451
  672MPD2    C2 9941   0.009   2.907   1.127 -1.0641 -0.0136 -0.3123
  672MPD2    C3 9942   4.642   2.991   1.196  0.0747  0.0341 -0.6339
  672MPD2    C4 9943   4.536   3.054   1.127  0.3110 -0.1005 -0.6464
  672MPD2    C5 9944   4.518   3.042   0.991 -0.7968 -0.4590 -0.3005
  672MPD2     H 9945   0.098   2.865   1.171 -0.2907  1.9467  0.0020
  672MPD2    H1 9946   4.469   3.120   1.182  0.2337  0.0300 -0.8957
  672MPD2    H2 9947   4.585   2.943   0.816  2.5000 -0.6612 -0.4431
  672MPD2    H3 9948   4.442   3.089   0.929  1.5524  4.0205  0.2444
  672MPD2     N 9949   4.656   3.024   1.332  0.5252 -0.1909 -0.0766
  672MPD2    H5 9950   4.580   3.083   1.365  0.1363 -1.0661  0.6069
  672MPD2    N1 9951   0.080   2.818   0.917 -0.1337  0.6216 -0.3104
  672MPD2    H7 9952   0.079   2.842   0.818 -0.3118 -1.2499 -0.7489
  673TMC3    C1 9953   0.271   2.696   0.871 -0.1745  0.1190  0.3389
  673TMC3    C2 9954   0.397   2.661   0.922 -0.2235  0.2990  0.2335
  673TMC3    C3 9955   0.500   2.639   0.837  0.2475  0.4694 -0.6061
  673TMC3    C4 9956   0.251   2.718   0.733  0.3036  0.4650  1.0437
  673TMC3    C5 9957   0.359   2.693   0.657  0.2087  0.5563  0.1256
  673TMC3    C6 9958   0.484   2.657   0.700  0.6944  0.2348 -0.2171
  673TMC3     C 9959   0.172   2.731   0.968 -0.1428 -0.7871 -0.0219
  673TMC3     O 9960   0.171   2.679   1.080 -0.3524 -0.1765 -0.1781
  673TMC3     H 9961   0.396   2.627   1.025 -1.7708  1.4113  0.5902
  673TMC3    H1 9962   0.153   2.734   0.690 -0.1551 -1.8146  1.2301
  673TMC3    H2 9963   0.576   2.665   0.643  0.6943 -2.1083 -0.5483
  673TMC3    C7 9964   0.356   2.720   0.517 -0.4458 -0.5663 -0.3162
  673TMC3    C8 9965   0.628   2.582   0.878  0.3557 -0.2698 -0.1728
  673TMC3    O1 9966   0.427   2.656   0.441 -0.2333  0.0820  0.0903
  673TMC3    O2 9967   0.712   2.560   0.792  0.1878  0.6911  0.1419
  674MPD2     C 9968   4.629   2.685   0.578 -0.6423  0.3468 -0.1944
  674MPD2    C1 9969   4.704   2.570   0.546  0.5416  0.3566  0.2862
  674MPD2    C2 9970   4.698   2.459   0.622 -0.7250 -0.5551 -0.0430
  674MPD2    C3 9971   4.620   2.455   0.740  0.4109 -1.0380 -0.4778
  674MPD2    C4 9972   4.552   2.572   0.769  0.0671 -0.0513 -0.2882
  674MPD2    C5 9973   4.554   2.687   0.695 -0.3528 -0.6260  0.2579
  674MPD2     H 9974   0.011   2.362   0.589  0.6526 -0.2528  0.5944
  674MPD2    H1 9975   4.485   2.570   0.854  1.3245 -0.6014  0.6967
  674MPD2    H2 9976   4.632   2.772   0.513 -2.6311 -0.2982 -1.1540
  674MPD2    H3 9977   4.482   2.768   0.703 -0.3530 -0.7554  1.5626
  674MPD2     N 9978   4.619   2.340   0.820  0.0213 -0.9960 -0.3752
  674MPD2    H5 9979   4.673   2.258   0.798  0.0171 -1.1797  0.3041
  674MPD2    N1 9980   0.053   2.557   0.425 -0.0713  0.0236 -0.5848
  674MPD2    H7 9981   0.122   2.483   0.422 -0.3239 -0.2978  1.0501
  675TMC3    C1 9982   0.123   2.568   0.206  0.5610  0.3443 -0.5551
  675TMC3    C2 9983   0.246   2.512   0.233 -0.4192  0.5245  0.8439
  675TMC3    C3 9984   0.311   2.456   0.125 -0.7337  0.3441  0.1208
  675TMC3    C4 9985   0.083   2.605   0.078  0.6002  0.0832  0.3570
  675TMC3    C5 9986   0.160   2.547  17.674  0.3856 -0.9361  0.3019
  675TMC3    C6 9987   0.277   2.483   0.000  0.0583 -0.5599 -0.3905
  675TMC3     C 9988   0.036   2.628   0.312 -0.1105  0.5823  0.6519
  675TMC3     O 9989   4.682   2.713   0.275  0.3932 -0.0899  0.5113
  675TMC3     H 9990   0.274   2.516   0.337 -1.1706 -3.3285  1.1674
  675TMC3    H1 9991   4.712   2.654   0.057  1.4432  2.3004  1.7082
  675TMC3    H2 9992   0.345   2.449  17.620 -0.5209 -2.0834 -0.2264
  675TMC3    C7 9993   0.129   2.580  17.536 -0.1506  0.0604  0.2189
  675TMC3    C8 9994   0.436   2.384   0.146 -0.3707 -0.1414  0.9829
  675TMC3    O1 9995   0.217   2.547  17.455  0.2900 -0.6299 -0.5425
  675TMC3    O2 9996   0.513   2.367   0.055 -0.1637 -0.4112  0.1284
  676MPD2     C 9997   3.084   0.454  11.274  0.1290 -0.1979  0.9249
  676MPD2    C1 9998   3.014   0.372  11.361 -0.3619 -0.2382  0.2452
  676MPD2    C2 9999   2.992   0.241  11.331  0.4140 -0.0980 -0.2058
  676MPD2    C310000   3.042   0.190  11.207 -0.2607 -0.1359  0.4930
  676MPD2    C410001   3.103   0.275  11.123  0.4821 -0.7119  0.2225
  676MPD2    C510002   3.134   0.402  11.158 -0.1873 -0.8462 -0.6403
  676MPD2     H10003   2.949   0.189  11.416  0.9431 -1.2417 -0.6413
  676MPD2    H110004   3.140   0.245  11.026  0.6410  0.1890  0.0099
  676MPD2    H210005   3.093   0.561  11.285 -1.0538  0.0111 -0.2454
  676MPD2    H310006   3.169   0.464  11.077 -1.1768 -0.8585 -1.0873
  676MPD2     N10007   3.013   0.061  11.160  0.0846 -0.0019  0.3065
  676MPD2    H510008   3.040   0.051  11.063  0.6837 -1.5388  0.6361
  676MPD2    N110009   2.966   0.407  11.487 -0.2240  0.4934 -0.1556
  676MPD2    H710010   2.908   0.337  11.532 -1.2006  1.5189  0.1906
  677TMC3    C110011   2.918   0.550  11.677 -0.5547  0.1897  0.5138
  677TMC3    C210012   2.880   0.443  11.743  0.3477 -0.0299  0.1794
  677TMC3    C310013   2.842   0.459  11.875 -0.4329  0.6688  0.2143
  677TMC3    C410014   2.931   0.671  11.740 -0.7801  0.0009 -0.1145
  677TMC3    C510015   2.901   0.682  11.873  0.8100  0.7533 -0.0079
  677TMC3    C610016   2.858   0.576  11.941  0.0270  0.6195  0.0802
  677TMC3     C10017   2.975   0.531  11.544  0.1707  0.7423 -0.4177
  677TMC3     O10018   3.043   0.624  11.501  0.0380  0.5845  0.0151
  677TMC3     H10019   2.853   0.349  11.695 -1.5763  1.0866 -0.9148
  677TMC3    H110020   2.980   0.752  11.686  0.1432 -0.1099  0.5635
  677TMC3    H210021   2.845   0.580  12.048  0.5404  0.4425  0.1493
  677TMC3    C710022   2.971   0.794  11.948 -0.1554  0.4348  0.3119
  677TMC3    C810023   2.826   0.332  11.942  0.0130 -0.3214  0.3591
  677TMC3    O110024   2.999   0.775  12.060  0.1535 -0.2743  0.0925
  677TMC3    O210025   2.748   0.253  11.891 -0.2991  0.2538  0.7777
  678MPD2     C10026   4.700   1.334   1.466  0.6179 -0.3026 -0.3936
  678MPD2    C110027   4.699   1.198   1.456  0.2120 -0.7366  0.3412
  678MPD2    C210028   4.600   1.113   1.515 -0.2147 -0.4363  0.3975
  678MPD2    C310029   4.489   1.179   1.568  0.3128 -0.8686  0.5476
  678MPD2    C410030   4.494   1.317   1.582 -0.6518 -0.5080  0.0685
  678MPD2    C510031   4.602   1.392   1.536  0.2832  0.4508 -0.4777
  678MPD2     H10032   4.621   1.007   1.502  0.8381  0.0185 -1.7095
  678MPD2    H110033   4.412   1.381   1.613 -1.9624 -1.4998 -1.3616
  678MPD2    H210034   0.052   1.394   1.418 -0.8159 -1.2839 -3.9292
  678MPD2    H310035   4.596   1.499   1.553  1.3402  0.3198  0.6678
  678MPD2     N10036   4.378   1.106   1.620  0.1168  0.0746  0.2899
  678MPD2    H510037   4.392   1.005   1.618  1.4178  0.2405  1.1831
  678MPD2    N110038   0.072   1.148   1.366  0.1038  0.4210 -0.0285
  678MPD2    H710039   0.112   1.218   1.304  1.1055  0.0877  0.2494
  679TMC3    C110040   0.401   0.900   1.142 -0.4769 -0.0970  0.3466
  679TMC3    C210041   0.320   0.923   1.254 -0.0090 -0.2128  0.3532
  679TMC3    C310042   0.224   1.012   1.243 -0.7444  0.4510 -0.0494
  679TMC3    C410043   0.374   0.964   1.030  0.4651 -0.4621  0.8483
  679TMC3    C510044   0.267   1.050   1.021  0.4162  0.7171 -0.3373
  679TMC3    C610045   0.193   1.081   1.130  0.0865  0.6831 -0.1168
  679TMC3     C10046   0.467   0.772   1.139  0.1644  0.7718  0.5042
  679TMC3     O10047   0.457   0.694   1.046  0.3695  0.1073  0.2302
  679TMC3     H10048   0.332   0.874   1.350  0.1849 -1.8434 -0.4934
  679TMC3    H110049   0.384   0.906   0.939  0.6410  0.6897  0.1287
  679TMC3    H210050   0.097   1.127   1.109 -0.7274 -1.2145 -0.5040
  679TMC3    C710051   0.202   1.065   0.891 -0.3542  0.4378  0.0412
  679TMC3    C810052   0.122   1.021   1.352  0.0086 -0.7453  0.4621
  679TMC3    O110053   0.082   1.073   0.880 -0.2514  0.2471  0.2229
  679TMC3    O210054   0.124   0.932   1.440  0.8312  0.3563 -0.3649
  680MPD2     C10055   4.556   4.109  13.570  0.9633  0.1691 -1.1238
  680MPD2    C110056   4.631   4.052  13.671  0.1712  0.0834  0.0559
  680MPD2    C210057   0.003   4.125  13.737 -0.6068 -0.9613  0.5589
  680MPD2    C310058   0.037   4.249  13.690  0.5279 -0.0071  0.3137
  680MPD2    C410059   4.701   4.295  13.579 -0.1030  0.0863  0.2655
  680MPD2    C510060   4.601   4.226  13.515  0.0193  0.1325 -0.6849
  680MPD2     H10061   0.052   4.086  13.826  1.8770  1.7011  0.3504
  680MPD2    H110062   4.724   4.394  13.542  1.8953  0.1296  1.5902
  680MPD2    H210063   4.486   4.053  13.508 -0.3201  0.5169  0.0210
  680MPD2    H310064   4.551   4.259  13.424 -2.3820 -0.7239  0.3410
  680MPD2     N10065   0.140   4.330  13.742 -0.2500  0.4014 -0.3163
  680MPD2    H510066   0.170   4.401  13.675  1.0719  1.3010  1.2379
  680MPD2    N110067   4.615   3.920  13.715 -0.1318 -0.0802 -0.0800
  680MPD2    H710068   4.673   3.884  13.790 -1.8666 -1.8682  0.4095
  681TMC3    C110069   4.549   3.692  13.722 -0.3948  0.0870 -0.5385
  681TMC3    C210070   4.538   3.697  13.865  0.4504  0.1531  0.4508
  681TMC3    C310071   4.576   3.578  13.924  0.2555  0.7823  0.6436
  681TMC3    C410072   4.622   3.607  13.649 -0.6046  0.9210  0.0017
  681TMC3    C510073   4.670   3.496  13.720 -0.8646 -0.2070 -0.4082
  681TMC3    C610074   4.638   3.478  13.852  0.3156 -0.3715  0.3164
  681TMC3     C10075   4.529   3.820  13.660 -0.4365 -0.0191 -0.8628
  681TMC3     O10076   4.461   3.832  13.562 -0.0967  0.7784  0.0909
  681TMC3     H10077   4.481   3.770  13.921 -1.5304  0.2684 -1.7050
  681TMC3    H110078   4.627   3.612  13.540  1.3816 -2.3724 -0.0815
  681TMC3    H210079   4.676   3.390  13.902  3.1777  1.2593  1.0421
  681TMC3    C710080   0.034   3.398  13.658  0.3710 -0.0820  0.4319
  681TMC3    C810081   4.586   3.561  14.068  0.2333  0.8259  0.2289
  681TMC3    O110082   0.054   3.301  13.724  0.6160  0.2476 -0.0548
  681TMC3    O210083   4.572   3.448  14.112  0.2330  0.2933  0.1406
  682MPD2     C10084   2.555   0.151  10.775  0.3060 -0.0537 -0.0311
  682MPD2    C110085   2.546   0.027  10.827 -0.5327 -0.3818  0.4883
  682MPD2    C210086   2.446   4.716  10.916  0.1224  0.3988  0.4596
  682MPD2    C310087   2.352   0.083  10.962  0.7347  0.4336  0.2376
  682MPD2    C410088   2.369   0.215  10.928  0.7399 -0.1365 -0.0073
  682MPD2    C510089   2.469   0.240  10.837  0.3776 -0.1114  0.1072
  682MPD2     H10090   2.442   4.612  10.948 -2.8292 -0.1581 -1.6941
  682MPD2    H110091   2.315   0.300  10.967 -0.8001 -1.5858  1.0259
  682MPD2    H210092   2.618   0.183  10.692 -1.8328 -1.3557 -2.1668
  682MPD2    H310093   2.484   0.341  10.799  2.1152  0.0943  1.3400
  682MPD2     N10094   2.258   0.049  11.059 -0.5735 -0.0652  0.5108
  682MPD2    H510095   2.202   0.128  11.090 -0.4275  0.1453  0.2481
  682MPD2    N110096   2.615   4.644  10.772 -0.3434 -0.2652  0.5776
  682MPD2    H710097   2.588   4.551  10.804 -0.4640  0.0639  1.4395
  683TMC3    C110098   2.039   4.723  11.404 -0.3076  0.2952  0.4797
  683TMC3    C210099   1.953   4.617  11.415  0.1149 -0.5781 -0.1608
  683TMC3    C310100   1.966   4.521  11.320  0.1582 -0.6749 -0.0060
  683TMC3    C410101   2.129   0.020  11.308 -0.0866  0.4545 -0.3964
  683TMC3    C510102   2.128   4.647  11.210 -0.4256 -0.1671 -0.1581
  683TMC3    C610103   2.055   4.531  11.224  0.7566  0.3861 -0.4315
  683TMC3     C10104   2.034   0.101  11.514 -0.0803  0.1068  0.3784
  683TMC3     O10105   2.132   0.177  11.532 -0.7814  0.3005 -0.1973
  683TMC3     H10106   1.873   4.616  11.488  1.2949 -0.1458  1.1583
  683TMC3    H110107   2.201   0.101  11.302  0.0787  0.3727  0.4265
  683TMC3    H210108   2.056   4.457  11.145 -0.4888  0.1692 -0.2507
  683TMC3    C710109   2.226   4.643  11.104  0.7564 -0.3386 -0.2617
  683TMC3    C810110   1.875   4.407  11.315 -0.7273  0.2425  0.3324
  683TMC3    O110111   2.271   4.534  11.068 -0.4354  0.2018 -0.3651
  683TMC3    O210112   1.859   4.363  11.205 -0.2822  0.5727 -0.1365
  684MPD2     C10113   0.605   0.162  16.628 -0.1302  0.2972 -0.0135
  684MPD2    C110114   0.558   0.218  16.512  0.1114  0.1287 -0.5570
  684MPD2    C210115   0.498   0.347  16.521 -0.2838  0.3944  0.5298
  684MPD2    C310116   0.468   0.408  16.640 -0.3820  0.8177  0.1396
  684MPD2    C410117   0.504   0.346  16.757  0.1930  0.3242  0.0640
  684MPD2    C510118   0.574   0.230  16.742  0.3066  0.6277 -0.1969
  684MPD2     H10119   0.460   0.380  16.425  0.6745 -1.1231 -0.3712
  684MPD2    H110120   0.463   0.380  16.851  0.9100 -0.1610  0.5472
  684MPD2    H210121   0.661   0.071  16.642 -2.0027 -0.9430 -0.5518
  684MPD2    H310122   0.618   0.183  16.829 -1.6370  0.6029  0.7692
  684MPD2     N10123   0.401   0.528  16.639 -0.2771  0.4028 -0.0350
  684MPD2    H510124   0.387   0.570  16.731 -1.0794  1.7779 -0.7874
  684MPD2    N110125   0.559   0.151  16.385  0.0693  0.4044 -0.2198
  684MPD2    H710126   0.522   0.199  16.304 -2.0803 -2.3351 -0.8669
  685TMC3    C110127   0.630   4.712  16.222 -0.0289  0.2143  0.4890
  685TMC3    C210128   0.558   0.059  16.130  0.8448 -0.5059  0.1700
  685TMC3    C310129   0.593   0.034  15.997 -0.1500 -0.3034 -0.3363
  685TMC3    C410130   0.742   4.643  16.195 -0.1947  0.2332 -0.8263
  685TMC3    C510131   0.786   4.638  16.066  0.0061 -1.2045 -0.1259
  685TMC3    C610132   0.714   4.700  15.969  0.5962 -0.1107  0.0470
  685TMC3     C10133   0.612   0.023  16.366  0.3335  0.0982 -0.1440
  685TMC3     O10134   0.665   4.675  16.447  0.0071 -0.9362 -0.0753
  685TMC3     H10135   0.465   0.098  16.170  0.5937 -0.4355 -0.4802
  685TMC3    H110136   0.807   4.609  16.274 -0.6923  1.0745 -0.0537
  685TMC3    H210137   0.744   4.686  15.866  0.1303 -0.4032 -0.0457
  685TMC3    C710138   0.930   4.616  16.045  0.1113  0.3238  0.1932
  685TMC3    C810139   0.501   0.074  15.888 -0.2632  0.0737  0.1519
  685TMC3    O110140   0.953   4.568  15.939  0.1384 -0.3786  0.3178
  685TMC3    O210141   0.540   0.062  15.771  0.3330 -0.2720 -0.6175
  686MPD2     C10142   1.834   4.485  15.194 -0.3218  0.0609  0.0533
  686MPD2    C110143   1.805   4.428  15.313  0.3537 -0.1877 -0.4102
  686MPD2    C210144   1.857   4.300  15.338 -0.1040  0.0325  0.4635
  686MPD2    C310145   1.905   4.224  15.232  0.0580  0.1984 -0.5392
  686MPD2    C410146   1.923   4.281  15.113  0.0700 -0.6089  0.0304
  686MPD2    C510147   1.875   4.406  15.088 -0.0608  0.0900  0.0467
  686MPD2     H10148   1.830   4.250  15.431 -0.9781  1.5531  1.0170
  686MPD2    H110149   1.951   4.219  15.029  1.1190 -1.0130  0.6713
  686MPD2    H210150   1.795   4.586  15.181 -0.4029  0.4719  3.5812
  686MPD2    H310151   1.875   4.444  14.986 -0.5328  2.2167  0.8294
  686MPD2     N10152   1.939   4.089  15.236  0.0537 -0.4618 -0.3885
  686MPD2    H510153   1.949   4.039  15.149  2.4087 -0.8191  0.0989
  686MPD2    N110154   1.734   4.499  15.421 -0.4632  0.7351  0.1330
  686MPD2    H710155   1.729   4.600  15.422  1.5106  0.8348 -0.4794
  687TMC3    C110156   1.896   3.879  15.342 -0.0571  0.3265 -0.2968
  687TMC3    C210157   1.776   3.853  15.280  0.0313  0.8556  0.3984
  687TMC3    C310158   1.669   3.797  15.347  0.9207 -0.6709 -0.2799
  687TMC3    C410159   1.900   3.833  15.469 -0.2982 -0.3843 -0.4770
  687TMC3    C510160   1.792   3.791  15.538  0.0850  0.3169  0.3716
  687TMC3    C610161   1.669   3.769  15.476 -0.0098 -0.1065  1.0695
  687TMC3     C10162   1.934   4.016  15.351  0.4734 -0.5319  0.2012
  687TMC3     O10163   1.966   4.062  15.459  0.5517  0.1653  0.5263
  687TMC3     H10164   1.756   3.914  15.192  0.0096  0.4875  0.1509
  687TMC3    H110165   1.995   3.842  15.520 -0.3170  0.8804 -0.6522
  687TMC3    H210166   1.580   3.739  15.530 -0.7849 -0.9263 -0.6468
  687TMC3    C710167   1.818   3.775  15.681 -0.6115  0.7163  0.3726
  687TMC3    C810168   1.543   3.819  15.284 -0.2144 -0.4039  0.0887
  687TMC3    O110169   1.923   3.726  15.723  0.4303  0.8096 -0.1706
  687TMC3    O210170   1.528   3.785  15.165 -0.3774 -0.2707  0.1332
  688MPD2     C10171   0.842   3.804  17.202  0.9586  0.4411 -0.4141
  688MPD2    C110172   0.836   3.679  17.263  0.5391  0.9568 -0.5242
  688MPD2    C210173   0.947   3.597  17.241 -0.3558  0.3858  0.5653
  688MPD2    C310174   1.057   3.632  17.156 -0.4970  0.3691  0.3533
  688MPD2    C410175   1.058   3.751  17.097  0.8930 -0.3433  0.3383
  688MPD2    C510176   0.950   3.832  17.121  0.5411 -0.1247 -0.1894
  688MPD2     H10177   0.943   3.500  17.290  2.0849  0.7853  1.5677
  688MPD2    H110178   1.134   3.788  17.029 -0.6363  1.8387 -0.1609
  688MPD2    H210179   0.764   3.877  17.221  2.1358  1.3860  0.7821
  688MPD2    H310180   0.960   3.931  17.079 -2.5891  0.7211  1.0275
  688MPD2     N10181   1.169   3.545  17.126  0.0565  0.7833 -0.3458
  688MPD2    H510182   1.238   3.589  17.066 -1.0903 -0.0535 -2.2751
  688MPD2    N110183   0.720   3.633  17.331  0.7986 -0.1960  0.4702
  688MPD2    H710184   0.720   3.538  17.365  0.4054 -0.3058  0.1588
  689TMC3    C110185   0.514   3.648  17.442  0.1348 -0.5620 -0.6491
  689TMC3    C210186   0.473   3.727  17.545  0.1476  0.3737  0.4072
  689TMC3    C310187   0.417   3.666  17.652  0.5958 -0.0639 -0.1987
  689TMC3    C410188   0.487   3.515  17.433 -0.2414 -0.0362 -0.9208
  689TMC3    C510189   0.418   3.456  17.535  0.5763  0.6257 -0.1855
  689TMC3    C610190   0.387   3.531  17.648  0.0804 -0.9535  0.3161
  689TMC3     C10191   0.614   3.714  17.361  0.8432  0.2409  0.6715
  689TMC3     O10192   0.609   3.838  17.355  0.3874  0.8587  0.1235
  689TMC3     H10193   0.479   3.834  17.532 -0.1712  0.2965 -0.4005
  689TMC3    H110194   0.532   3.456  17.354  2.9042  0.6241  0.3744
  689TMC3    H210195   0.331   3.479   0.027  0.6316  0.5167  1.7449
  689TMC3    C710196   0.411   3.315  17.543 -0.7084 -0.0737 -0.2108
  689TMC3    C810197   0.426   3.714   0.089  0.0437  0.1887 -0.1405
  689TMC3    O110198   0.423   3.275  17.659 -0.0332  0.2105 -0.0161
  689TMC3    O210199   0.429   3.632   0.181 -0.2230  0.0571 -0.3594
  690MPD2     C10200   3.109   0.676  15.983  0.4941  0.1282  0.5797
  690MPD2    C110201   3.083   0.600  15.867 -0.2410 -0.5807 -0.3711
  690MPD2    C210202   3.170   0.610  15.759  0.3247  0.0154 -0.7158
  690MPD2    C310203   3.283   0.689  15.774  0.4410 -0.3449 -0.1920
  690MPD2    C410204   3.314   0.751  15.891  0.2671  0.2596  0.2546
  690MPD2    C510205   3.228   0.743  15.999 -0.1307  0.4558 -0.4431
  690MPD2     H10206   3.152   0.560  15.665  0.6912 -1.1107 -0.1937
  690MPD2    H110207   3.407   0.807  15.897  0.1603  0.1860  2.7613
  690MPD2    H210208   3.042   0.668  16.067 -0.9101  2.1837 -0.3394
  690MPD2    H310209   3.252   0.797  16.090 -1.4059 -1.4644  1.0203
  690MPD2     N10210   3.374   0.716  15.673  0.1079  0.3530 -1.1472
  690MPD2    H510211   3.454   0.772  15.698 -0.9476  1.0252  0.7699
  690MPD2    N110212   2.982   0.499  15.851  0.6956  0.2170  0.1391
  690MPD2    H710213   3.000   0.436  15.774  0.3177  0.2864 -0.0012
  691TMC3    C110214   2.819   0.349  15.951 -0.0206  0.6424  0.2218
  691TMC3    C210215   2.698   0.342  16.011  0.1789  0.2497  0.1641
  691TMC3    C310216   2.640   0.225  16.035  0.2663  0.0462  0.3624
  691TMC3    C410217   2.879   0.233  15.891 -0.2910 -0.2354 -0.7055
  691TMC3    C510218   2.800   0.116  15.898  0.6246 -0.9299 -0.3294
  691TMC3    C610219   2.690   0.102  15.982 -0.0522 -0.1910 -0.1441
  691TMC3     C10220   2.880   0.485  15.938  0.0720  0.5055 -0.3110
  691TMC3     O10221   2.829   0.569  16.006 -0.1039 -0.3747 -0.3078
  691TMC3     H10222   2.654   0.435  16.046  0.2904  0.0658  0.7923
  691TMC3    H110223   2.967   0.240  15.828 -1.3939  1.8929 -2.0174
  691TMC3    H210224   2.629   0.016  16.006 -0.6220  0.4617  0.7114
  691TMC3    C710225   2.859   4.717  15.849  0.3685 -0.6577 -0.2049
  691TMC3    C810226   2.518   0.217  16.114  0.0758  0.3818  0.1180
  691TMC3    O110227   2.976   4.720  15.812  0.1548 -0.2832 -0.5216
  691TMC3    O210228   2.516   0.127  16.192 -0.1121 -0.0618  0.8604
  692TMC3    C110229   0.026   1.661  15.990  0.2815 -0.8169 -0.5740
  692TMC3    C210230   0.119   1.694  16.082 -0.9877 -0.1278 -0.5232
  692TMC3    C310231   0.240   1.629  16.078  0.5985 -0.4161  0.2925
  692TMC3    C410232   0.047   1.562  15.895  0.2132 -0.4516  0.2386
  692TMC3    C510233   0.172   1.500  15.891 -0.2013  0.3259  0.3972
  692TMC3    C610234   0.255   1.527  15.989  0.7132 -0.1925  0.0083
  692TMC3     C10235   4.633   1.747  15.984 -0.0012  0.2137  0.0094
  692TMC3     O10236   4.536   1.697  15.934 -0.0228 -0.3512  0.0118
  692TMC3     H10237   0.092   1.748  16.172 -0.8238 -2.1454  0.7114
  692TMC3    H110238   4.691   1.542  15.825  0.8522  0.0082 -0.6237
  692TMC3    H210239   0.360   1.501  15.981  0.4730 -1.0660 -0.2555
  692TMC3    C710240   0.168   1.368  15.829  0.0348 -0.5820  0.2253
  692TMC3    C810241   0.289   1.583  16.208 -0.9042 -0.8046  0.3253
  692TMC3    O110242   0.100   1.347  15.732 -0.5385  0.3674 -0.6295
  692TMC3    O210243   0.327   1.467  16.210  0.2372  0.4289  0.4218
  693MPD2     C10244   4.498   4.402  11.163  0.0669 -0.0898 -0.0991
  693MPD2    C110245   4.466   4.293  11.092 -0.3111  1.1137 -0.1714
  693MPD2    C210246   4.570   4.224  11.029 -0.7796  0.0033 -0.2824
  693MPD2    C310247   4.698   4.255  11.061  0.1869  0.0704  0.5765
  693MPD2    C410248   0.006   4.352  11.154  0.0591 -0.3516 -0.6477
  693MPD2    C510249   4.628   4.423  11.204 -0.0113 -0.5452 -0.0766
  693MPD2     H10250   4.564   4.140  10.961 -0.1764  0.2644 -0.6598
  693MPD2    H110251   0.108   4.364  11.189 -0.5672 -1.1354  1.4171
  693MPD2    H210252   4.427   4.460  11.221 -0.3968 -0.5351 -0.2308
  693MPD2    H310253   4.647   4.492  11.286 -2.1097  1.1726 -1.0311
  693MPD2     N10254   0.090   4.193  10.998 -0.0805  0.3411  0.6896
  693MPD2    H510255   0.179   4.232  11.030  0.8206 -2.5764  1.7398
  693MPD2    N110256   4.332   4.259  11.081 -0.6377 -0.1338  0.5845
  693MPD2    H710257   4.275   4.324  11.135 -2.8171 -1.7821  0.2964
  694TMC3    C110258   4.141   4.141  11.044 -0.1532  0.1432  0.1273
  694TMC3    C210259   4.081   4.059  10.956 -0.1289 -0.1481  0.2928
  694TMC3    C310260   3.974   3.986  10.994  0.6525  0.5008 -0.7964
  694TMC3    C410261   4.104   4.140  11.178  0.4406  0.1238  0.1376
  694TMC3    C510262   3.996   4.068  11.211 -0.2065 -0.1476  0.7611
  694TMC3    C610263   3.931   3.986  11.121 -0.5608 -0.0899 -0.6335
  694TMC3     C10264   4.287   4.146  11.021  0.6916  0.0633 -0.4892
  694TMC3     O10265   4.346   4.070  10.939  0.2748  0.5234  0.0759
  694TMC3     H10266   4.120   4.044  10.856 -1.0862  1.2696 -0.2994
  694TMC3    H110267   4.157   4.191  11.258  1.5360 -0.0710 -0.4615
  694TMC3    H210268   3.830   3.949  11.135 -0.9601 -0.1224 -3.6788
  694TMC3    C710269   3.950   4.062  11.348 -1.1904 -0.3961  0.1043
  694TMC3    C810270   3.889   3.907  10.899 -0.6822  0.2459  0.0009
  694TMC3    O110271   4.009   4.131  11.428 -0.5740  0.4769  0.0441
  694TMC3    O210272   3.793   3.845  10.943 -0.3702  0.2988  0.5373
  695MPD2     C10273   0.481   0.967  13.484  0.6430 -0.0648  0.1088
  695MPD2    C110274   0.415   1.079  13.546 -0.1896  0.3783  0.5448
  695MPD2    C210275   0.344   1.170  13.471 -0.2971  0.0487  0.2616
  695MPD2    C310276   0.340   1.154  13.334 -0.1328  0.6397 -0.3707
  695MPD2    C410277   0.406   1.048  13.273  0.3546  0.7924 -0.7698
  695MPD2    C510278   0.474   0.958  13.353  0.8266  0.1034 -0.1831
  695MPD2     H10279   0.286   1.250  13.515  1.7059  0.9135  1.3546
  695MPD2    H110280   0.409   1.035  13.165 -2.8186 -1.6572 -0.5756
  695MPD2    H210281   0.531   0.893  13.546 -0.2647  0.3772  1.3735
  695MPD2    H310282   0.516   0.874  13.299 -1.0211 -0.4628 -0.7415
  695MPD2     N10283   0.263   1.251  13.265  0.0332 -0.3319  0.0641
  695MPD2    H510284   0.189   1.298  13.316  0.7115  0.4801  0.3171
  695MPD2    N110285   0.410   1.094  13.684 -0.0344 -0.1300 -1.0828
  695MPD2    H710286   0.341   1.163  13.712  0.1788  0.4800 -2.0479
  696TMC3    C110287   0.177   1.367  13.074 -0.1732 -0.2238  0.0121
  696TMC3    C210288   0.055   1.394  13.127  0.1696  0.7596  0.0542
  696TMC3    C310289   4.706   1.499  13.079  0.0849  0.2724 -0.0562
  696TMC3    C410290   0.223   1.433  12.960 -0.4057  0.2990  0.3692
  696TMC3    C510291   0.145   1.538  12.912 -0.7685  0.4889  0.1591
  696TMC3    C610292   0.031   1.571  12.978 -0.3185  0.3097 -0.2189
  696TMC3     C10293   0.274   1.267  13.130  0.7068 -0.9560  0.1290
  696TMC3     O10294   0.382   1.260  13.072 -0.5041 -0.3602  0.4462
  696TMC3     H10295   0.008   1.333  13.204 -0.5215 -0.6797 -1.5107
  696TMC3    H110296   0.317   1.420  12.908  0.4639  1.0487  1.7586
  696TMC3    H210297   4.686   1.646  12.940 -1.7084 -1.6683 -1.5989
  696TMC3    C710298   0.220   1.661  12.887  0.5211  0.7646  0.3299
  696TMC3    C810299   4.659   1.591  13.176  0.0304  0.0437 -0.3571
  696TMC3    O110300   0.316   1.651  12.814 -0.5933  0.0171  0.0780
  696TMC3    O210301   4.696   1.706  13.168 -0.5025 -0.5210 -0.6539
  697MPD2     C10302   4.376   3.287  15.910 -0.3136 -0.3948 -0.0241
  697MPD2    C110303   4.415   3.211  15.798  0.2818  0.0161 -0.0074
  697MPD2    C210304   4.461   3.279  15.686  0.4252 -0.2879  0.1170
  697MPD2    C310305   4.476   3.412  15.684  0.6753 -0.5474  1.2155
  697MPD2    C410306   4.438   3.482  15.799 -0.3679 -0.1027  1.3915
  697MPD2    C510307   4.391   3.417  15.912 -0.7551 -0.2769 -0.1006
  697MPD2     H10308   4.495   3.220  15.602 -1.0918  1.3662 -1.6528
  697MPD2    H110309   4.450   3.590  15.799 -2.9842  0.1871 -0.8806
  697MPD2    H210310   4.350   3.251  16.008 -2.6413  1.8201  0.1825
  697MPD2    H310311   4.353   3.477  15.994  0.9119 -1.2940  1.4271
  697MPD2     N10312   4.517   3.475  15.563  0.3671 -0.6974 -0.2354
  697MPD2    H510313   4.551   3.415  15.488  1.4744 -0.8747  0.4162
  697MPD2    N110314   4.417   3.070  15.801 -0.6587  0.6908 -0.7079
  697MPD2    H710315   4.373   3.031  15.884  0.3947  0.8856 -0.0614
  698TMC3    C110316   4.614   3.647  15.422 -0.1999 -0.4193  0.4110
  698TMC3    C210317   4.646   3.785  15.404  0.2106  0.4691  0.5965
  698TMC3    C310318   4.696   3.815  15.287 -0.3974  0.2682 -0.6607
  698TMC3    C410319   4.623   3.553  15.319 -0.0497 -0.2507 -0.5558
  698TMC3    C510320   4.673   3.601  15.201 -0.6305  0.6788  0.2896
  698TMC3    C610321   4.719   3.724  15.179  0.7554  0.0463  0.1789
  698TMC3     C10322   4.546   3.612  15.549 -0.3815  0.8056 -0.3608
  698TMC3     O10323   4.511   3.702  15.626  0.0934 -0.5173 -0.3807
  698TMC3     H10324   4.636   3.858  15.483  3.2424  0.9380  0.5593
  698TMC3    H110325   4.571   3.458  15.318 -1.0496  0.2680  0.9820
  698TMC3    H210326   0.020   3.761  15.080 -0.4835 -1.5793 -0.7328
  698TMC3    C710327   4.632   3.531  15.089  0.3938  0.0495  0.3800
  698TMC3    C810328   4.720   3.955  15.253 -0.2924 -0.3512  0.8557
  698TMC3    O110329   4.513   3.495  15.089  0.1647 -0.3235  0.6699
  698TMC3    O210330   4.632   4.037  15.268  0.1324  0.3506 -0.0336
  699TMC3    C110331   4.723   1.022  13.318 -0.2505  0.1033  0.3085
  699TMC3    C210332   0.068   0.949  13.419 -0.5682 -0.1663  0.3129
  699TMC3    C310333   0.002   0.921  13.537  0.3156 -0.1615 -0.1163
  699TMC3    C410334   4.587   1.052  13.330  0.0880  1.0060  0.1353
  699TMC3    C510335   4.536   1.038  13.454  0.5993  0.2333 -0.9522
  699TMC3    C610336   4.603   0.977  13.560  0.2755  0.1407 -0.0202
  699TMC3     C10337   0.046   1.010  13.176  0.3004  0.1872  0.3528
  699TMC3     O10338   4.713   1.084  13.094  0.1317 -0.6799 -0.1930
  699TMC3     H10339   0.172   0.919  13.413 -0.5023 -0.2603  1.8068
  699TMC3    H110340   4.527   1.087  13.247 -1.4531 -0.6158  0.5799
  699TMC3    H210341   4.548   0.968  13.653  2.2651  0.6726  1.2054
  699TMC3    C710342   4.391   1.060  13.480 -0.5263  0.4500 -0.3756
  699TMC3    C810343   0.038   0.813  13.626 -0.3936  0.3042  0.5289
  699TMC3    O110344   4.342   1.016  13.582  0.0561 -0.5602 -0.1071
  699TMC3    O210345   4.674   0.800  13.709  0.6502 -0.1856  0.6373
  700TMC3    C110346   3.245   3.708  17.654 -0.6861  0.9159 -0.1010
  700TMC3    C210347   3.271   3.572  17.648  0.4305  0.1495  0.5652
  700TMC3    C310348   3.367   3.514   0.034 -0.1335 -0.1352 -0.3406
  700TMC3    C410349   3.320   3.788   0.033  0.4545 -0.6665  0.3065
  700TMC3    C510350   3.401   3.725   0.120  0.9988  0.5312 -0.0391
  700TMC3    C610351   3.431   3.593   0.121  0.7445  0.1593 -0.4183
  700TMC3     C10352   3.213   3.757  17.519  0.0378  0.1336  0.3573
  700TMC3     O10353   3.116   3.705  17.474 -0.8468  0.2797 -0.1315
  700TMC3     H10354   3.213   3.512  17.579 -0.1534  2.2086 -0.7345
  700TMC3    H110355   3.296   3.893   0.018  0.6648 -0.8992 -1.5713
  700TMC3    H210356   3.501   3.541   0.185 -0.5868 -1.0252  0.0704
  700TMC3    C710357   3.480   3.806   0.213 -0.0338  0.0194 -0.0809
  700TMC3    C810358   3.441   3.401  17.680  0.0758 -0.2709  0.0752
  700TMC3    O110359   3.600   3.784   0.219  0.2820 -0.5520  0.6016
  700TMC3    O210360   3.558   3.383   0.005 -0.4133 -0.4871  0.3922
  701TMC3    C110361   3.250   2.449  15.895  0.3698  0.9208  1.1128
  701TMC3    C210362   3.214   2.398  15.776  0.0148 -0.1345  0.5938
  701TMC3    C310363   3.285   2.435  15.659 -0.0415  0.0656  0.7656
  701TMC3    C410364   3.349   2.544  15.891  0.1146  0.5648  0.3915
  701TMC3    C510365   3.426   2.570  15.772 -0.1853 -0.0102  0.1488
  701TMC3    C610366   3.388   2.518  15.655 -0.6410 -0.4845 -0.5931
  701TMC3     C10367   3.199   2.394  16.019  0.0601  0.0890 -0.3121
  701TMC3     O10368   3.238   2.448  16.123 -0.3589  0.1625  0.2893
  701TMC3     H10369   3.135   2.324  15.772  1.0658 -1.2229  0.1492
  701TMC3    H110370   3.382   2.567  15.992 -1.6271 -2.3375  1.6375
  701TMC3    H210371   3.423   2.543  15.555  0.4316 -0.8117 -0.2961
  701TMC3    C710372   3.527   2.681  15.776  0.1122  0.5024 -0.0212
  701TMC3    C810373   3.268   2.334  15.562 -0.2404  0.0933  0.0465
  701TMC3    O110374   3.561   2.723  15.668 -0.2808  0.0600  0.6760
  701TMC3    O210375   3.159   2.282  15.551 -0.0409  0.4398  0.1612
  702MPD2     C10376   3.270   4.375  10.653  0.1544 -0.1361 -0.0455
  702MPD2    C110377   3.199   4.489  10.688 -0.7186 -0.1394  0.0218
  702MPD2    C210378   3.215   4.607  10.624 -0.5441  0.4891 -0.5229
  702MPD2    C310379   3.289   4.616  10.510  0.8494  0.7327 -0.0930
  702MPD2    C410380   3.362   4.505  10.470 -0.1270 -0.1491  0.2370
  702MPD2    C510381   3.350   4.378  10.534  0.0252  0.0839  0.0680
  702MPD2     H10382   3.167   4.695  10.664  0.1223  1.7661 -2.5609
  702MPD2    H110383   3.428   4.523  10.385 -1.1640  0.1133 -0.5125
  702MPD2    H210384   3.256   4.289  10.718  0.5182  1.7056  2.4924
  702MPD2    H310385   3.408   4.292  10.503 -0.8555 -1.2047  2.0013
  702MPD2     N10386   3.310   0.011  10.444 -0.3650 -0.1498  0.4227
  702MPD2    H510387   3.376   0.012  10.366  1.2288  3.0851  1.8047
  702MPD2    N110388   3.126   4.484  10.805  0.7440 -0.5218  0.5199
  702MPD2    H710389   3.112   4.577  10.843 -1.1915 -1.0146  1.0346
  703TMC3    C110390   3.298   0.240  10.401 -0.2439 -0.4736 -0.6506
  703TMC3    C210391   3.218   0.346  10.433 -0.4720 -0.1130  0.5332
  703TMC3    C310392   3.277   0.471  10.442  0.1429  0.3022  0.1076
  703TMC3    C410393   3.431   0.256  10.385 -0.3830  0.2785 -0.4264
  703TMC3    C510394   3.478   0.382  10.382 -0.5654  0.0219 -0.1932
  703TMC3    C610395   3.406   0.494  10.403 -0.4195  0.3109 -0.1755
  703TMC3     C10396   3.255   0.130  10.474  0.8189 -0.4530 -0.1237
  703TMC3     O10397   3.182   0.162  10.567 -0.4748  0.6963 -0.0030
  703TMC3     H10398   3.110   0.335  10.433 -0.3027 -1.8325 -0.6125
  703TMC3    H110399   3.499   0.175  10.366 -1.3767 -0.4423 -0.8732
  703TMC3    H210400   3.465   0.581  10.428 -0.9223  1.7544 -4.0280
  703TMC3    C710401   3.617   0.411  10.334 -0.6106 -0.5073 -0.5027
  703TMC3    C810402   3.240   0.556  10.553 -0.0216  0.1387  0.5281
  703TMC3    O110403   3.627   0.521  10.283  0.1174 -0.1340  0.0483
  703TMC3    O210404   3.300   0.662  10.575  0.1421  0.4832  0.2552
  704TMC3    C110405   1.033   2.943  12.654  0.0334 -0.3472 -0.0032
  704TMC3    C210406   1.158   2.971  12.604  0.0170 -1.0792  0.1165
  704TMC3    C310407   1.267   2.917  12.661 -0.0545 -0.3532  0.4401
  704TMC3    C410408   1.016   2.862  12.763 -0.0646  0.8136 -0.1254
  704TMC3    C510409   1.128   2.801  12.819  0.0162 -0.1021  0.3091
  704TMC3    C610410   1.251   2.835  12.771 -0.0211 -0.4463  0.1520
  704TMC3     C10411   0.922   2.944  12.566 -0.0273  0.0865 -0.1807
  704TMC3     O10412   0.814   2.943  12.618  0.0892 -0.3958  0.1055
  704TMC3     H10413   1.160   3.039  12.519  1.1120  1.0152  1.8215
  704TMC3    H110414   0.918   2.835  12.803  0.5016 -1.2428 -0.1294
  704TMC3    H210415   1.337   2.776  12.799  0.8988 -0.6153 -3.1274
  704TMC3    C710416   1.105   2.654  12.812 -0.6251  0.5853 -0.2741
  704TMC3    C810417   1.368   2.890  12.561 -0.1060  0.5634  0.0393
  704TMC3    O110418   1.192   2.594  12.752  0.3191 -0.0154  0.5909
  704TMC3    O210419   1.342   2.940  12.454 -0.3604  0.2229  0.5674
  705MPD2     C10420   0.577   1.282  16.702 -0.1815  0.8921  0.4690
  705MPD2    C110421   0.507   1.249  16.593 -0.1766  0.5278 -0.4976
  705MPD2    C210422   0.375   1.195  16.603  0.0148  0.4699  0.3638
  705MPD2    C310423   0.313   1.184  16.726  0.0941  0.6845  0.3366
  705MPD2    C410424   0.378   1.222  16.842 -0.3227 -0.7422 -0.2283
  705MPD2    C510425   0.514   1.259  16.825  0.4085 -0.0738 -0.2881
  705MPD2     H10426   0.327   1.160  16.513  0.3468  1.5684 -0.2341
  705MPD2    H110427   0.329   1.210  16.938  0.8655 -2.9021  0.0965
  705MPD2    H210428   0.683   1.305  16.704  0.8449 -3.6993 -0.3402
  705MPD2    H310429   0.578   1.283  16.908 -0.3382  0.1921  0.2066
  705MPD2     N10430   0.175   1.148  16.746  0.1925 -0.4126 -0.7214
  705MPD2    H510431   0.136   1.180  16.834 -0.9899 -0.5212 -1.2030
  705MPD2    N110432   0.565   1.279  16.467  0.6447  0.2992 -0.1546
  705MPD2    H710433   0.515   1.238  16.388  0.0453  3.1714 -1.2590
  706TMC3    C110434   0.638   1.356  16.070 -0.3732 -0.7692  0.0566
  706TMC3    C210435   0.628   1.489  16.041  0.0728 -0.5028 -0.5824
  706TMC3    C310436   0.639   1.581  16.142  0.5614 -0.2092 -0.4293
  706TMC3    C410437   0.661   1.314  16.202 -0.9542  0.2155 -0.8532
  706TMC3    C510438   0.668   1.409  16.298  0.2923 -0.0928 -0.0859
  706TMC3    C610439   0.654   1.543  16.266  0.6382 -0.1119  0.5871
  706TMC3     C10440   0.630   1.251  15.976 -0.3561 -0.5007  0.3836
  706TMC3     O10441   0.665   1.142  16.024  0.3665  0.1923 -0.3246
  706TMC3     H10442   0.602   1.518  15.940 -1.4169  0.0239 -0.0442
  706TMC3    H110443   0.694   1.213  16.222  0.3748  0.7621 -0.2683
  706TMC3    H210444   0.655   1.612  16.350  1.8197  0.1661  0.3388
  706TMC3    C710445   0.668   1.364  16.437  0.9351 -0.2220  0.3889
  706TMC3    C810446   0.597   1.717  16.105  0.0939 -0.1039 -0.3354
  706TMC3    O110447   0.727   1.450  16.503 -0.2989  0.5213  0.2072
  706TMC3    O210448   0.531   1.732  16.000 -0.2332  0.3397  0.1030
  707TMC3    C110449   2.576   4.671   2.455 -1.0716  0.6556  0.0176
  707TMC3    C210450   2.489   4.577   2.417 -0.0585 -0.4302  0.4128
  707TMC3    C310451   2.371   4.617   2.363  0.1960  0.5588  0.1531
  707TMC3    C410452   2.524   0.077   2.475 -0.3306  0.2759 -0.7624
  707TMC3    C510453   2.403   0.115   2.426 -0.8292  0.9428  0.2551
  707TMC3    C610454   2.323   0.026   2.364 -0.9602 -0.5580  0.3763
  707TMC3     C10455   2.682   4.685   2.363 -1.2740  0.0425  0.1142
  707TMC3     O10456   2.697   4.589   2.290  0.1409  0.0127  0.0084
  707TMC3     H10457   2.515   4.472   2.410 -1.8290 -0.9164  1.0341
  707TMC3    H110458   2.585   0.151   2.524 -1.5604  1.1733 -0.5695
  707TMC3    H210459   2.226   0.054   2.324 -1.4107 -1.5815  0.7546
  707TMC3    C710460   2.367   0.251   2.447  0.5085 -0.1145 -0.4708
  707TMC3    C810461   2.325   4.538   2.255 -0.1218  0.3575 -0.1344
  707TMC3    O110462   2.448   0.322   2.501 -0.1453 -0.5134 -0.2661
  707TMC3    O210463   2.206   4.544   2.235 -0.0031 -0.7913 -0.2198
  708MPD2     C10464   4.042   4.298  13.818 -0.1486 -0.2505  0.1601
  708MPD2    C110465   3.947   4.399  13.788  0.7465 -0.1711 -0.1437
  708MPD2    C210466   3.830   4.387  13.853 -0.0227  0.6227  0.0038
  708MPD2    C310467   3.796   4.279  13.939 -0.1456  0.2510 -0.5308
  708MPD2    C410468   3.892   4.192  13.966 -0.2497 -1.0322 -0.0428
  708MPD2    C510469   4.018   4.206  13.911  0.3198  0.5210 -0.1269
  708MPD2     H10470   3.745   4.447  13.822  0.5820  1.9882  1.0391
  708MPD2    H110471   3.873   4.104  14.027  2.5617 -0.4141  1.7436
  708MPD2    H210472   4.143   4.306  13.780 -0.4780  0.9265 -0.4756
  708MPD2    H310473   4.096   4.141  13.948  1.4726  0.2105 -3.1520
  708MPD2     N10474   3.666   4.271  13.991 -0.6570 -0.6200 -0.3275
  708MPD2    H510475   3.600   4.347  13.975  1.6191  0.9826 -1.9542
  708MPD2    N110476   3.967   4.493  13.686 -0.3695 -0.1869 -0.0108
  708MPD2    H710477   4.058   4.483  13.642 -0.9242 -0.0718 -1.1763
  709TMC3    C110478   3.913   4.660  13.521  0.9538  0.7088  0.4546
  709TMC3    C210479   3.969   4.577  13.426  0.0063  0.7190  0.9716
  709TMC3    C310480   3.907   4.542  13.307  0.5800 -0.4316  0.0754
  709TMC3    C410481   3.795   4.723  13.486  0.7963  0.0501  0.1930
  709TMC3    C510482   3.747   4.704  13.358  0.6957  0.2013  0.4316
  709TMC3    C610483   3.794   4.609  13.273  0.1168 -0.1831 -0.1239
  709TMC3     C10484   3.881   4.596  13.655 -0.7563  0.4932  0.0116
  709TMC3     O10485   3.776   4.630  13.708 -0.1198 -0.1550 -0.0497
  709TMC3     H10486   4.057   4.515  13.440  0.5031  1.2494  0.2276
  709TMC3    H110487   3.756   0.069  13.558  0.2689 -0.2297  0.1724
  709TMC3    H210488   3.741   4.579  13.183  0.2982 -0.2788 -0.1991
  709TMC3    C710489   3.598   4.702  13.370 -0.0081 -0.6548  0.3016
  709TMC3    C810490   3.929   4.409  13.260 -0.0579 -0.5242  0.1258
  709TMC3    O110491   3.530   4.680  13.273  0.4981 -0.0996 -0.1566
  709TMC3    O210492   3.966   4.323  13.341  0.1253 -0.2082 -0.0406
  710TMC3    C110493   4.335   0.978   0.285 -0.2803  0.2218 -0.5611
  710TMC3    C210494   4.374   0.953   0.157 -0.5135  0.3921  0.1907
  710TMC3    C310495   4.489   0.886   0.132  0.7570 -0.0266 -0.3675
  710TMC3    C410496   4.422   0.957   0.385  0.1786  0.1999  0.1375
  710TMC3    C510497   4.549   0.910   0.357  0.0121 -0.1414 -0.1410
  710TMC3    C610498   4.581   0.863   0.229  0.5236 -0.2176  0.2421
  710TMC3     C10499   4.218   1.069   0.309 -1.1780 -0.0939  0.0342
  710TMC3     O10500   4.132   1.089   0.226  0.1102 -0.7541 -0.3224
  710TMC3     H10501   4.309   0.995   0.080 -1.1167  0.6568  0.8428
  710TMC3    H110502   4.407   0.976   0.491  0.5993  1.4193 -0.0182
  710TMC3    H210503   4.685   0.840   0.207  0.9053  1.4021  0.3208
  710TMC3    C710504   4.649   0.931   0.461  1.0187  0.3036 -0.3596
  710TMC3    C810505   4.535   0.863  17.690 -0.0050 -0.3345  0.4351
  710TMC3    O110506   4.621   0.938   0.582  0.4292 -0.3829  0.0299
  710TMC3    O210507   4.655   0.845  17.667  0.1967 -0.2891 -0.3347
  711TMC3    C110508   3.950   2.037  15.165 -0.2307  0.9806 -0.3354
  711TMC3    C210509   3.922   2.146  15.253 -0.2691 -0.0051  0.5956
  711TMC3    C310510   4.037   2.223  15.283 -0.1444  0.1658  0.1359
  711TMC3    C410511   4.073   1.998  15.119 -0.1676 -0.4804 -0.7304
  711TMC3    C510512   4.164   2.090  15.148  0.3881  0.6315  0.4195
  711TMC3    C610513   4.151   2.202  15.224  0.0439  0.3018  0.1718
  711TMC3     C10514   3.835   1.970  15.094  0.2010 -0.2993 -0.3346
  711TMC3     O10515   3.863   1.860  15.040  0.5283 -0.4478  0.1806
  711TMC3     H10516   3.828   2.157  15.304 -1.5328  1.3887 -2.0470
  711TMC3    H110517   4.098   1.909  15.063  0.6908 -2.3052  2.5110
  711TMC3    H210518   4.230   2.275  15.230  1.0629 -0.8042  0.1618
  711TMC3    C710519   4.300   2.041  15.145  0.5650  0.6031  0.6887
  711TMC3    C810520   4.051   2.260  15.418 -1.2300 -0.7035 -0.6495
  711TMC3    O110521   4.351   2.026  15.254  0.1010  0.6447 -0.1809
  711TMC3    O210522   3.942   2.291  15.464  0.0154 -0.1588 -0.1381
  712MPD2     C10523   1.016   2.851  13.849  0.0533 -0.1772 -0.3324
  712MPD2    C110524   0.997   2.916  13.726 -0.2088 -0.0318  0.2970
  712MPD2    C210525   1.036   3.052  13.721  0.4280 -0.0881  1.0336
  712MPD2    C310526   1.073   3.122  13.832 -0.2986  0.3992 -0.0775
  712MPD2    C410527   1.090   3.053  13.945  0.9320 -1.3933  0.7791
  712MPD2    C510528   1.064   2.920  13.960 -0.5480  0.3431  0.3419
  712MPD2     H10529   1.009   3.095  13.625  2.8503 -0.0185  0.3865
  712MPD2    H110530   1.137   3.100  14.031  1.5869 -2.1861  0.8553
  712MPD2    H210531   1.004   2.744  13.856 -1.1005 -0.0796 -0.8172
  712MPD2    H310532   1.089   2.879  14.056  0.3377 -1.4846 -0.6688
  712MPD2     N10533   1.106   3.256  13.829  0.4534 -0.1711 -1.0549
  712MPD2    H510534   1.161   3.302  13.901 -0.4266 -0.5716 -0.1133
  712MPD2    N110535   0.970   2.844  13.607  0.6352 -0.0363  0.1383
  712MPD2    H710536   0.980   2.892  13.517  1.6128  0.1583  0.3528
  713TMC3    C110537   1.093   3.474  13.754 -0.9439 -0.4286 -0.6241
  713TMC3    C210538   1.233   3.477  13.736  0.0922 -0.1650 -0.1175
  713TMC3    C310539   1.288   3.592  13.687 -0.4903  0.7607 -0.3524
  713TMC3    C410540   1.015   3.569  13.692  0.4754  0.3750 -0.1347
  713TMC3    C510541   1.070   3.686  13.651  0.1612 -0.0205  0.4354
  713TMC3    C610542   1.206   3.696  13.651  0.2738  0.3907  1.3493
  713TMC3     C10543   1.035   3.340  13.741  0.1917 -0.2954 -0.3015
  713TMC3     O10544   0.941   3.324  13.667 -0.3578  0.2264 -0.3326
  713TMC3     H10545   1.303   3.404  13.777  2.3332  2.4474  0.6715
  713TMC3    H110546   0.909   3.546  13.682  1.0884 -1.8684 -1.3839
  713TMC3    H210547   1.262   3.781  13.615 -0.9605  0.1974 -1.0374
  713TMC3    C710548   0.991   3.809  13.658  0.1305 -0.0363  0.4014
  713TMC3    C810549   1.429   3.609  13.695 -0.6188  0.3822  0.5301
  713TMC3    O110550   1.053   3.909  13.676  0.4024  0.1301 -0.3738
  713TMC3    O210551   1.461   3.729  13.674  0.1057 -0.5683 -0.0652
  714MPD2     C10552   3.138   1.549   1.777  0.0698 -0.6897 -0.5912
  714MPD2    C110553   3.188   1.503   1.657  0.1556  0.6842  0.9994
  714MPD2    C210554   3.101   1.477   1.554 -0.3503  0.3446  0.1113
  714MPD2    C310555   2.969   1.514   1.568  0.7966  0.1148  0.0767
  714MPD2    C410556   2.919   1.559   1.691 -0.4883 -0.4794  0.3439
  714MPD2    C510557   3.003   1.575   1.795 -0.1104 -0.3181 -0.6960
  714MPD2     H10558   3.142   1.437   1.462 -0.8425 -1.9373  0.8740
  714MPD2    H110559   2.814   1.575   1.712 -0.8886  0.7725 -2.6543
  714MPD2    H210560   3.214   1.570   1.851  1.1076 -1.3290 -1.4815
  714MPD2    H310561   2.961   1.620   1.884 -2.6444  0.4852 -2.2913
  714MPD2     N10562   2.885   1.509   1.452 -1.1793 -0.3470  0.3236
  714MPD2    H510563   2.927   1.470   1.368 -1.1113  0.1697  0.1164
  714MPD2    N110564   3.328   1.495   1.651 -0.5846 -0.1670 -0.3743
  714MPD2    H710565   3.374   1.528   1.736 -0.6036  0.5237 -0.6361
  715TMC3    C110566   3.546   1.437   1.578  0.0005 -0.4272 -0.3946
  715TMC3    C210567   3.620   1.334   1.527 -0.2632  0.6789  0.4621
  715TMC3    C310568   3.758   1.343   1.529  0.6892  0.5920 -0.2547
  715TMC3    C410569   3.601   1.542   1.638 -0.4466 -0.0107 -0.2091
  715TMC3    C510570   3.737   1.555   1.640 -0.6662  0.1324  0.4980
  715TMC3    C610571   3.815   1.457   1.579 -0.4830 -0.1240  0.0910
  715TMC3     C10572   3.408   1.444   1.546  0.8005  0.0423 -0.3247
  715TMC3     O10573   3.370   1.377   1.452  0.0584  0.1479 -0.3646
  715TMC3     H10574   3.575   1.241   1.493  2.1163 -0.2264 -0.1833
  715TMC3    H110575   3.530   1.618   1.668 -0.3175 -0.8677  2.2467
  715TMC3    H210576   3.922   1.460   1.597 -0.3669 -0.3462 -0.5580
  715TMC3    C710577   3.805   1.667   1.707  1.0002  0.0972 -0.7676
  715TMC3    C810578   3.837   1.231   1.487 -0.2919  0.1122 -0.7447
  715TMC3    O110579   3.925   1.669   1.676 -0.9340 -0.1194 -0.1379
  715TMC3    O210580   3.775   1.125   1.488  0.0241  0.1897 -0.1401
  716MPD2     C10581   3.348   4.471  10.069  0.0949  0.7670  0.0067
  716MPD2    C110582   3.337   4.501   9.939 -0.3142 -0.6525  0.7170
  716MPD2    C210583   3.390   4.418   9.840  0.7139 -0.0100 -0.1813
  716MPD2    C310584   3.477   4.315   9.880 -0.8084 -0.1491 -0.1020
  716MPD2    C410585   3.503   4.296  10.020 -0.0100  0.1627  1.0815
  716MPD2    C510586   3.429   4.368  10.109 -0.0160  0.2904 -0.1352
  716MPD2     H10587   3.361   4.429   9.736  0.2354  1.1492  0.0704
  716MPD2    H110588   3.567   4.217  10.058  2.1475  1.8257  0.9073
  716MPD2    H210589   3.303   4.532  10.147  1.0365  0.7773  0.5500
  716MPD2    H310590   3.445   4.346  10.214  0.0833  0.7433 -0.0530
  716MPD2     N10591   3.528   4.224   9.784  0.4086  0.4272  0.4231
  716MPD2    H510592   3.502   4.239   9.687 -0.4904  0.0383  0.6064
  716MPD2    N110593   3.256   4.609   9.904  0.1062  0.1161  1.0296
  716MPD2    H710594   3.196   4.653   9.972 -1.2520  0.5389 -0.4318
  717TMC3    C110595   3.592   4.009   9.693  0.2622 -0.2099 -0.3557
  717TMC3    C210596   3.529   4.035   9.575 -0.6372  0.6644 -0.2726
  717TMC3    C310597   3.528   3.946   9.473  0.1554 -0.9583 -0.0116
  717TMC3    C410598   3.657   3.890   9.705 -0.5986 -0.4560  0.2999
  717TMC3    C510599   3.654   3.794   9.605 -1.5475  0.2352  0.1056
  717TMC3    C610600   3.586   3.820   9.481 -0.1168  0.1411 -0.1527
  717TMC3     C10601   3.591   4.104   9.805  0.2473 -0.4507 -0.5808
  717TMC3     O10602   3.636   4.059   9.906 -0.0602 -0.5102  0.4159
  717TMC3     H10603   3.476   4.128   9.562 -0.4290  0.8169 -0.0034
  717TMC3    H110604   3.703   3.868   9.800  0.8965 -2.3763 -0.8793
  717TMC3    H210605   3.576   3.744   9.404  0.3530 -0.1466  0.0718
  717TMC3    C710606   3.725   3.672   9.629  0.2782  0.9930 -0.1972
  717TMC3    C810607   3.451   3.971   9.351  0.4603 -0.1231  0.1318
  717TMC3    O110608   3.774   3.661   9.742 -0.3585  0.0182 -0.4502
  717TMC3    O210609   3.350   4.025   9.377  0.5563  0.3200  0.1182
  718MPD2     C10610   2.963   3.539  12.870  0.4346 -0.0657 -0.0774
  718MPD2    C110611   2.853   3.621  12.864 -0.4731 -0.1939  0.3934
  718MPD2    C210612   2.748   3.585  12.785 -0.0834 -0.0432  0.6155
  718MPD2    C310613   2.744   3.453  12.723  0.5381 -0.8127 -0.2926
  718MPD2    C410614   2.848   3.368  12.743  0.7107 -0.5164  0.3901
  718MPD2    C510615   2.961   3.412  12.805  1.1627 -0.0058  0.1410
  718MPD2     H10616   2.664   3.650  12.766 -1.0033 -0.9266  1.6134
  718MPD2    H110617   2.834   3.267  12.706  1.3000 -1.1303  1.8228
  718MPD2    H210618   3.053   3.569  12.922  0.7357  1.0930 -1.2819
  718MPD2    H310619   3.048   3.349  12.816  0.2763 -1.7501 -2.8288
  718MPD2     N10620   2.616   3.424  12.667  0.3617  0.0114  0.3369
  718MPD2    H510621   2.559   3.508  12.663  0.6674  0.3221  2.4100
  718MPD2    N110622   2.869   3.738  12.938  0.5348 -0.5957  0.4542
  718MPD2    H710623   2.955   3.745  12.991  1.3069 -1.4703 -0.6783
  719TMC3    C110624   2.821   3.975  12.978  0.1193 -0.9766  0.4620
  719TMC3    C210625   2.727   4.067  12.941  0.5634  0.2163 -0.7348
  719TMC3    C310626   2.761   4.168  12.860 -0.5367  0.4702  0.7964
  719TMC3    C410627   2.957   3.997  12.949  0.3546  0.6052 -0.5119
  719TMC3    C510628   2.981   4.112  12.881  0.1044 -0.3219  0.3585
  719TMC3    C610629   2.892   4.194  12.829  0.0120  0.3009 -0.3512
  719TMC3     C10630   2.781   3.845  12.927 -0.1938  1.0905  0.3490
  719TMC3     O10631   2.667   3.846  12.877  0.1961  0.1996  0.3109
  719TMC3     H10632   2.626   4.052  12.977  1.0343 -0.3536  0.3613
  719TMC3    H110633   3.036   3.923  12.959 -0.1649 -0.0480 -1.1801
  719TMC3    H210634   2.921   4.277  12.765  2.3390  1.6406  2.4469
  719TMC3    C710635   3.112   4.106  12.813 -0.5853  0.2321 -0.9649
  719TMC3    C810636   2.669   4.189  12.754 -0.1134  0.1237 -0.0500
  719TMC3    O110637   3.120   4.140  12.698  0.5214  0.3650  0.2617
  719TMC3    O210638   2.672   4.286  12.677  0.4707 -0.5890  0.2079
  720MPD2     C10639   0.917   0.258  13.939 -0.3871 -0.9499  0.1198
  720MPD2    C110640   1.039   0.292  13.888 -0.0128  0.3563  1.1743
  720MPD2    C210641   1.157   0.275  13.963 -0.3655 -0.2100  0.4931
  720MPD2    C310642   1.155   0.238  14.098  0.7496  0.3595  0.5648
  720MPD2    C410643   1.030   0.206  14.151 -0.9769  0.4960  0.2930
  720MPD2    C510644   0.922   0.229  14.074  0.6867 -0.7487 -0.4434
  720MPD2     H10645   1.251   0.308  13.922  0.0043  0.0313  1.5370
  720MPD2    H110646   1.009   0.175  14.253 -0.1235 -0.7025  0.1032
  720MPD2    H210647   0.822   0.263  13.887 -0.5183 -0.9973  0.3541
  720MPD2    H310648   0.829   0.216  14.129  0.0340 -0.1607 -1.4048
  720MPD2     N10649   1.271   0.244  14.164  0.5761 -0.1409 -0.0904
  720MPD2    H510650   1.352   0.263  14.106  0.6440 -1.1848 -0.3418
  720MPD2    N110651   1.057   0.339  13.757  0.3013  0.0143  0.0082
  720MPD2    H710652   1.149   0.358  13.719 -0.3666  0.5132 -1.3772
  721TMC3    C110653   1.410   0.260  14.363 -0.5721 -0.5677 -0.1179
  721TMC3    C210654   1.404   0.270  14.500  0.4236  0.3945  0.2392
  721TMC3    C310655   1.519   0.286  14.569  0.6290  0.6906  0.0675
  721TMC3    C410656   1.531   0.256  14.301 -0.0737 -0.1065 -0.3897
  721TMC3    C510657   1.641   0.270  14.375 -0.4323 -0.7256 -0.7796
  721TMC3    C610658   1.639   0.289  14.505  0.5033 -0.1628 -0.0676
  721TMC3     C10659   1.283   0.222  14.300  0.2168 -0.5530 -0.0654
  721TMC3     O10660   1.204   0.168  14.376  0.9612 -0.6823 -0.3230
  721TMC3     H10661   1.312   0.282  14.556  2.0479  2.5936  2.4249
  721TMC3    H110662   1.542   0.230  14.196  1.0810  0.3294 -0.3836
  721TMC3    H210663   1.727   0.303  14.567  0.9685  2.5355 -1.3346
  721TMC3    C710664   1.772   0.240  14.318  0.3523  0.6023 -0.0139
  721TMC3    C810665   1.525   0.334  14.705 -0.3026 -0.5609 -0.4741
  721TMC3    O110666   1.811   0.294  14.217  0.0461 -0.3663  0.2316
  721TMC3    O210667   1.603   0.423  14.739 -0.1883 -0.1336  0.3134
  722MPD2     C10668   4.615   3.571  13.257  0.3771  0.3847  0.5075
  722MPD2    C110669   4.569   3.695  13.211 -0.5989  0.8093  0.0942
  722MPD2    C210670   4.450   3.694  13.139  0.3209  0.2171 -0.0674
  722MPD2    C310671   4.395   3.578  13.094  1.0050  0.2880  0.1894
  722MPD2    C410672   4.457   3.460  13.130  0.1659 -0.0853  0.2548
  722MPD2    C510673   4.557   3.457  13.215 -0.3196  0.2996 -0.1088
  722MPD2     H10674   4.407   3.790  13.115  1.9016  0.1153 -3.1904
  722MPD2    H110675   4.420   3.367  13.089  1.6847 -0.3149 -0.6043
  722MPD2    H210676   4.699   3.565  13.325  0.9463 -3.0352 -0.4988
  722MPD2    H310677   4.596   3.360  13.243 -3.3951 -1.0753 -0.5695
  722MPD2     N10678   4.270   3.569  13.025  0.1865  0.1882 -0.2530
  722MPD2    H510679   4.245   3.476  12.992 -1.1419  0.7547 -0.8459
  722MPD2    N110680   4.624   3.820  13.248  0.0205 -0.0948 -0.0614
  722MPD2    H710681   4.578   3.906  13.222 -1.9136 -1.0466  0.2360
  723TMC3    C110682   4.108   3.658  12.884  0.2599  0.4928  0.0404
  723TMC3    C210683   4.116   3.546  12.811 -0.4345 -0.1355 -0.0927
  723TMC3    C310684   4.094   3.560  12.676 -0.4839  0.1157  0.3721
  723TMC3    C410685   4.065   3.777  12.828 -0.5689 -0.0678  0.1706
  723TMC3    C510686   4.037   3.784  12.696  0.2174  0.0640  0.4998
  723TMC3    C610687   4.045   3.673  12.616  0.0180 -0.5165  0.3030
  723TMC3     C10688   4.190   3.670  13.007  0.8260 -0.4524  0.0486
  723TMC3     O10689   4.175   3.778  13.063 -0.2783 -0.2703 -0.1213
  723TMC3     H10690   4.127   3.450  12.860 -1.3593 -0.3395 -0.2883
  723TMC3    H110691   4.063   3.867  12.888  1.5868 -0.9583  1.5718
  723TMC3    H210692   4.020   3.671  12.511 -1.2196  0.1762  0.5937
  723TMC3    C710693   4.069   3.897  12.619 -0.0911  0.0274 -0.0184
  723TMC3    C810694   4.120   3.445  12.591  0.0738  0.5606  0.3030
  723TMC3    O110695   4.063   3.883  12.495 -0.1069  0.1714  0.7252
  723TMC3    O210696   4.146   3.477  12.473 -0.1101 -0.3356 -0.1220
  724TMC3    C110697   0.188   1.607   9.918  0.7331  0.3044  0.1617
  724TMC3    C210698   0.136   1.713   9.858 -0.1833 -0.3005  0.2466
  724TMC3    C310699   0.217   1.822   9.844 -0.0839 -0.3596 -0.1234
  724TMC3    C410700   0.320   1.595   9.956  0.2384  0.3678 -0.1749
  724TMC3    C510701   0.396   1.709   9.935  0.7465  0.4235 -0.4484
  724TMC3    C610702   0.350   1.823   9.870 -0.4699 -0.0046 -0.5361
  724TMC3     C10703   0.118   1.484   9.901  0.2235 -0.4726 -0.6894
  724TMC3     O10704   0.150   1.410   9.992 -0.5824  0.2040  0.1061
  724TMC3     H10705   0.032   1.731   9.833 -0.8372 -0.7532  2.6158
  724TMC3    H110706   0.364   1.504   9.996 -1.9567 -0.1562  1.0653
  724TMC3    H210707   0.413   1.909   9.855  0.6139 -0.7431 -0.2171
  724TMC3    C710708   0.530   1.723   9.997 -0.1569  0.3049  0.1462
  724TMC3    C810709   0.155   1.942   9.786  0.1377 -0.0104  0.1556
  724TMC3    O110710   0.592   1.815   9.950  0.1663 -0.1903 -0.5258
  724TMC3    O210711   0.048   1.924   9.733 -0.5029 -0.3015 -0.3174
  725TMC3    C110712   1.611   0.586  12.743 -0.0556 -0.5046 -0.0817
  725TMC3    C210713   1.597   0.566  12.607  0.6424 -0.4933 -0.0920
  725TMC3    C310714   1.615   0.437  12.556  0.0388  0.4260  0.0664
  725TMC3    C410715   1.643   0.479  12.829  0.3069 -0.4030 -0.1614
  725TMC3    C510716   1.666   0.354  12.779 -0.1851  0.2785  0.4963
  725TMC3    C610717   1.643   0.331  12.645  0.4364 -0.1734  0.3567
  725TMC3     C10718   1.578   0.719  12.795 -0.1655 -0.3627  0.2716
  725TMC3     O10719   1.576   0.816  12.721  0.0573  0.4626  0.1253
  725TMC3     H10720   1.571   0.645  12.538  2.2598  0.0687 -0.0429
  725TMC3    H110721   1.661   0.502  12.933 -1.8238  2.4251 -0.4081
  725TMC3    H210722   1.645   0.233  12.599  0.7332 -0.7145  1.5210
  725TMC3    C710723   1.757   0.260  12.847  0.1447 -0.1181 -0.1888
  725TMC3    C810724   1.580   0.409  12.418  0.3183 -0.0469  0.8577
  725TMC3    O110725   1.782   0.157  12.790  0.0059 -0.2996  0.5607
  725TMC3    O210726   1.508   0.310  12.401  0.1131  0.0499  0.0314
  726MPD2     C10727   4.361   2.047  10.249 -0.1419 -0.6148  1.1005
  726MPD2    C110728   4.321   2.147  10.340  1.3792 -0.3996 -0.2321
  726MPD2    C210729   4.244   2.111  10.444 -0.7910  0.1909  0.5909
  726MPD2    C310730   4.208   1.977  10.462  0.2077 -0.2566 -0.5452
  726MPD2    C410731   4.258   1.884  10.374 -0.4863  0.1365  0.6775
  726MPD2    C510732   4.329   1.921  10.266  0.5048  0.5676  0.1826
  726MPD2     H10733   4.194   2.180  10.511 -1.2523  0.5255 -0.0972
  726MPD2    H110734   4.244   1.777  10.385 -0.1875  0.0745  0.4522
  726MPD2    H210735   4.429   2.061  10.166 -2.4483  2.6365 -0.2225
  726MPD2    H310736   4.358   1.843  10.196  0.2877 -1.4178  2.3088
  726MPD2     N10737   4.112   1.934  10.553 -0.3846  0.4341 -0.5616
  726MPD2    H510738   4.089   1.835  10.549 -1.1092  0.6635 -1.9444
  726MPD2    N110739   4.369   2.283  10.347 -0.4579  0.1973  0.0799
  726MPD2    H710740   4.353   2.337  10.432 -1.2369 -3.2510  2.1352
  727TMC3    C110741   4.435   2.488  10.269  0.4952 -0.9255  0.4673
  727TMC3    C210742   4.508   2.521  10.383 -0.4647  0.0969 -0.0205
  727TMC3    C310743   4.530   2.653  10.400 -0.1900  0.4110  0.0906
  727TMC3    C410744   4.429   2.572  10.158  0.7357 -0.5847 -0.1900
  727TMC3    C510745   4.486   2.693  10.167 -0.3300  0.5061  0.7228
  727TMC3    C610746   4.524   2.740  10.293 -0.0929  0.0382  0.1103
  727TMC3     C10747   4.421   2.350  10.239 -0.1690 -0.7330 -0.1635
  727TMC3     O10748   4.439   2.318  10.124  0.1413  0.3562 -0.2588
  727TMC3     H10749   4.518   2.446  10.460 -1.4840  0.5112  0.5202
  727TMC3    H110750   4.384   2.541  10.064  0.4070  2.0799 -0.9246
  727TMC3    H210751   4.562   2.837  10.322  0.6806 -0.2599  0.0977
  727TMC3    C710752   4.419   2.790  10.084 -0.0338  0.5547 -0.7233
  727TMC3    C810753   4.615   2.684  10.520  0.2267  0.2176  0.9935
  727TMC3    O110754   4.310   2.760  10.037 -0.0397  0.3334  0.0577
  727TMC3    O210755   4.691   2.592  10.549  0.0310 -0.4447 -0.0537
  728TMC3    C110756   3.488   0.725  15.470  0.3341 -0.3506  0.0915
  728TMC3    C210757   3.612   0.667  15.516  0.4786 -0.0192  0.2148
  728TMC3    C310758   3.724   0.685  15.436 -0.0937 -0.3639 -0.5179
  728TMC3    C410759   3.475   0.776  15.346 -0.1356 -0.0130 -0.0171
  728TMC3    C510760   3.586   0.776  15.261 -0.3338  0.5553  0.4604
  728TMC3    C610761   3.710   0.736  15.310  0.0677  0.2294 -0.4386
  728TMC3     C10762   3.367   0.685  15.543 -0.4123 -0.0482 -0.3625
  728TMC3     O10763   3.267   0.646  15.486  0.0547  0.1420  0.2248
  728TMC3     H10764   3.625   0.626  15.616 -1.9793  0.0217  0.5569
  728TMC3    H110765   3.378   0.804  15.306  0.1453  0.4400 -0.3700
  728TMC3    H210766   3.797   0.769  15.256 -0.1471 -0.3195 -1.1180
  728TMC3    C710767   3.583   0.863  15.149 -0.0465  0.3232 -0.2720
  728TMC3    C810768   3.855   0.649  15.491 -0.6607 -0.2478  0.1793
  728TMC3    O110769   3.510   0.958  15.138 -0.1810  0.0807 -0.2651
  728TMC3    O210770   3.861   0.620  15.608 -0.5329 -0.1537 -0.0790
  729MPD2     C10771   0.546   2.340  17.145  0.5899 -0.5045  0.5019
  729MPD2    C110772   0.650   2.246  17.150 -0.6115  0.4286 -0.2810
  729MPD2    C210773   0.692   2.203  17.279  0.1307  0.7636  0.0422
  729MPD2    C310774   0.636   2.252  17.400  0.0282  0.3273 -0.3416
  729MPD2    C410775   0.540   2.351  17.382  0.1271 -0.0817 -0.1587
  729MPD2    C510776   0.503   2.398  17.263  0.1196  0.4219  0.6462
  729MPD2     H10777   0.761   2.121  17.292  2.1119  2.6479  1.3659
  729MPD2    H110778   0.493   2.398  17.468  1.1704  1.0341 -0.1898
  729MPD2    H210779   0.515   2.379  17.048 -2.5405 -1.0953  1.2683
  729MPD2    H310780   0.429   2.477  17.258  0.2575  0.3715 -1.9019
  729MPD2     N10781   0.681   2.226  17.539 -0.4796 -0.3266  0.1102
  729MPD2    H510782   0.647   2.284  17.615  0.5971  0.4313  0.0099
  729MPD2    N110783   0.700   2.199  17.030 -0.3080  0.9827  0.0702
  729MPD2    H710784   0.657   2.244  16.949 -1.1621 -0.8010 -0.4614
  730TMC3    C110785   0.844   2.164   0.004  0.4548  0.3584  0.1114
  730TMC3    C210786   0.964   2.095   0.001 -0.0065  0.5264 -0.5298
  730TMC3    C310787   1.086   2.159   0.029  0.1298  0.3327  0.3062
  730TMC3    C410788   0.836   2.298   0.027 -0.3579  0.9103 -0.0103
  730TMC3    C510789   0.960   2.359   0.045  0.4960  0.1486  0.0641
  730TMC3    C610790   1.081   2.296   0.045  0.5995 -0.1234  0.3233
  730TMC3     C10791   0.783   2.137  17.574  0.4854 -0.0859  0.2509
  730TMC3     O10792   0.851   2.077  17.494  0.4803 -0.6476 -0.0122
  730TMC3     H10793   0.963   1.990  17.673 -1.6155  0.3931  0.0961
  730TMC3    H110794   0.746   2.359   0.036  0.3640  2.1991 -1.6605
  730TMC3    H210795   1.179   2.333   0.019 -0.1902 -0.0173 -2.5465
  730TMC3    C710796   0.971   2.494  17.684 -0.2741 -0.1459 -0.3233
  730TMC3    C810797   1.187   2.128  17.635 -0.0752 -0.1037  0.7706
  730TMC3    O110798   1.062   2.514  17.605  1.3786 -0.0678 -0.3453
  730TMC3    O210799   1.303   2.165  17.650  0.1577  0.7709 -0.3148
  731MPD2     C10800   0.936   4.299  12.382  0.1245  1.2514  0.0534
  731MPD2    C110801   1.073   4.291  12.411 -0.3146  0.7479 -0.0209
  731MPD2    C210802   1.102   4.248  12.541 -0.4664 -0.2966 -0.4064
  731MPD2    C310803   1.006   4.229  12.640  0.1419  0.2229  0.0356
  731MPD2    C410804   0.875   4.249  12.604 -0.0240 -0.4228 -0.4037
  731MPD2    C510805   0.838   4.273  12.470 -0.0208 -0.2347 -0.7806
  731MPD2     H10806   1.205   4.244  12.575  0.1469  2.2080 -1.9827
  731MPD2    H110807   0.800   4.233  12.680  0.1549  0.4501 -0.0443
  731MPD2    H210808   0.900   4.334  12.286  0.5943  1.6842  0.0344
  731MPD2    H310809   0.732   4.293  12.456  0.0327 -0.4465 -1.4931
  731MPD2     N10810   1.056   4.210  12.773 -0.3447  0.4315 -0.8468
  731MPD2    H510811   1.156   4.221  12.782 -0.5492 -0.0683  1.8699
  731MPD2    N110812   1.167   4.335  12.316  0.1962 -0.5948  0.3053
  731MPD2    H710813   1.125   4.379  12.234  0.7463  1.0676  0.9197
  732TMC3    C110814   1.381   4.362  12.214 -0.6356 -0.2073  0.2189
  732TMC3    C210815   1.360   4.316  12.091  1.1115 -0.2752  0.5638
  732TMC3    C310816   1.459   4.331  11.993 -0.3710  0.1068  0.3105
  732TMC3    C410817   1.494   4.430  12.249  0.3945  0.6858 -0.1991
  732TMC3    C510818   1.592   4.441  12.156  0.3937 -0.5245  0.1710
  732TMC3    C610819   1.582   4.377  12.034  0.7385 -0.3807 -0.4438
  732TMC3     C10820   1.302   4.310  12.325 -0.0004  0.4209  0.1767
  732TMC3     O10821   1.366   4.242  12.404 -0.3261 -0.1763  0.6263
  732TMC3     H10822   1.262   4.275  12.068  1.4977 -0.2759 -1.1468
  732TMC3    H110823   1.504   4.467  12.351  0.0399  0.2560 -0.0036
  732TMC3    H210824   1.656   4.399  11.958  0.7026  0.7979 -0.1400
  732TMC3    C710825   1.723   4.481  12.207 -1.0552 -0.3140 -0.5365
  732TMC3    C810826   1.426   4.341  11.852  0.0071 -0.2057  0.1775
  732TMC3    O110827   1.819   4.421  12.168 -0.4685 -0.6693 -0.6242
  732TMC3    O210828   1.491   4.421  11.786 -0.0088  0.0346 -0.2137
  733TMC3    C110829   2.234   3.320  12.523  0.2817 -0.6536 -0.5137
  733TMC3    C210830   2.354   3.258  12.552 -0.3469  0.2859  0.3589
  733TMC3    C310831   2.462   3.337  12.533 -0.7241 -0.2530 -0.3394
  733TMC3    C410832   2.221   3.442  12.466  0.1293  0.5709 -0.4307
  733TMC3    C510833   2.334   3.503  12.427 -0.0712  0.0004  0.2513
  733TMC3    C610834   2.450   3.459  12.480  0.0541  0.2303  0.4458
  733TMC3     C10835   2.134   3.301  12.618  0.1451  0.0006  0.1181
  733TMC3     O10836   2.062   3.402  12.643 -0.1651  0.2966 -0.0976
  733TMC3     H10837   2.360   3.154  12.581 -2.6944  0.6958  2.2310
  733TMC3    H110838   2.127   3.494  12.447 -0.4899  0.2817  1.8547
  733TMC3    H210839   2.538   3.519  12.461  0.5117 -0.6700 -0.2848
  733TMC3    C710840   2.315   3.646  12.417 -0.1682 -0.2457  0.3199
  733TMC3    C810841   2.576   3.312  12.608 -0.3205 -0.0720 -0.0914
  733TMC3    O110842   2.237   3.688  12.334  0.0842  0.0911  0.9840
  733TMC3    O210843   2.607   3.197  12.629  0.1218 -0.2271 -0.0068
  734MPD2     C10844   4.237   1.022  12.159 -0.2224 -0.3955 -0.3842
  734MPD2    C110845   4.154   0.955  12.074 -0.3349 -0.3261  0.3550
  734MPD2    C210846   4.168   0.978  11.935  0.0964 -0.2700  0.3873
  734MPD2    C310847   4.253   1.072  11.881  0.1869  0.8057 -0.2390
  734MPD2    C410848   4.313   1.157  11.975  0.4931 -0.1333 -0.3794
  734MPD2    C510849   4.308   1.129  12.111  0.3730 -0.6227 -0.3953
  734MPD2     H10850   4.116   0.915  11.863 -1.1006  0.7491  0.3555
  734MPD2    H110851   4.372   1.242  11.942  0.2182  0.0512 -0.3928
  734MPD2    H210852   4.231   1.010  12.267  0.4166  1.6393 -0.1047
  734MPD2    H310853   4.385   1.180  12.168 -0.5719  2.3914 -1.8432
  734MPD2     N10854   4.256   1.089  11.742 -0.3051  0.5914 -0.1599
  734MPD2    H510855   4.213   1.022  11.680  0.6749 -0.9903  0.8567
  734MPD2    N110856   4.065   0.858  12.123 -0.0140 -0.3129  0.6649
  734MPD2    H710857   4.085   0.820  12.215 -1.3903 -1.4839  0.4776
  735TMC3    C110858   3.882   0.712  12.104 -0.4576  0.5448 -0.8119
  735TMC3    C210859   3.754   0.718  12.049 -0.0676  0.2073  0.8567
  735TMC3    C310860   3.708   0.605  11.979 -0.2103 -0.5120 -0.7165
  735TMC3    C410861   3.958   0.595  12.108 -0.2142  0.9450 -0.6837
  735TMC3    C510862   3.898   0.480  12.058  0.4722 -0.2911  0.2557
  735TMC3    C610863   3.773   0.487  11.997 -0.8063  0.2711  0.6702
  735TMC3     C10864   3.960   0.817  12.047  0.1388  0.6743  0.2423
  735TMC3     O10865   3.909   0.865  11.944  0.3271  0.4440  0.3377
  735TMC3     H10866   3.695   0.807  12.034  0.1959 -0.1499 -2.3342
  735TMC3    H110867   4.059   0.597  12.147 -0.0792  1.3415 -1.0613
  735TMC3    H210868   3.740   0.400  11.941  0.2652 -1.0254  2.0660
  735TMC3    C710869   3.994   0.397  11.986  0.4557 -0.2470 -0.7791
  735TMC3    C810870   3.651   0.633  11.847  0.2030  0.0751  0.3376
  735TMC3    O110871   4.103   0.450  11.975 -0.8206  0.9628 -0.0121
  735TMC3    O210872   3.577   0.544  11.804  0.1189 -0.1780  0.0417
  736MPD2     C10873   3.967   0.028  11.915  0.3207  0.4593  0.3229
  736MPD2    C110874   4.027   0.153  11.924  0.1593 -0.8210 -0.8135
  736MPD2    C210875   4.164   0.169  11.881 -0.1744 -0.2999 -0.1588
  736MPD2    C310876   4.238   0.057  11.831  0.1225 -0.3655  0.1227
  736MPD2    C410877   4.170   4.666  11.835 -0.1001 -0.1361  0.6815
  736MPD2    C510878   4.033   4.649  11.856 -0.4648 -0.2431  0.7058
  736MPD2     H10879   4.211   0.265  11.893  1.7453 -1.4803  1.6573
  736MPD2    H110880   4.230   4.577  11.818  1.7688  1.3224 -0.2939
  736MPD2    H210881   3.868   0.013  11.956 -0.2844 -1.4543 -1.8874
  736MPD2    H310882   3.994   4.549  11.845 -1.5485  0.1591  0.8739
  736MPD2     N10883   4.369   0.061  11.784 -0.0799  0.7952 -0.7652
  736MPD2    H510884   4.407   4.701  11.741  3.5567  1.7690  0.5578
  736MPD2    N110885   3.954   0.264  11.978  0.3182  0.4584  0.0520
  736MPD2    H710886   3.855   0.245  11.992 -0.4681  1.4118 -4.3050
  737TMC3    C110887   4.570   0.154  11.732  0.4517  0.1302  0.6097
  737TMC3    C210888   4.614   0.252  11.655 -0.8973 -0.2382  0.4134
  737TMC3    C310889   4.721   0.230  11.566 -0.1986  0.7778 -0.3576
  737TMC3    C410890   4.624   0.028  11.727  0.4780  0.0052  0.2705
  737TMC3    C510891   0.005   0.009  11.643  0.3001  0.3914 -0.1257
  737TMC3    C610892   0.059   0.109  11.558  0.1296  0.7721 -0.4791
  737TMC3     C10893   4.439   0.178  11.786 -0.5196 -0.5349 -0.4462
  737TMC3     O10894   4.405   0.296  11.797 -0.3553  0.2385 -0.4329
  737TMC3     H10895   4.556   0.344  11.653  0.4675  0.6360  0.6170
  737TMC3    H110896   4.594   4.680  11.802 -2.1705  2.5613  1.6713
  737TMC3    H210897   0.131   0.088  11.479 -0.7643  0.6374 -1.2681
  737TMC3    C710898   0.025   4.588  11.615  0.4673 -0.2341  0.1332
  737TMC3    C810899   0.007   0.305  11.437  0.9917 -0.2633  0.2064
  737TMC3    O110900   4.662   4.509  11.645  0.1137 -0.2587  0.7980
  737TMC3    O210901   0.072   0.257  11.345  0.3552 -0.2646 -0.2131
  738MPD2     C10902   0.045   4.134  15.024  0.6597 -0.0703 -1.1815
  738MPD2    C110903   0.142   4.077  15.101  0.2939  0.2615  0.0652
  738MPD2    C210904   0.274   4.115  15.084  0.6187  0.1032  0.1204
  738MPD2    C310905   0.304   4.220  14.994  0.1607  1.0877  0.6458
  738MPD2    C410906   0.196   4.283  14.924 -0.5451  0.2749  0.4744
  738MPD2    C510907   0.072   4.233  14.939  0.5324 -0.1439  0.4144
  738MPD2     H10908   0.344   4.061  15.147  1.5211  0.0818 -0.9057
  738MPD2    H110909   0.215   4.371  14.863 -0.4816 -0.7733 -1.0048
  738MPD2    H210910   4.671   4.089  15.015  0.5314  0.0592 -0.4202
  738MPD2    H310911   4.717   4.274  14.876  1.1738  1.1155  0.4327
  738MPD2     N10912   0.436   4.266  14.962  0.0643 -0.5190 -0.0984
  738MPD2    H510913   0.436   4.330  14.883 -0.7286  0.2068  0.4936
  738MPD2    N110914   0.116   3.971  15.187 -0.4827  0.2430 -0.0446
  738MPD2    H710915   0.194   3.915  15.219  1.4811  2.9692 -0.1428
  739TMC3    C110916   0.674   4.280  14.950  0.3170  0.2363 -0.0422
  739TMC3    C210917   0.671   4.307  14.814 -0.2824 -0.0289  0.0255
  739TMC3    C310918   0.790   4.344  14.749  0.2417 -0.2697 -0.4439
  739TMC3    C410919   0.793   4.269  15.020  0.0010 -0.3029  0.0958
  739TMC3    C510920   0.905   4.297  14.941 -0.0272 -0.1417 -0.5807
  739TMC3    C610921   0.903   4.343  14.812  0.2787 -0.4349 -0.0201
  739TMC3     C10922   0.558   4.231  15.020  0.9382 -0.5371  0.2077
  739TMC3     O10923   0.574   4.175  15.129  0.5176  0.1843 -0.2567
  739TMC3     H10924   0.585   4.279  14.755  1.0827 -1.6441 -1.1955
  739TMC3    H110925   0.808   4.248  15.125 -1.0087 -0.6703  0.1750
  739TMC3    H210926   0.992   4.370  14.755 -0.9249 -1.5977 -2.4502
  739TMC3    C710927   1.036   4.319  14.999  0.6356  0.0453 -0.1595
  739TMC3    C810928   0.769   4.368  14.607 -0.4248  0.5360 -0.1669
  739TMC3    O110929   1.039   4.355  15.120 -0.3608 -0.4454 -0.0208
  739TMC3    O210930   0.677   4.304  14.555 -0.0496  0.6965  0.1152
  740TMC3    C110931   0.861   0.625  14.108  0.7296  0.0883  0.0031
  740TMC3    C210932   0.889   0.593  14.241  0.8806 -1.0494  0.1796
  740TMC3    C310933   1.016   0.559  14.272  0.3188  0.0243  0.3068
  740TMC3    C410934   0.960   0.649  14.016  0.6806 -1.0350  0.2865
  740TMC3    C510935   1.089   0.607  14.050 -0.1358  0.5192  0.2146
  740TMC3    C610936   1.120   0.571  14.181  0.6254  0.9088 -0.1732
  740TMC3     C10937   0.722   0.659  14.063 -0.4532 -0.4338  0.7231
  740TMC3     O10938   0.705   0.686  13.948 -0.3253 -0.2265 -0.0196
  740TMC3     H10939   0.809   0.551  14.301 -0.9857  1.5676 -0.4638
  740TMC3    H110940   0.934   0.668  13.913  0.4112 -2.6410  0.0478
  740TMC3    H210941   1.221   0.541  14.202  0.1632 -0.0045  0.7382
  740TMC3    C710942   1.194   0.599  13.952  0.1852 -0.3600  0.4967
  740TMC3    C810943   1.044   0.525  14.413 -0.7833 -0.5925  0.1643
  740TMC3    O110944   1.299   0.553  13.980  0.0599  0.2913  0.0154
  740TMC3    O210945   1.160   0.516  14.442 -0.2398 -0.4568  0.2982
  741TMC3    C110946   0.253   4.637  14.108  0.2585  0.8358 -0.5286
  741TMC3    C210947   0.149   4.543  14.120  0.3697 -0.0105 -0.4610
  741TMC3    C310948   0.117   4.490  14.245 -0.8605  0.4819 -0.3430
  741TMC3    C410949   0.320   4.685  14.224  0.2874 -0.2292  0.1635
  741TMC3    C510950   0.261   4.647  14.343  0.2033 -0.3091  0.4875
  741TMC3    C610951   0.168   4.544  14.362  0.0091  0.7216  0.7297
  741TMC3     C10952   0.282   4.704  13.984 -0.5416 -0.1070  0.2352
  741TMC3     O10953   0.392   0.035  13.965 -0.5952 -0.4800  0.6206
  741TMC3     H10954   0.097   4.513  14.030 -0.8786  0.0014  0.2608
  741TMC3    H110955   0.388   0.045  14.216 -1.1848  0.8172 -1.1159
  741TMC3    H210956   0.131   4.514  14.459  0.6281 -0.1954  0.6811
  741TMC3    C710957   0.286   4.717  14.465 -0.0459  0.1499  0.0271
  741TMC3    C810958   4.722   4.404  14.268 -0.7190 -0.1938  0.0759
  741TMC3    O110959   0.275   4.658  14.571  0.6005  0.0784  0.4944
  741TMC3    O210960   4.669   4.412  14.379 -0.1245  0.2210  0.1955
  742TMC3    C110961   0.418   2.784  15.506 -0.3210  0.0081 -0.4011
  742TMC3    C210962   0.327   2.781  15.407 -0.4699 -0.4870 -0.2193
  742TMC3    C310963   0.376   2.810  15.286 -0.0374  0.3463 -0.5741
  742TMC3    C410964   0.547   2.812  15.487  0.0584  0.3156  0.4471
  742TMC3    C510965   0.588   2.847  15.360 -0.5807 -0.8625 -0.1027
  742TMC3    C610966   0.506   2.838  15.254  0.3835 -0.4337  0.6597
  742TMC3     C10967   0.369   2.760  15.641 -0.2630 -0.6028 -0.0221
  742TMC3     O10968   0.248   2.752  15.658  0.0304  0.2559  0.1438
  742TMC3     H10969   0.222   2.762  15.425  0.1359 -2.6802  0.9783
  742TMC3    H110970   0.625   2.819  15.562  0.3423  2.6151 -0.0459
  742TMC3    H210971   0.548   2.854  15.155 -0.0476 -2.4782  0.1454
  742TMC3    C710972   0.722   2.794  15.325 -0.0478 -0.6819  0.2331
  742TMC3    C810973   0.283   2.805  15.173  0.0446 -0.0693 -0.5745
  742TMC3    O110974   0.734   2.737  15.217 -0.1334  0.3291  0.2753
  742TMC3    O210975   0.333   2.823  15.064  0.2531  0.0877 -0.3119
  743MPD2     C10976   3.339   3.751   1.695  0.5502 -0.5775 -0.2705
  743MPD2    C110977   3.335   3.876   1.752 -0.0031 -0.1352  0.7665
  743MPD2    C210978   3.437   3.922   1.832  0.6139  0.0003  0.6595
  743MPD2    C310979   3.550   3.844   1.860 -0.4501  0.0980  0.8364
  743MPD2    C410980   3.547   3.721   1.805  0.1982  0.0750 -0.6938
  743MPD2    C510981   3.444   3.674   1.726  0.4372 -0.2472  0.4095
  743MPD2     H10982   3.428   4.023   1.871 -0.9049  0.0176  0.2736
  743MPD2    H110983   3.620   3.653   1.847 -1.6838 -1.8588 -0.5206
  743MPD2    H210984   3.264   3.720   1.624 -0.1720 -0.6708  0.5338
  743MPD2    H310985   3.449   3.574   1.685  1.1217 -0.3593  0.7539
  743MPD2     N10986   3.640   3.894   1.959 -0.4582  0.0993 -0.4751
  743MPD2    H510987   3.618   3.984   1.999  1.5838  0.5636 -0.3904
  743MPD2    N110988   3.223   3.948   1.717 -0.6281  0.2884 -0.8451
  743MPD2    H710989   3.164   3.912   1.643 -1.6297 -2.2852  1.1889
  744TMC3    C110990   3.066   4.129   1.722  0.8367  0.2066  0.4243
  744TMC3    C210991   2.987   4.200   1.807  0.5494 -0.2702  0.6128
  744TMC3    C310992   2.885   4.267   1.750 -0.2367  0.3302 -1.2201
  744TMC3    C410993   3.043   4.113   1.589 -0.0816  0.3973  0.3319
  744TMC3    C510994   2.928   4.179   1.546 -0.1193  0.6880  0.0421
  744TMC3    C610995   2.849   4.259   1.619 -0.0484  0.1210 -0.1163
  744TMC3     C10996   3.177   4.052   1.792  0.3110  0.4736  0.1435
  744TMC3     O10997   3.208   4.096   1.900  0.1708 -0.1878  0.2369
  744TMC3     H10998   3.007   4.197   1.914  1.3996 -1.9681  0.4066
  744TMC3    H110999   3.117   4.072   1.522 -0.6269  0.3787 -0.2634
  744TMC3    H211000   2.771   4.315   1.569  1.0753  0.8917 -1.0194
  744TMC3    C711001   2.920   4.201   1.399 -0.0477 -0.1299  0.4325
  744TMC3    C811002   2.786   4.315   1.849  0.1872  0.3900  0.4565
  744TMC3    O111003   3.020   4.175   1.335  0.1887  0.0858 -0.2070
  744TMC3    O211004   2.827   4.328   1.962 -0.4948  0.2905 -0.5079
  745TMC3    C111005   0.864   2.670  13.490 -0.5432 -0.3115  0.1701
  745TMC3    C211006   0.751   2.595  13.502 -0.0572 -0.6265 -0.1023
  745TMC3    C311007   0.666   2.580  13.398  0.0449 -0.9117 -0.1182
  745TMC3    C411008   0.900   2.733  13.370 -0.7567  0.6553 -0.1144
  745TMC3    C511009   0.815   2.702  13.267  0.7227 -0.2346  0.3242
  745TMC3    C611010   0.703   2.626  13.277  0.1756  0.3824 -0.0851
  745TMC3     C11011   0.896   2.731  13.618 -0.5455 -0.2931 -0.3561
  745TMC3     O11012   0.828   2.696  13.714  0.1082  0.4598  0.4249
  745TMC3     H11013   0.731   2.546  13.596  1.0013  0.3194  0.6116
  745TMC3    H111014   1.006   2.756  13.365 -0.0101 -2.9612 -0.8980
  745TMC3    H211015   0.634   2.626  13.193 -1.3361  0.8466  1.1454
  745TMC3    C711016   0.842   2.762  13.140 -0.0136  0.0897  0.2258
  745TMC3    C811017   0.528   2.624  13.442 -0.4916  0.0197  0.1898
  745TMC3    O111018   0.775   2.737  13.040  0.0549  0.1111 -0.3828
  745TMC3    O211019   0.431   2.602  13.369  0.4902 -0.1134  0.0802
  746TMC3    C111020   2.959   4.558  11.170 -0.1501  0.4572  0.4042
  746TMC3    C211021   3.018   4.544  11.042 -0.4616  0.3289  0.3520
  746TMC3    C311022   3.006   4.416  10.988  0.6035 -0.6318 -0.3747
  746TMC3    C411023   2.897   4.454  11.235  0.1190 -0.1774  0.7328
  746TMC3    C511024   2.900   4.334  11.177  0.1140 -0.0389  0.2598
  746TMC3    C611025   2.953   4.313  11.055 -0.8810  0.4874  0.0112
  746TMC3     C11026   2.949   4.688  11.232  0.6927 -0.3711  0.9183
  746TMC3     O11027   2.915   4.689  11.350 -0.1628  0.3422  0.0872
  746TMC3     H11028   3.074   4.621  10.990  1.1238 -0.3322  1.0694
  746TMC3    H111029   2.854   4.471  11.333  0.5100  3.4121  0.2705
  746TMC3    H211030   2.919   4.226  11.000  2.2698  1.5954 -3.7613
  746TMC3    C711031   2.793   4.240  11.221  0.5119  0.2295  0.0246
  746TMC3    C811032   3.065   4.379  10.860 -0.3163 -0.4474  0.1371
  746TMC3    O111033   2.739   4.178  11.130  0.1830  0.5992 -0.8114
  746TMC3    O211034   3.055   4.268  10.809 -0.1274  0.0896  0.0175
  747TMC3    C111035   0.789   4.351  11.011 -0.3279 -0.0395 -0.2632
  747TMC3    C211036   0.667   4.380  11.075 -0.1443 -0.1751  0.5055
  747TMC3    C311037   0.681   4.469  11.179 -0.3520 -1.0605 -0.0313
  747TMC3    C411038   0.911   4.406  11.042 -0.2237  0.4724  0.1903
  747TMC3    C511039   0.914   4.504  11.141 -0.0610  0.3299  0.6913
  747TMC3    C611040   0.795   4.540  11.206 -0.0804  0.0575  0.7061
  747TMC3     C11041   0.790   4.247  10.913  0.6254 -0.0020 -0.3160
  747TMC3     O11042   0.691   4.237  10.840  0.1588  0.9581  0.3477
  747TMC3     H11043   0.573   4.337  11.044  0.3927 -1.7354  1.0051
  747TMC3    H111044   1.001   4.381  10.986 -1.1400 -1.4712 -0.4290
  747TMC3    H211045   0.790   4.611  11.288 -1.3347  1.6768 -0.7471
  747TMC3    C711046   1.037   4.572  11.182 -0.7619  0.0683 -0.0598
  747TMC3    C811047   0.564   4.484  11.267  0.0728 -0.0455  0.4724
  747TMC3    O111048   1.025   4.677  11.239 -0.0889 -0.2274  0.1507
  747TMC3    O211049   0.568   4.582  11.341  0.1290  0.2125  0.5253
  748MPD2     C11050   1.952   1.483   1.763  0.4782  0.6860  0.3945
  748MPD2    C111051   1.987   1.428   1.641 -0.0208 -0.1641 -0.6066
  748MPD2    C211052   2.118   1.412   1.609  0.4355 -0.3911  0.4387
  748MPD2    C311053   2.215   1.426   1.703  0.3672 -0.1087 -0.0818
  748MPD2    C411054   2.180   1.466   1.828 -0.2203 -0.7886  0.9251
  748MPD2    C511055   2.050   1.497   1.855  0.2399 -0.7623  0.3911
  748MPD2     H11056   2.145   1.372   1.512  2.2785 -0.4334  0.9655
  748MPD2    H111057   2.243   1.473   1.916 -1.0646 -0.1962  1.4902
  748MPD2    H211058   1.846   1.494   1.783  0.4576  3.1175 -1.1348
  748MPD2    H311059   2.028   1.545   1.949  0.9226  1.1193 -0.4173
  748MPD2     N11060   2.351   1.403   1.672  0.3380  0.2591 -0.4552
  748MPD2    H511061   2.406   1.413   1.756  0.7876  0.1930 -0.7420
  748MPD2    N111062   1.881   1.373   1.562 -0.1224 -0.1436  0.4298
  748MPD2    H711063   1.786   1.395   1.589 -0.9668 -2.6730 -0.5111
  749TMC3    C111064   2.527   1.292   1.557  0.4655  0.1855  0.6256
  749TMC3    C211065   2.585   1.259   1.670  0.4014 -0.0856 -0.7965
  749TMC3    C311066   2.715   1.217   1.668 -0.5548 -0.0525  0.2738
  749TMC3    C411067   2.583   1.266   1.435  0.1374 -0.5997 -0.2083
  749TMC3    C511068   2.716   1.228   1.433 -0.1955 -0.2815  0.4558
  749TMC3    C611069   2.784   1.216   1.550  0.0386 -0.0163  0.6354
  749TMC3     C11070   2.402   1.368   1.550  0.3343 -0.3264 -0.4775
  749TMC3     O11071   2.347   1.374   1.442  0.2302 -0.0061  0.6490
  749TMC3     H11072   2.547   1.273   1.771  0.8965  0.1302 -0.6425
  749TMC3    H111073   2.533   1.290   1.342  1.0918 -1.6686 -1.0042
  749TMC3    H211074   2.891   1.204   1.551  0.0723 -0.1506 -2.6019
  749TMC3    C711075   2.790   1.230   1.313 -0.0304 -0.1133 -0.2320
  749TMC3    C811076   2.798   1.180   1.781  0.3934 -0.0250 -0.1346
  749TMC3    O111077   2.911   1.211   1.320  0.5550  0.1230 -0.0941
  749TMC3    O211078   2.781   1.235   1.884 -0.1271 -0.4165 -0.1822
  750MPD2     C11079   3.172   1.846  11.284  0.0153  0.0946 -0.4276
  750MPD2    C111080   3.092   1.776  11.375  0.0391 -0.6231 -0.1828
  750MPD2    C211081   3.023   1.669  11.330  0.3767  0.2345  0.3028
  750MPD2    C311082   3.028   1.639  11.192 -0.1595  0.6424 -0.2352
  750MPD2    C411083   3.102   1.719  11.107 -0.6226 -0.7892  1.0448
  750MPD2    C511084   3.185   1.815  11.154  0.3878 -0.4466  0.5946
  750MPD2     H11085   2.969   1.605  11.399  1.6987 -0.2294  0.9157
  750MPD2    H111086   3.117   1.687  11.005 -3.6846  0.0940  0.3226
  750MPD2    H211087   3.229   1.931  11.321  0.0042  0.6392 -1.6574
  750MPD2    H311088   3.256   1.864  11.088  1.1216  2.4412  3.5188
  750MPD2     N11089   2.980   1.523  11.138  0.1942  0.0613  0.3132
  750MPD2    H511090   3.016   1.497  11.047 -0.1764 -1.1285  0.4990
  750MPD2    N111091   3.094   1.822  11.509 -0.4428  0.8848  0.1044
  750MPD2    H711092   3.147   1.908  11.525  1.1396 -0.1147  0.1890
  751TMC3    C111093   2.873   1.311  11.133  0.2240 -0.5423 -0.8128
  751TMC3    C211094   2.778   1.228  11.171  0.0185 -0.1810  0.0223
  751TMC3    C311095   2.757   1.117  11.091  0.0123  0.0693 -0.3790
  751TMC3    C411096   2.965   1.279  11.038 -0.6616 -0.3587 -0.1525
  751TMC3    C511097   2.952   1.162  10.963 -0.3686 -0.0413  0.4984
  751TMC3    C611098   2.847   1.078  10.991  0.2505  0.0167  0.3503
  751TMC3     C11099   2.882   1.442  11.197  0.0087  0.5538 -0.1331
  751TMC3     O11100   2.816   1.467  11.293  0.8208 -0.0475 -0.4738
  751TMC3     H11101   2.701   1.275  11.231  0.9064 -1.2490  2.0078
  751TMC3    H111102   3.057   1.334  11.026 -1.2669 -0.0921 -3.5266
  751TMC3    H211103   2.845   0.984  10.937  5.0419 -1.2183  2.3597
  751TMC3    C711104   3.071   1.097  10.907 -0.4514  0.7530  0.1047
  751TMC3    C811105   2.677   1.006  11.139  0.2848 -0.5892  0.4223
  751TMC3    O111106   3.065   1.025  10.809  0.6498 -0.2499 -0.1246
  751TMC3    O211107   2.715   0.897  11.097 -0.4694 -0.3616 -0.1187
  752TMC3    C111108   1.564   1.785  17.394 -0.3621 -0.0745 -0.1692
  752TMC3    C211109   1.450   1.817  17.458 -0.2853 -0.3650 -0.4378
  752TMC3    C311110   1.458   1.823  17.590  0.2303 -0.0919  0.2946
  752TMC3    C411111   1.685   1.764  17.461  0.6407 -0.6174  0.0052
  752TMC3    C511112   1.686   1.777  17.597  0.1137 -0.7828 -0.2988
  752TMC3    C611113   1.568   1.794  17.662 -0.3486  0.6489 -0.2300
  752TMC3     C11114   1.574   1.795  17.249 -0.2921 -0.0286 -0.0123
  752TMC3     O11115   1.685   1.814  17.199  0.5631  0.1423  0.0718
  752TMC3     H11116   1.359   1.860  17.417  0.0409  1.1660  0.4274
  752TMC3    H111117   1.772   1.733  17.403 -0.0344  1.0768 -1.9141
  752TMC3    H211118   1.572   1.804   0.073  1.7907 -0.8653 -0.1619
  752TMC3    C711119   1.789   1.707  17.674 -0.3500 -1.1442  0.3364
  752TMC3    C811120   1.329   1.837  17.656  0.2219  0.7106  0.5965
  752TMC3    O111121   1.795   1.736   0.094 -0.2998 -0.4276 -0.1523
  752TMC3    O211122   1.230   1.799  17.594  0.4015  0.7461 -0.6283
  753TMC3    C111123   4.039   2.841  13.366 -0.6314 -0.3807 -0.1063
  753TMC3    C211124   4.095   2.826  13.495  0.2589 -0.1673  0.6894
  753TMC3    C311125   4.099   2.702  13.551 -0.1709 -0.2428  0.6426
  753TMC3    C411126   3.973   2.733  13.309 -0.6994 -0.6426  0.5847
  753TMC3    C511127   3.971   2.615  13.375 -0.2136  0.0220 -0.3487
  753TMC3    C611128   4.039   2.592  13.490 -0.3678  0.0353 -0.7659
  753TMC3     C11129   4.006   2.972  13.314 -0.1240 -0.1565  0.4004
  753TMC3     O11130   3.989   2.985  13.195  0.2797  0.1759 -0.6103
  753TMC3     H11131   4.151   2.905  13.543 -1.2836 -0.2787  2.6360
  753TMC3    H111132   3.917   2.746  13.217  3.2238  0.8702 -1.5672
  753TMC3    H211133   4.066   2.492  13.520  0.9803 -0.0179 -2.2016
  753TMC3    C711134   3.892   2.516  13.302 -0.3154  0.4567  0.2890
  753TMC3    C811135   4.165   2.679  13.677  0.5061 -0.4772  0.7331
  753TMC3    O111136   3.854   2.538  13.187 -0.4712  0.3609  0.5137
  753TMC3    O211137   4.214   2.566  13.692 -0.0320  0.2701  0.5293
  754MPD2     C11138   2.453   0.878  13.006  0.1025  0.0604 -0.4868
  754MPD2    C111139   2.476   1.005  13.038  1.0793  0.4178  0.2617
  754MPD2    C211140   2.390   1.105  12.997 -0.1982  0.0524  0.4550
  754MPD2    C311141   2.287   1.068  12.909 -0.7592  0.0019  0.8464
  754MPD2    C411142   2.288   0.945  12.848 -0.5078 -0.2680  0.3819
  754MPD2    C511143   2.374   0.851  12.899  0.1947  0.1412  1.2142
  754MPD2     H11144   2.390   1.210  13.027  0.5383  0.3776 -0.6682
  754MPD2    H111145   2.217   0.917  12.771  2.6553  1.5120 -3.1183
  754MPD2    H211146   2.525   0.803  13.038  1.2587  1.8468  1.0819
  754MPD2    H311147   2.375   0.747  12.866 -1.4830  1.4409 -2.9500
  754MPD2     N11148   2.189   1.163  12.866 -0.1708  0.0481 -0.0966
  754MPD2    H511149   2.123   1.128  12.797  1.4347 -0.8822 -1.1621
  754MPD2    N111150   2.573   1.031  13.140 -0.2611  0.3273  0.2246
  754MPD2    H711151   2.602   0.953  13.198  2.3621  0.0366 -1.4498
  755MPD2     C11152   2.048   2.159  12.770  0.0052  0.3006 -0.0731
  755MPD2    C111153   1.935   2.107  12.832  0.2964  0.3313  0.5194
  755MPD2    C211154   1.909   1.968  12.834  0.2759  0.3598  1.0566
  755MPD2    C311155   2.002   1.876  12.782  0.1202 -0.1784 -0.1412
  755MPD2    C411156   2.118   1.924  12.730 -0.2358  0.2601 -0.4348
  755MPD2    C511157   2.136   2.063  12.719 -0.1861 -0.4790  0.0383
  755MPD2     H11158   1.822   1.936  12.890 -1.3323 -1.0691 -2.3028
  755MPD2    H111159   2.200   1.858  12.704 -0.4416  0.0762 -0.6198
  755MPD2    H211160   2.080   2.262  12.776  0.6875  0.0005  1.5534
  755MPD2    H311161   2.230   2.102  12.683 -0.9138  0.1450 -1.1875
  755MPD2     N11162   1.998   1.738  12.808  0.2193  0.3778 -0.2379
  755MPD2    H511163   2.083   1.690  12.782 -0.0687 -0.0511 -0.3746
  755MPD2    N111164   1.842   2.187  12.904 -0.4378  0.1933  0.0228
  755MPD2    H711165   1.772   2.148  12.965  1.3007 -1.8906  0.6956
  756MPD2     C11166   3.059   2.175   9.583 -0.4343  0.1004  0.7530
  756MPD2    C111167   3.047   2.190   9.718 -0.0939 -0.2625  0.4344
  756MPD2    C211168   3.031   2.081   9.800  0.9080 -0.5169  0.4352
  756MPD2    C311169   3.034   1.955   9.747  0.2449  0.9999  0.4580
  756MPD2    C411170   3.049   1.942   9.611  0.5720 -0.4945  0.4387
  756MPD2    C511171   3.057   2.053   9.528  0.2186  0.4255 -0.6588
  756MPD2     H11172   3.018   2.093   9.907 -1.9873 -2.3602  0.2890
  756MPD2    H111173   3.055   1.845   9.562  2.8798 -0.7739  1.2829
  756MPD2    H211174   3.089   2.251   9.511 -1.4688  0.7284  0.9818
  756MPD2    H311175   3.068   2.048   9.421  0.2534  1.7091 -0.7235
  756MPD2     N11176   3.039   1.853   9.848 -0.3629  0.4194 -0.0363
  756MPD2    H511177   3.024   1.875   9.946  0.0290  0.2794  0.0522
  756MPD2    N111178   3.030   2.316   9.780  0.3137 -0.6548 -0.6080
  756MPD2    H711179   3.042   2.312   9.881 -0.4939  1.0920 -0.4410
  757MPD2     C11180   2.635   0.823   9.944 -0.3347 -0.7355  0.1125
  757MPD2    C111181   2.556   0.921   9.998  0.1219 -0.2206 -0.1498
  757MPD2    C211182   2.589   1.054   9.981  1.0288  0.3842  0.5055
  757MPD2    C311183   2.710   1.097   9.931 -0.4824 -0.0335 -0.4967
  757MPD2    C411184   2.786   0.991   9.876 -0.3757 -0.0479 -0.2223
  757MPD2    C511185   2.751   0.860   9.890 -0.3073  0.0143 -0.2605
  757MPD2     H11186   2.527   1.130  10.027 -1.1900 -0.0145 -1.8349
  757MPD2    H111187   2.883   1.007   9.832  0.7594  1.4122  2.8459
  757MPD2    H211188   2.594   0.724   9.934  0.7986 -0.8672 -3.2627
  757MPD2    H311189   2.813   0.793   9.832 -0.8854 -0.3777 -0.4269
  757MPD2     N11190   2.748   1.230   9.953 -0.8266 -0.4399 -0.3880
  757MPD2    H511191   2.687   1.290  10.006 -4.1092 -2.8068 -1.4935
  757MPD2    N111192   2.434   0.878  10.044  0.1826  0.0832  0.2858
  757MPD2    H711193   2.432   0.779  10.063  1.1881 -0.0998 -0.5741
  758MPD2     C11194   2.490   1.282  15.983 -0.6277 -0.4571  0.2557
  758MPD2    C111195   2.591   1.246  16.075 -0.6088  0.2819  0.8989
  758MPD2    C211196   2.559   1.233  16.206  0.5202 -0.0338 -0.4604
  758MPD2    C311197   2.426   1.240  16.251  0.1262  0.2905  0.1416
  758MPD2    C411198   2.329   1.277  16.167 -0.0924  0.1364 -0.2541
  758MPD2    C511199   2.367   1.304  16.042  0.2858  0.1490  0.5111
  758MPD2     H11200   2.643   1.195  16.264 -0.3742  0.4440  1.1417
  758MPD2    H111201   2.226   1.300  16.192  0.9096  1.7445  2.4624
  758MPD2    H211202   2.507   1.306  15.879  3.6826  3.0938  1.7731
  758MPD2    H311203   2.289   1.326  15.969  1.5185  2.0526 -0.2340
  758MPD2     N11204   2.383   1.205  16.381 -0.2486  0.2825  0.2326
  758MPD2    H511205   2.284   1.203  16.403 -0.0152 -0.5873  1.1825
  758MPD2    N111206   2.715   1.226  16.021 -0.3769  0.2515 -0.2743
  758MPD2    H711207   2.719   1.247  15.922 -0.5548 -2.1135 -0.7962
  759MPD2     C11208   1.618   3.687   9.356  0.3524  0.3768  0.0447
  759MPD2    C111209   1.623   3.724   9.488  0.0558 -0.0440 -0.0114
  759MPD2    C211210   1.681   3.841   9.531  0.3244 -0.0916 -0.1201
  759MPD2    C311211   1.747   3.931   9.440  0.1278 -0.0109  0.1095
  759MPD2    C411212   1.759   3.883   9.312 -0.5471  0.0958 -0.4884
  759MPD2    C511213   1.694   3.768   9.274  0.4436 -0.5534  0.2477
  759MPD2     H11214   1.682   3.869   9.635  0.9450  2.5425 -0.8333
  759MPD2    H111215   1.806   3.940   9.232  0.8343 -1.6525 -0.9171
  759MPD2    H211216   1.568   3.598   9.321  2.1312 -0.1271 -1.1959
  759MPD2    H311217   1.691   3.739   9.170  0.2860  0.8790 -0.1470
  759MPD2     N11218   1.808   4.050   9.491  0.1218 -0.3184  0.2092
  759MPD2    H511219   1.796   4.059   9.592 -1.3553 -2.0543  0.1719
  759MPD2    N111220   1.549   3.655   9.581 -0.2292  0.2037 -0.1605
  759MPD2    H711221   1.559   3.681   9.678  3.6165  0.1256 -0.5191
  760MPD2     C11222   1.346   1.439  12.094  0.5128 -0.2077 -0.0778
  760MPD2    C111223   1.461   1.491  12.042 -0.1205  0.7148  0.0212
  760MPD2    C211224   1.544   1.398  11.976 -0.6180  0.6193 -0.4595
  760MPD2    C311225   1.519   1.265  11.964 -0.1593 -0.6963 -0.2029
  760MPD2    C411226   1.391   1.223  12.005 -0.6115 -0.0067 -0.3902
  760MPD2    C511227   1.309   1.309  12.071  0.1556 -0.7481 -0.3847
  760MPD2     H11228   1.643   1.431  11.947 -0.3979  2.0035  1.8982
  760MPD2    H111229   1.347   1.125  11.992 -0.4262 -0.3360  1.4758
  760MPD2    H211230   1.287   1.508  12.153  1.5327  0.6731 -0.0931
  760MPD2    H311231   1.212   1.271  12.100  0.9368 -1.0363  1.8898
  760MPD2     N11232   1.606   1.176  11.896 -0.4806 -0.0174 -0.4688
  760MPD2    H511233   1.581   1.078  11.903 -0.9900  0.0367 -1.5491
  760MPD2    N111234   1.506   1.623  12.065 -0.3567  0.2285 -0.2463
  760MPD2    H711235   1.602   1.647  12.043 -0.2257 -0.5497 -0.4970
  761MPD2     C11236   2.387   0.711  11.441  0.2141  0.2862  0.0477
  761MPD2    C111237   2.447   0.695  11.319 -0.0651 -0.3237  0.1310
  761MPD2    C211238   2.494   0.801  11.247  0.2599 -0.0080 -0.1310
  761MPD2    C311239   2.498   0.933  11.301 -0.3184  0.3601  0.1917
  761MPD2    C411240   2.437   0.953  11.429  0.1523 -0.2374  0.0182
  761MPD2    C511241   2.376   0.840  11.484 -0.8066  0.7700  0.0418
  761MPD2     H11242   2.542   0.784  11.151 -0.6510 -0.8040 -0.4417
  761MPD2    H111243   2.425   1.054  11.466 -0.7821  0.2985 -1.7751
  761MPD2    H211244   2.332   0.641  11.504 -0.7498 -0.1053 -1.2403
  761MPD2    H311245   2.321   0.854  11.577  0.6476 -1.3041  1.2086
  761MPD2     N11246   2.582   1.034  11.235  0.2677  1.1147  0.2139
  761MPD2    H511247   2.574   1.130  11.267  1.9356  0.7444  1.7197
  761MPD2    N111248   2.469   0.572  11.255 -0.2666  0.1549  0.3789
  761MPD2    H711249   2.504   0.570  11.159  0.9594  1.7472  0.8031
  762MPD2     C11250   2.960   0.640  10.971  0.1695  0.0959 -0.1377
  762MPD2    C111251   2.923   0.512  10.926  1.1360 -0.2291  0.5246
  762MPD2    C211252   2.994   0.460  10.816 -0.3782 -0.5369 -0.0561
  762MPD2    C311253   3.088   0.534  10.747 -0.0110  0.3136  0.5224
  762MPD2    C411254   3.106   0.665  10.791  0.5825  0.1904  0.0231
  762MPD2    C511255   3.049   0.715  10.900  0.2829  1.0938  0.4881
  762MPD2     H11256   2.974   0.359  10.781  0.1054  0.3487 -2.8781
  762MPD2    H111257   3.187   0.722  10.748  0.7845  1.2899  1.8668
  762MPD2    H211258   2.923   0.695  11.057  0.8036  1.6529 -0.8563
  762MPD2    H311259   3.104   0.799  10.941 -0.7069  1.7225  0.5187
  762MPD2     N11260   3.153   0.486  10.630 -0.4013 -0.2951 -0.1591
  762MPD2    H511261   3.136   0.392  10.595 -0.8977  0.6429 -2.4667
  762MPD2    N111262   2.837   0.442  11.012  0.1194 -0.1576 -0.4796
  762MPD2    H711263   2.817   0.492  11.098  2.5644 -1.8432  1.0744
  763MPD2     C11264   0.050   1.219  16.209  0.6943  0.2589 -0.2506
  763MPD2    C111265   4.679   1.299  16.156 -0.1820  0.1579 -0.5933
  763MPD2    C211266   4.648   1.423  16.217 -0.6497  1.1641 -0.3033
  763MPD2    C311267   4.707   1.449  16.340  0.3340 -0.1751 -0.0865
  763MPD2    C411268   0.066   1.357  16.400  0.9033  0.0527 -0.1905
  763MPD2    C511269   0.104   1.247  16.329  0.3412 -0.0074  0.7736
  763MPD2     H11270   4.575   1.488  16.170 -1.2162  0.5502 -0.2567
  763MPD2    H111271   0.121   1.379  16.490 -0.3333 -1.0777  0.8560
  763MPD2    H211272   0.083   1.127  16.161  1.3526 -0.3804  1.3999
  763MPD2    H311273   0.183   1.185  16.369  0.6697 -0.5833 -0.7957
  763MPD2     N11274   4.680   1.568  16.409 -0.3273 -0.1851  0.3159
  763MPD2    H511275   0.016   1.588  16.488  0.0030  0.4413 -0.0851
  763MPD2    N111276   4.620   1.271  16.027 -0.2840  0.6560  0.2456
  763MPD2    H711277   4.548   1.337  15.998  0.3149  0.5451 -1.5256
  764MPD2     C11278   2.793   2.500  17.388  0.4651  0.2138 -0.1750
  764MPD2    C111279   2.664   2.452  17.354 -0.3035 -1.2676 -0.0981
  764MPD2    C211280   2.613   2.346  17.432 -0.2390  0.0889 -0.5721
  764MPD2    C311281   2.676   2.288  17.539 -0.4246 -0.1358 -0.2818
  764MPD2    C411282   2.802   2.338  17.571  0.9159  0.5935 -0.1951
  764MPD2    C511283   2.859   2.440  17.496 -0.3826  0.4466 -0.2286
  764MPD2     H11284   2.507   2.327  17.422 -0.3654  1.5655 -2.1442
  764MPD2    H111285   2.861   2.294  17.651  0.0139  0.2511  0.2821
  764MPD2    H211286   2.845   2.580  17.337  2.7362 -1.2136 -0.0696
  764MPD2    H311287   2.960   2.475  17.512  0.1977 -0.9846 -0.7184
  764MPD2     N11288   2.623   2.183  17.608  0.3440 -0.2607  0.2696
  764MPD2    H511289   2.539   2.140  17.572  1.1201 -1.6702  0.1683
  764MPD2    N111290   2.583   2.511  17.254 -0.4237  0.1388 -0.1808
  764MPD2    H711291   2.489   2.473  17.251 -1.6686  3.2604 -0.2802
  765MPD2     C11292   2.078   0.386  16.289  0.2957 -0.0394 -0.2803
  765MPD2    C111293   2.139   0.486  16.216  0.3673 -0.0520  0.6207
  765MPD2    C211294   2.260   0.466  16.156  1.2014 -0.3928  0.5619
  765MPD2    C311295   2.321   0.344  16.176 -0.3124  0.5482 -0.1786
  765MPD2    C411296   2.259   0.247  16.248 -0.0973  0.0024  0.0399
  765MPD2    C511297   2.142   0.267  16.312  0.2078 -0.0377  0.6646
  765MPD2     H11298   2.305   0.541  16.093  0.4909  0.9249  1.6017
  765MPD2    H111299   2.301   0.147  16.259 -2.0675 -0.8755 -0.4328
  765MPD2    H211300   1.977   0.399  16.328  0.1524  0.0011 -0.6623
  765MPD2    H311301   2.085   0.194  16.369  1.8615 -0.3098  1.9780
  765MPD2     N11302   2.433   0.322  16.098 -0.7333 -0.0332  0.3621
  765MPD2    H511303   2.466   0.399  16.041 -1.3399 -0.3830 -0.4675
  765MPD2    N111304   2.063   0.607  16.207 -0.4075 -0.0025  0.1703
  765MPD2    H711305   1.973   0.601  16.253 -0.6025  0.5998 -0.1206
  766MPD2     C11306   1.549   0.609  15.704 -0.3148  0.6138  0.1264
  766MPD2    C111307   1.640   0.709  15.684  0.5165 -1.3870 -0.2866
  766MPD2    C211308   1.691   0.721  15.561  0.0819  0.2800  0.2323
  766MPD2    C311309   1.657   0.642  15.461  0.9121  0.5011 -0.4439
  766MPD2    C411310   1.563   0.542  15.486 -0.0426 -0.3645  0.3628
  766MPD2    C511311   1.509   0.525  15.606  0.1887  0.1622 -0.0702
  766MPD2     H11312   1.773   0.792  15.555 -1.4577  1.7234 -3.5591
  766MPD2    H111313   1.537   0.466  15.413  0.8541 -1.2247  0.9380
  766MPD2    H211314   1.516   0.584  15.805 -0.2197 -0.1973 -0.0402
  766MPD2    H311315   1.434   0.450  15.630  1.0843  0.1794  2.7674
  766MPD2     N11316   1.710   0.653  15.325 -0.2005  0.4624  0.5743
  766MPD2    H511317   1.672   0.587  15.258  0.2182  0.5531  0.2524
  766MPD2    N111318   1.686   0.791  15.789 -0.1434  0.0965 -0.1678
  766MPD2    H711319   1.745   0.869  15.765  1.0099 -0.2969  1.3691
  767MPD2     C11320   1.371   0.855  15.228  0.2888  0.8133  0.2852
  767MPD2    C111321   1.470   0.932  15.164  0.3560  0.1368  1.0798
  767MPD2    C211322   1.491   0.917  15.030 -0.0638 -0.4264  0.7855
  767MPD2    C311323   1.402   0.831  14.963 -0.4431  0.1864  0.1700
  767MPD2    C411324   1.308   0.761  15.030  0.4291  0.0201 -0.2768
  767MPD2    C511325   1.296   0.769  15.166 -0.1331  0.0643  0.0405
  767MPD2     H11326   1.573   0.968  14.982  0.3335 -2.3288 -0.5946
  767MPD2    H111327   1.247   0.683  14.985  0.2118  0.0286  0.0028
  767MPD2    H211328   1.351   0.859  15.335 -0.1053 -0.7133  0.2562
  767MPD2    H311329   1.217   0.707  15.206  0.2978  1.6685  3.4150
  767MPD2     N11330   1.434   0.813  14.831 -0.5343  0.0284 -0.8721
  767MPD2    H511331   1.517   0.857  14.793  0.3541 -2.1733 -1.4986
  767MPD2    N111332   1.547   1.025  15.241  0.4395 -0.9444 -0.0697
  767MPD2    H711333   1.518   1.020  15.338  0.5964 -0.5400 -0.0045
  768MPD2     C11334   2.519   3.179  11.261 -0.1109  0.4067  0.6403
  768MPD2    C111335   2.456   3.270  11.340 -0.1484 -0.2042  0.0733
  768MPD2    C211336   2.506   3.299  11.461 -0.5986  0.0223 -0.9971
  768MPD2    C311337   2.622   3.239  11.505  0.0002 -0.4479  0.1942
  768MPD2    C411338   2.685   3.145  11.424 -0.2255 -0.1975  0.3931
  768MPD2    C511339   2.633   3.114  11.305 -0.2101 -0.3967 -0.6847
  768MPD2     H11340   2.458   3.371  11.526 -0.5936  0.2857 -1.2899
  768MPD2    H111341   2.775   3.097  11.462  1.0526  0.6128 -1.6250
  768MPD2    H211342   2.474   3.145  11.169  1.1476 -1.4780  0.7302
  768MPD2    H311343   2.676   3.040  11.239  1.1439 -1.4127  1.3420
  768MPD2     N11344   2.683   3.268  11.627 -0.2947  0.3088 -0.5457
  768MPD2    H511345   2.768   3.217  11.647 -1.5455 -1.0840  1.2438
  768MPD2    N111346   2.356   3.354  11.291 -0.1653 -0.1183  0.5499
  768MPD2    H711347   2.314   3.413  11.362  1.7405 -0.8187  2.2762
  769MPD2     C11348   3.498   1.918  15.346  0.0451 -0.3978 -0.4829
  769MPD2    C111349   3.367   1.951  15.364 -0.2497 -0.6732 -0.2492
  769MPD2    C211350   3.327   2.077  15.409 -0.0057 -0.1318  0.8637
  769MPD2    C311351   3.422   2.164  15.466  0.3264  0.1454 -0.4195
  769MPD2    C411352   3.553   2.119  15.456  0.0578 -0.0191  0.4086
  769MPD2    C511353   3.596   2.008  15.388  0.3265 -1.3193 -0.5768
  769MPD2     H11354   3.223   2.107  15.407 -0.2657 -1.1642 -0.7945
  769MPD2    H111355   3.636   2.185  15.479 -0.0159  1.0092 -2.2536
  769MPD2    H211356   3.520   1.820  15.305  0.8370 -0.4071 -0.0399
  769MPD2    H311357   3.700   1.980  15.388  0.8594  0.6707  2.5773
  769MPD2     N11358   3.395   2.288  15.530 -0.8714 -0.0493 -0.4184
  769MPD2    H511359   3.469   2.352  15.558 -1.2647 -0.2012  0.9656
  769MPD2    N111360   3.279   1.852  15.325 -0.0162  0.4084  0.1976
  769MPD2    H711361   3.308   1.766  15.280  0.0642 -0.5889  2.1700
  770MPD2     C11362   2.389   1.241  15.259  0.1330  0.7425 -0.0286
  770MPD2    C111363   2.514   1.197  15.216  0.2435  0.4081 -0.0783
  770MPD2    C211364   2.622   1.288  15.230 -0.5599  0.4004  0.1695
  770MPD2    C311365   2.607   1.415  15.272 -0.1415 -0.4878  0.6502
  770MPD2    C411366   2.483   1.459  15.322  0.3841  0.0375  0.5222
  770MPD2    C511367   2.375   1.366  15.319  0.5926  0.3695  0.3167
  770MPD2     H11368   2.719   1.255  15.195 -0.8074 -0.4173  0.2604
  770MPD2    H111369   2.465   1.560  15.356 -2.6521 -0.9233  1.7413
  770MPD2    H211370   2.298   1.188  15.233  0.4327  0.4699 -0.5237
  770MPD2    H311371   2.276   1.404  15.344  0.3551 -0.0962  0.0977
  770MPD2     N11372   2.728   1.493  15.267  0.0308  0.7261 -0.1814
  770MPD2    H511373   2.804   1.446  15.220 -0.0510 -0.7507  1.1995
  770MPD2    N111374   2.520   1.072  15.146  0.3144  0.2995  0.0440
  770MPD2    H711375   2.436   1.016  15.153  0.7246 -0.0610  2.0237
  771MPD2     C11376   4.434   4.519  13.792  0.4844 -0.3626 -0.2154
  771MPD2    C111377   4.419   4.653  13.763  0.5979  0.2888  0.3250
  771MPD2    C211378   4.371   4.682  13.637  0.5394 -0.4310 -0.8048
  771MPD2    C311379   4.335   4.585  13.546 -0.5330 -0.2425 -0.0268
  771MPD2    C411380   4.340   4.456  13.582 -0.1148 -0.4976 -0.4128
  771MPD2    C511381   4.395   4.426  13.701  0.1345 -0.2749 -0.3909
  771MPD2     H11382   4.364   0.061  13.605  0.8280  0.0271  0.6306
  771MPD2    H111383   4.314   4.375  13.514 -2.5976 -0.8490  0.9779
  771MPD2    H211384   4.492   4.475  13.872 -1.1075 -1.9616  0.0698
  771MPD2    H311385   4.406   4.319  13.718  1.7700 -0.2377 -1.1728
  771MPD2     N11386   4.311   4.627  13.416  0.3648 -0.1090  0.5993
  771MPD2    H511387   4.291   0.002  13.404 -1.8805 -0.4960  1.1599
  771MPD2    N111388   4.471   0.040  13.850 -0.9132  0.1142 -0.1452
  771MPD2    H711389   4.446   0.136  13.829  1.4272  0.3809 -1.7171
  772MPD2     C11390   4.295   0.642  13.827 -0.1651  0.6220 -0.1866
  772MPD2    C111391   4.248   0.525  13.886 -0.0518  0.7008 -0.0745
  772MPD2    C211392   4.115   0.477  13.861  0.1526 -0.3670  0.4642
  772MPD2    C311393   4.027   0.544  13.772 -0.5948  0.5547 -1.2903
  772MPD2    C411394   4.079   0.663  13.714  0.1437  0.2919 -0.5581
  772MPD2    C511395   4.203   0.709  13.751  0.5046  0.0844 -0.4429
  772MPD2     H11396   4.085   0.383  13.906 -0.2748  0.0193  0.9863
  772MPD2    H111397   4.019   0.730  13.653  0.3013 -1.5004 -2.6702
  772MPD2    H211398   4.386   0.694  13.855  0.1277 -0.6852  1.2938
  772MPD2    H311399   4.244   0.803  13.713  1.0316  0.5896  1.3484
  772MPD2     N11400   3.896   0.494  13.730  0.0233  0.0682 -0.0360
  772MPD2    H511401   3.852   0.525  13.644 -0.6774 -1.5777 -0.2809
  772MPD2    N111402   4.324   0.444  13.973 -0.2334  0.0444 -0.1750
  772MPD2    H711403   4.274   0.365  14.013  1.0707  0.2736  1.8965
  773MPD2     C11404   3.210   1.843   0.201 -0.2157 -0.4279 -0.2291
  773MPD2    C111405   3.214   1.789   0.073  0.2380 -0.6192  0.5144
  773MPD2    C211406   3.339   1.762   0.015 -0.3820  0.7849 -0.6584
  773MPD2    C311407   3.458   1.777   0.095  0.2231 -0.5421  0.5238
  773MPD2    C411408   3.446   1.832   0.225 -0.1752  0.0455  0.2563
  773MPD2    C511409   3.326   1.876   0.266  0.4498  0.2550 -0.0156
  773MPD2     H11410   3.356   1.703  17.623 -3.5109 -0.3289 -0.5321
  773MPD2    H111411   3.530   1.861   0.287 -0.6262 -0.7473  1.2417
  773MPD2    H211412   3.119   1.880   0.246 -0.8779 -0.4919 -1.5255
  773MPD2    H311413   3.329   1.937   0.356  4.0023 -1.1608  0.8577
  773MPD2     N11414   3.578   1.716   0.047  0.8428 -0.6077 -0.1748
  773MPD2    H511415   3.577   1.661  17.659  0.4494 -0.8108 -0.0395
  773MPD2    N111416   3.097   1.758  17.692 -0.4576  0.8059  0.6037
  773MPD2    H711417   3.109   1.718  17.600 -0.2619  1.3185  0.4056
  774MPD2     C11418   2.124   0.669  13.841  0.2126 -0.4426  0.0484
  774MPD2    C111419   2.258   0.674  13.820  0.0194  0.2282  0.0719
  774MPD2    C211420   2.317   0.776  13.742  0.1592 -0.0666  0.0910
  774MPD2    C311421   2.240   0.865  13.678  0.3022  0.2733  0.3414
  774MPD2    C411422   2.101   0.858  13.691 -0.3335 -0.1368  0.4167
  774MPD2    C511423   2.042   0.767  13.773 -0.3333 -0.4087  0.1144
  774MPD2     H11424   2.425   0.780  13.753  0.4173 -2.4371 -1.3971
  774MPD2    H111425   2.035   0.928  13.641 -1.6181 -1.2994  0.4784
  774MPD2    H211426   2.089   0.587  13.903  0.2357 -1.3292 -1.1105
  774MPD2    H311427   1.933   0.768  13.774 -0.3085  0.3071  1.0870
  774MPD2     N11428   2.299   0.969  13.601  0.6380 -0.2519  0.9888
  774MPD2    H511429   2.244   1.034  13.546  0.3438  0.1101  1.7147
  774MPD2    N111430   2.336   0.575  13.894 -0.1524 -0.5494  0.1420
  774MPD2    H711431   2.289   0.511  13.957 -1.1823 -0.9336 -1.0359
  775MPD2     C11432   3.720   2.379  15.810  0.3081  0.0366 -0.2956
  775MPD2    C111433   3.768   2.453  15.908  0.5292  0.4097 -0.5499
  775MPD2    C211434   3.858   2.551  15.883 -0.1998 -0.3217  0.8498
  775MPD2    C311435   3.889   2.572  15.748 -0.1313  0.2104  0.0724
  775MPD2    C411436   3.833   2.499  15.646 -0.2961 -0.2456  0.5634
  775MPD2    C511437   3.753   2.400  15.681 -0.5845 -0.0116  0.0840
  775MPD2     H11438   3.916   2.600  15.960  1.4198 -0.3571 -0.3353
  775MPD2    H111439   3.862   2.509  15.542 -0.0734 -1.1819  0.5434
  775MPD2    H211440   3.653   2.296  15.829 -1.1526  1.5630  1.1546
  775MPD2    H311441   3.714   2.335  15.603 -0.1570 -0.2517  0.0645
  775MPD2     N11442   3.997   2.651  15.696  0.6971  0.2137 -0.2214
  775MPD2    H511443   4.018   2.645  15.596 -0.0964 -1.0385 -0.3142
  775MPD2    N111444   3.712   2.429  16.038  0.0453  0.0990 -0.0860
  775MPD2    H711445   3.638   2.359  16.033  1.9205 -1.8708 -0.4288
  776MPD2     C11446   3.495   2.212  12.095  0.5128  0.1435  0.4040
  776MPD2    C111447   3.395   2.216  12.001 -0.2764 -0.5914 -0.6219
  776MPD2    C211448   3.397   2.317  11.902  0.2051 -0.1012 -0.2096
  776MPD2    C311449   3.504   2.406  11.897 -0.0473  0.7076 -0.2733
  776MPD2    C411450   3.598   2.407  11.993 -0.1834  0.0798  0.7865
  776MPD2    C511451   3.599   2.300  12.078  0.1356 -1.0333  0.0997
  776MPD2     H11452   3.320   2.313  11.826  0.3379  0.3168 -0.3640
  776MPD2    H111453   3.687   2.468  11.989  0.5537 -1.2352 -3.0386
  776MPD2    H211454   3.509   2.128  12.162  1.9448  0.9930  1.1864
  776MPD2    H311455   3.689   2.281  12.134 -0.0541  0.6083  0.9633
  776MPD2     N11456   3.507   2.523  11.813 -0.1466 -0.3019 -0.5795
  776MPD2    H511457   3.595   2.574  11.810  1.1981 -2.6317 -0.9244
  776MPD2    N111458   3.307   2.109  12.005 -0.1831  0.1866 -0.1114
  776MPD2    H711459   3.327   2.034  12.071  0.8192  0.1336 -0.4772
  777MPD2     C11460   3.157   0.512   1.053  0.1938  0.3152 -0.0142
  777MPD2    C111461   3.233   0.422   1.122  0.6872  1.1638  0.1772
  777MPD2    C211462   3.278   0.304   1.054 -0.9833  0.5679  0.5570
  777MPD2    C311463   3.225   0.262   0.936 -0.9430 -0.3735 -0.6747
  777MPD2    C411464   3.139   0.353   0.869 -0.6085  1.0868 -0.0175
  777MPD2    C511465   3.114   0.474   0.927  0.1243 -0.2394  0.2548
  777MPD2     H11466   3.345   0.238   1.108 -1.9625  0.8010  2.0687
  777MPD2    H111467   3.083   0.324   0.781 -0.0775 -0.2770  0.0877
  777MPD2    H211468   3.120   0.611   1.076  0.2439 -0.5391  3.6618
  777MPD2    H311469   3.065   0.550   0.867 -0.3515 -1.6502 -1.1475
  777MPD2     N11470   3.235   0.128   0.888 -0.0750  0.1698 -0.0284
  777MPD2    H511471   3.287   0.070   0.953 -0.2720 -0.5890 -0.5502
  777MPD2    N111472   3.274   0.457   1.256  0.3349  0.7072  0.0227
  777MPD2    H711473   3.233   0.534   1.307 -0.2495 -0.9378  2.0636
  778MPD2     C11474   4.201   4.615  15.213 -0.2969  0.0369 -0.2943
  778MPD2    C111475   4.099   4.615  15.116 -0.1890  0.1967  0.1651
  778MPD2    C211476   4.118   4.676  14.984  0.2058 -0.4443  0.4080
  778MPD2    C311477   4.235   0.026  14.963 -0.1768  1.0164 -0.1508
  778MPD2    C411478   4.336   0.020  15.063 -0.0820 -0.4004  0.1298
  778MPD2    C511479   4.316   4.681  15.184 -0.0321  0.4811 -0.8604
  778MPD2     H11480   4.046   4.671  14.903  2.5219  0.0804 -1.6903
  778MPD2    H111481   4.431   0.067  15.043  0.4905 -0.7885  2.0083
  778MPD2    H211482   4.187   4.558  15.305 -1.1903 -0.5237 -0.7679
  778MPD2    H311483   4.401   4.685  15.251 -0.2750 -1.7026 -0.4165
  778MPD2     N11484   4.241   0.103  14.843 -0.5706 -0.1208  0.1089
  778MPD2    H511485   4.161   0.093  14.781 -0.3585  0.0918 -0.1979
  778MPD2    N111486   3.978   4.556  15.144  0.6895  0.1271  0.0768
  778MPD2    H711487   3.922   4.525  15.066  0.7114  1.5917 -0.5137
  779MPD2     C11488   3.756   3.575  14.461  0.5699  0.3077  0.2273
  779MPD2    C111489   3.879   3.606  14.419  0.6793  0.8365 -0.3743
  779MPD2    C211490   3.901   3.742  14.393 -0.2969 -0.0912 -0.3429
  779MPD2    C311491   3.805   3.839  14.408 -0.0260 -0.4955  0.6688
  779MPD2    C411492   3.673   3.801  14.434  0.6631  0.2171  0.1995
  779MPD2    C511493   3.655   3.671  14.464  0.2409  0.0084  0.2182
  779MPD2     H11494   4.003   3.768  14.367 -0.6904  0.9371 -0.8207
  779MPD2    H111495   3.590   3.867  14.455  0.7509  0.7922 -1.2922
  779MPD2    H211496   3.732   3.480  14.509  0.0246  0.2744 -0.1132
  779MPD2    H311497   3.556   3.638  14.492  0.7292  0.1559  2.0686
  779MPD2     N11498   3.849   3.969  14.396 -0.0009 -0.4512 -0.1466
  779MPD2    H511499   3.941   3.979  14.355 -0.2937 -3.0713 -1.3963
  779MPD2    N111500   3.981   3.506  14.433 -0.5999  0.1077 -0.0827
  779MPD2    H711501   3.938   3.415  14.440 -1.3135  0.2797 -2.1426
  780MPD2     C11502   3.239   3.371   1.385  0.7447 -0.4003 -0.8840
  780MPD2    C111503   3.161   3.337   1.281  0.2271  0.4045  0.4658
  780MPD2    C211504   3.189   3.399   1.161 -0.6510  0.0942 -0.3186
  780MPD2    C311505   3.280   3.505   1.154 -0.0391 -0.5017 -0.4085
  780MPD2    C411506   3.347   3.544   1.264  0.1392  0.5736 -0.0394
  780MPD2    C511507   3.332   3.476   1.381  0.6909 -0.2427  0.1753
  780MPD2     H11508   3.144   3.352   1.074 -0.4538 -1.9535  0.7013
  780MPD2    H111509   3.429   3.614   1.257  0.4814  0.1052 -0.6563
  780MPD2    H211510   3.235   3.323   1.482 -2.4855  0.2329 -0.7133
  780MPD2    H311511   3.391   3.510   1.465  0.6068 -2.3237  1.0862
  780MPD2     N11512   3.307   3.567   1.024 -0.1070  0.4411  0.2075
  780MPD2    H511513   3.251   3.539   0.945  0.4627 -0.0362 -0.0324
  780MPD2    N111514   3.074   3.236   1.297 -0.4931 -0.0383  0.2227
  780MPD2    H711515   3.089   3.183   1.382  0.1784  0.2244  0.2698
  781MPD2     C11516   0.768   0.444  11.622  0.1443  0.0746 -0.2793
  781MPD2    C111517   0.864   0.448  11.725  0.7969  0.1578  0.2023
  781MPD2    C211518   0.995   0.453  11.686 -0.3519  0.3504  0.1620
  781MPD2    C311519   1.035   0.453  11.557 -0.7371  0.3290 -0.0722
  781MPD2    C411520   0.938   0.452  11.460 -0.2485  0.4690 -0.3856
  781MPD2    C511521   0.811   0.446  11.498  0.5201 -0.1866 -0.2237
  781MPD2     H11522   1.079   0.446  11.755 -0.6400 -1.5757  0.3166
  781MPD2    H111523   0.961   0.466  11.355  0.4473 -3.7174 -0.8004
  781MPD2    H211524   0.663   0.433  11.647 -0.1159 -0.3638 -1.5977
  781MPD2    H311525   0.733   0.449  11.424 -1.0076  0.7469  1.4452
  781MPD2     N11526   1.170   0.443  11.520 -0.3426  0.2016 -0.6378
  781MPD2    H511527   1.197   0.424  11.424 -2.1051 -1.5262 -0.7890
  781MPD2    N111528   0.837   0.446  11.862  0.4242 -0.0088 -0.5990
  781MPD2    H711529   0.915   0.440  11.928  1.1174  2.0966 -1.2321
  782MPD2     C11530   3.581   1.295  10.289  0.6154 -0.0556 -0.5901
  782MPD2    C111531   3.618   1.241  10.410 -0.4090 -0.3403  0.1969
  782MPD2    C211532   3.663   1.340  10.502 -0.0209 -0.2391 -0.2757
  782MPD2    C311533   3.671   1.477  10.478  0.4020  0.0559  0.2751
  782MPD2    C411534   3.621   1.524  10.355  0.1655  0.4073  0.0627
  782MPD2    C511535   3.577   1.428  10.266  0.0826 -0.0387 -0.5614
  782MPD2     H11536   3.685   1.307  10.603 -0.4585 -0.3503 -0.2195
  782MPD2    H111537   3.602   1.629  10.336 -2.4466 -0.4132 -1.8647
  782MPD2    H211538   3.542   1.233  10.209 -0.9360 -1.2245  1.0614
  782MPD2    H311539   3.520   1.468  10.183  0.2637 -0.0026 -0.6679
  782MPD2     N11540   3.717   1.567  10.583  0.3272  0.3453 -0.4209
  782MPD2    H511541   3.765   1.526  10.663 -2.8557 -0.3471  1.1330
  782MPD2    N111542   3.611   1.102  10.440 -0.2207 -0.4916 -0.4028
  782MPD2    H711543   3.634   1.059  10.530 -1.7332 -0.2892  0.0754
  783MPD2     C11544   3.349   0.993  11.116  0.0754  0.0810 -0.2458
  783MPD2    C111545   3.275   1.002  11.004 -0.2781  0.4171 -0.1779
  783MPD2    C211546   3.324   0.939  10.888 -0.0025  0.2029 -0.1099
  783MPD2    C311547   3.440   0.871  10.886  0.3190 -0.9966  0.3041
  783MPD2    C411548   3.524   0.873  10.999 -0.2602 -0.2502 -0.1062
  783MPD2    C511549   3.478   0.945  11.106  0.3939  0.2370  0.1350
  783MPD2     H11550   3.261   0.935  10.800 -2.4142 -0.6920  1.6464
  783MPD2    H111551   3.627   0.840  10.998 -0.3288 -0.4099 -2.2910
  783MPD2    H211552   3.316   1.036  11.210  0.2778  0.1609 -0.2110
  783MPD2    H311553   3.547   0.951  11.189  0.3315  1.1783  0.1297
  783MPD2     N11554   3.471   0.804  10.766  0.3707  0.6142 -0.2137
  783MPD2    H511555   3.407   0.806  10.687 -0.9775  0.9454  0.8905
  783MPD2    N111556   3.166   1.083  11.004 -0.3600  0.9931 -0.2471
  783MPD2    H711557   3.153   1.135  11.091 -2.3738 -0.6180  0.4049
  784MPD2     C11558   0.932   2.324   1.214 -0.3424 -0.0939 -0.4323
  784MPD2    C111559   0.849   2.411   1.282  0.1860 -0.0918 -0.0199
  784MPD2    C211560   0.753   2.480   1.219  0.7296  0.1266 -0.2613
  784MPD2    C311561   0.735   2.477   1.079  0.8082 -0.2880 -0.3541
  784MPD2    C411562   0.815   2.388   1.011 -0.3773 -0.4976 -0.3989
  784MPD2    C511563   0.909   2.305   1.078 -0.1226 -0.4214 -0.2693
  784MPD2     H11564   0.698   2.550   1.280  1.0073 -0.7885  1.0394
  784MPD2    H111565   0.802   2.383   0.904 -1.7459 -0.1779 -0.2369
  784MPD2    H211566   1.005   2.260   1.262 -2.9238 -2.4701  0.3254
  784MPD2    H311567   0.971   2.238   1.019 -0.2418 -0.4893 -0.3189
  784MPD2     N11568   0.646   2.567   1.016  0.0696  0.4982 -0.4467
  784MPD2    H511569   0.593   2.629   1.077  1.9710  1.5588  0.1014
  784MPD2    N111570   0.856   2.428   1.427 -0.7722  0.5532  0.7192
  784MPD2    H711571   0.789   2.490   1.471 -2.0492 -0.9587  0.8960
  785MPD2     C11572   1.709   4.334  10.497 -0.0296  0.0665  0.1664
  785MPD2    C111573   1.588   4.375  10.551 -0.8646  0.0634  0.3190
  785MPD2    C211574   1.475   4.303  10.519  0.2509 -0.0759  0.0474
  785MPD2    C311575   1.479   4.192  10.435 -0.0944 -0.2456 -0.0775
  785MPD2    C411576   1.595   4.152  10.376  1.1080 -0.5775 -0.4219
  785MPD2    C511577   1.705   4.222  10.413  0.5757  0.2693  0.6393
  785MPD2     H11578   1.380   4.340  10.557 -0.5639  0.9366 -2.9468
  785MPD2    H111579   1.602   4.060  10.319  1.7049 -0.2091 -0.9435
  785MPD2    H211580   1.808   4.375  10.514 -0.2536 -0.4715  2.7827
  785MPD2    H311581   1.802   4.190  10.379  0.7075  1.0245  0.3059
  785MPD2     N11582   1.347   4.139  10.412 -0.5155  0.7205  0.0571
  785MPD2    H511583   1.277   4.187  10.468 -0.2621  0.7439  0.3496
  785MPD2    N111584   1.579   4.481  10.648  0.4728 -0.1992 -0.2927
  785MPD2    H711585   1.486   4.495  10.686  0.4344  0.3694 -0.6111
  786MPD2     C11586   4.543   2.754  14.931 -0.4018 -0.4392  0.2627
  786MPD2    C111587   4.676   2.734  14.889 -0.5543  0.0864  0.3658
  786MPD2    C211588   0.055   2.752  14.982  0.2838 -0.1957 -0.6917
  786MPD2    C311589   0.034   2.791  15.117 -0.1521 -0.2891 -0.0408
  786MPD2    C411590   4.629   2.791  15.162 -0.1144  0.6607 -0.2932
  786MPD2    C511591   4.531   2.773  15.067  0.3743 -0.5467  0.0298
  786MPD2     H11592   0.154   2.741  14.941  0.4860 -0.5731 -0.0855
  786MPD2    H111593   4.608   2.821  15.264 -0.4164 -1.8649  0.3836
  786MPD2    H211594   4.457   2.741  14.867 -0.8624 -0.2698  0.8542
  786MPD2    H311595   4.428   2.784  15.099 -0.2003  0.1080 -2.0190
  786MPD2     N11596   0.147   2.806  15.205 -0.0774 -0.8841  0.3404
  786MPD2    H511597   0.121   2.819  15.303 -0.9688  1.0353 -0.1503
  786MPD2    N111598   4.709   2.699  14.760  0.3490  0.0612 -0.3618
  786MPD2    H711599   0.086   2.686  14.751  0.2686 -0.8849  0.0903
  787MPD2     C11600   0.319   2.162  14.746  0.3998  0.3854  0.4076
  787MPD2    C111601   0.328   2.207  14.615 -0.1671  0.5595  0.2301
  787MPD2    C211602   0.417   2.151  14.519 -0.0841 -0.7369  0.2407
  787MPD2    C311603   0.497   2.043  14.562  0.3959  0.1555  0.5979
  787MPD2    C411604   0.483   2.001  14.696  0.1392 -0.3199  0.0302
  787MPD2    C511605   0.397   2.057  14.780  0.6756  0.4730  1.1394
  787MPD2     H11606   0.413   2.180  14.415  1.6163  0.5383  0.5178
  787MPD2    H111607   0.548   1.926  14.739  0.6908 -0.4795 -1.0720
  787MPD2    H211608   0.251   2.192  14.824  0.2463 -0.4463  0.5933
  787MPD2    H311609   0.397   2.029  14.885  0.0892 -1.2439  0.6779
  787MPD2     N11610   0.587   1.987  14.476 -0.3844  0.1557 -0.0962
  787MPD2    H511611   0.602   2.030  14.385  3.2659  0.8798  0.8151
  787MPD2    N111612   0.234   2.302  14.587  0.1279  0.1294 -0.1831
  787MPD2    H711613   0.176   2.327  14.666  1.5509  2.5777  0.0967
  788MPD2     C11614   1.037   0.711   1.346 -0.6517  0.4928 -0.9163
  788MPD2    C111615   1.020   0.732   1.208 -0.0998  0.7261  0.7583
  788MPD2    C211616   1.034   0.858   1.156  0.1533  0.1900 -1.3117
  788MPD2    C311617   1.087   0.958   1.234  0.7164  0.1829  0.0019
  788MPD2    C411618   1.103   0.938   1.367 -0.2706  0.7699 -0.8611
  788MPD2    C511619   1.074   0.815   1.424 -0.3256 -0.2750  0.1808
  788MPD2     H11620   1.012   0.863   1.050 -2.6092 -0.6370 -0.7738
  788MPD2    H111621   1.137   1.014   1.436 -2.7614 -1.0125  2.3050
  788MPD2    H211622   1.017   0.618   1.396 -3.1180  1.7581  0.4442
  788MPD2    H311623   1.086   0.806   1.532 -0.8186  0.8041  0.3245
  788MPD2     N11624   1.123   1.086   1.199 -0.2822 -0.0288  1.0817
  788MPD2    H511625   1.184   1.136   1.264  1.3063 -0.4077 -0.1312
  788MPD2    N111626   0.994   0.624   1.118 -0.4698 -1.0884 -0.4383
  788MPD2    H711627   0.969   0.649   1.023  0.4180  0.9171 -0.1332
  789MPD2     C11628   2.170   1.008  16.369 -0.0221  0.1844  0.5544
  789MPD2    C111629   2.133   0.916  16.468  0.6279  0.6216  0.1443
  789MPD2    C211630   2.016   0.936  16.538 -0.5188 -0.0657  0.8919
  789MPD2    C311631   1.939   1.055  16.517  0.0527 -0.3169  0.1878
  789MPD2    C411632   1.970   1.130  16.401  0.4749 -0.3437 -0.2475
  789MPD2    C511633   2.086   1.111  16.337  0.3485  0.1017 -0.0022
  789MPD2     H11634   1.991   0.869  16.619  1.4174 -0.9200  0.7981
  789MPD2    H111635   1.912   1.217  16.374 -2.2711 -1.6233  1.4011
  789MPD2    H211636   2.258   0.989  16.309  0.1554  0.2921  0.7803
  789MPD2    H311637   2.101   1.175  16.251  0.4394 -0.8939 -0.7267
  789MPD2     N11638   1.826   1.104  16.590  0.2931 -0.0224 -0.4627
  789MPD2    H511639   1.764   1.172  16.548  0.0730 -0.5784 -1.0541
  789MPD2    N111640   2.209   0.792  16.501 -0.0616 -0.8270  0.4386
  789MPD2    H711641   2.170   0.719  16.560 -0.7239 -1.3528 -0.6233
  790MPD2     C11642   3.099   2.778  13.453 -0.7487 -0.0445  0.4488
  790MPD2    C111643   3.221   2.737  13.411 -0.3141  0.4701 -0.1932
  790MPD2    C211644   3.229   2.683  13.282  0.8939 -0.2716 -0.4157
  790MPD2    C311645   3.121   2.677  13.196  0.5327 -0.4502 -0.2738
  790MPD2    C411646   3.006   2.740  13.238  0.1994 -0.6994 -0.4878
  790MPD2    C511647   2.991   2.777  13.369  0.3968 -0.2103 -0.9301
  790MPD2     H11648   3.326   2.642  13.257  1.9475  2.5965 -1.0936
  790MPD2    H111649   2.917   2.760  13.179 -1.0251 -1.0993  1.2063
  790MPD2    H211650   3.081   2.806  13.556 -0.1215  1.2293  0.2085
  790MPD2    H311651   2.899   2.810  13.415 -1.3672 -3.5982 -1.9917
  790MPD2     N11652   3.131   2.626  13.061 -0.8067 -0.0578 -0.1205
  790MPD2    H511653   3.222   2.586  13.040 -0.7923  0.5396 -1.2119
  790MPD2    N111654   3.328   2.738  13.505  0.0652  0.3840 -0.2527
  790MPD2    H711655   3.301   2.756  13.602  0.5653  0.0139 -0.0450
  791MPD2     C11656   2.619   2.635  12.417  0.2279  0.4939 -0.0798
  791MPD2    C111657   2.658   2.518  12.482 -1.1157 -0.0435 -1.1520
  791MPD2    C211658   2.581   2.408  12.464 -0.3889  0.5558  0.1063
  791MPD2    C311659   2.466   2.412  12.389 -0.7608  0.1704  0.3225
  791MPD2    C411660   2.424   2.529  12.331  0.1260  0.2154  0.1735
  791MPD2    C511661   2.508   2.641  12.338  0.6662  0.1388  0.3996
  791MPD2     H11662   2.603   2.308  12.499 -0.4877  1.0820  1.7106
  791MPD2    H111663   2.334   2.549  12.274  0.1283  0.7081  0.3421
  791MPD2    H211664   2.670   2.725  12.450  1.5376 -0.3101  0.0513
  791MPD2    H311665   2.472   2.733  12.294  1.0324 -0.5352 -1.3054
  791MPD2     N11666   2.393   2.295  12.392  0.1626  0.0115  0.0478
  791MPD2    H511667   2.426   2.215  12.446 -2.7293 -0.7778  0.6120
  791MPD2    N111668   2.782   2.516  12.550 -0.5190  0.0888  0.0015
  791MPD2    H711669   2.818   2.606  12.581  2.0198 -1.5529  1.7594
  792MPD2     C11670   3.700   2.323  11.456  0.6858  0.4901  0.0159
  792MPD2    C111671   3.696   2.396  11.342 -0.6497 -0.5069 -0.0603
  792MPD2    C211672   3.666   2.333  11.225 -1.1308 -0.4550  0.4068
  792MPD2    C311673   3.643   2.196  11.215 -0.6531  0.5601 -0.0851
  792MPD2    C411674   3.651   2.131  11.333  0.0479 -0.4215 -0.0959
  792MPD2    C511675   3.676   2.190  11.450  0.4408  0.5021 -0.3769
  792MPD2     H11676   3.667   2.392  11.134  3.7778  1.8797  1.9394
  792MPD2    H111677   3.632   2.025  11.337 -1.4604 -0.0538  2.4087
  792MPD2    H211678   3.740   2.368  11.546  0.5334  2.2015 -0.7762
  792MPD2    H311679   3.694   2.129  11.537 -0.3055 -0.2972 -0.7922
  792MPD2     N11680   3.599   2.127  11.100  0.2334  0.7161  0.5688
  792MPD2    H511681   3.588   2.028  11.115 -0.8295  0.9324  1.2114
  792MPD2    N111682   3.726   2.535  11.352  0.1086  0.3845  0.7382
  792MPD2    H711683   3.776   2.559  11.437  0.7217  0.8633  0.2485
  793MPD2     C11684   2.836   2.355  10.416 -0.1421 -0.6595 -0.4550
  793MPD2    C111685   2.965   2.402  10.386 -0.2683  0.2707 -0.2072
  793MPD2    C211686   3.075   2.354  10.465  0.2750 -0.8049  0.8410
  793MPD2    C311687   3.057   2.266  10.565 -0.0449 -0.4149 -0.0805
  793MPD2    C411688   2.930   2.222  10.589 -0.2896 -0.1711  0.3000
  793MPD2    C511689   2.820   2.271  10.526  0.3773 -1.1115 -0.1541
  793MPD2     H11690   3.179   2.379  10.447 -0.2528  0.7826  0.0993
  793MPD2    H111691   2.911   2.146  10.664  0.2770  0.1395  0.7521
  793MPD2    H211692   2.749   2.381  10.356  0.2933  0.9800 -0.3628
  793MPD2    H311693   2.723   2.222  10.530  0.0127 -0.5792 -2.5063
  793MPD2     N11694   3.169   2.207  10.633  0.3965 -0.1882 -0.0761
  793MPD2    H511695   3.259   2.253  10.626 -0.0732  0.9436  1.2348
  793MPD2    N111696   2.997   2.480  10.276  0.0346 -0.1882  0.0908
  793MPD2    H711697   3.097   2.497  10.268 -0.1737  1.0828  0.1400
  794MPD2     C11698   2.505   2.040  17.253  0.0108 -0.1464 -0.3451
  794MPD2    C111699   2.471   1.901  17.266  0.5029 -0.3350  0.2900
  794MPD2    C211700   2.366   1.840  17.196 -0.2505 -0.0132  0.2367
  794MPD2    C311701   2.287   1.925  17.122 -0.2465 -0.6450 -0.2460
  794MPD2    C411702   2.297   2.063  17.124 -0.5851  0.3613 -0.5730
  794MPD2    C511703   2.411   2.119  17.188  0.2845  0.5850  0.0908
  794MPD2     H11704   2.341   1.735  17.196  0.2188 -0.1159 -1.4849
  794MPD2    H111705   2.222   2.120  17.070 -0.4540  1.3518  0.2773
  794MPD2    H211706   2.588   2.089  17.302 -0.7627  0.0518  0.7658
  794MPD2    H311707   2.421   2.227  17.194  0.5326  0.5614  0.0810
  794MPD2     N11708   2.191   1.876  17.032  0.7216 -0.3918 -0.2050
  794MPD2    H511709   2.129   1.944  16.991 -0.8252 -1.4149  0.4172
  794MPD2    N111710   2.546   1.813  17.345 -0.2776 -0.4927 -0.0021
  794MPD2    H711711   2.507   1.719  17.352 -0.0825 -0.5951 -0.2928
  795MPD2     C11712   0.573   4.097  13.713 -0.4706  0.0476 -0.1873
  795MPD2    C111713   0.556   4.009  13.608  0.0678  0.1399  0.8709
  795MPD2    C211714   0.651   3.912  13.578  0.4211  0.3686 -0.6091
  795MPD2    C311715   0.770   3.907  13.649  0.1118 -0.5941 -0.2069
  795MPD2    C411716   0.789   4.002  13.747 -0.1861  0.0928 -0.3727
  795MPD2    C511717   0.689   4.089  13.786  0.3180 -0.1849  0.5351
  795MPD2     H11718   0.641   3.845  13.493  1.4380 -0.7922  0.1852
  795MPD2    H111719   0.887   4.005  13.795 -1.1599  0.7147  1.5770
  795MPD2    H211720   0.492   4.157  13.754 -0.4387  0.4897 -0.7644
  795MPD2    H311721   0.697   4.162  13.866  0.0190  1.1847 -0.6960
  795MPD2     N11722   0.856   3.799  13.629  0.4071  0.1350 -0.0344
  795MPD2    H511723   0.832   3.717  13.573 -0.1191  0.3541 -0.1257
  795MPD2    N111724   0.439   4.011  13.527 -0.6599 -0.1111  0.5389
  795MPD2    H711725   0.429   3.942  13.453  1.8650 -0.6534  0.6987
  796MPD2     C11726   0.299   0.880  15.923  0.5240  0.1762 -1.0266
  796MPD2    C111727   0.333   0.964  16.033 -0.2916 -0.1577 -0.5749
  796MPD2    C211728   0.317   1.099  16.022  0.2880 -0.2356  0.1081
  796MPD2    C311729   0.269   1.148  15.908 -0.0966  0.9538  0.0268
  796MPD2    C411730   0.236   1.072  15.800 -0.3897  0.6026 -0.0816
  796MPD2    C511731   0.256   0.935  15.805 -0.0316 -0.2771  0.2086
  796MPD2     H11732   0.349   1.170  16.097 -2.7105  0.5789  0.6027
  796MPD2    H111733   0.188   1.118  15.714 -0.9286  1.7072  0.8091
  796MPD2    H211734   0.311   0.772  15.927  0.1438  0.0902 -2.3324
  796MPD2    H311735   0.219   0.869  15.728 -0.7057  0.5167 -0.1428
  796MPD2     N11736   0.244   1.288  15.914 -0.0263  0.1451  0.2448
  796MPD2    H511737   0.261   1.335  16.003  0.8241 -1.3764  0.8952
  796MPD2    N111738   0.373   0.906  16.155  0.2278 -0.7526 -0.1505
  796MPD2    H711739   0.372   0.805  16.163  2.2629 -0.8220 -0.9595
  797MPD2     C11740   1.177   0.474  17.658  0.4624 -0.2320 -0.3445
  797MPD2    C111741   1.275   0.571  17.638  0.3323 -0.4736  0.3308
  797MPD2    C211742   1.243   0.685  17.574 -0.4630  0.6413 -0.3249
  797MPD2    C311743   1.113   0.706  17.526 -0.5335  0.6718  0.7652
  797MPD2    C411744   1.017   0.612  17.535  0.5372  0.6097  0.1775
  797MPD2    C511745   1.050   0.494  17.598  0.0801 -0.3165  0.7448
  797MPD2     H11746   1.322   0.756  17.553 -0.1276  0.1593 -0.6655
  797MPD2    H111747   0.923   0.620  17.482  0.5961  0.1424  0.0030
  797MPD2    H211748   1.190   0.378   0.011  0.0868  0.2145  0.5922
  797MPD2    H311749   0.968   0.425  17.618 -0.1915 -0.3538 -0.4892
  797MPD2     N11750   1.099   0.826  17.451 -0.8625  0.1011  0.4071
  797MPD2    H511751   1.186   0.877  17.437 -0.4552 -0.6428  0.2205
  797MPD2    N111752   1.408   0.556  17.680 -0.5267  0.4181 -0.0293
  797MPD2    H711753   1.469   0.637  17.672  1.7503 -1.2047  0.9183
  798MPD2     C11754   1.335   1.201   0.139 -0.2615 -0.0918 -0.0295
  798MPD2    C111755   1.375   1.126   0.029  0.1187  0.6626  0.5395
  798MPD2    C211756   1.463   1.024   0.048 -0.0550 -0.4763  0.3735
  798MPD2    C311757   1.515   0.991   0.169  0.2285 -0.1531 -0.2509
  798MPD2    C411758   1.492   1.075   0.277  0.2053  0.6211  0.4005
  798MPD2    C511759   1.399   1.180   0.259  0.0249  0.2438  0.1615
  798MPD2     H11760   1.479   0.961  17.658 -1.2097  0.1243 -0.2662
  798MPD2    H111761   1.533   1.070   0.376 -1.1595  0.6819  0.9740
  798MPD2    H211762   1.269   1.284   0.120 -1.5864 -0.4107  3.2945
  798MPD2    H311763   1.379   1.251   0.338  1.6329  1.3616 -0.4317
  798MPD2     N11764   1.591   0.872   0.188  0.6035  0.0324 -0.3256
  798MPD2    H511765   1.602   0.822   0.100  0.9953 -1.5860  0.6559
  798MPD2    N111766   1.307   1.147  17.607  0.3363  0.3975 -0.0518
  798MPD2    H711767   1.229   1.211  17.613  0.9156  1.1025 -0.0843
  799MPD2     C11768   4.521   2.182  14.186  0.2856  0.0743 -0.2733
  799MPD2    C111769   4.525   2.080  14.090 -0.8117 -0.1894 -0.3008
  799MPD2    C211770   4.536   2.126  13.963  0.5732  0.0122 -0.1555
  799MPD2    C311771   4.549   2.266  13.926  0.0506  0.2921 -0.9717
  799MPD2    C411772   4.548   2.362  14.029 -0.6848 -0.5620 -0.0703
  799MPD2    C511773   4.530   2.315  14.152  1.2896  0.2726 -0.4398
  799MPD2     H11774   4.557   2.046  13.893  1.7746 -0.7682  1.0928
  799MPD2    H111775   4.554   2.467  14.005 -1.1274 -0.0382  2.0471
  799MPD2    H211776   4.517   2.158  14.291  1.0292  1.8079  0.1507
  799MPD2    H311777   4.534   2.386  14.234 -1.9488 -0.3490  0.2682
  799MPD2     N11778   4.574   2.309  13.796 -0.2740  0.3472 -0.0906
  799MPD2    H511779   4.601   2.406  13.802 -0.3670  0.5419 -2.6660
  799MPD2    N111780   4.543   1.946  14.117  0.2938 -0.6268  0.1012
  799MPD2    H711781   4.541   1.881  14.038  0.0020 -2.3872  1.5652
  800MPD2     C11782   0.280   3.014  13.694 -0.1045  0.0635 -0.7667
  800MPD2    C111783   0.409   3.013  13.726  0.2081 -0.0651  0.3712
  800MPD2    C211784   0.490   2.908  13.668  0.0208  0.1753 -0.0929
  800MPD2    C311785   0.446   2.809  13.587  0.6549 -0.2950  0.1405
  800MPD2    C411786   0.307   2.816  13.550 -0.5599 -0.2641 -0.0161
  800MPD2    C511787   0.230   2.919  13.609 -0.2243 -0.2273 -0.6427
  800MPD2     H11788   0.588   2.879  13.704  0.1597 -0.7673 -1.2191
  800MPD2    H111789   0.259   2.742  13.487 -0.7318 -2.1962  2.3992
  800MPD2    H211790   0.212   3.090  13.729  1.7144  1.1807  0.3876
  800MPD2    H311791   0.126   2.914  13.578 -0.4780 -1.6330  0.4615
  800MPD2     N11792   0.544   2.709  13.543  0.1778 -0.2949 -0.7577
  800MPD2    H511793   0.640   2.703  13.574  0.0443  0.1877 -0.2539
  800MPD2    N111794   0.466   3.118  13.803  0.0225  0.8389 -0.4379
  800MPD2    H711795   0.392   3.169  13.849 -0.1153  0.6970 -0.5023
  801MPD2     C11796   0.441   3.853  13.904 -0.5157 -0.4810 -0.1280
  801MPD2    C111797   0.507   3.791  14.011 -0.0711  0.5692  0.1484
  801MPD2    C211798   0.485   3.848  14.142  0.5143 -0.3794 -0.0723
  801MPD2    C311799   0.402   3.959  14.162  0.0304 -0.0952  0.5980
  801MPD2    C411800   0.334   4.008  14.052 -0.4148 -0.4563  0.0069
  801MPD2    C511801   0.369   3.965  13.930 -0.6610  0.1712  0.4820
  801MPD2     H11802   0.520   3.793  14.229 -2.2485 -0.7292  0.8458
  801MPD2    H111803   0.265   4.090  14.069  0.5341  0.1627  0.9165
  801MPD2    H211804   0.458   3.825  13.801 -0.8119 -1.3261  0.0556
  801MPD2    H311805   0.344   4.017  13.838  0.2895 -0.5494 -0.1892
  801MPD2     N11806   0.390   4.011  14.291  0.3700  0.3436 -0.2812
  801MPD2    H511807   0.463   3.984  14.357  2.1811  2.4723 -1.4365
  801MPD2    N111808   0.585   3.675  13.998 -0.0830 -0.2196  0.6524
  801MPD2    H711809   0.605   3.626  14.085 -1.3383 -0.4927  0.7820
  802MPD2     C11810   4.147   3.510  17.334 -0.1111 -0.2786  0.5742
  802MPD2    C111811   4.251   3.595  17.353  0.3021 -0.4588  0.0562
  802MPD2    C211812   4.360   3.567  17.276  0.7685 -0.4923  0.2453
  802MPD2    C311813   4.370   3.457  17.196 -0.7377 -0.5575 -0.1317
  802MPD2    C411814   4.274   3.358  17.201 -0.3077  0.0587 -0.2981
  802MPD2    C511815   4.155   3.394  17.261 -0.2683 -0.7787 -0.3923
  802MPD2     H11816   4.447   3.628  17.292  0.0999  1.1374 -2.3905
  802MPD2    H111817   4.278   3.271  17.136  2.0217  1.2380 -1.7394
  802MPD2    H211818   4.052   3.529  17.381 -0.0088 -1.4375  1.2601
  802MPD2    H311819   4.067   3.332  17.251  0.1482 -1.5115  0.5338
  802MPD2     N11820   4.501   3.445  17.140 -0.1180 -0.2233 -0.6983
  802MPD2    H511821   4.549   3.535  17.139  1.7546 -1.2236 -1.6589
  802MPD2    N111822   4.244   3.716  17.431 -0.6886  0.0663 -0.6797
  802MPD2    H711823   4.310   3.790  17.411 -0.7177 -0.7081 -3.6941
  803MPD2     C11824   1.187   2.480  11.797  0.5173  0.1584  0.3339
  803MPD2    C111825   1.284   2.466  11.892  0.1147 -0.7987  0.0238
  803MPD2    C211826   1.251   2.389  12.000 -0.8893 -0.7887 -0.0488
  803MPD2    C311827   1.131   2.315  12.006  0.8655  0.7966 -0.4912
  803MPD2    C411828   1.034   2.337  11.911  0.0766 -0.4506 -0.3879
  803MPD2    C511829   1.063   2.413  11.805 -0.1519 -0.2621  0.0658
  803MPD2     H11830   1.330   2.370  12.072  0.1960 -3.0036 -1.8036
  803MPD2    H111831   0.936   2.293  11.922 -0.0093  0.3719  2.1074
  803MPD2    H211832   1.204   2.542  11.709 -0.1646 -1.1248 -0.6885
  803MPD2    H311833   0.994   2.435  11.724 -0.8703  1.0590  1.0321
  803MPD2     N11834   1.111   2.214  12.100  0.3760  0.1741 -0.1433
  803MPD2    H511835   1.023   2.164  12.087 -0.5905  1.9972 -0.6947
  803MPD2    N111836   1.404   2.539  11.889 -0.3630 -0.2504  0.1997
  803MPD2    H711837   1.468   2.530  11.968 -0.7114 -2.3870  0.2559
  804MPD2     C11838   0.759   4.151  16.980 -0.3504 -0.7633  0.2721
  804MPD2    C111839   0.699   4.110  17.099  0.2293 -0.0623 -0.4101
  804MPD2    C211840   0.749   4.150  17.218  0.6119  0.3516 -0.8144
  804MPD2    C311841   0.866   4.226  17.223 -0.7770 -0.0583  0.5075
  804MPD2    C411842   0.926   4.264  17.104 -0.1815  0.3685 -0.2981
  804MPD2    C511843   0.873   4.226  16.986  0.0107 -0.2008 -0.2969
  804MPD2     H11844   0.698   4.113  17.306  3.2724  1.1196  1.0459
  804MPD2    H111845   1.016   4.324  17.093 -0.5649  0.6437 -2.0068
  804MPD2    H211846   0.713   4.133  16.884  1.0348 -2.4549 -0.0792
  804MPD2    H311847   0.913   4.259  16.891  3.4055 -3.3637  0.0548
  804MPD2     N11848   0.911   4.271  17.349 -0.0562  0.5255  0.3174
  804MPD2    H511849   0.860   4.246  17.433 -0.0685 -0.9193 -0.1170
  804MPD2    N111850   0.582   4.032  17.099  0.1000  0.1389 -0.3546
  804MPD2    H711851   0.541   4.015  17.190 -0.4577  0.2756 -0.5810
  805MPD2     C11852   4.135   2.330  15.689 -0.3090 -0.1328  0.3655
  805MPD2    C111853   4.221   2.294  15.591  0.5436 -0.8526 -0.2806
  805MPD2    C211854   4.355   2.291  15.620  0.4160  0.0399 -0.1913
  805MPD2    C311855   4.407   2.345  15.741 -0.0255  0.0424  0.8384
  805MPD2    C411856   4.322   2.371  15.841 -0.4194  0.5602  0.1326
  805MPD2    C511857   4.187   2.355  15.816  0.1143  0.1498 -0.2346
  805MPD2     H11858   4.428   2.281  15.541 -2.2384  0.2003 -2.6963
  805MPD2    H111859   4.361   2.420  15.929  2.4344 -0.0083 -0.7830
  805MPD2    H211860   4.027   2.327  15.680 -0.3519  0.1039  0.8317
  805MPD2    H311861   4.105   2.382  15.882 -3.0748 -0.9838 -3.7159
  805MPD2     N11862   4.546   2.372  15.749 -0.4269 -0.0932 -0.3593
  805MPD2    H511863   4.600   2.352  15.666  3.7121  0.1512  2.2915
  805MPD2    N111864   4.182   2.266  15.460 -0.1802  0.3880 -0.2682
  805MPD2    H711865   4.252   2.237  15.393 -0.2872 -1.2879  0.3427
  806MPD2     C11866   0.758   2.147   0.480  0.0887  0.0779 -0.4675
  806MPD2    C111867   0.654   2.208   0.549  0.1294 -0.3820  0.1971
  806MPD2    C211868   0.555   2.286   0.475  0.4257 -0.3614  0.1461
  806MPD2    C311869   0.553   2.281   0.342  0.3958  0.6390  0.2349
  806MPD2    C411870   0.646   2.203   0.270  0.0435 -0.6364 -0.3010
  806MPD2    C511871   0.756   2.154   0.340 -0.1414 -0.9565 -0.6070
  806MPD2     H11872   0.474   2.343   0.520  0.4639  0.4059 -0.7701
  806MPD2    H111873   0.637   2.194   0.163  2.4080 -1.7235 -0.4221
  806MPD2    H211874   0.841   2.094   0.526  0.0465  0.1296 -0.3311
  806MPD2    H311875   0.832   2.100   0.285 -0.2297 -0.9768 -0.7116
  806MPD2     N11876   0.452   2.360   0.283 -0.0453 -0.5164  0.0674
  806MPD2    H511877   0.376   2.392   0.343 -0.0937 -0.2729 -0.1226
  806MPD2    N111878   0.659   2.200   0.689  0.1989  0.1620  0.4796
  806MPD2    H711879   0.741   2.157   0.730  0.4844  0.6066  0.3687
  807MPD2     C11880   0.345   2.383   1.513 -0.1586  0.2543 -0.7267
  807MPD2    C111881   0.324   2.259   1.459  0.3301 -0.0723  0.7926
  807MPD2    C211882   0.265   2.162   1.538  0.7239 -0.4087  0.5780
  807MPD2    C311883   0.211   2.189   1.664  0.5676 -0.5689  0.5657
  807MPD2    C411884   0.237   2.314   1.715 -0.0189  0.2324 -0.4222
  807MPD2    C511885   0.310   2.408   1.644 -0.6570  0.3477  0.2048
  807MPD2     H11886   0.250   2.061   1.502  0.8679 -0.1456 -0.2207
  807MPD2    H111887   0.208   2.357   1.810 -1.9166  1.8820 -1.7460
  807MPD2    H211888   0.399   2.455   1.453  0.7999 -0.6990 -1.0133
  807MPD2    H311889   0.338   2.503   1.689 -2.2565 -0.0372  1.9829
  807MPD2     N11890   0.155   2.082   1.741 -0.5148 -0.0256  0.5258
  807MPD2    H511891   0.136   1.996   1.690  1.4916 -0.9860  1.3794
  807MPD2    N111892   0.359   2.225   1.329 -0.0561  0.5684  0.2383
  807MPD2    H711893   0.369   2.128   1.300 -0.7181  1.7898 -4.0608
  808MPD2     C11894   0.698   3.020  10.473 -0.3138 -0.0049  0.1714
  808MPD2    C111895   0.717   3.053  10.339 -0.3295  0.1787  0.6434
  808MPD2    C211896   0.803   3.157  10.303  0.5273 -0.5035  0.0036
  808MPD2    C311897   0.873   3.232  10.402  0.0421 -0.0550  0.0083
  808MPD2    C411898   0.851   3.191  10.526 -0.6747 -0.3792  0.1703
  808MPD2    C511899   0.773   3.088  10.564 -0.0306 -0.1893 -0.3910
  808MPD2     H11900   0.799   3.189  10.200 -2.1321 -0.1744  0.1910
  808MPD2    H111901   0.895   3.246  10.608 -0.3450  1.6767 -1.3800
  808MPD2    H211902   0.628   2.942  10.501  0.1090 -0.8319 -1.0841
  808MPD2    H311903   0.773   3.062  10.669 -0.4547  0.9257 -0.1174
  808MPD2     N11904   0.956   3.343  10.383 -0.6095 -0.5675 -0.1845
  808MPD2    H511905   1.010   3.380  10.460 -0.6503 -0.8955 -0.0026
  808MPD2    N111906   0.650   2.989  10.237 -0.2565 -0.8435  0.0899
  808MPD2    H711907   0.662   3.029  10.144  3.2274 -1.9197  0.0807
  809MPD2     C11908   1.464   4.037   9.669  0.3937  0.4155 -0.4736
  809MPD2    C111909   1.366   3.943   9.649  0.4278  0.4187  0.1589
  809MPD2    C211910   1.314   3.874   9.753  0.0430  0.2988  0.4603
  809MPD2    C311911   1.364   3.894   9.883 -0.4116 -0.6223 -0.9240
  809MPD2    C411912   1.470   3.980   9.906 -0.3228  0.4966  0.3954
  809MPD2    C511913   1.520   4.046   9.795 -0.5665 -0.2411  0.5201
  809MPD2     H11914   1.237   3.802   9.730  1.6719 -1.8160  1.5793
  809MPD2    H111915   1.510   4.001  10.005  2.0028  1.7647 -0.8162
  809MPD2    H211916   1.513   4.084   9.584 -2.9069  3.6221 -0.6089
  809MPD2    H311917   1.611   4.102   9.810 -1.4673  1.1768  0.7441
  809MPD2     N11918   1.296   3.840  10.000  0.2416  0.1536  0.1539
  809MPD2    H511919   1.329   3.885  10.084 -0.5886  0.4481  0.3211
  809MPD2    N111920   1.307   3.917   9.526 -0.3083 -0.7651  0.1027
  809MPD2    H711921   1.249   3.834   9.521  0.7592 -1.3647 -2.4039
  810MPD2     C11922   0.677   2.466  10.254  0.8951  0.1483  0.7563
  810MPD2    C111923   0.572   2.455  10.335 -0.0863 -0.0858  0.7932
  810MPD2    C211924   0.590   2.482  10.468 -0.1073  0.5882  0.3964
  810MPD2    C311925   0.703   2.529  10.527 -0.0818  1.1708 -0.5845
  810MPD2    C411926   0.810   2.554  10.442  0.2125  0.0188  0.1712
  810MPD2    C511927   0.793   2.508  10.308 -0.0534  0.2086  0.5255
  810MPD2     H11928   0.499   2.490  10.527  0.7016 -0.9118  1.8264
  810MPD2    H111929   0.908   2.585  10.477  0.7705 -3.1838  1.4090
  810MPD2    H211930   0.674   2.454  10.147  0.8381 -1.1586  0.9055
  810MPD2    H311931   0.870   2.515  10.232  0.0971 -0.0999  0.6465
  810MPD2     N11932   0.702   2.571  10.662  0.2206 -0.3323 -0.7354
  810MPD2    H511933   0.779   2.632  10.689 -0.2678  0.0286 -0.1463
  810MPD2    N111934   0.443   2.411  10.283  0.0500  0.2473 -0.4639
  810MPD2    H711935   0.429   2.403  10.183 -3.1866  3.0491 -0.2280
  811MPD2     C11936   4.512   2.527   9.770 -0.2920 -0.1290  0.3457
  811MPD2    C111937   4.604   2.581   9.855  0.2798  0.1956  1.2091
  811MPD2    C211938   4.640   2.716   9.841 -0.2317  0.6751 -0.3421
  811MPD2    C311939   4.572   2.803   9.758 -0.2022 -0.4012  0.0175
  811MPD2    C411940   4.474   2.751   9.681 -0.4913 -0.4541  0.1424
  811MPD2    C511941   4.449   2.614   9.684 -0.1247 -0.2411 -0.5844
  811MPD2     H11942   4.722   2.754   9.901  0.7567 -0.2695 -1.0996
  811MPD2    H111943   4.408   2.812   9.621 -0.9398 -1.1947 -0.1128
  811MPD2    H211944   4.485   2.421   9.768  0.6317 -0.3688  0.6035
  811MPD2    H311945   4.367   2.577   9.622  0.4695 -2.3798 -0.0775
  811MPD2     N11946   4.606   2.938   9.767 -0.1804 -0.0326  0.0213
  811MPD2    H511947   4.677   2.962   9.835  0.8904 -1.1748 -0.6852
  811MPD2    N111948   4.668   2.485   9.941  0.7626  0.2994  0.0343
  811MPD2    H711949   4.639   2.389   9.933  1.4195  0.0489  0.6357
  812MPD2     C11950   4.279   2.474  12.423 -0.3503  0.3929  0.2287
  812MPD2    C111951   4.159   2.485  12.493  0.1487  0.3618  0.1767
  812MPD2    C211952   4.124   2.380  12.589 -0.0183 -0.6703 -0.1153
  812MPD2    C311953   4.204   2.271  12.599 -0.0667  0.2174 -0.0280
  812MPD2    C411954   4.320   2.262  12.526 -0.0229 -0.3449 -0.2317
  812MPD2    C511955   4.353   2.356  12.435  0.6213 -0.1400 -0.9023
  812MPD2     H11956   4.036   2.392  12.650 -1.8359 -1.0787 -2.6370
  812MPD2    H111957   4.379   2.171  12.519  1.5784  0.6897 -0.0364
  812MPD2    H211958   4.304   2.542  12.342 -0.8316 -1.0495 -1.1353
  812MPD2    H311959   4.438   2.335  12.371  0.2274 -1.7261 -0.8934
  812MPD2     N11960   4.166   2.164  12.681  1.1353 -0.1716 -0.4419
  812MPD2    H511961   4.100   2.193  12.753  1.4342 -2.7643  0.8779
  812MPD2    N111962   4.084   2.604  12.481  0.5908  0.0254 -0.2019
  812MPD2    H711963   4.132   2.674  12.426 -0.5888  0.0544 -1.2154
  813MPD2     C11964   3.621   4.195  13.257 -0.2086  0.0783 -0.1168
  813MPD2    C111965   3.506   4.262  13.211 -0.8214  0.2821  0.1300
  813MPD2    C211966   3.398   4.271  13.306 -0.0627 -0.1080 -0.1520
  813MPD2    C311967   3.404   4.223  13.429 -0.3085 -0.5311 -0.1507
  813MPD2    C411968   3.525   4.178  13.478 -0.0540  0.7988  0.0925
  813MPD2    C511969   3.640   4.172  13.393 -0.7909 -0.1003  0.8621
  813MPD2     H11970   3.301   4.305  13.272  1.2056  0.1523 -3.5056
  813MPD2    H111971   3.539   4.144  13.579 -0.7270 -2.1688 -0.8196
  813MPD2    H211972   3.706   4.189  13.189  1.2745 -0.4308  1.7818
  813MPD2    H311973   3.734   4.134  13.430 -1.4722 -2.3968  0.2407
  813MPD2     N11974   3.284   4.226  13.507 -0.6445  0.1600 -0.3078
  813MPD2    H511975   3.195   4.248  13.465  0.0892 -0.0325 -1.9715
  813MPD2    N111976   3.503   4.301  13.077  0.3615  0.3605  0.5839
  813MPD2    H711977   3.590   4.299  13.024 -0.1446 -0.0930 -0.2322
  814MPD2     C11978   3.684   1.056  12.351 -0.4382  0.2105 -1.1254
  814MPD2    C111979   3.712   1.096  12.220  0.2301  0.3006 -0.6303
  814MPD2    C211980   3.833   1.163  12.190 -0.3346  0.5057  0.2041
  814MPD2    C311981   3.920   1.187  12.288 -0.6928  0.4027  0.1413
  814MPD2    C411982   3.901   1.136  12.412  0.0295  0.6170 -0.3438
  814MPD2    C511983   3.781   1.079  12.444  0.2860  0.0678  0.7883
  814MPD2     H11984   3.845   1.202  12.090  0.8247 -1.5178 -0.4469
  814MPD2    H111985   3.980   1.144  12.486 -0.2913 -1.4918  0.2447
  814MPD2    H211986   3.604   0.987  12.375  0.8355 -1.0550 -0.5465
  814MPD2    H311987   3.766   1.034  12.541  2.4484 -3.5333 -0.5543
  814MPD2     N11988   4.028   1.279  12.271  0.0783 -0.1509 -0.2468
  814MPD2    H511989   4.086   1.295  12.353 -0.0180  3.0447 -0.7945
  814MPD2    N111990   3.618   1.071  12.119 -0.1981  0.3397 -0.3638
  814MPD2    H711991   3.642   1.085  12.021  0.9484 -1.0576 -0.2767
  815MPD2     C11992   4.243   4.244  11.826 -0.4537 -0.1300  0.4637
  815MPD2    C111993   4.277   4.146  11.921 -0.1338  0.2780  0.0832
  815MPD2    C211994   4.172   4.096  11.998 -1.1799 -0.5436  0.1450
  815MPD2    C311995   4.046   4.143  11.984 -0.4388  0.1216 -0.3195
  815MPD2    C411996   4.015   4.236  11.894 -0.1721 -0.7775 -0.1091
  815MPD2    C511997   4.116   4.296  11.816 -0.6264 -0.6300 -0.6595
  815MPD2     H11998   4.173   4.016  12.071  0.6410 -1.1817 -0.5726
  815MPD2    H111999   3.920   4.287  11.885  0.6964  0.9015  0.2136
  815MPD2    H212000   4.317   4.293  11.763  1.7629 -1.0232  2.3718
  815MPD2    H312001   4.090   4.375  11.746 -1.0073  1.7642  2.2021
  815MPD2     N12002   3.943   4.095  12.066 -0.1915 -0.4443  0.0587
  815MPD2    H512003   3.961   4.014  12.125  0.2965 -0.7993 -0.5772
  815MPD2    N112004   4.405   4.085  11.917  0.0218 -0.1168 -0.5974
  815MPD2    H712005   4.472   4.137  11.861  1.8192 -0.7260  0.9656
  816MPD2     C12006   3.303   3.102  17.525  0.2850 -0.3093  0.1731
  816MPD2    C112007   3.390   3.206  17.534  0.2648  0.7786  0.3005
  816MPD2    C212008   3.514   3.194  17.468  0.4243 -0.1710 -0.2185
  816MPD2    C312009   3.540   3.091  17.385  0.2715  0.2360 -0.1290
  816MPD2    C412010   3.447   2.984  17.376  0.2705 -0.0351  0.0819
  816MPD2    C512011   3.339   2.984  17.457 -0.3033 -0.3386  1.0886
  816MPD2     H12012   3.587   3.273  17.482 -0.0415 -0.1704  2.1960
  816MPD2    H112013   3.453   2.909  17.298 -0.0377  1.7018 -1.6413
  816MPD2    H212014   3.210   3.097  17.580 -0.0434 -1.6570 -0.5037
  816MPD2    H312015   3.260   2.911  17.452 -0.5945  0.2512 -2.9372
  816MPD2     N12016   3.667   3.093  17.325 -0.2177  0.9444  0.9564
  816MPD2    H512017   3.721   3.177  17.343 -1.2540  1.5070  1.4312
  816MPD2    N112018   3.351   3.314  17.619  0.1352  0.0580 -0.3714
  816MPD2    H712019   3.254   3.329  17.645 -0.1955 -1.9655 -0.4407
  817MPD2     C12020   3.323   0.174  10.076  0.6785  0.1381  0.3228
  817MPD2    C112021   3.454   0.191  10.033  0.6387  0.0211 -0.3903
  817MPD2    C212022   3.474   0.310   9.974 -0.1622  0.1668  0.2491
  817MPD2    C312023   3.389   0.408   9.947  0.4192 -0.0150 -0.3572
  817MPD2    C412024   3.262   0.391   9.999  0.7383  0.8314 -0.8549
  817MPD2    C512025   3.235   0.273  10.054  0.2034 -0.0543  0.2997
  817MPD2     H12026   3.572   0.326   9.931 -0.2006 -0.4808 -0.0914
  817MPD2    H112027   3.187   0.469   9.991 -2.1082 -2.0513 -2.4224
  817MPD2    H212028   3.290   0.084  10.128  0.2324  1.0240  1.5614
  817MPD2    H312029   3.139   0.252  10.101  0.2653 -2.2184 -0.5810
  817MPD2     N12030   3.437   0.523   9.885 -0.3339  0.4264  0.4230
  817MPD2    H512031   3.529   0.523   9.843  0.6905 -2.1424  2.6510
  817MPD2    N112032   3.557   0.097  10.051 -0.1341  0.0913 -0.4058
  817MPD2    H712033   3.641   0.122  10.001 -0.2683 -0.3227 -0.8336
  818MPD2     C12034   2.995   4.313  10.043  0.5113 -0.3459  0.0101
  818MPD2    C112035   2.886   4.253  10.110 -0.6706 -0.0077  0.2269
  818MPD2    C212036   2.819   4.151  10.040  0.0683  0.2673  0.2786
  818MPD2    C312037   2.847   4.130   9.909 -0.4528  0.3627  0.2119
  818MPD2    C412038   2.960   4.182   9.853 -0.2833 -0.1224 -0.1609
  818MPD2    C512039   3.036   4.274   9.914  0.7292  0.9236  0.0236
  818MPD2     H12040   2.734   4.098  10.082  0.1329 -1.1082 -1.3387
  818MPD2    H112041   2.987   4.154   9.752  2.7010 -0.3677  0.7020
  818MPD2    H212042   3.058   4.391  10.085  0.5493  0.0835 -0.8397
  818MPD2    H312043   3.115   4.324   9.860  0.1247  1.3931 -0.4219
  818MPD2     N12044   2.771   4.049   9.821  0.5268 -0.5465  0.5622
  818MPD2    H512045   2.816   4.050   9.730 -2.0221 -1.6386 -0.6934
  818MPD2    N112046   2.844   4.290  10.242 -0.0829 -0.5462 -0.1817
  818MPD2    H712047   2.760   4.245  10.278 -1.5200  0.8656 -1.7837
  819MPD2     C12048   0.637   2.180  15.808  0.3871 -0.4148  0.2179
  819MPD2    C112049   0.593   2.071  15.740  0.4799 -0.3253  0.0536
  819MPD2    C212050   0.662   1.951  15.754 -1.1054 -0.5421  1.1881
  819MPD2    C312051   0.772   1.932  15.837  0.1221  0.0130 -0.1432
  819MPD2    C412052   0.795   2.035  15.927 -0.0294 -0.3486  0.0510
  819MPD2    C512053   0.730   2.161  15.909  0.2222  0.1745 -0.2148
  819MPD2     H12054   0.633   1.865  15.695 -0.9194 -1.8608  3.0109
  819MPD2    H112055   0.858   2.027  16.015 -1.2966  0.2148  1.0180
  819MPD2    H212056   0.595   2.279  15.796 -0.9957 -1.0346 -0.0569
  819MPD2    H312057   0.771   2.242  15.968 -2.4384  1.7996 -0.6060
  819MPD2     N12058   0.820   1.800  15.844 -0.4711  0.6637  0.7465
  819MPD2    H512059   0.789   1.733  15.775  0.1209 -1.0917  2.1892
  819MPD2    N112060   0.497   2.101  15.642  0.4391 -0.7659 -0.0856
  819MPD2    H712061   0.482   2.201  15.634 -1.0358 -1.2095 -2.9173
  820MPD2     C12062   4.477   1.913  14.854 -0.7276  0.5286 -0.3163
  820MPD2    C112063   4.461   1.962  14.981  0.1747 -0.2581  0.4430
  820MPD2    C212064   4.570   1.978  15.061  0.3512 -0.0571 -0.5090
  820MPD2    C312065   4.693   1.940  15.014 -0.3619  0.4107  0.2324
  820MPD2    C412066   4.702   1.878  14.890  0.8939  0.8634  0.0958
  820MPD2    C512067   4.593   1.872  14.805 -0.3722 -0.0480 -0.5640
  820MPD2     H12068   4.558   2.003  15.166  1.1034 -2.1516  0.0757
  820MPD2    H112069   0.073   1.845  14.848 -1.4064 -2.4072 -2.5941
  820MPD2    H212070   4.389   1.899  14.792 -0.5740 -3.3559  0.3052
  820MPD2    H312071   4.594   1.820  14.710  0.5746  2.1412 -1.7417
  820MPD2     N12072   0.086   1.946  15.096 -0.5795  0.2453 -0.0726
  820MPD2    H512073   0.168   1.894  15.066  0.0563  0.3037  1.5777
  820MPD2    N112074   4.331   2.001  15.013  0.0872  0.2842 -0.4776
  820MPD2    H712075   4.264   2.021  14.940 -0.6294  1.1329  0.4031
  821MPD2     C12076   0.832   3.001  12.977 -0.7660  0.2617 -0.2264
  821MPD2    C112077   0.941   2.966  13.060 -0.1510  1.1144  0.2889
  821MPD2    C212078   1.058   3.048  13.054  0.1362  0.4458  0.1411
  821MPD2    C312079   1.072   3.157  12.966 -0.5705 -0.3716 -1.5759
  821MPD2    C412080   0.966   3.176  12.881  0.2257  0.1277  0.2031
  821MPD2    C512081   0.844   3.114  12.888 -0.0506  0.1225 -0.1082
  821MPD2     H12082   1.142   3.015  13.115  0.9466  2.2413 -0.0170
  821MPD2    H112083   0.977   3.251  12.804  0.2525  0.1505  0.2295
  821MPD2    H212084   0.738   2.947  12.974 -1.5179  1.5091  0.8099
  821MPD2    H312085   0.773   3.139  12.811  0.1764  1.8281  0.2468
  821MPD2     N12086   1.181   3.243  12.959  0.0576 -0.1357 -0.8139
  821MPD2    H512087   1.176   3.314  12.887 -1.3622  0.7603  0.1776
  821MPD2    N112088   0.940   2.857  13.144 -0.4517  0.4677  0.1852
  821MPD2    H712089   0.994   2.863  13.230 -2.0693  1.0744  1.1534
  822MPD2     C12090   1.356   3.112  15.818  0.5749  0.1127 -0.1534
  822MPD2    C112091   1.318   3.094  15.947 -0.4538  0.2821 -0.3576
  822MPD2    C212092   1.248   3.187  16.008 -0.3933 -0.5918  0.0699
  822MPD2    C312093   1.230   3.313  15.955  0.2496 -0.1111 -0.2089
  822MPD2    C412094   1.272   3.330  15.821  0.4646 -0.4545 -0.7564
  822MPD2    C512095   1.338   3.232  15.755  0.4843  0.2132  0.0753
  822MPD2     H12096   1.214   3.158  16.107 -1.8294 -2.6320 -1.0372
  822MPD2    H112097   1.263   3.429  15.776 -1.2460 -0.3383 -0.1298
  822MPD2    H212098   1.399   3.034  15.756 -0.2196 -0.4050 -0.0497
  822MPD2    H312099   1.382   3.235  15.656 -0.5981 -0.7713 -0.4334
  822MPD2     N12100   1.172   3.416  16.038  0.2590  0.0908  0.1067
  822MPD2    H512101   1.131   3.387  16.126  0.9038 -0.4435  0.2319
  822MPD2    N112102   1.343   2.969  16.026 -0.1351 -0.4452 -0.3275
  822MPD2    H712103   1.327   2.977  16.126  2.1104  2.2015 -0.2029
  823MPD2     C12104   0.816   3.688  16.748  0.3014 -1.1926  0.2192
  823MPD2    C112105   0.869   3.596  16.667  0.6991  0.3605 -0.1003
  823MPD2    C212106   0.903   3.470  16.714  0.0755  0.2672  0.3857
  823MPD2    C312107   0.884   3.448  16.849 -0.2176 -0.0276 -0.4508
  823MPD2    C412108   0.826   3.542  16.931 -0.0756 -0.1860 -0.1886
  823MPD2    C512109   0.790   3.663  16.882 -0.0167  0.1491  0.8394
  823MPD2     H12110   0.955   3.401  16.648 -1.8080  0.8962 -1.7655
  823MPD2    H112111   0.817   3.517  17.036  0.0261 -2.7838 -0.7943
  823MPD2    H212112   0.805   3.791  16.715  0.2225 -1.2531  0.0602
  823MPD2    H312113   0.741   3.740  16.939 -1.6374  0.0803 -0.4424
  823MPD2     N12114   0.927   3.336  16.916 -0.2104  0.0575  0.1627
  823MPD2    H512115   0.905   3.336  17.015 -2.4898  0.2273 -0.3394
  823MPD2    N112116   0.890   3.637  16.530 -0.0488 -0.1764  0.3344
  823MPD2    H712117   0.860   3.732  16.509 -0.4162 -0.8774 -2.2811
  824MPD2     C12118   1.666   2.116  16.293 -0.6637 -0.7286  0.5177
  824MPD2    C112119   1.671   2.210  16.192 -0.5904  0.7669 -0.8712
  824MPD2    C212120   1.746   2.181  16.076 -0.0613  0.1542 -0.7291
  824MPD2    C312121   1.791   2.049  16.056 -0.3140  0.0460  0.3011
  824MPD2    C412122   1.771   1.950  16.153 -0.4251  0.4835 -0.3194
  824MPD2    C512123   1.713   1.986  16.274 -0.0495  0.4762 -0.0226
  824MPD2     H12124   1.773   2.258  16.005 -1.0635  0.3605 -0.8919
  824MPD2    H112125   1.800   1.846  16.147  1.9879  1.0725  1.3801
  824MPD2    H212126   1.613   2.138  16.385 -0.9675 -0.1460  0.1997
  824MPD2    H312127   1.683   1.908  16.343 -1.4487  0.4827 -0.6247
  824MPD2     N12128   1.866   2.019  15.943 -0.1961 -0.4001 -0.3803
  824MPD2    H512129   1.879   2.097  15.880  2.4601  0.3380  1.1053
  824MPD2    N112130   1.608   2.335  16.213 -0.0981 -0.3384  0.1937
  824MPD2    H712131   1.585   2.351  16.311  0.6327  0.0009  0.3070
  825MPD2     C12132   2.384   2.232  15.297 -0.0431  0.3410  0.3116
  825MPD2    C112133   2.293   2.264  15.395 -0.5584  0.0535  0.0923
  825MPD2    C212134   2.269   2.393  15.425 -0.1289  0.5521  0.6307
  825MPD2    C312135   2.328   2.497  15.360 -0.1793  0.2861  0.2850
  825MPD2    C412136   2.420   2.465  15.258  0.0435  0.8076  0.1887
  825MPD2    C512137   2.447   2.335  15.229 -0.0150  0.8348 -0.4153
  825MPD2     H12138   2.194   2.422  15.497 -0.0307 -1.5784  1.6153
  825MPD2    H112139   2.469   2.536  15.192  0.6022  1.6863  1.5681
  825MPD2    H212140   2.407   2.126  15.290  1.1374  0.5773  0.6007
  825MPD2    H312141   2.522   2.309  15.155  0.3615  0.4992  0.0819
  825MPD2     N12142   2.304   2.625  15.408  0.3587  0.0044  0.7973
  825MPD2    H512143   2.256   2.633  15.497  0.5566  1.9146  0.7382
  825MPD2    N112144   2.235   2.151  15.465  0.4237 -0.2182  0.4216
  825MPD2    H712145   2.253   2.062  15.422  1.0541  0.9197 -1.6528
  826MPD2     C12146   2.410   2.500  13.457  0.5829 -0.4334  0.4493
  826MPD2    C112147   2.310   2.475  13.358 -0.0632 -0.6793  0.6947
  826MPD2    C212148   2.181   2.519  13.387  0.3771 -0.0288  0.4443
  826MPD2    C312149   2.153   2.592  13.502  0.7578 -0.6915 -0.8951
  826MPD2    C412150   2.254   2.601  13.599  0.0412 -0.1428 -0.0753
  826MPD2    C512151   2.380   2.552  13.578 -0.1771 -0.3590  0.4711
  826MPD2     H12152   2.096   2.492  13.326 -0.0600 -0.2684  1.1579
  826MPD2    H112153   2.227   2.651  13.691  2.3998 -0.6661  0.9067
  826MPD2    H212154   2.513   2.479  13.431  0.2559 -1.5602  0.0556
  826MPD2    H312155   2.458   2.568  13.651  0.6244  1.6106 -0.8091
  826MPD2     N12156   2.039   2.661  13.529  0.5165 -0.4042  0.1047
  826MPD2    H512157   2.029   2.700  13.622 -1.6475 -0.5447 -0.0769
  826MPD2    N112158   2.345   2.416  13.236  0.1471 -0.3805  0.5372
  826MPD2    H712159   2.441   2.390  13.220  0.4667  0.1493  1.6142
  827MPD2     C12160   3.281   3.603  10.003 -0.1503  0.0184  0.2907
  827MPD2    C112161   3.211   3.511  10.078 -0.3298  0.0336 -0.4196
  827MPD2    C212162   3.104   3.446  10.023  0.3078 -0.6315  0.5062
  827MPD2    C312163   3.068   3.457   9.891  0.3529 -0.3178 -0.6901
  827MPD2    C412164   3.144   3.549   9.817  0.5136 -0.6264  0.1359
  827MPD2    C512165   3.255   3.613   9.871 -0.2878  0.1994 -0.3084
  827MPD2     H12166   3.030   3.399  10.087  1.1488 -2.9884 -0.2358
  827MPD2    H112167   3.116   3.565   9.714  1.4245 -0.3316 -0.0607
  827MPD2    H212168   3.363   3.660  10.046  0.4970 -1.1753  0.6617
  827MPD2    H312169   3.310   3.692   9.822  0.0804  0.8583  1.1707
  827MPD2     N12170   2.948   3.387   9.843 -0.7086  0.2509 -0.3407
  827MPD2    H512171   2.912   3.311   9.899 -2.2836  0.0611 -1.6138
  827MPD2    N112172   3.242   3.497  10.219  0.2469  0.1829 -0.6076
  827MPD2    H712173   3.324   3.551  10.244 -1.2007  1.9111  0.3935
  828MPD2     C12174   1.440   3.219  12.699  0.0200 -0.5201 -0.2178
  828MPD2    C112175   1.443   3.297  12.576  0.1173 -0.0633  0.1531
  828MPD2    C212176   1.557   3.299  12.502  0.1654 -0.2111 -0.1308
  828MPD2    C312177   1.665   3.220  12.541 -0.5208 -0.4240 -0.1725
  828MPD2    C412178   1.665   3.165  12.671 -1.1688  1.4224  0.2161
  828MPD2    C512179   1.558   3.175  12.753 -0.5369  0.7294 -0.1535
  828MPD2     H12180   1.557   3.336  12.400 -1.2047 -0.1989 -0.1250
  828MPD2    H112181   1.754   3.108  12.697 -1.6741  0.2083 -0.6773
  828MPD2    H212182   1.347   3.214  12.755  0.0686 -0.6096 -0.1456
  828MPD2    H312183   1.565   3.127  12.850 -1.6602 -1.0289 -0.9416
  828MPD2     N12184   1.771   3.184  12.454  0.3629  0.0999  0.8470
  828MPD2    H512185   1.844   3.127  12.495 -0.4476  0.0759  2.2368
  828MPD2    N112186   1.327   3.336  12.510 -0.3485  0.3381  0.0239
  828MPD2    H712187   1.343   3.385  12.423  1.0854  0.7397  0.5168
  829MPD2     C12188   1.529   3.297  11.742 -0.0571 -0.8007 -0.2376
  829MPD2    C112189   1.402   3.304  11.714 -0.2248  0.7981  0.6532
  829MPD2    C212190   1.304   3.291  11.815  0.2110  0.2978  0.2671
  829MPD2    C312191   1.351   3.274  11.941  0.1164 -0.4336 -0.3006
  829MPD2    C412192   1.486   3.280  11.973  0.5126  0.5991 -0.4732
  829MPD2    C512193   1.572   3.290  11.872 -0.0698  0.1467 -0.0061
  829MPD2     H12194   1.197   3.292  11.799  0.2369 -0.2369  0.0743
  829MPD2    H112195   1.519   3.286  12.076  0.4712  1.3482 -0.5000
  829MPD2    H212196   1.601   3.299  11.660 -0.6489 -0.3116 -0.7433
  829MPD2    H312197   1.676   3.296  11.901 -0.3509  1.8027  0.6588
  829MPD2     N12198   1.265   3.259  12.055  0.3259 -0.0715  0.1781
  829MPD2    H512199   1.315   3.246  12.142  1.2142 -1.2037 -0.4961
  829MPD2    N112200   1.370   3.322  11.578  0.1796 -0.0245  0.0347
  829MPD2    H712201   1.442   3.317  11.507 -0.9163  0.4314 -1.1008
  830MPD2     C12202   0.938   1.069  15.535  0.0559 -0.1803  0.2644
  830MPD2    C112203   1.013   1.184  15.532 -0.0911  0.9170  0.0766
  830MPD2    C212204   1.083   1.222  15.423  0.7547  0.2192 -0.1355
  830MPD2    C312205   1.084   1.137  15.314 -0.2670 -0.2048  0.2966
  830MPD2    C412206   0.993   1.029  15.313 -0.1066  0.5451 -0.0659
  830MPD2    C512207   0.927   0.993  15.421 -0.2615  0.0972  0.0228
  830MPD2     H12208   1.143   1.312  15.426 -0.2030  0.8694 -0.2346
  830MPD2    H112209   0.973   0.961  15.231 -2.0767  3.2400 -1.7974
  830MPD2    H212210   0.876   1.049  15.622 -0.2479 -3.1919 -0.6488
  830MPD2    H312211   0.858   0.910  15.429  1.3517 -1.3239 -1.0043
  830MPD2     N12212   1.157   1.169  15.201 -0.2799 -0.1316  0.4482
  830MPD2    H512213   1.131   1.127  15.112 -4.0382  1.1546  0.9452
  830MPD2    N112214   1.018   1.258  15.648  0.1865 -0.4394 -0.6056
  830MPD2    H712215   0.974   1.209  15.726  0.1490  3.0106  1.5561
  831MPD2     C12216   1.451   3.481  16.374 -0.3602 -0.0485 -0.1027
  831MPD2    C112217   1.450   3.362  16.310 -0.0561  0.3015  0.1368
  831MPD2    C212218   1.344   3.283  16.325 -0.0735  0.5448  0.9897
  831MPD2    C312219   1.249   3.300  16.425  0.1350 -0.3774 -0.4198
  831MPD2    C412220   1.251   3.419  16.495 -0.0834  0.2884  0.1402
  831MPD2    C512221   1.353   3.511  16.471 -0.5985 -0.1814 -0.8616
  831MPD2     H12222   1.345   3.191  16.267  1.9319  2.2159 -1.5793
  831MPD2    H112223   1.167   3.437  16.562  0.7508  1.2231  0.9310
  831MPD2    H212224   1.530   3.555  16.362 -0.3789  0.0333  0.2928
  831MPD2    H312225   1.355   3.608  16.520  0.5528 -0.3853 -0.5257
  831MPD2     N12226   1.142   3.208  16.441  0.1706  0.5187 -0.0500
  831MPD2    H512227   1.075   3.237  16.512  1.2581 -1.3488  1.7207
  831MPD2    N112228   1.558   3.331  16.220  0.0765  0.3125  0.0113
  831MPD2    H712229   1.618   3.403  16.179 -2.9709  1.5763 -2.2165
  832MPD2     C12230   4.363   0.057  17.037  0.6642  0.8853  0.5415
  832MPD2    C112231   4.291   0.033  17.154  0.5084 -0.2394 -0.4079
  832MPD2    C212232   4.192   4.663  17.154  0.1529  0.8921 -0.0553
  832MPD2    C312233   4.165   4.594  17.038  0.5335  0.1886 -0.1546
  832MPD2    C412234   4.240   4.616  16.921  0.0370  0.6926 -1.0482
  832MPD2    C512235   4.342   4.709  16.927 -0.3119 -0.2632  0.4235
  832MPD2     H12236   4.124   4.656  17.239  0.2976 -1.0102 -0.1053
  832MPD2    H112237   4.232   4.555  16.831 -0.8350 -2.0475  0.9033
  832MPD2    H212238   4.440   0.132  17.023  0.5675  0.7524 -0.6756
  832MPD2    H312239   4.408   4.720  16.842 -0.7867  0.3358  0.1278
  832MPD2     N12240   4.067   4.488  17.013  0.4278 -0.2881  0.2136
  832MPD2    H512241   4.060   4.452  16.919 -2.6687 -1.4116  0.8969
  832MPD2    N112242   4.330   0.114  17.269  0.2436 -0.0930 -0.7336
  832MPD2    H712243   4.388   0.192  17.239  0.2799 -0.0412 -0.5237
  833MPD2     C12244   1.889   0.877  12.733  0.4197 -0.3644  0.1451
  833MPD2    C112245   1.949   0.953  12.634  0.6671  0.5286  0.1077
  833MPD2    C212246   2.046   0.891  12.556 -0.6629  0.4479 -0.1761
  833MPD2    C312247   2.072   0.760  12.577 -0.3951 -0.0800  0.2133
  833MPD2    C412248   2.013   0.687  12.678  0.2239  0.8433  0.2893
  833MPD2    C512249   1.918   0.743  12.758  0.1863 -0.7938 -0.2471
  833MPD2     H12250   2.101   0.929  12.471 -0.0882 -1.3781 -0.6210
  833MPD2    H112251   2.031   0.581  12.690  0.7595  0.6338 -2.3668
  833MPD2    H212252   1.816   0.919  12.801  0.3152 -2.0668  1.0898
  833MPD2    H312253   1.867   0.677  12.828 -1.0666  1.6933  1.1891
  833MPD2     N12254   2.153   0.701  12.479 -0.5986 -0.2977 -1.1225
  833MPD2    H512255   2.180   0.761  12.401 -0.8898  1.4545  0.1202
  833MPD2    N112256   1.910   1.088  12.628  0.6990  0.0854 -0.5818
  833MPD2    H712257   1.834   1.115  12.691  1.6499 -0.1372  0.6597
  834MPD2     C12258   1.749   0.139  11.740  0.8066  0.2648  0.5476
  834MPD2    C112259   1.869   0.175  11.696 -0.0930  0.4556  0.7193
  834MPD2    C212260   1.948   0.264  11.763 -0.2954  0.3273 -0.0669
  834MPD2    C312261   1.905   0.314  11.884 -0.0836  0.1052 -0.2784
  834MPD2    C412262   1.784   0.270  11.935 -0.3437  0.1216  0.5876
  834MPD2    C512263   1.707   0.186  11.863 -0.1359  0.7317  0.2277
  834MPD2     H12264   2.047   0.278  11.722 -0.3664 -0.6018 -0.5718
  834MPD2    H112265   1.738   0.309  12.025 -0.6520 -0.4513  0.6771
  834MPD2    H212266   1.691   0.070  11.681  1.6836  0.6098 -0.7112
  834MPD2    H312267   1.608   0.161  11.898  0.2107 -0.3240  0.4511
  834MPD2     N12268   1.999   0.387  11.959 -0.2902  0.3155 -0.0935
  834MPD2    H512269   2.080   0.425  11.913  1.6744 -3.8768 -0.0820
  834MPD2    N112270   1.914   0.110  11.577  0.4544  0.1875  0.2186
  834MPD2    H712271   1.843   0.048  11.539 -1.7859  0.8581  3.2889
  835MPD2     C12272   2.028   3.638  10.532  1.0656 -0.0401  0.5301
  835MPD2    C112273   1.991   3.504  10.543  0.1612  0.6853 -0.1282
  835MPD2    C212274   1.977   3.464  10.673  0.7852 -0.1060  0.4744
  835MPD2    C312275   2.000   3.544  10.782 -0.8640 -0.0320  1.5683
  835MPD2    C412276   2.029   3.674  10.766 -0.6499 -0.3733 -0.4057
  835MPD2    C512277   2.035   3.727  10.640  0.0897 -0.3755 -0.1244
  835MPD2     H12278   1.933   3.365  10.686 -1.2453  0.7256  0.0534
  835MPD2    H112279   2.039   3.750  10.843  1.3289 -1.1233  0.0605
  835MPD2    H212280   2.039   3.686  10.436 -0.0060 -1.5381 -0.3324
  835MPD2    H312281   2.055   3.832  10.622  2.6877 -1.4731 -3.8541
  835MPD2     N12282   1.976   3.491  10.909 -1.0812  0.3025  0.2638
  835MPD2    H512283   1.959   3.553  10.988  1.6883  1.4645 -0.0926
  835MPD2    N112284   1.968   3.422  10.432  0.1187 -0.0884  0.1211
  835MPD2    H712285   1.937   3.329  10.460  0.5228  0.7146  3.2541
  836MPD2     C12286   1.446   3.709  11.233  0.2686  0.5291 -0.6453
  836MPD2    C112287   1.517   3.622  11.315  0.6321 -0.0577 -0.1545
  836MPD2    C212288   1.501   3.627  11.457 -0.1304  0.2150 -0.3484
  836MPD2    C312289   1.396   3.697  11.513  0.3853 -1.0275  0.4690
  836MPD2    C412290   1.315   3.778  11.431 -0.1261 -1.1407  0.2469
  836MPD2    C512291   1.344   3.772  11.298 -0.2128  0.5317 -0.3089
  836MPD2     H12292   1.570   3.574  11.521 -0.6818  0.5906  0.5570
  836MPD2    H112293   1.237   3.838  11.475 -0.3657 -1.3766  0.1444
  836MPD2    H212294   1.457   3.713  11.125  2.0704 -3.1324 -0.6051
  836MPD2    H312295   1.284   3.837  11.236 -0.1525 -0.5847 -1.5350
  836MPD2     N12296   1.368   3.701  11.651  0.0154  0.5811  0.3155
  836MPD2    H512297   1.283   3.748  11.683 -0.2244 -1.0419  2.0641
  836MPD2    N112298   1.615   3.534  11.256  0.2222  0.1184  0.1896
  836MPD2    H712299   1.635   3.548  11.157  0.1786 -0.7108  0.0643
  837MPD2     C12300   0.125   3.480  10.268 -0.3836  0.5936  0.2449
  837MPD2    C112301   0.129   3.531  10.137 -0.4909  0.4038  0.4718
  837MPD2    C212302   0.128   3.669  10.121  0.1742 -1.0919  0.4083
  837MPD2    C312303   0.119   3.750  10.239 -0.0962  0.3745 -0.1661
  837MPD2    C412304   0.117   3.689  10.365 -0.5706  0.3065  0.4802
  837MPD2    C512305   0.124   3.556  10.374  0.5215 -0.2458  0.1757
  837MPD2     H12306   0.116   3.715  10.023 -1.5413  2.8725  2.5079
  837MPD2    H112307   0.138   3.746  10.454 -0.9546 -0.2271  0.9100
  837MPD2    H212308   0.124   3.373  10.286 -3.0142  0.8068  1.4192
  837MPD2    H312309   0.156   3.515  10.470 -0.0722 -0.2490  0.3766
  837MPD2     N12310   0.125   3.894  10.226  0.2122 -0.6394 -0.6362
  837MPD2    H512311   0.161   3.930  10.139 -0.8627 -1.9795 -1.6350
  837MPD2    N112312   0.115   3.457  10.013 -0.3326 -0.1645 -0.2042
  837MPD2    H712313   0.131   3.508   9.927  1.7730 -1.5207 -0.5991
  838MPD2     C12314   3.025   1.007  11.352  0.5123  0.0757  0.1376
  838MPD2    C112315   2.991   1.120  11.431  0.1308 -0.1411  0.0920
  838MPD2    C212316   2.889   1.099  11.526  0.1319  0.3222 -0.2891
  838MPD2    C312317   2.828   0.982  11.557 -0.1958 -0.4801  0.4983
  838MPD2    C412318   2.869   0.874  11.475 -0.3147  0.0325 -0.4772
  838MPD2    C512319   2.961   0.894  11.374  0.1681 -0.9844  1.2961
  838MPD2     H12320   2.862   1.182  11.590  0.9531 -0.4270  1.0391
  838MPD2    H112321   2.815   0.780  11.478 -1.4289  0.7003  0.8530
  838MPD2    H212322   3.104   1.005  11.278  0.9229 -0.6974  0.6044
  838MPD2    H312323   2.979   0.803  11.318  1.4872 -0.3005  0.6032
  838MPD2     N12324   2.732   0.990  11.664 -0.7637 -0.0621  0.4267
  838MPD2    H512325   2.725   1.080  11.710 -4.1700 -0.8266  1.4508
  838MPD2    N112326   3.052   1.242  11.432  0.1640  0.1214 -0.0731
  838MPD2    H712327   3.007   1.310  11.492  1.0084  0.4077  0.2346
  839MPD2     C12328   3.064   1.056  12.040 -0.1545  0.3801  0.0300
  839MPD2    C112329   3.054   1.021  11.908 -0.8512  0.2015  0.3875
  839MPD2    C212330   3.100   1.110  11.810 -0.1289  0.7969 -0.5841
  839MPD2    C312331   3.162   1.219  11.851  0.0690 -0.2112 -0.8441
  839MPD2    C412332   3.195   1.247  11.985 -0.2621  0.1211 -0.0002
  839MPD2    C512333   3.143   1.164  12.078  0.5967  0.4417 -0.0838
  839MPD2     H12334   3.090   1.086  11.705 -0.7730 -1.8186  0.0739
  839MPD2    H112335   3.259   1.330  12.013 -0.3667 -0.1010  0.8994
  839MPD2    H212336   3.006   1.005  12.116  0.3515  0.8836  0.7513
  839MPD2    H312337   3.147   1.194  12.182 -2.7335  2.9652 -0.6900
  839MPD2     N12338   3.200   1.309  11.748 -0.6090 -0.6455  0.2633
  839MPD2    H512339   3.183   1.279  11.653  4.2736 -0.2707 -0.7033
  839MPD2    N112340   2.994   0.898  11.867  0.3921 -0.2496  0.3615
  839MPD2    H712341   2.988   0.884  11.767  1.9366  0.7106  0.1460
  840MPD2     C12342   3.738   3.775  10.424  0.7032 -0.8456  0.2096
  840MPD2    C112343   3.680   3.741  10.546 -0.0406 -0.5455  0.9238
  840MPD2    C212344   3.737   3.792  10.664 -0.1781  0.2079  0.6283
  840MPD2    C312345   3.846   3.879  10.658  0.1535 -0.6810 -0.4673
  840MPD2    C412346   3.901   3.910  10.536 -0.4385  0.5348 -0.0203
  840MPD2    C512347   3.845   3.863  10.421 -0.4776  0.1712  0.0384
  840MPD2     H12348   3.690   3.763  10.758  0.0867  0.2874  0.7839
  840MPD2    H112349   3.989   3.973  10.527  1.3839 -1.8404  0.9022
  840MPD2    H212350   3.694   3.740  10.331  1.7936 -0.5075 -0.4250
  840MPD2    H312351   3.883   3.900  10.326 -1.2062  1.4194  0.2344
  840MPD2     N12352   3.918   3.924  10.763  0.4118  0.2204 -0.4517
  840MPD2    H512353   3.992   3.990  10.741 -1.6839  2.6582 -0.1020
  840MPD2    N112354   3.567   3.656  10.533  0.0030  0.0987  0.0501
  840MPD2    H712355   3.527   3.650  10.440 -1.9899  3.4466  0.6847
  841MPD2     C12356   2.794   3.113  15.048 -0.3904  0.2955 -0.1928
  841MPD2    C112357   2.765   3.153  14.923 -1.0093  0.2726  0.7726
  841MPD2    C212358   2.769   3.290  14.899 -0.3125  0.6211 -0.8298
  841MPD2    C312359   2.806   3.384  14.993 -0.9458  0.3833 -0.4200
  841MPD2    C412360   2.848   3.337  15.115 -0.2571 -0.0427  0.3431
  841MPD2    C512361   2.839   3.208  15.142 -0.1558 -0.6643  0.6147
  841MPD2     H12362   2.741   3.317  14.798 -0.2575 -0.6883 -1.2045
  841MPD2    H112363   2.866   3.408  15.195  0.6250  1.1985 -0.9644
  841MPD2    H212364   2.782   3.013  15.087  1.8476 -0.4316 -1.3673
  841MPD2    H312365   2.866   3.172  15.241  0.2115  0.0347  0.7769
  841MPD2     N12366   2.786   3.512  14.958 -0.6480  0.6287  0.0821
  841MPD2    H512367   2.753   3.531  14.864 -1.4841  0.3803  0.3273
  841MPD2    N112368   2.718   3.070  14.816  0.3535 -1.0246  0.0938
  841MPD2    H712369   2.676   3.115  14.735 -0.0070 -0.6260  0.5002
  842MPD2     C12370   3.647   4.564  16.670 -0.2587  0.7169  0.0590
  842MPD2    C112371   3.556   4.489  16.746 -0.6901  0.1090 -0.8156
  842MPD2    C212372   3.545   4.511  16.885  0.4074  0.1107  0.5261
  842MPD2    C312373   3.643   4.595  16.940  0.2201 -0.2083 -0.4299
  842MPD2    C412374   3.737   4.662  16.864  0.8666  0.2932  0.4267
  842MPD2    C512375   3.732   4.652  16.730 -0.1458 -0.4228 -0.4275
  842MPD2     H12376   3.481   4.456  16.952 -0.4737  1.6294  0.9430
  842MPD2    H112377   3.820   4.722  16.900 -0.1983  1.0357  1.6115
  842MPD2    H212378   3.656   4.549  16.563 -3.2898  0.3075 -0.1561
  842MPD2    H312379   3.798   4.710  16.667 -0.8833 -1.4195 -2.1089
  842MPD2     N12380   3.636   4.631  17.081 -0.5297  0.1328 -0.6042
  842MPD2    H512381   3.704   4.700  17.111 -0.0101 -0.0037 -1.4764
  842MPD2    N112382   3.490   4.385  16.679  0.2913 -0.1556  0.2899
  842MPD2    H712383   3.498   4.380  16.578 -0.6783 -0.7147  0.2349
  843MPD2     C12384   0.385   0.597  17.486 -0.2502  0.1731  0.0369
  843MPD2    C112385   0.414   0.551  17.613  0.1092  0.4613  0.0383
  843MPD2    C212386   0.531   0.601  17.677 -0.3259 -0.1212  0.7069
  843MPD2    C312387   0.604   0.697  17.619  0.4032 -0.3994  0.6966
  843MPD2    C412388   0.563   0.752  17.496  0.3449  0.0491  0.1447
  843MPD2    C512389   0.456   0.695  17.427 -0.6794  0.2453 -0.4162
  843MPD2     H12390   0.562   0.557   0.074 -0.9312  2.4070  2.0848
  843MPD2    H112391   0.620   0.837  17.461  2.2344 -1.0157  0.6838
  843MPD2    H212392   0.300   0.555  17.432  0.9100 -3.9342  1.3960
  843MPD2    H312393   0.420   0.737  17.334  0.8253 -0.8338 -1.4961
  843MPD2     N12394   0.722   0.746  17.678  0.5265  0.3591  0.2994
  843MPD2    H512395   0.773   0.816  17.625 -2.8981  0.8997 -2.3049
  843MPD2    N112396   0.332   0.453  17.666 -0.2525 -0.0157 -0.5927
  843MPD2    H712397   0.266   0.408  17.604  0.1707 -2.3993  0.6922
  844MPD2     C12398   4.135   4.090  16.925 -0.3066  0.5140  0.2879
  844MPD2    C112399   4.200   4.112  16.803  0.2180 -0.5460 -0.0560
  844MPD2    C212400   4.308   4.193  16.799  0.5655  0.1033 -0.1777
  844MPD2    C312401   4.356   4.254  16.913 -0.0872  0.3819  0.6272
  844MPD2    C412402   4.285   4.247  17.034  0.4422  0.2630  0.6498
  844MPD2    C512403   4.168   4.164  17.031  0.3722 -0.6734  0.1142
  844MPD2     H12404   4.358   4.213  16.705  1.2801 -1.2108 -0.0750
  844MPD2    H112405   4.301   4.302  17.126 -0.8910  0.0860  0.9931
  844MPD2    H212406   4.052   4.023  16.941  1.6435 -1.9793 -0.2000
  844MPD2    H312407   4.096   4.161  17.112 -0.4520 -2.1286 -0.6585
  844MPD2     N12408   4.471   4.332  16.898  0.5801  1.2134 -0.8757
  844MPD2    H512409   4.516   4.317  16.808 -0.7952  0.7144 -1.4708
  844MPD2    N112410   4.153   4.055  16.679  0.0583 -0.1725 -0.3297
  844MPD2    H712411   4.207   4.069  16.595  1.0859  1.5095  0.6021
  845MPD2     C12412   4.724   0.465  16.884  0.2707 -0.7348  0.3043
  845MPD2    C112413   4.637   0.417  16.978 -0.6565 -0.3092 -0.1500
  845MPD2    C212414   4.667   0.298  17.039 -0.3591 -0.0020 -0.3460
  845MPD2    C312415   0.054   0.228  17.001  0.4154  0.3019 -0.3393
  845MPD2    C412416   0.142   0.285  16.910  0.1944 -0.0445 -0.4413
  845MPD2    C512417   0.114   0.405  16.853 -1.0082  0.7318  0.5568
  845MPD2     H12418   4.594   0.239  17.093 -0.5587  1.7801  1.3324
  845MPD2    H112419   0.237   0.246  16.875  1.4884  3.8903 -1.2891
  845MPD2    H212420   4.701   0.561  16.839  0.9872 -0.1718  1.1407
  845MPD2    H312421   0.187   0.441  16.782 -0.1900  0.7892  1.4228
  845MPD2     N12422   0.065   0.093  17.041  0.4923 -0.2869 -0.4482
  845MPD2    H512423   0.008   0.062  17.119  0.5868 -0.8371 -0.5946
  845MPD2    N112424   4.516   0.489  16.992  0.1270  0.0564 -0.7874
  845MPD2    H712425   4.494   0.574  16.941 -0.6195  1.3241  1.6801
  846MPD2     C12426   1.350   0.625  13.469 -0.2050  0.0698  0.2311
  846MPD2    C112427   1.240   0.708  13.480 -0.3921 -0.0766  0.8137
  846MPD2    C212428   1.191   0.728  13.606  0.1412 -0.7182  0.0087
  846MPD2    C312429   1.235   0.655  13.713 -0.2742  0.4669  0.2309
  846MPD2    C412430   1.341   0.564  13.696  0.0406 -0.1917  0.0770
  846MPD2    C512431   1.382   0.548  13.571  0.2025 -0.1168 -0.2687
  846MPD2     H12432   1.105   0.791  13.625  0.7808  0.2056 -0.1479
  846MPD2    H112433   1.386   0.503  13.773  0.3303 -1.1067 -0.8280
  846MPD2    H212434   1.398   0.603  13.375 -0.1821  3.1660 -0.4914
  846MPD2    H312435   1.458   0.473  13.552  1.3545  1.0335 -0.1862
  846MPD2     N12436   1.163   0.660  13.834  0.4506  0.1899  0.0070
  846MPD2    H512437   1.081   0.719  13.841  1.4532  1.2696  2.8107
  846MPD2    N112438   1.167   0.766  13.372 -0.1517 -0.0056 -0.1794
  846MPD2    H712439   1.122   0.854  13.396  0.5163 -0.2218  1.9013
  847MPD2     C12440   1.404   1.677  13.828  0.3833 -0.2457 -0.0598
  847MPD2    C112441   1.515   1.660  13.899 -0.0492 -0.0674 -0.3370
  847MPD2    C212442   1.524   1.542  13.971  0.5915  0.1078 -0.1883
  847MPD2    C312443   1.427   1.449  13.971 -0.3206  0.4221 -0.3674
  847MPD2    C412444   1.308   1.473  13.903 -0.4016 -0.1533  0.6106
  847MPD2    C512445   1.303   1.587  13.835  0.3236  0.2897  0.5531
  847MPD2     H12446   1.615   1.526  14.028  1.6289  1.4440 -1.4744
  847MPD2    H112447   1.222   1.407  13.891 -0.3449 -0.0381 -0.4362
  847MPD2    H212448   1.383   1.766  13.770  2.7338 -0.8083 -1.7514
  847MPD2    H312449   1.209   1.610  13.785  0.6673 -0.3147 -0.3764
  847MPD2     N12450   1.456   1.334  14.048  0.4154  0.2587 -0.0064
  847MPD2    H512451   1.548   1.324  14.088  0.8346  0.2907 -0.9613
  847MPD2    N112452   1.609   1.763  13.924  0.5024  0.4257  0.3966
  847MPD2    H712453   1.677   1.733  13.993 -0.9863 -0.4135  1.5130
  848MPD2     C12454   3.799   4.164  16.434 -0.1302  0.0662  0.1059
  848MPD2    C112455   3.814   4.282  16.502  0.0601  0.5242  0.0052
  848MPD2    C212456   3.867   4.400  16.443  0.8987 -0.4418  0.5284
  848MPD2    C312457   3.887   4.403  16.312  0.1700 -0.0826  0.4717
  848MPD2    C412458   3.860   4.287  16.240  0.1945 -0.0851  0.5650
  848MPD2    C512459   3.815   4.172  16.298  0.1107 -0.0837 -0.1829
  848MPD2     H12460   3.894   4.480  16.512 -1.2160  0.2972  0.4768
  848MPD2    H112461   3.876   4.292  16.133 -1.0237 -0.0966  0.3840
  848MPD2    H212462   3.772   4.072  16.483  3.3706 -1.8399 -1.5668
  848MPD2    H312463   3.792   4.083  16.240  1.9310 -1.0271  0.5724
  848MPD2     N12464   3.937   4.510  16.225 -0.7230  0.1745 -0.6505
  848MPD2    H512465   3.941   4.488  16.126  1.6614  0.8046 -0.6855
  848MPD2    N112466   3.815   4.294  16.648  0.4650 -0.1972 -0.1317
  848MPD2    H712467   3.861   4.375  16.689  0.5324  0.2305 -1.0394
  849MPD2     C12468   3.323   4.689  13.501 -0.1470  0.1644  0.2819
  849MPD2    C112469   3.440   4.642  13.552 -0.6302  0.4319 -0.0310
  849MPD2    C212470   3.439   4.563  13.662 -0.3639  0.9252  0.0476
  849MPD2    C312471   3.317   4.532  13.729  0.0539  0.0711 -0.5230
  849MPD2    C412472   3.196   4.576  13.675  0.9639  0.4750  0.2793
  849MPD2    C512473   3.205   4.651  13.558 -0.5209 -0.1687 -0.0885
  849MPD2     H12474   3.529   4.530  13.713 -0.7256  1.6804  1.1918
  849MPD2    H112475   3.104   4.564  13.731  1.0836 -0.5711  0.2514
  849MPD2    H212476   3.330   0.029  13.414 -0.0216 -0.9447 -0.5133
  849MPD2    H312477   3.110   4.681  13.516 -1.5876 -1.0971  1.6250
  849MPD2     N12478   3.325   4.461  13.848 -0.1951 -0.0200  0.1698
  849MPD2    H512479   3.419   4.436  13.875  0.5806 -0.4712 -2.8932
  849MPD2    N112480   3.574   4.667  13.498  0.2874  0.0844  0.2839
  849MPD2    H712481   3.649   4.653  13.565  0.8826 -1.1316 -0.6338
  850MPD2     C12482   1.556   2.160  14.566 -0.3503 -0.1750  0.6582
  850MPD2    C112483   1.506   2.256  14.654  0.1603 -0.1007  0.0720
  850MPD2    C212484   1.596   2.304  14.746  0.4044 -0.0887 -1.1849
  850MPD2    C312485   1.729   2.257  14.744  1.0717 -0.1162  0.1846
  850MPD2    C412486   1.773   2.167  14.654  0.3165  0.0327 -0.0013
  850MPD2    C512487   1.689   2.124  14.558  0.3697 -0.2388 -0.5840
  850MPD2     H12488   1.571   2.379  14.820 -1.5337 -0.7135 -1.2057
  850MPD2    H112489   1.869   2.117  14.655  0.7310  0.8350  0.6723
  850MPD2    H212490   1.487   2.114  14.496 -0.1609 -0.9928  1.0091
  850MPD2    H312491   1.715   2.039  14.497  0.9885  0.4133 -1.2140
  850MPD2     N12492   1.835   2.307  14.824  0.0266 -0.2895  0.0989
  850MPD2    H512493   1.931   2.290  14.794 -0.2092 -1.3191 -0.0507
  850MPD2    N112494   1.367   2.296  14.639  0.4351 -0.5342  0.0080
  850MPD2    H712495   1.327   2.250  14.558 -1.1677  0.9809 -0.0567
  851MPD2     C12496   1.789   1.940  15.025  0.3084 -0.0402 -0.6327
  851MPD2    C112497   1.651   1.953  15.024  0.4290 -0.0051  0.0005
  851MPD2    C212498   1.590   1.837  15.007  0.3221 -0.2600 -0.0006
  851MPD2    C312499   1.647   1.718  14.989 -0.1781 -0.1219  0.3543
  851MPD2    C412500   1.783   1.706  14.981 -0.1898 -0.0055 -1.0622
  851MPD2    C512501   1.855   1.818  15.014  0.2014 -0.1294  0.2632
  851MPD2     H12502   1.483   1.848  15.002  0.2322 -1.0644  0.2937
  851MPD2    H112503   1.851   1.622  14.971  0.7223  0.2231  3.0956
  851MPD2    H212504   1.854   2.026  15.020  1.3829 -0.8154  0.1398
  851MPD2    H312505   1.963   1.815  15.019  0.3900  0.0106 -3.5214
  851MPD2     N12506   1.559   1.612  14.979  0.2506  0.0415  0.1733
  851MPD2    H512507   1.460   1.631  14.993  0.1692 -1.2475  1.3041
  851MPD2    N112508   1.589   2.077  15.045 -0.3142 -0.3856  0.2845
  851MPD2    H712509   1.646   2.161  15.052  0.8322 -1.0964 -0.7589
  852MPD2     C12510   0.879   4.443   9.874  0.4988 -0.0226 -0.7072
  852MPD2    C112511   0.913   4.473  10.004  0.4656 -0.6489  1.3812
  852MPD2    C212512   0.928   4.605  10.037  0.3634  1.3470  0.1417
  852MPD2    C312513   0.932   4.702   9.936 -0.0866  0.6081 -0.2316
  852MPD2    C412514   0.898   4.670   9.803  0.0116  0.2371  0.0707
  852MPD2    C512515   0.865   4.533   9.775 -0.0154  0.2532 -0.5840
  852MPD2     H12516   0.957   4.633  10.138 -0.0582  1.8477  0.1206
  852MPD2    H112517   0.904   0.017   9.721 -0.7886  1.7972  1.3565
  852MPD2    H212518   0.867   4.341   9.839  1.9646 -1.4577  3.0619
  852MPD2    H312519   0.825   4.504   9.679 -2.2613 -0.9411  0.7253
  852MPD2     N12520   0.965   0.115   9.974 -0.1836  0.0601 -1.1139
  852MPD2    H512521   1.002   0.124  10.068  2.3976 -2.5307 -1.8925
  852MPD2    N112522   0.946   4.374  10.103  0.3727  0.2659 -0.0930
  852MPD2    H712523   0.986   4.409  10.189  1.8453 -0.2801 -0.5553
  853MPD2     C12524   2.418   0.231  12.553  0.2655  0.1460 -0.9309
  853MPD2    C112525   2.520   0.148  12.579 -0.0758 -0.0682 -0.2261
  853MPD2    C212526   2.529   0.035  12.501  0.0104  0.7291  0.5783
  853MPD2    C312527   2.441   0.007  12.396 -0.4901  0.6930 -0.0633
  853MPD2    C412528   2.346   0.101  12.372 -0.2777  0.0159  0.3723
  853MPD2    C512529   2.328   0.205  12.459  0.2363 -0.2730 -0.4097
  853MPD2     H12530   2.607   4.688  12.529 -0.6005  0.0320  0.5271
  853MPD2    H112531   2.276   0.085  12.291 -1.5840  1.1676  1.2755
  853MPD2    H212532   2.402   0.326  12.603  0.3984 -0.6145  0.5517
  853MPD2    H312533   2.250   0.278  12.436  0.5992  0.0610 -0.5958
  853MPD2     N12534   2.444   4.617  12.317 -0.3168 -0.6245 -0.0716
  853MPD2    H512535   2.391   4.621  12.230 -1.0675 -0.0859  0.4195
  853MPD2    N112536   2.602   0.176  12.690 -0.2129  0.1342 -0.8476
  853MPD2    H712537   2.574   0.258  12.744  1.4497  0.1465 -0.0044
  854MPD2     C12538   0.072   0.148  12.661 -0.0109  0.1932  0.1456
  854MPD2    C112539   0.041   0.056  12.564  0.4356 -0.0191  0.0647
  854MPD2    C212540   0.068   4.647  12.590 -0.0516  0.0259  0.0886
  854MPD2    C312541   0.125   4.605  12.710 -0.5669 -0.5523 -0.4394
  854MPD2    C412542   0.150   4.697  12.810  0.8582 -0.3249 -0.6150
  854MPD2    C512543   0.133   0.109  12.780 -0.2352  0.2190  0.6623
  854MPD2     H12544   0.065   4.578  12.507  0.2705 -0.1742  0.2420
  854MPD2    H112545   0.203   4.673  12.901  2.8085  2.3321 -1.0426
  854MPD2    H212546   0.047   0.253  12.647  2.8745  0.8081 -0.4243
  854MPD2    H312547   0.179   0.177  12.851  0.2250  0.9158 -0.3008
  854MPD2     N12548   0.187   4.477  12.734  0.4473  0.1582  0.8142
  854MPD2    H512549   0.254   4.470  12.809  0.8457 -1.8462  0.2776
  854MPD2    N112550   4.708   0.105  12.443  0.1138  0.1574 -0.4946
  854MPD2    H712551   4.704   0.207  12.439 -0.0737  0.0955 -2.0443
  855MPD2     C12552   0.762   4.470  13.371  0.6314 -0.4824 -0.6948
  855MPD2    C112553   0.637   4.428  13.382 -0.1650  0.5744  0.1911
  855MPD2    C212554   0.574   4.361  13.271  0.0418  0.3274  0.0369
  855MPD2    C312555   0.640   4.347  13.151  0.9500 -0.8031 -0.0882
  855MPD2    C412556   0.771   4.398  13.136 -0.6671  0.2898  0.7107
  855MPD2    C512557   0.831   4.456  13.253  0.6345 -0.2383 -0.5747
  855MPD2     H12558   0.477   4.319  13.294  1.0530 -1.6811  0.6395
  855MPD2    H112559   0.822   4.388  13.040 -1.5349  2.7629  0.0071
  855MPD2    H212560   0.819   4.497  13.459 -0.5074  2.0136 -0.7107
  855MPD2    H312561   0.933   4.492  13.254 -0.0300  1.6266  0.9007
  855MPD2     N12562   0.576   4.291  13.037 -1.3630 -0.1153  0.7572
  855MPD2    H512563   0.628   4.264  12.954 -2.4659 -0.0409  0.0314
  855MPD2    N112564   0.563   4.426  13.506  0.3463  0.3277 -1.3230
  855MPD2    H712565   0.483   4.364  13.512  1.0756 -0.7220 -2.5874
  856MPD2     C12566   1.605   0.959  13.891 -0.4742 -0.3320 -0.4025
  856MPD2    C112567   1.718   1.039  13.914 -0.0011  0.1848  0.2870
  856MPD2    C212568   1.724   1.167  13.861 -0.3638  0.3356 -0.0293
  856MPD2    C312569   1.623   1.219  13.775  0.6151  0.3495 -0.3110
  856MPD2    C412570   1.517   1.139  13.753 -0.6044 -0.6964  0.3424
  856MPD2    C512571   1.513   1.010  13.804 -0.5137 -0.0806  0.7695
  856MPD2     H12572   1.819   1.220  13.871  1.8623 -3.5863 -0.1935
  856MPD2    H112573   1.426   1.172  13.704  0.4606 -0.4792 -1.5119
  856MPD2    H212574   1.605   0.858  13.932  1.2917 -1.3010 -2.7679
  856MPD2    H312575   1.429   0.944  13.785  0.7505 -1.5719  0.2717
  856MPD2     N12576   1.630   1.341  13.696  0.0158 -0.7134 -0.0533
  856MPD2    H512577   1.556   1.353  13.627  2.5022  1.8032 -2.3023
  856MPD2    N112578   1.827   1.005  13.993  0.4206 -0.0673  0.3879
  856MPD2    H712579   1.887   1.084  14.012 -0.0891  0.9959 -2.2830
  857MPD2     C12580   4.261   2.960  12.506 -0.4083 -0.2858 -0.3812
  857MPD2    C112581   4.175   2.955  12.616  0.3248 -0.1709 -0.3099
  857MPD2    C212582   4.124   3.078  12.660  0.1446 -0.2546  0.3946
  857MPD2    C312583   4.139   3.195  12.586 -0.2550  0.4147 -0.6028
  857MPD2    C412584   4.220   3.193  12.475 -0.4941  0.9326 -0.7652
  857MPD2    C512585   4.283   3.076  12.446 -0.1507  0.2640 -0.1870
  857MPD2     H12586   4.061   3.080  12.748 -0.3130 -2.2244  0.1212
  857MPD2    H112587   4.248   3.285  12.426 -2.6215  2.2243  0.4090
  857MPD2    H212588   4.308   2.869  12.470  0.6312  0.2964 -0.4728
  857MPD2    H312589   4.348   3.069  12.360 -0.8592  0.8201 -0.7709
  857MPD2     N12590   4.095   3.317  12.641  0.1535  0.0413  0.0929
  857MPD2    H512591   4.051   3.320  12.732 -3.5381  0.4544 -1.7113
  857MPD2    N112592   4.172   2.838  12.693  0.3128  0.1712 -1.1373
  857MPD2    H712593   4.225   2.763  12.649  0.5845 -0.2138 -0.1597
  858MPD2     C12594   4.115   2.017  16.655 -0.8522  0.4051 -0.4973
  858MPD2    C112595   4.242   2.069  16.658 -0.3109 -0.1969  0.0990
  858MPD2    C212596   4.278   2.155  16.761  0.6643 -0.1925 -0.5664
  858MPD2    C312597   4.179   2.208  16.842 -0.3897  0.0712 -0.7925
  858MPD2    C412598   4.046   2.173  16.810 -0.8067  0.2088  0.2255
  858MPD2    C512599   4.015   2.063  16.737  0.0248 -0.3779  0.8510
  858MPD2     H12600   4.384   2.174  16.768  0.7320 -0.0212 -2.1817
  858MPD2    H112601   3.959   2.202  16.868 -0.1649 -2.3356  2.4239
  858MPD2    H212602   4.081   1.944  16.582 -0.6497 -0.3588  0.1707
  858MPD2    H312603   3.912   2.030  16.725  0.2213 -0.7443  0.1528
  858MPD2     N12604   4.202   2.296  16.950  0.1899  0.0019  0.0919
  858MPD2    H512605   4.114   2.311  16.999  0.3357  0.2144  0.2861
  858MPD2    N112606   4.332   2.028  16.559 -0.3962  0.5000  0.0196
  858MPD2    H712607   4.319   1.932  16.528 -1.9163  0.9856 -0.8341
  859MPD2     C12608   2.946   4.200  15.477 -0.3687  0.2774  0.0825
  859MPD2    C112609   3.055   4.236  15.401  0.3095  0.2691  0.2505
  859MPD2    C212610   3.135   4.142  15.345 -1.2095  0.0986  0.7691
  859MPD2    C312611   3.115   4.000  15.361 -0.3678  0.3435 -0.5123
  859MPD2    C412612   3.001   3.970  15.429 -0.0566  0.0129  0.5655
  859MPD2    C512613   2.916   4.064  15.488  0.4775 -0.8535 -0.2035
  859MPD2     H12614   3.213   4.161  15.273 -0.0443 -1.9008  1.4909
  859MPD2    H112615   2.969   3.867  15.442  1.1254 -0.2834  1.2170
  859MPD2    H212616   2.883   4.271  15.529  0.7754  1.9314 -0.7844
  859MPD2    H312617   2.828   4.027  15.539  2.0154 -0.3632  2.8228
  859MPD2     N12618   3.183   3.896  15.291  0.1525  0.1389  0.2295
  859MPD2    H512619   3.148   3.801  15.300 -1.7454  0.6441 -1.6272
  859MPD2    N112620   3.083   4.377  15.387 -0.1612  0.4364  0.3318
  859MPD2    H712621   3.012   4.439  15.425 -0.4294  1.2994 -1.6053
  860MPD2     C12622   1.258   4.365  11.610  0.1312  0.2537 -0.1882
  860MPD2    C112623   1.216   4.292  11.717  0.5107 -0.3186 -0.1167
  860MPD2    C212624   1.094   4.227  11.712 -0.0763  0.8085 -0.2666
  860MPD2    C312625   1.011   4.245  11.609  0.1613 -0.1717 -0.6464
  860MPD2    C412626   1.053   4.323  11.504  0.1851  0.7379 -0.4949
  860MPD2    C512627   1.171   4.392  11.512 -0.7304 -0.1615 -0.4786
  860MPD2     H12628   1.068   4.175  11.804 -1.6579 -0.3566 -1.3609
  860MPD2    H112629   0.996   4.348  11.414 -0.8715  1.8620  0.4796
  860MPD2    H212630   1.354   4.415  11.608  0.0545  0.3390 -1.5523
  860MPD2    H312631   1.189   4.457  11.428 -1.3866 -1.2668 -1.4773
  860MPD2     N12632   0.881   4.208  11.630 -0.6345 -0.8627 -0.6564
  860MPD2    H512633   0.860   4.157  11.716 -0.9754  0.3998  0.0158
  860MPD2    N112634   1.301   4.282  11.829  0.4696  0.2795 -0.0234
  860MPD2    H712635   1.272   4.228  11.909  0.0082 -0.5989 -0.7851
  861MPD2     C12636   4.130   2.890  11.157 -0.8677  0.4131 -0.0957
  861MPD2    C112637   4.207   2.979  11.229  0.5995  0.4755 -0.7495
  861MPD2    C212638   4.207   3.113  11.198  0.2272  0.2886  0.0601
  861MPD2    C312639   4.137   3.161  11.090  0.1219  0.3776  0.1343
  861MPD2    C412640   4.064   3.073  11.019 -0.5138 -0.1585 -0.0601
  861MPD2    C512641   4.056   2.939  11.053  0.0151  0.5580 -0.5161
  861MPD2     H12642   4.274   3.180  11.251 -0.4841  0.3714  0.8418
  861MPD2    H112643   4.015   3.108  10.929  0.5048 -2.0150 -1.3348
  861MPD2    H212644   4.122   2.789  11.198  0.0077 -0.2056 -1.4615
  861MPD2    H312645   3.990   2.876  10.994  0.4842 -0.6016  0.1792
  861MPD2     N12646   4.131   3.295  11.055  0.0952 -0.1787 -0.1219
  861MPD2    H512647   4.072   3.314  10.975 -0.4352 -1.0617  0.0558
  861MPD2    N112648   4.274   2.941  11.344  0.1489 -0.0465 -0.2855
  861MPD2    H712649   4.308   3.020  11.399  0.4421  0.2977 -0.9701
  862MPD2     C12650   4.123   3.667  10.426  0.1356  0.1860  1.2033
  862MPD2    C112651   4.123   3.561  10.508 -0.4154 -0.1679 -0.5691
  862MPD2    C212652   4.092   3.438  10.457  0.9465  0.4293 -0.7451
  862MPD2    C312653   4.063   3.417  10.326 -0.1520 -0.1616 -0.3578
  862MPD2    C412654   4.058   3.528  10.244  0.4148 -0.3045 -0.6749
  862MPD2    C512655   4.106   3.647  10.292  0.2365 -0.5055 -0.3314
  862MPD2     H12656   4.102   3.366  10.537 -0.0681  0.7809 -0.3037
  862MPD2    H112657   4.036   3.512  10.139 -1.2436  1.5953 -0.6166
  862MPD2    H212658   4.139   3.767  10.462 -1.8167  0.7664  0.4593
  862MPD2    H312659   4.111   3.735  10.229  0.2440 -1.8542 -2.2246
  862MPD2     N12660   4.043   3.288  10.273 -0.3147  0.5119 -0.2278
  862MPD2    H512661   4.020   3.283  10.175 -0.6598  0.6575 -0.1546
  862MPD2    N112662   4.149   3.571  10.649 -0.9243 -0.5808  0.2708
  862MPD2    H712663   4.153   3.482  10.697 -1.3530 -0.3803  0.6810
  863MPD2     C12664   2.537   0.776  17.108  0.1502 -0.1900 -0.5881
  863MPD2    C112665   2.588   0.874  17.032  0.0678 -0.1445 -0.5647
  863MPD2    C212666   2.705   0.938  17.071 -0.2412 -0.0951 -0.7621
  863MPD2    C312667   2.775   0.911  17.187  0.4655 -0.1089  0.2212
  863MPD2    C412668   2.718   0.813  17.266  0.1283  0.5058 -0.5119
  863MPD2    C512669   2.604   0.743  17.228 -0.0584  0.0716 -0.1587
  863MPD2     H12670   2.730   1.015  16.999 -2.2704  0.9384 -0.3401
  863MPD2    H112671   2.768   0.784  17.358  0.8788 -1.0914 -1.4327
  863MPD2    H212672   2.443   0.725  17.092  0.5879 -0.7647 -1.3223
  863MPD2    H312673   2.574   0.661  17.293  1.5130 -2.1944 -2.2827
  863MPD2     N12674   2.886   0.979  17.237 -0.5760  0.3400  0.5483
  863MPD2    H512675   2.926   0.940  17.322  0.2787 -0.0427 -0.0276
  863MPD2    N112676   2.526   0.929  16.917  0.3294 -0.1800  0.8030
  863MPD2    H712677   2.569   1.003  16.862 -0.3363  0.4670  1.1524
  864MPD2     C12678   3.207   2.206  17.451 -0.2726 -0.5350  0.4570
  864MPD2    C112679   3.288   2.169  17.347  0.1567 -0.3997  0.2303
  864MPD2    C212680   3.338   2.270  17.262 -0.4178  0.9041 -0.2226
  864MPD2    C312681   3.317   2.404  17.286 -0.2220 -0.4636 -0.0764
  864MPD2    C412682   3.234   2.433  17.389 -0.1279  0.2525 -0.9159
  864MPD2    C512683   3.174   2.336  17.467 -0.4748 -0.1910  0.3951
  864MPD2     H12684   3.399   2.243  17.177  0.3542  1.9943 -0.0113
  864MPD2    H112685   3.198   2.534  17.403 -2.9029 -0.5886 -2.0878
  864MPD2    H212686   3.175   2.119  17.507 -1.6427 -1.0639 -1.1170
  864MPD2    H312687   3.098   2.361  17.541  0.6247  0.7683  1.2059
  864MPD2     N12688   3.373   2.517  17.215  0.3743 -0.1727  0.4688
  864MPD2    H512689   3.349   2.609  17.252 -0.2363  0.2514 -0.9765
  864MPD2    N112690   3.294   2.037  17.316 -0.6135  0.2078  0.2978
  864MPD2    H712691   3.233   1.978  17.372  1.0123 -0.6715  1.1406
  865MPD2     C12692   3.446   2.999  16.478  0.0003  0.1759 -0.2033
  865MPD2    C112693   3.442   2.884  16.557 -0.0063  0.2917 -0.4137
  865MPD2    C212694   3.411   2.892  16.690  0.1001  0.2224 -0.1541
  865MPD2    C312695   3.364   3.019  16.746  0.3911 -0.5177 -0.2679
  865MPD2    C412696   3.355   3.126  16.664 -0.3327  0.2405 -0.7715
  865MPD2    C512697   3.403   3.117  16.536 -0.5406  0.8595  0.2608
  865MPD2     H12698   3.403   2.803  16.752 -0.1064 -0.0228 -0.5322
  865MPD2    H112699   3.319   3.221  16.703 -1.5402 -0.0785 -1.1209
  865MPD2    H212700   3.472   2.988  16.373  0.2006  0.2944 -0.1665
  865MPD2    H312701   3.399   3.202  16.469 -0.6627  0.9630  0.3997
  865MPD2     N12702   3.312   3.035  16.879  0.1233  0.0149  0.1008
  865MPD2    H512703   3.250   3.115  16.887  0.8337  0.6354 -0.5533
  865MPD2    N112704   3.469   2.760  16.491  0.5241 -0.5436  0.4434
  865MPD2    H712705   3.484   2.772  16.391 -1.6152  0.5403  0.2590
  866MPD2     C12706   0.610   3.438  11.706  0.0096  0.2676  0.1664
  866MPD2    C112707   0.555   3.357  11.609 -0.1996 -0.2632  0.1886
  866MPD2    C212708   0.432   3.392  11.551  0.4515  0.2364 -0.0272
  866MPD2    C312709   0.366   3.507  11.587  0.5086 -0.0770  0.8079
  866MPD2    C412710   0.419   3.585  11.680 -0.0869 -0.4434 -0.6895
  866MPD2    C512711   0.541   3.556  11.738 -0.0319 -0.9028  1.1965
  866MPD2     H12712   0.386   3.326  11.478 -1.0292 -1.4429  2.4156
  866MPD2    H112713   0.366   3.677  11.705 -0.0973 -1.1410  1.8406
  866MPD2    H212714   0.709   3.424  11.747 -0.9853 -1.8553  1.8100
  866MPD2    H312715   0.575   3.621  11.818  2.3217  0.5567 -1.0009
  866MPD2     N12716   0.235   3.544  11.536 -0.5541  0.1073 -0.0571
  866MPD2    H512717   0.198   3.636  11.559 -0.3195  0.0078  0.7125
  866MPD2    N112718   0.631   3.243  11.569  0.6147 -0.2937 -0.6414
  866MPD2    H712719   0.727   3.241  11.600  0.7807 -1.4036 -1.2493
  867MPD2     C12720   1.886   2.309  16.589 -0.2243  0.1616  0.2655
  867MPD2    C112721   1.931   2.244  16.705 -0.2779  0.6482 -0.0534
  867MPD2    C212722   2.024   2.315  16.785  0.2775  0.0271 -0.1121
  867MPD2    C312723   2.072   2.442  16.744  0.1741  0.3647 -0.3510
  867MPD2    C412724   2.004   2.504  16.646  0.7328  0.0177 -0.6070
  867MPD2    C512725   1.918   2.439  16.563  0.7087  0.1200  0.0102
  867MPD2     H12726   2.069   2.258  16.865 -0.5726  0.4582  0.6591
  867MPD2    H112727   2.028   2.605  16.613  2.1603 -0.9226 -2.4518
  867MPD2    H212728   1.825   2.258  16.515  3.4240 -0.3501 -2.3568
  867MPD2    H312729   1.883   2.487  16.473  4.4278 -1.4340 -2.2635
  867MPD2     N12730   2.183   2.513  16.802 -0.9810 -0.0295 -0.2495
  867MPD2    H512731   2.209   2.600  16.757 -0.1900  0.9705  2.1685
  867MPD2    N112732   1.883   2.105  16.727 -0.3957 -0.6951 -0.6335
  867MPD2    H712733   1.810   2.069  16.667 -0.9867  0.1154 -0.4087
  868MPD2     C12734   4.163   1.284  13.294 -0.4461 -0.6765  0.1806
  868MPD2    C112735   4.199   1.181  13.377  0.9131 -0.8146  0.7708
  868MPD2    C212736   4.098   1.126  13.453  0.4942  0.4949  0.3083
  868MPD2    C312737   3.966   1.162  13.433 -0.5731 -0.2594  0.3528
  868MPD2    C412738   3.930   1.264  13.351  0.4183 -0.2123  0.4086
  868MPD2    C512739   4.032   1.322  13.285  0.0149 -0.2906  0.7422
  868MPD2     H12740   4.118   1.051  13.528 -3.1865 -0.2183  0.5713
  868MPD2    H112741   3.832   1.308  13.337  1.6981  2.3723 -0.4696
  868MPD2    H212742   4.243   1.335  13.242 -0.3581 -0.0929  0.8875
  868MPD2    H312743   4.011   1.399  13.211 -0.5539 -0.9616  0.2052
  868MPD2     N12744   3.879   1.077  13.496  0.4468 -0.2861  0.0718
  868MPD2    H512745   3.907   1.024  13.578  2.1221  0.4278 -0.0303
  868MPD2    N112746   4.336   1.140  13.382  0.5323 -0.3523 -0.2813
  868MPD2    H712747   4.393   1.191  13.315 -0.2366  2.7817  1.4209
  869MPD2     C12748   4.554   4.288   1.566 -0.8736  0.0281 -0.3691
  869MPD2    C112749   4.676   4.326   1.613 -0.6525  0.1864 -0.4907
  869MPD2    C212750   0.038   4.391   1.520  0.4816  0.2308  0.2891
  869MPD2    C312751   4.718   4.419   1.389 -0.6912 -0.3319 -0.0103
  869MPD2    C412752   4.602   4.358   1.339 -0.6017  0.0784  0.1000
  869MPD2    C512753   4.525   4.300   1.435  0.8361 -0.3510  0.4930
  869MPD2     H12754   0.124   4.443   1.561  1.7385 -0.0933 -1.8962
  869MPD2    H112755   4.579   4.360   1.234  1.1791  1.0376 -0.2690
  869MPD2    H212756   4.492   4.222   1.626  0.2728  0.0420  0.8335
  869MPD2    H312757   4.437   4.242   1.407 -0.3916  2.2854 -1.0558
  869MPD2     N12758   0.059   4.500   1.294 -0.2723  0.4190 -0.2733
  869MPD2    H512759   0.031   4.496   1.197 -0.0533 -1.8406 -0.2608
  869MPD2    N112760   4.711   4.288   1.747 -0.0901  0.2197  0.3961
  869MPD2    H712761   4.646   4.219   1.782 -0.4560 -1.0528 -2.8132
  870MPD2     C12762   3.910   3.169   1.518 -0.5174  0.2342  0.0459
  870MPD2    C112763   3.996   3.272   1.515 -0.0203 -0.1408  0.9876
  870MPD2    C212764   3.982   3.367   1.418  0.5367 -0.6596  0.2611
  870MPD2    C312765   3.887   3.347   1.310  0.3103 -0.6526  0.5799
  870MPD2    C412766   3.794   3.243   1.328  0.0968 -0.2829  0.3745
  870MPD2    C512767   3.816   3.152   1.421 -0.1652  0.8108 -0.5957
  870MPD2     H12768   4.039   3.459   1.427 -0.9586  0.0314  2.8143
  870MPD2    H112769   3.711   3.225   1.262  1.7428 -0.5215 -1.6318
  870MPD2    H212770   3.921   3.087   1.588 -0.5011  0.2870  0.1040
  870MPD2    H312771   3.758   3.062   1.413 -1.0261  1.1569  1.6565
  870MPD2     N12772   3.873   3.450   1.215  0.2883 -1.3330 -0.5036
  870MPD2    H512773   3.928   3.535   1.225 -3.7608  1.0901  1.0525
  870MPD2    N112774   4.099   3.272   1.614  0.5731 -0.0404  0.2423
  870MPD2    H712775   4.096   3.193   1.678  1.1155 -0.4231 -0.2026
  871MPD2     C12776   1.147   2.681  16.577 -0.0507 -0.2214 -0.6224
  871MPD2    C112777   1.077   2.666  16.693 -0.1619 -0.2072  1.0451
  871MPD2    C212778   0.996   2.555  16.699  0.7170  0.3091 -0.0351
  871MPD2    C312779   0.989   2.454  16.607 -0.9751  0.2368 -0.2118
  871MPD2    C412780   1.061   2.473  16.496  0.2211  0.4910 -0.3735
  871MPD2    C512781   1.150   2.579  16.484 -0.3560  0.0962  0.7243
  871MPD2     H12782   0.925   2.553  16.781 -0.5405  2.2130 -1.0785
  871MPD2    H112783   1.066   2.399  16.417 -1.0627 -1.3581  1.2489
  871MPD2    H212784   1.215   2.766  16.574  0.3475 -0.5683 -1.5017
  871MPD2    H312785   1.221   2.593  16.403 -1.7674  1.1545 -0.3439
  871MPD2     N12786   0.913   2.343  16.644 -0.1693 -0.2066  0.0839
  871MPD2    H512787   0.845   2.355  16.719  1.1975 -0.8530  1.4232
  871MPD2    N112788   1.081   2.769  16.786  0.5022  0.0765  0.0908
  871MPD2    H712789   1.134   2.853  16.764  1.2862 -1.1742 -2.8063
  872MPD2     C12790   2.238   0.040  14.370 -0.7342 -0.4013  0.5779
  872MPD2    C112791   2.198   0.144  14.288 -0.5111  0.3676 -0.2648
  872MPD2    C212792   2.064   0.187  14.304 -0.5370  0.3828  0.1713
  872MPD2    C312793   1.978   0.127  14.392 -0.6026  0.1304  0.2734
  872MPD2    C412794   2.025   0.021  14.472 -0.0004 -0.7236 -0.2061
  872MPD2    C512795   2.158   4.702  14.457  0.1302 -0.1365 -0.5046
  872MPD2     H12796   2.040   0.272  14.241 -1.5678 -1.4051 -1.8426
  872MPD2    H112797   1.956   4.693  14.538  0.1889  1.2773  1.5598
  872MPD2    H212798   2.338   4.723  14.360 -0.1250  0.7268  1.9411
  872MPD2    H312799   2.196   4.625  14.523  0.1854 -0.5298 -0.9964
  872MPD2     N12800   1.845   0.161  14.403 -0.2330  0.3325  0.1017
  872MPD2    H512801   1.795   0.115  14.479 -2.0684 -0.9030 -1.8774
  872MPD2    N112802   2.283   0.212  14.199 -0.4181 -0.1119  0.2377
  872MPD2    H712803   2.236   0.274  14.134 -1.2944  0.3509  1.3221
  873MPD2     C12804   3.844   0.540   1.429 -0.1934  0.3361  0.2793
  873MPD2    C112805   3.961   0.557   1.496  0.7146 -0.7296 -0.1262
  873MPD2    C212806   4.059   0.456   1.488  0.7811  0.2906 -0.4011
  873MPD2    C312807   4.030   0.333   1.429  0.4014 -0.0928 -0.1971
  873MPD2    C412808   3.911   0.319   1.367 -0.2203 -0.4224  0.1292
  873MPD2    C512809   3.825   0.427   1.356 -0.3431 -0.7737  0.5102
  873MPD2     H12810   4.159   0.468   1.528  0.7362  0.3457 -0.3052
  873MPD2    H112811   3.877   0.226   1.324  2.0306 -0.5396 -1.4352
  873MPD2    H212812   3.764   0.612   1.436 -0.4215 -0.0447  1.5895
  873MPD2    H312813   3.731   0.417   1.304 -0.6899  0.6494  0.8735
  873MPD2     N12814   4.119   0.231   1.429  0.6073  0.6337  0.1868
  873MPD2    H512815   4.092   0.155   1.367 -1.6299  2.3842 -0.9891
  873MPD2    N112816   3.987   0.679   1.559  0.1660  0.2793  0.0360
  873MPD2    H712817   3.918   0.754   1.560  0.9456  1.0272 -2.0387
  874MPD2     C12818   3.240   4.550  16.072  0.1805  0.8986  0.4373
  874MPD2    C112819   3.336   4.491  16.148 -0.5200  0.5350 -0.4877
  874MPD2    C212820   3.454   4.560  16.169  0.2376  0.8572 -0.1239
  874MPD2    C312821   3.487   4.674  16.101 -0.1313  0.0139 -0.3950
  874MPD2    C412822   3.387   0.007  16.017 -0.3465 -0.2371  0.9702
  874MPD2    C512823   3.266   4.671  16.012  0.5517 -0.2261  0.0168
  874MPD2     H12824   3.530   4.524  16.237 -1.1169  1.2325  1.5609
  874MPD2    H112825   3.387   0.096  15.954  1.4087  1.0385  2.7505
  874MPD2    H212826   3.143   4.507  16.049  0.4262  0.2977  0.5174
  874MPD2    H312827   3.190   4.708  15.944 -0.2053 -1.1057  0.3894
  874MPD2     N12828   3.615   0.004  16.118  0.1195  0.1636  0.1106
  874MPD2    H512829   3.681   4.684  16.182  2.5946 -0.4882 -2.8476
  874MPD2    N112830   3.303   4.376  16.223 -0.6073  0.0559  0.6681
  874MPD2    H712831   3.215   4.332  16.198 -1.5541  1.7995  0.9976
  875MPD2     C12832   0.006   3.256  14.672  0.0953  0.4485  0.7151
  875MPD2    C112833   4.611   3.314  14.706 -0.3869  0.0025  0.1394
  875MPD2    C212834   4.611   3.392  14.821  0.6814  0.1428 -0.1399
  875MPD2    C312835   0.004   3.411  14.891  1.0031 -0.5172  0.2583
  875MPD2    C412836   0.121   3.358  14.849 -0.5963  0.4874 -0.0411
  875MPD2    C512837   0.122   3.281  14.736 -0.7408  0.3350  0.1196
  875MPD2     H12838   4.524   3.451  14.851  1.5611  1.5847 -0.4313
  875MPD2    H112839   0.209   3.372  14.911 -0.9560  0.0941  0.5558
  875MPD2    H212840   0.016   3.190  14.587 -1.5618  0.5308  0.4441
  875MPD2    H312841   0.205   3.213  14.718 -1.5077 -0.0814 -1.8515
  875MPD2     N12842   0.011   3.496  15.006  0.2862  0.1562 -0.1837
  875MPD2    H512843   0.107   3.510  15.034  0.4097 -1.2179  0.0799
  875MPD2    N112844   4.495   3.297  14.631 -0.2287 -0.0125 -1.0965
  875MPD2    H712845   4.402   3.331  14.655  0.1515 -0.0891  0.5003
  876MPD2     C12846   3.377   4.533  15.693  0.8283 -0.4863 -0.7951
  876MPD2    C112847   3.511   4.530  15.732 -0.5152 -0.2627  0.1603
  876MPD2    C212848   3.555   4.426  15.807  0.6271 -0.5727 -0.3445
  876MPD2    C312849   3.462   4.328  15.853 -0.0073  0.1109 -0.2488
  876MPD2    C412850   3.330   4.334  15.814 -0.2167 -0.1153  0.0052
  876MPD2    C512851   3.287   4.434  15.730 -0.1994  0.0976 -0.3783
  876MPD2     H12852   3.654   4.426  15.850  0.9421  1.0484 -1.0952
  876MPD2    H112853   3.254   4.263  15.846 -0.9444  0.5935 -0.1710
  876MPD2    H212854   3.336   4.610  15.628  0.2980  0.3110  0.5018
  876MPD2    H312855   3.181   4.452  15.715 -0.5778 -1.9990 -0.2104
  876MPD2     N12856   3.516   4.219  15.923 -0.2943  0.2258 -0.4286
  876MPD2    H512857   3.615   4.232  15.942 -0.2513 -2.2732  1.0729
  876MPD2    N112858   3.592   4.636  15.697 -0.2827 -0.1299  0.5579
  876MPD2    H712859   3.554   4.715  15.646  2.2394  0.6611 -0.1100
  877MPD2     C12860   3.391   0.365  15.343 -0.8230  0.0733 -0.1044
  877MPD2    C112861   3.525   0.388  15.309 -0.2248  0.5053 -0.4328
  877MPD2    C212862   3.553   0.419  15.180 -0.5443  0.2885 -0.5229
  877MPD2    C312863   3.450   0.432  15.083 -0.0544 -1.0894  0.2842
  877MPD2    C412864   3.319   0.405  15.122 -0.5093  0.1083 -0.2075
  877MPD2    C512865   3.295   0.386  15.252 -0.2273  0.1786 -0.2692
  877MPD2     H12866   3.657   0.428  15.151  0.2431 -0.1122  2.1780
  877MPD2    H112867   3.239   0.391  15.050 -2.0534 -0.6567  1.6506
  877MPD2    H212868   3.359   0.340  15.443 -1.0575 -0.2253 -0.2548
  877MPD2    H312869   3.195   0.357  15.280  0.6488 -1.0530  1.5902
  877MPD2     N12870   3.481   0.441  14.947 -0.1433  0.2725  0.4090
  877MPD2    H512871   3.397   0.429  14.892 -0.0156 -0.4890  0.3831
  877MPD2    N112872   3.632   0.371  15.405  0.1549 -0.0376 -0.0262
  877MPD2    H712873   3.724   0.364  15.364  0.4301  0.1562  0.5608
  878MPD2     C12874   3.863   4.100  12.870 -0.3330  0.0548  0.4361
  878MPD2    C112875   3.827   4.221  12.837  0.4457  0.0267  0.6940
  878MPD2    C212876   3.844   4.322  12.926 -1.1001  0.3149 -0.0913
  878MPD2    C312877   3.897   4.297  13.045  0.1862  0.3124 -1.1894
  878MPD2    C412878   3.925   4.172  13.089 -0.0083  0.4801  0.0264
  878MPD2    C512879   3.915   4.075  12.999  0.2101  0.0716 -0.2387
  878MPD2     H12880   3.818   4.424  12.900 -0.9608  0.2177 -0.6167
  878MPD2    H112881   3.967   4.148  13.187  2.6035  0.3128 -1.1271
  878MPD2    H212882   3.858   4.011  12.809  3.7759  0.6231 -0.6726
  878MPD2    H312883   3.916   3.977  13.044  0.0424 -0.7037 -1.8981
  878MPD2     N12884   3.905   4.409  13.126  0.4611  0.0938 -0.0244
  878MPD2    H512885   3.882   4.499  13.085 -3.2195 -2.4459 -3.5736
  878MPD2    N112886   3.787   4.228  12.706 -0.4943 -0.2832  0.7220
  878MPD2    H712887   3.806   4.148  12.647  0.7438  0.4534  0.1290
  879MPD2     C12888   4.076   1.154  17.352  0.4124 -0.3716  0.4401
  879MPD2    C112889   4.104   1.176  17.220 -0.1558  0.2067  0.3749
  879MPD2    C212890   4.026   1.112  17.119 -0.2597  0.2210  0.5659
  879MPD2    C312891   3.925   1.031  17.158 -0.1627 -0.7207  0.4783
  879MPD2    C412892   3.902   1.011  17.293 -0.0890  0.5832 -0.3274
  879MPD2    C512893   3.971   1.075  17.389  0.6309 -0.4623 -0.1819
  879MPD2     H12894   4.052   1.138  17.017 -0.0253  0.9438  0.8087
  879MPD2    H112895   3.808   0.965  17.321  0.6921  0.4286  2.0600
  879MPD2    H212896   4.141   1.196  17.428  0.4795  1.8316 -0.8416
  879MPD2    H312897   3.945   1.063  17.494 -1.4850  1.6222 -0.4802
  879MPD2     N12898   3.832   0.972  17.068 -0.7322  0.6437 -0.0733
  879MPD2    H512899   3.755   0.919  17.110 -1.0642 -0.4344 -2.0546
  879MPD2    N112900   4.211   1.253  17.181  0.0060  0.5311 -0.1468
  879MPD2    H712901   4.250   1.307  17.257 -0.6536 -1.4041  1.5523
  880MPD2     C12902   0.177   3.016   0.129 -0.3463 -0.5832 -0.5644
  880MPD2    C112903   0.137   3.071   0.252 -0.1106  0.2754  0.5348
  880MPD2    C212904   0.177   2.999   0.366 -0.1966 -0.3142 -0.2876
  880MPD2    C312905   0.258   2.892   0.367  0.3782 -0.3067 -0.6931
  880MPD2    C412906   0.300   2.844   0.243  0.2059  0.5060  0.3651
  880MPD2    C512907   0.260   2.907   0.128  0.5993  0.1466 -0.8842
  880MPD2     H12908   0.132   3.029   0.461  1.3916 -0.1338  0.4085
  880MPD2    H112909   0.357   2.754   0.225 -1.3283 -0.7671  2.0122
  880MPD2    H212910   0.148   3.057   0.033 -1.9011 -0.7208 -0.1504
  880MPD2    H312911   0.286   2.881   0.026  0.1738 -0.3802 -0.8528
  880MPD2     N12912   0.275   2.828   0.491  0.5756 -0.5134  0.5163
  880MPD2    H512913   0.233   2.880   0.567  0.9096  1.1029 -0.4150
  880MPD2    N112914   0.073   3.200   0.258  0.1415 -0.7061 -0.7699
  880MPD2    H712915   0.053   3.242   0.168 -0.2873 -0.3103 -0.4902
  881MPD2     C12916   0.216   4.098  17.564  0.4168  0.0336 -0.2384
  881MPD2    C112917   0.175   3.980  17.511 -0.2258 -0.3270 -0.5244
  881MPD2    C212918   0.135   3.890  17.605  0.6828  0.7076  0.1993
  881MPD2    C312919   0.123   3.912   0.042 -0.1281 -0.0374 -0.0714
  881MPD2    C412920   0.155   4.034   0.084 -0.6141 -0.1777 -0.2225
  881MPD2    C512921   0.200   4.127  17.696 -0.8638 -0.3394  0.2416
  881MPD2     H12922   0.102   3.794  17.568 -0.3133  1.7691 -1.7298
  881MPD2    H112923   0.152   4.060   0.189  1.6682  0.1533 -0.2297
  881MPD2    H212924   0.245   4.176  17.495  1.5005  0.8418  1.1423
  881MPD2    H312925   0.207   4.230   0.033  1.1261 -0.5129  0.3573
  881MPD2     N12926   0.060   3.813   0.129 -0.4746  0.0250 -0.4492
  881MPD2    H512927   0.051   3.849   0.224 -1.3066 -0.1852 -0.4547
  881MPD2    N112928   0.211   3.944  17.379 -0.1111 -0.3382 -0.0873
  881MPD2    H712929   0.271   4.010  17.331 -0.1888 -1.0722 -1.1690
  882MPD2     C12930   3.415   0.572  14.097  0.2276  0.0449  0.3242
  882MPD2    C112931   3.380   0.598  14.229 -0.4942 -0.5543  0.2929
  882MPD2    C212932   3.248   0.616  14.248  0.6187 -0.0280  0.4108
  882MPD2    C312933   3.153   0.612  14.143  0.1344 -0.3275  0.1838
  882MPD2    C412934   3.200   0.604  14.017  0.0318 -0.2252  0.2093
  882MPD2    C512935   3.330   0.579  13.988  0.0878  0.4724 -0.2119
  882MPD2     H12936   3.213   0.626  14.349  0.7512 -0.4388  0.4973
  882MPD2    H112937   3.130   0.603  13.935 -0.3620 -3.3481  0.5789
  882MPD2    H212938   3.521   0.588  14.079  0.8577 -3.6797  0.7396
  882MPD2    H312939   3.369   0.580  13.887 -0.7522 -1.0306 -0.5481
  882MPD2     N12940   3.019   0.603  14.168  0.0325 -0.2557  0.3139
  882MPD2    H512941   2.961   0.575  14.090  0.7873 -0.8011 -0.0533
  882MPD2    N112942   3.472   0.592  14.334  0.6068  0.2510  0.1044
  882MPD2    H712943   3.566   0.557  14.318  0.5923 -0.4790  1.6159
  883MPD2     C12944   0.771   0.584  16.729 -0.0329  0.5334  0.3895
  883MPD2    C112945   0.877   0.567  16.641 -0.3893  0.3081  0.1264
  883MPD2    C212946   1.006   0.552  16.693 -0.0653 -0.2549 -0.6905
  883MPD2    C312947   1.030   0.588  16.827  0.4799 -0.0346 -0.7979
  883MPD2    C412948   0.922   0.625  16.906  0.2972 -0.2449 -0.5153
  883MPD2    C512949   0.794   0.620  16.859 -0.1333 -0.2504  1.1003
  883MPD2     H12950   1.083   0.519  16.625 -0.1875 -1.0928 -0.4183
  883MPD2    H112951   0.940   0.671  17.003 -3.2983 -0.7326  0.3782
  883MPD2    H212952   0.670   0.584  16.689 -0.2453  0.2534  0.9416
  883MPD2    H312953   0.712   0.640  16.927 -1.7567 -0.1426 -0.8709
  883MPD2     N12954   1.164   0.597  16.875  0.2842 -0.1315  0.2127
  883MPD2    H512955   1.243   0.589  16.812  1.0303  3.2731  0.7112
  883MPD2    N112956   0.870   0.541  16.499  0.7813  0.0391 -0.2133
  883MPD2    H712957   0.951   0.502  16.451  1.5213  1.8657 -0.4433
  884MPD2     C12958   2.227   0.679  15.518  0.9290 -0.3897  0.7031
  884MPD2    C112959   2.250   0.782  15.424 -0.1804 -0.0371  0.4701
  884MPD2    C212960   2.163   0.890  15.433 -0.0191  0.7864  0.4951
  884MPD2    C312961   2.071   0.902  15.531  0.5185 -0.4930 -0.0871
  884MPD2    C412962   2.040   0.800  15.621 -0.0670  0.6978 -0.1764
  884MPD2    C512963   2.122   0.691  15.613 -0.3944 -0.4427  0.0835
  884MPD2     H12964   2.184   0.964  15.356  2.6745  0.7257  1.1455
  884MPD2    H112965   1.955   0.800  15.688 -1.7766  2.2467 -2.3444
  884MPD2    H212966   2.287   0.589  15.520  0.6679 -0.5528  1.3477
  884MPD2    H312967   2.103   0.607  15.678  0.7945 -0.2734  0.6476
  884MPD2     N12968   2.003   1.024  15.530 -0.4728 -0.7857 -0.5168
  884MPD2    H512969   2.031   1.089  15.457 -0.3500 -1.1257 -0.7714
  884MPD2    N112970   2.347   0.775  15.325 -0.5197  0.3751 -0.6270
  884MPD2    H712971   2.342   0.851  15.258 -0.6986 -0.7685 -1.9079
  885MPD2     C12972   0.557   1.820   0.236 -0.0358 -0.2559 -0.8252
  885MPD2    C112973   0.642   1.718   0.192 -0.4068  0.0492 -0.1093
  885MPD2    C212974   0.688   1.727   0.060 -0.0562  0.0355  0.0275
  885MPD2    C312975   0.624   1.812  17.668 -0.1997  0.0343  0.0098
  885MPD2    C412976   0.544   1.909   0.021  0.6114  0.2818  0.3155
  885MPD2    C512977   0.508   1.913   0.150 -0.0738  0.5813  0.3173
  885MPD2     H12978   0.775   1.665   0.039 -0.1570 -0.1300  0.0970
  885MPD2    H112979   0.512   1.990  17.654  1.5511 -0.0465 -0.5735
  885MPD2    H212980   0.516   1.822   0.337  3.2730  0.7191  0.4992
  885MPD2    H312981   0.445   1.990   0.192 -1.5797 -0.7598  0.5203
  885MPD2     N12982   0.655   1.801  17.529 -0.0700  0.1732  0.2313
  885MPD2    H512983   0.729   1.734  17.509 -1.6918 -0.9016 -2.1561
  885MPD2    N112984   0.679   1.618   0.279  0.2953  0.2730  0.0968
  885MPD2    H712985   0.672   1.641   0.377  0.3913 -1.4881  0.5182
  886MPD2     C12986   2.036   4.381  15.740  0.4746  0.1443 -0.1699
  886MPD2    C112987   2.104   4.324  15.632 -0.1858  0.6518 -0.2017
  886MPD2    C212988   2.119   4.399  15.520  0.1846 -0.0171 -0.1180
  886MPD2    C312989   2.067   4.526  15.502  0.2274 -0.3187 -0.0441
  886MPD2    C412990   1.999   4.576  15.611  0.2067  0.7138  0.5994
  886MPD2    C512991   1.983   4.511  15.728 -0.1231 -0.0997 -0.2814
  886MPD2     H12992   2.172   4.353  15.437  0.9365 -0.9356  0.8688
  886MPD2    H112993   1.953   4.675  15.613  0.8723  1.0523 -0.8851
  886MPD2    H212994   2.009   4.321  15.827  0.0201 -1.7881 -1.6453
  886MPD2    H312995   1.924   4.561  15.805 -0.0929  0.6554 -0.7463
  886MPD2     N12996   2.095   4.602  15.385  0.1033 -0.1763  0.2931
  886MPD2    H512997   2.161   4.563  15.318 -1.1349 -0.6691 -0.6476
  886MPD2    N112998   2.161   4.198  15.646 -0.1302  0.1240  0.0954
  886MPD2    H712999   2.222   4.180  15.567 -0.5352  0.9611 -0.4008
  887MPD2     C13000   2.821   4.193  15.805 -0.7289  0.5102  1.0381
  887MPD2    C113001   2.700   4.240  15.846 -0.4231  0.2570  0.3349
  887MPD2    C213002   2.692   4.378  15.855 -0.5723  1.4079 -0.3412
  887MPD2    C313003   2.798   4.467  15.840  0.5966  0.2232 -0.1752
  887MPD2    C413004   2.923   4.410  15.825 -0.2716 -0.6543 -0.0578
  887MPD2    C513005   2.929   4.274  15.800 -0.4284  0.0442  0.0151
  887MPD2     H13006   2.594   4.420  15.872 -0.5586  0.6441  1.7042
  887MPD2    H113007   3.015   4.467  15.828  0.4493 -1.7460 -1.3377
  887MPD2    H213008   2.839   4.092  15.771  0.4543  1.1368 -0.1695
  887MPD2    H313009   3.016   4.217  15.770 -0.4644  0.8127 -1.5786
  887MPD2     N13010   2.768   4.609  15.856  0.3520 -0.1466  0.0365
  887MPD2    H513011   2.669   4.633  15.862  1.0884  3.1272 -0.4591
  887MPD2    N113012   2.588   4.155  15.834  0.1034  0.4531 -0.1227
  887MPD2    H713013   2.500   4.205  15.837 -0.2815 -0.2856  0.7878
  888MPD2     C13014   4.586   4.667  14.530 -0.0253  0.1972 -0.6677
  888MPD2    C113015   4.614   4.710  14.660 -0.1454 -0.2335 -0.1889
  888MPD2    C213016   4.670   0.104  14.688 -0.2183 -0.6046  0.3699
  888MPD2    C313017   4.672   0.195  14.588  1.0319 -0.5619 -0.7049
  888MPD2    C413018   4.625   0.165  14.464 -0.5148  0.0062 -0.3235
  888MPD2    C513019   4.590   0.034  14.430  0.1559  0.0097  0.5720
  888MPD2     H13020   4.687   0.126  14.793 -0.7693 -1.8968  0.7287
  888MPD2    H113021   4.616   0.234  14.380 -1.5744  1.3913  0.9228
  888MPD2    H213022   4.564   4.563  14.510 -1.9227  0.5173 -0.2443
  888MPD2    H313023   4.570   0.013  14.325  2.2852 -1.9805  0.5804
  888MPD2     N13024   4.704   0.325  14.628 -0.3793  0.5221 -0.3769
  888MPD2    H513025   0.019   0.332  14.721  3.4701  0.9582 -2.0194
  888MPD2    N113026   4.587   4.630  14.773  0.0046  0.3083  0.8334
  888MPD2    H713027   4.640   4.653  14.857 -0.2461 -0.4833  1.2036
  889MPD2     C13028   4.089   4.176  12.519 -0.3842  0.1746  0.0842
  889MPD2    C113029   4.146   4.130  12.635 -0.5339  0.3002 -0.5824
  889MPD2    C213030   4.176   4.224  12.732  0.6612  0.3969 -0.4085
  889MPD2    C313031   4.171   4.359  12.710  0.9268  0.1060  0.1129
  889MPD2    C413032   4.132   4.406  12.582  0.0085 -0.3798 -0.6561
  889MPD2    C513033   4.094   4.314  12.488 -0.2628 -0.1284  0.1502
  889MPD2     H13034   4.208   4.200  12.833 -0.6847  0.4401  0.0385
  889MPD2    H113035   4.133   4.512  12.558  0.2907  0.2307  2.0635
  889MPD2    H213036   4.061   4.108  12.438  1.4737  0.1451 -0.5304
  889MPD2    H313037   4.042   4.353  12.400 -0.3827  0.8902  0.6729
  889MPD2     N13038   4.195   4.438  12.822  0.1846 -0.2307  0.2550
  889MPD2    H513039   4.233   4.398  12.908  0.7302  1.1810  0.6826
  889MPD2    N113040   4.117   4.008  12.685 -0.4926 -0.5503 -0.7196
  889MPD2    H713041   4.152   4.000  12.780  0.6813  0.0559 -1.1093
  890MPD2     C13042   3.662   0.941  14.652 -0.1577  0.4069  0.8751
  890MPD2    C113043   3.611   1.028  14.742  0.0720  0.2864  0.3318
  890MPD2    C213044   3.613   0.991  14.875 -0.4923  0.9210  1.1822
  890MPD2    C313045   3.673   0.870  14.920 -0.0593  0.0139  0.1466
  890MPD2    C413046   3.741   0.788  14.825 -0.1017  0.2322  0.3450
  890MPD2    C513047   3.733   0.824  14.693  0.0697  0.4696 -0.5155
  890MPD2     H13048   3.550   1.053  14.937 -0.9212  1.1577  0.5111
  890MPD2    H113049   3.804   0.703  14.848  1.4476  1.7809  1.8118
  890MPD2    H213050   3.675   0.957  14.546  0.2743  2.9181  1.3206
  890MPD2    H313051   3.781   0.758  14.622  1.4442 -0.7696  1.5915
  890MPD2     N13052   3.664   0.817  15.054  0.7341  0.7064  0.4142
  890MPD2    H513053   3.709   0.729  15.076  1.1262  0.5377 -1.0550
  890MPD2    N113054   3.549   1.148  14.700  0.1995 -0.5349  0.9680
  890MPD2    H713055   3.545   1.162  14.600  0.0164 -1.7784  0.7938
  891MPD2     C13056   1.716   4.151  16.824  0.0127  0.2706 -0.0342
  891MPD2    C113057   1.726   4.259  16.910  0.1526 -0.8852 -0.5743
  891MPD2    C213058   1.805   4.261  17.021  0.3615 -0.2028  0.2938
  891MPD2    C313059   1.866   4.138  17.057  0.0742  0.5259 -0.2526
  891MPD2    C413060   1.853   4.026  16.972 -0.2601 -0.1524 -1.1401
  891MPD2    C513061   1.781   4.028  16.855  0.2407 -0.0225 -0.2612
  891MPD2     H13062   1.830   4.353  17.072 -1.2542 -1.1014  2.6948
  891MPD2    H113063   1.900   3.930  16.988  1.3526  0.4231 -2.4552
  891MPD2    H213064   1.666   4.150  16.728 -0.5804 -1.1821  0.2900
  891MPD2    H313065   1.776   3.940  16.793  1.7124 -1.9433  2.3613
  891MPD2     N13066   1.950   4.138  17.175 -0.3238  0.2728 -0.0327
  891MPD2    H513067   1.950   4.223  17.230  1.2159  0.5928 -0.5467
  891MPD2    N113068   1.661   4.380  16.865  0.1098 -0.8923 -0.0315
  891MPD2    H713069   1.603   4.367  16.782 -0.5130  0.8265  0.1241
  892MPD2     C13070   2.450   0.439  15.036  0.5256 -0.2958 -0.6049
  892MPD2    C113071   2.390   0.519  14.941 -0.0547 -0.8701 -0.5111
  892MPD2    C213072   2.450   0.530  14.814 -0.1029 -0.0524  0.3773
  892MPD2    C313073   2.571   0.464  14.784 -0.1483  0.1531  0.1446
  892MPD2    C413074   2.630   0.383  14.883 -0.3705 -0.6790  0.3449
  892MPD2    C513075   2.571   0.377  15.009  1.0340  1.0564 -0.4608
  892MPD2     H13076   2.406   0.598  14.741  1.9846  1.2939  0.3804
  892MPD2    H113077   2.722   0.326  14.873  1.3440  1.9116  1.1113
  892MPD2    H213078   2.406   0.424  15.134  0.8279 -1.5486 -0.6543
  892MPD2    H313079   2.610   0.303  15.078  0.0265  2.7020  1.8752
  892MPD2     N13080   2.631   0.466  14.657 -0.1870  0.4283 -0.0769
  892MPD2    H513081   2.707   0.399  14.647 -0.1755  0.6710 -1.6580
  892MPD2    N113082   2.266   0.589  14.963  0.3611 -0.8340  0.1945
  892MPD2    H713083   2.241   0.665  14.900 -0.5917  0.1637  1.7887
  893MPD2     C13084   3.877   4.189   1.872  0.4210  0.4933  0.1040
  893MPD2    C113085   3.865   4.143   1.747 -0.3032  0.0767 -0.2061
  893MPD2    C213086   3.798   4.231   1.660 -0.1010  0.5562 -0.4002
  893MPD2    C313087   3.735   4.351   1.702  0.0727  0.3824  1.0851
  893MPD2    C413088   3.740   4.385   1.830 -0.3932  0.3036  0.1909
  893MPD2    C513089   3.816   4.308   1.917  0.1506 -0.3246 -0.1052
  893MPD2     H13090   3.780   4.204   1.557 -0.2512 -0.8469  0.0010
  893MPD2    H113091   3.680   4.464   1.872  1.9748  2.1121  0.1996
  893MPD2    H213092   3.944   4.150   1.947 -1.6347 -0.7033  1.3078
  893MPD2    H313093   3.831   4.334   2.021 -1.8602 -1.6418  0.5179
  893MPD2     N13094   3.646   4.430   1.625  0.0913  0.7695 -1.0570
  893MPD2    H513095   3.596   4.508   1.664  0.5154 -0.5898  2.1731
  893MPD2    N113096   3.923   4.015   1.706  0.9891 -0.0267  0.0666
  893MPD2    H713097   3.987   3.961   1.763 -1.1290 -1.3100  1.2354
  894MPD2     C13098   1.898   1.705   1.422 -0.0867 -0.1531 -0.2626
  894MPD2    C113099   2.000   1.743   1.502  0.1914 -0.5149 -0.1899
  894MPD2    C213100   2.132   1.713   1.464  0.0153  0.4882  0.6013
  894MPD2    C313101   2.164   1.661   1.340  0.3498  0.2024 -0.4564
  894MPD2    C413102   2.060   1.627   1.256  0.3255  0.1655  0.2146
  894MPD2    C513103   1.926   1.642   1.305  0.5445  0.1313 -0.0620
  894MPD2     H13104   2.215   1.713   1.533 -0.4677 -2.1868  1.1917
  894MPD2    H113105   2.075   1.590   1.156  0.2691  2.5327 -0.6657
  894MPD2    H213106   1.800   1.726   1.463 -0.0916 -4.5771  2.0377
  894MPD2    H313107   1.846   1.601   1.245 -0.4698 -0.3459  1.5950
  894MPD2     N13108   2.299   1.638   1.308 -1.0141 -0.3770  0.1994
  894MPD2    H513109   2.364   1.642   1.386  0.3131 -1.0205 -0.8841
  894MPD2    N113110   1.994   1.800   1.629  0.2192  0.4805  0.1343
  894MPD2    H713111   2.077   1.809   1.687  0.1665 -0.4093  0.3358
  895MPD2     C13112   1.954   4.629  13.906 -0.4478  0.0068 -0.1341
  895MPD2    C113113   1.859   4.571  13.826 -0.2386 -0.5074  0.5205
  895MPD2    C213114   1.885   4.455  13.770 -0.5123  0.0006 -0.4443
  895MPD2    C313115   2.010   4.389  13.771 -0.0177 -0.8367 -0.1861
  895MPD2    C413116   2.104   4.443  13.859 -0.0006 -0.6128  0.2954
  895MPD2    C513117   2.074   4.565  13.920 -0.0721 -0.0048  0.2650
  895MPD2     H13118   1.805   4.417  13.706 -0.1673 -1.7482  0.1501
  895MPD2    H113119   2.205   4.403  13.859  0.0827 -0.4539  3.0567
  895MPD2    H213120   1.938   0.002  13.952  0.7220  0.7444 -1.2766
  895MPD2    H313121   2.148   4.613  13.983 -2.1732  1.7574  1.3777
  895MPD2     N13122   2.023   4.267  13.703  0.4291 -0.5335  0.3094
  895MPD2    H513123   1.943   4.245  13.644  0.7151  0.0527 -0.2957
  895MPD2    N113124   1.735   4.623  13.803  0.2062  0.3229  0.2208
  895MPD2    H713125   1.672   4.582  13.735  1.1911 -0.5315 -0.1790
  896MPD2     C13126   3.374   2.589   1.896 -0.1317 -0.0420 -0.5170
  896MPD2    C113127   3.441   2.467   1.909  0.2379  0.4704 -0.0353
  896MPD2    C213128   3.376   2.345   1.897  0.5312  0.0142 -0.1183
  896MPD2    C313129   3.241   2.341   1.880  0.4087  0.0878  0.3241
  896MPD2    C413130   3.166   2.457   1.860 -0.3870 -0.7227  0.2361
  896MPD2    C513131   3.233   2.579   1.867  0.3295  1.1885  0.5397
  896MPD2     H13132   3.440   2.258   1.887  0.4418 -0.2191  1.3695
  896MPD2    H113133   3.059   2.447   1.842 -0.7092 -0.5471  2.0408
  896MPD2    H213134   3.435   2.678   1.890 -1.9884  1.4230  2.3910
  896MPD2    H313135   3.174   2.668   1.853 -0.1116  1.1573  2.2292
  896MPD2     N13136   3.184   2.212   1.856  0.1393  0.6356 -0.0121
  896MPD2    H513137   3.245   2.134   1.879 -0.5397  1.1079  3.3602
  896MPD2    N113138   3.578   2.477   1.908 -0.1100 -0.0291  0.6591
  896MPD2    H713139   3.615   2.568   1.935  2.8448 -0.6730 -1.2130
  897MPD2     C13140   0.481   3.340  10.448  0.9861  0.2540 -0.0118
  897MPD2    C113141   0.474   3.468  10.391  0.4630 -0.0718 -0.2753
  897MPD2    C213142   0.468   3.577  10.473  0.3430  0.0040  0.6190
  897MPD2    C313143   0.480   3.561  10.608  0.1759 -0.9382  0.5680
  897MPD2    C413144   0.508   3.442  10.663  0.1568 -0.5232 -0.0986
  897MPD2    C513145   0.502   3.332  10.583  0.4138  0.2409  0.1988
  897MPD2     H13146   0.447   3.677  10.437 -0.5558 -0.6465 -0.6557
  897MPD2    H113147   0.521   3.423  10.769  1.2708 -0.7328 -0.2662
  897MPD2    H213148   0.493   3.250  10.389 -0.4103 -0.1031  0.2529
  897MPD2    H313149   0.524   3.234  10.625 -1.0109 -0.6680 -1.2184
  897MPD2     N13150   0.449   3.661  10.705 -0.7013  0.3650 -0.1236
  897MPD2    H513151   0.456   3.649  10.806  0.9310 -1.3292 -0.4514
  897MPD2    N113152   0.458   3.479  10.254 -0.1372 -0.1450  0.2341
  897MPD2    H713153   0.438   3.396  10.199 -0.3531  1.4601 -2.1271
  898MPD2     C13154   2.493   4.434   0.174  0.9478  0.0273 -0.4080
  898MPD2    C113155   2.496   4.568   0.206 -0.5835 -0.0666  0.0472
  898MPD2    C213156   2.402   4.652   0.150  0.8848  0.0184 -0.1295
  898MPD2    C313157   2.303   4.611   0.067 -0.0982  0.1768  0.0731
  898MPD2    C413158   2.312   4.477   0.029  0.3436  0.0534 -0.4850
  898MPD2    C513159   2.412   4.392   0.075  0.7217 -0.0208  0.6247
  898MPD2     H13160   2.397   0.028   0.193 -1.6612 -0.0748 -0.2015
  898MPD2    H113161   2.236   4.437  17.660  0.2849 -0.1247 -0.3117
  898MPD2    H213162   2.574   4.367   0.200  1.4174  1.6989  2.4565
  898MPD2    H313163   2.422   4.293   0.032 -0.2697 -0.7925  2.1725
  898MPD2     N13164   2.197   4.688   0.027  0.5079  0.5384 -0.0074
  898MPD2    H513165   2.117   4.646  17.678  0.5347  0.5157 -0.0330
  898MPD2    N113166   2.593   4.624   0.282 -0.6189  0.1187 -0.4007
  898MPD2    H713167   2.601   4.723   0.300 -0.5250  0.1751 -0.7460
  899MPD2     C13168   3.421   1.122   0.154 -0.4466 -0.1394 -0.4937
  899MPD2    C113169   3.303   1.076   0.102 -0.1855 -0.5166  0.4483
  899MPD2    C213170   3.226   0.999   0.190 -0.0688  0.4121 -0.1101
  899MPD2    C313171   3.272   0.970   0.320 -0.2723  0.3602 -1.3619
  899MPD2    C413172   3.386   1.032   0.370  0.1604 -0.2392 -0.1747
  899MPD2    C513173   3.462   1.107   0.283  0.5666 -0.3016 -0.6458
  899MPD2     H13174   3.126   0.965   0.163 -0.9832  2.9382  0.1159
  899MPD2    H113175   3.409   1.025   0.476 -0.1134  1.0651 -0.0374
  899MPD2    H213176   3.490   1.166   0.082 -0.5134  0.8466  0.0435
  899MPD2    H313177   3.557   1.149   0.315 -0.6991 -0.0132  2.7259
  899MPD2     N13178   3.194   0.893   0.417  0.1522  0.7407 -0.6528
  899MPD2    H513179   3.230   0.895   0.512  1.0190  0.0010 -0.9628
  899MPD2    N113180   3.279   1.096  17.661  0.1417 -0.4068  0.2310
  899MPD2    H713181   3.343   1.156  17.610  0.1846 -2.1995 -1.8587
  900MPD2     C13182   3.206   2.452  12.322  0.3530 -0.6542 -0.5788
  900MPD2    C113183   3.130   2.344  12.307 -0.1452 -0.8511 -0.3065
  900MPD2    C213184   2.999   2.347  12.258 -0.0754 -0.5613  0.7668
  900MPD2    C313185   2.946   2.475  12.216  0.5147 -0.3164  0.4369
  900MPD2    C413186   3.029   2.590  12.241 -0.5147  0.0714 -0.0403
  900MPD2    C513187   3.163   2.578  12.280 -0.3816  0.3271  0.0148
  900MPD2     H13188   2.947   2.256  12.229  2.3204 -1.7532  0.2716
  900MPD2    H113189   2.983   2.688  12.243  1.4051  0.9401  1.5812
  900MPD2    H213190   3.306   2.439  12.362  1.7962 -0.0969 -4.0573
  900MPD2    H313191   3.225   2.665  12.296 -0.9897  0.7182  0.2605
  900MPD2     N13192   2.818   2.474  12.154 -0.0016 -0.9026  0.4157
  900MPD2    H513193   2.781   2.381  12.143 -1.4458 -0.3030  0.2842
  900MPD2    N113194   3.189   2.220  12.347  0.2104  0.0451  0.6007
  900MPD2    H713195   3.282   2.218  12.388 -0.5855 -0.4137  2.3730
  901MPD2     C13196   2.887   1.250  12.721 -0.1503 -0.2260  0.1663
  901MPD2    C113197   3.025   1.229  12.702 -0.2548 -0.0906  0.6130
  901MPD2    C213198   3.107   1.343  12.666 -0.2794 -0.3195 -0.0152
  901MPD2    C313199   3.044   1.467  12.648 -0.2925  0.3280 -0.3206
  901MPD2    C413200   2.912   1.483  12.671 -0.5939  0.1032  0.7352
  901MPD2    C513201   2.836   1.374  12.703 -0.2614  0.1577  0.8759
  901MPD2     H13202   3.213   1.326  12.650 -0.3000  0.0322 -0.5388
  901MPD2    H113203   2.862   1.579  12.664 -1.8757 -0.6466 -0.2947
  901MPD2    H213204   2.830   1.161  12.749  0.8975 -1.1077 -0.5221
  901MPD2    H313205   2.731   1.399  12.706 -0.2481  0.5061 -1.5343
  901MPD2     N13206   3.128   1.576  12.612  0.4541  0.7990  0.8113
  901MPD2    H513207   3.218   1.546  12.574  0.3562 -0.4709  1.5667
  901MPD2    N113208   3.064   1.097  12.717  0.0932  0.2936  0.0088
  901MPD2    H713209   2.995   1.033  12.755 -2.4214  1.0731 -3.1936
  902MPD2     C13210   1.952   0.279  13.157 -0.4765 -0.3649 -0.1062
  902MPD2    C113211   1.923   0.244  13.029  0.5661 -0.5950  0.8535
  902MPD2    C213212   1.997   0.139  12.972 -0.2564  0.0252 -0.9006
  902MPD2    C313213   2.092   0.071  13.046  0.6940  0.9185  0.0963
  902MPD2    C413214   2.110   0.095  13.172  0.1772 -0.2808 -0.7055
  902MPD2    C513215   2.038   0.201  13.233  0.2647 -0.2383  0.7612
  902MPD2     H13216   1.987   0.123  12.866  0.8598  2.4632 -1.3838
  902MPD2    H113217   2.170   0.037  13.242 -1.6712 -0.6778  0.5464
  902MPD2    H213218   1.892   0.353  13.209  0.0120 -1.1804  1.6219
  902MPD2    H313219   2.058   0.223  13.337 -0.3536  0.7864  0.6637
  902MPD2     N13220   2.164   4.688  12.982 -0.0019  0.3938  0.7363
  902MPD2    H513221   2.212   4.620  13.041 -0.1247  1.1643  1.7265
  902MPD2    N113222   1.819   0.309  12.960  0.3931 -0.1344  0.5498
  902MPD2    H713223   1.774   0.384  13.011  1.7974  0.3961  1.0167
  903MPD2     C13224   2.015   0.062  12.492  0.5511  0.4611  0.1868
  903MPD2    C113225   2.035   4.651  12.458  0.1795  0.3752 -0.0121
  903MPD2    C213226   1.935   4.580  12.389  0.3655 -0.2286 -0.7047
  903MPD2    C313227   1.818   4.655  12.341 -0.3640 -0.3951  0.5964
  903MPD2    C413228   1.808   0.066  12.376 -0.5179 -0.5915 -0.2274
  903MPD2    C513229   1.906   0.125  12.447 -0.3157  0.4891  0.3290
  903MPD2     H13230   1.957   4.477  12.360 -2.3791 -0.9439 -0.2711
  903MPD2    H113231   1.725   0.131  12.353  2.2454  2.0130 -2.6822
  903MPD2    H213232   2.086   0.115  12.554  1.3093  0.2997 -0.5437
  903MPD2    H313233   1.893   0.226  12.482  0.8719  1.3448 -1.7239
  903MPD2     N13234   1.716   4.604  12.265  0.2371  0.8086 -0.3249
  903MPD2    H513235   1.631   4.659  12.253  0.3845  0.5694 -2.4275
  903MPD2    N113236   2.155   4.591  12.512  0.4719  0.4642  0.3529
  903MPD2    H713237   2.205   4.651  12.578  0.2623  0.0077  0.9307
  904MPD2     C13238   1.674   3.924  13.869  0.0362 -1.1297 -0.2181
  904MPD2    C113239   1.661   3.829  13.970  0.6259  0.4872  0.5658
  904MPD2    C213240   1.779   3.779  14.023 -0.3482 -0.2960 -0.3096
  904MPD2    C313241   1.906   3.832  13.997  0.2329 -0.5710 -0.0267
  904MPD2    C413242   1.912   3.925  13.902 -0.4577  0.1220 -0.1322
  904MPD2    C513243   1.800   3.968  13.833  0.3745 -0.1136  0.4051
  904MPD2     H13244   1.771   3.706  14.102  0.2349 -0.2443 -0.2059
  904MPD2    H113245   2.007   3.967  13.871 -1.2549  0.6617 -1.8765
  904MPD2    H213246   1.588   3.968  13.820  0.2670  1.8704  2.0860
  904MPD2    H313247   1.801   4.044  13.755 -0.2697 -0.8131 -0.2901
  904MPD2     N13248   2.008   3.781  14.079  1.0282 -0.3346  0.5843
  904MPD2    H513249   1.970   3.745  14.166 -1.0192 -0.9895 -0.5606
  904MPD2    N113250   1.536   3.780  14.028  0.3041 -0.1470 -0.0592
  904MPD2    H713251   1.539   3.705  14.096  2.2073 -0.4540 -0.4751
  905MPD2     C13252   1.299   3.913  13.388 -0.3795  0.5566  0.0271
  905MPD2    C113253   1.360   3.994  13.483  0.0253 -0.1751 -0.5022
  905MPD2    C213254   1.502   4.008  13.483  0.2696  0.2238 -0.1319
  905MPD2    C313255   1.577   3.958  13.380 -0.5496 -1.0986 -0.0581
  905MPD2    C413256   1.516   3.891  13.280 -0.2684  0.0275  0.3572
  905MPD2    C513257   1.380   3.867  13.281 -0.0231 -0.0137 -0.1607
  905MPD2     H13258   1.556   4.056  13.564  2.3603 -0.5011 -1.0999
  905MPD2    H113259   1.564   3.856  13.189 -1.3578 -1.2282  0.2589
  905MPD2    H213260   1.194   3.890  13.397  0.1632 -1.6878  0.5961
  905MPD2    H313261   1.328   3.813  13.201  1.5665 -2.7111  0.6189
  905MPD2     N13262   1.714   3.960  13.375  0.5553  0.3514 -0.0772
  905MPD2    H513263   1.763   3.910  13.301 -0.8217 -1.6379  0.3698
  905MPD2    N113264   1.296   4.040  13.605  0.2906 -0.4519  0.3095
  905MPD2    H713265   1.223   3.975  13.632 -0.5695 -0.7273 -2.6737
  906MPD2     C13266   3.840   3.982  11.614 -0.3626 -0.4087 -0.4732
  906MPD2    C113267   3.817   3.913  11.496 -0.0436  0.7275  0.3619
  906MPD2    C213268   3.747   3.801  11.501  0.1142  0.1785  0.4875
  906MPD2    C313269   3.704   3.746  11.621  0.3869 -0.4545  0.1133
  906MPD2    C413270   3.720   3.820  11.737 -0.0828  0.2028 -0.3113
  906MPD2    C513271   3.783   3.941  11.734  0.6196  0.2844 -0.0534
  906MPD2     H13272   3.725   3.745  11.411 -1.7365 -1.0390  1.7065
  906MPD2    H113273   3.676   3.790  11.831  0.4998 -1.1241 -0.4670
  906MPD2    H213274   3.899   4.073  11.608 -0.5567 -0.2341  0.2643
  906MPD2    H313275   3.799   3.994  11.827 -1.0054 -0.9683  0.9291
  906MPD2     N13276   3.625   3.634  11.611 -0.3610  0.6006  0.6225
  906MPD2    H513277   3.603   3.587  11.524  0.2389 -0.5298  1.0821
  906MPD2    N113278   3.860   3.963  11.371 -0.2116  0.1734 -0.1207
  906MPD2    H713279   3.819   3.919  11.289 -1.8837  0.8475  0.3469
  907MPD2     C13280   2.650   3.143  15.888  0.2303 -0.1870  0.6169
  907MPD2    C113281   2.591   3.019  15.875 -0.1825 -0.2634 -0.3360
  907MPD2    C213282   2.585   2.932  15.988  0.2227  0.4687  0.4386
  907MPD2    C313283   2.658   2.965  16.104 -0.5482  0.5141  0.4524
  907MPD2    C413284   2.720   3.088  16.109  0.9782  0.0469  0.4081
  907MPD2    C513285   2.713   3.178  16.004 -0.1049  0.2788  0.1620
  907MPD2     H13286   2.535   2.836  15.975 -0.1761  0.1947  3.9568
  907MPD2    H113287   2.763   3.116  16.204  2.2586 -1.2118  0.1972
  907MPD2    H213288   2.653   3.221  15.812 -1.6381  0.1051  0.8355
  907MPD2    H313289   2.758   3.276  16.013 -2.6009  1.6632 -2.1514
  907MPD2     N13290   2.669   2.867  16.210  0.2957  0.2494  0.0963
  907MPD2    H513291   2.631   2.775  16.188  2.6273 -0.5007 -0.8695
  907MPD2    N113292   2.514   2.978  15.764 -0.3220 -0.5038 -0.5984
  907MPD2    H713293   2.461   2.892  15.779  1.4801 -1.7592 -1.3424
  908MPD2     C13294   0.597   4.196   9.602 -0.1796 -0.3360 -0.2171
  908MPD2    C113295   0.588   4.054   9.602  0.4051 -0.1494  0.5442
  908MPD2    C213296   0.582   3.992   9.728 -0.1406 -0.2767  0.1609
  908MPD2    C313297   0.586   4.067   9.846  0.6558  0.6433  0.2432
  908MPD2    C413298   0.606   4.199   9.839 -0.7266 -0.0788 -0.0022
  908MPD2    C513299   0.618   4.264   9.719  0.2189 -0.4090  0.4179
  908MPD2     H13300   0.575   3.884   9.734  3.2563 -0.5194 -0.5024
  908MPD2    H113301   0.631   4.247   9.932  0.1288 -3.5778  1.5727
  908MPD2    H213302   0.589   4.255   9.512 -0.4922  1.6840  1.1383
  908MPD2    H313303   0.639   4.371   9.719 -1.9759  0.0280 -1.3159
  908MPD2     N13304   0.567   4.000   9.969 -0.6181  0.2075  0.6448
  908MPD2    H513305   0.539   3.906   9.943  0.2611  0.8056 -2.5158
  908MPD2    N113306   0.579   3.969   9.491  0.5908  0.5165  0.0664
  908MPD2    H713307   0.571   3.870   9.515  3.6120 -0.4394 -2.9034
  909MPD2     C13308   0.334   1.901  11.609 -0.0215  0.3159 -0.1435
  909MPD2    C113309   0.406   2.017  11.600  0.3637 -0.4166 -0.4049
  909MPD2    C213310   0.418   2.091  11.716 -0.4934 -0.8551  0.7396
  909MPD2    C313311   0.364   2.054  11.841 -0.4118 -0.2338  0.2410
  909MPD2    C413312   0.288   1.936  11.843  0.5805 -0.0535 -0.5376
  909MPD2    C513313   0.280   1.859  11.728  0.4061 -0.5160  0.0592
  909MPD2     H13314   0.470   2.185  11.700 -0.7858 -0.7045  0.6629
  909MPD2    H113315   0.250   1.901  11.939  0.2752 -0.7867 -0.9251
  909MPD2    H213316   0.328   1.837  11.522 -0.2619 -1.5165  1.2274
  909MPD2    H313317   0.217   1.771  11.724 -0.4774  0.1199 -0.0949
  909MPD2     N13318   0.364   2.146  11.952  0.5129 -0.4736  0.0816
  909MPD2    H513319   0.415   2.233  11.945  1.5616 -1.1296 -0.4717
  909MPD2    N113320   0.474   2.069  11.480 -0.4207 -0.1808  0.4178
  909MPD2    H713321   0.527   2.156  11.486  2.5026 -1.8886 -1.0369
  910MPD2     C13322   2.499   3.472  15.891  0.7840  0.1196 -1.3879
  910MPD2    C113323   2.384   3.407  15.890 -0.1946 -0.5205  0.0291
  910MPD2    C213324   2.296   3.421  15.780  0.7567  0.0333 -0.1680
  910MPD2    C313325   2.333   3.510  15.682 -0.3325 -0.1554 -0.2008
  910MPD2    C413326   2.451   3.581  15.691 -0.1322  0.3519 -0.3475
  910MPD2    C513327   2.535   3.556  15.790 -0.6019  0.0843 -0.6116
  910MPD2     H13328   2.199   3.372  15.773  1.8780 -2.3420  0.7594
  910MPD2    H113329   2.472   3.654  15.613 -0.3030  2.0086  1.1496
  910MPD2    H213330   2.568   3.453  15.973 -0.1804  3.8134  0.3200
  910MPD2    H313331   2.635   3.599  15.793 -1.4990  2.2125 -1.1746
  910MPD2     N13332   2.256   3.542  15.566  0.1494 -0.4702  0.8614
  910MPD2    H513333   2.301   3.608  15.504 -1.0223 -0.1264  0.3861
  910MPD2    N113334   2.344   3.319  15.990  0.5946  0.4801  0.1286
  910MPD2    H713335   2.253   3.275  15.976  0.1022  0.5234  3.3145
  911MPD2     C13336   0.236   0.157  16.570 -0.0143 -0.4560 -0.1549
  911MPD2    C113337   0.196   0.039  16.520 -0.4790 -0.0458  0.3473
  911MPD2    C213338   0.084   0.023  16.439 -0.1801  0.1077 -0.3608
  911MPD2    C313339   0.007   0.147  16.419  0.2436  0.4956  0.2098
  911MPD2    C413340   0.059   0.273  16.459  0.2858 -0.1956  0.3765
  911MPD2    C513341   0.171   0.274  16.531 -0.3797 -0.5339  0.6502
  911MPD2     H13342   0.048   4.653  16.399 -0.6649  0.9028 -1.8220
  911MPD2    H113343   0.008   0.367  16.439  0.7187  0.3152  1.6705
  911MPD2    H213344   0.318   0.170  16.640  0.4879  0.6162 -0.9471
  911MPD2    H313345   0.212   0.371  16.555 -1.2492 -0.1073  0.3990
  911MPD2     N13346   4.614   0.143  16.339  0.2276  0.3579 -0.1685
  911MPD2    H513347   4.594   0.052  16.298 -0.8575  0.0957  0.9436
  911MPD2    N113348   0.295   4.665  16.548 -0.3315 -0.0655  0.6455
  911MPD2    H713349   0.368   4.686  16.615 -0.9809 -1.7054  1.8575
  912MPD2     C13350   4.252   4.356  15.857  0.7713  0.7713 -0.0963
  912MPD2    C113351   4.265   4.400  15.988 -0.3907  0.0038 -0.2302
  912MPD2    C213352   4.233   4.318  16.099  0.7017 -0.4022 -0.0883
  912MPD2    C313353   4.203   4.183  16.077 -1.1472  0.1335 -0.1676
  912MPD2    C413354   4.210   4.134  15.943 -0.9095  0.3084  0.1829
  912MPD2    C513355   4.228   4.222  15.835  0.0389 -0.0298  0.3560
  912MPD2     H13356   4.216   4.357  16.199  0.4454 -2.3040  0.6241
  912MPD2    H113357   4.177   4.034  15.920 -1.9362  0.5069  0.7868
  912MPD2    H213358   4.280   4.420  15.774 -0.5685  0.3088 -0.8961
  912MPD2    H313359   4.225   4.188  15.732  0.6033  1.6976 -0.2290
  912MPD2     N13360   4.178   4.108  16.191  0.3087 -0.0807  0.4016
  912MPD2    H513361   4.159   4.172  16.268  2.7655  0.4690  0.5611
  912MPD2    N113362   4.292   4.543  15.997 -0.0752 -0.2025 -0.1077
  912MPD2    H713363   4.309   4.595  15.911  1.7427 -0.6456 -0.0128
  913MPD2     C13364   0.020   0.374   9.929  0.0111  0.3669  0.6256
  913MPD2    C113365   0.086   0.479   9.985  0.3156  0.6477  0.4539
  913MPD2    C213366   0.082   0.603   9.913 -0.5758  0.4430 -0.1575
  913MPD2    C313367   0.019   0.619   9.792  0.0410  0.5565  0.4378
  913MPD2    C413368   4.693   0.505   9.736 -0.1495  0.1929  0.7415
  913MPD2    C513369   4.688   0.388   9.804  0.4994 -0.3776 -1.0021
  913MPD2     H13370   0.138   0.691   9.944 -0.9027  0.3928  0.5809
  913MPD2    H113371   4.632   0.517   9.647  0.3544  0.1192  0.3859
  913MPD2    H213372   4.712   0.282   9.977 -0.9574  0.5372  0.3222
  913MPD2    H313373   4.620   0.311   9.768  0.3438 -0.4291 -0.5992
  913MPD2     N13374   0.013   0.735   9.711 -0.6593 -0.0568 -0.3510
  913MPD2    H513375   4.682   0.723   9.626 -2.5262  2.3537  0.5030
  913MPD2    N113376   0.166   0.462  10.100 -0.4220 -0.1990 -0.1183
  913MPD2    H713377   0.170   0.367  10.134  0.9191 -0.2456 -0.4160
  914MPD2     C13378   2.654   0.471  12.257  0.0619  0.1805  0.1183
  914MPD2    C113379   2.666   0.605  12.259 -0.0514 -0.6052  0.3895
  914MPD2    C213380   2.758   0.661  12.350  0.8422  0.2662  0.0884
  914MPD2    C313381   2.829   0.583  12.445 -0.4965 -0.2706  0.4033
  914MPD2    C413382   2.805   0.449  12.441  0.3873  0.0436  0.3698
  914MPD2    C513383   2.716   0.393  12.352 -0.4095 -0.5381 -0.2750
  914MPD2     H13384   2.779   0.767  12.345 -1.2330  0.6570 -0.4959
  914MPD2    H113385   2.850   0.381  12.511  0.2883 -0.5577 -0.1526
  914MPD2    H213386   2.576   0.432  12.192  0.4695 -0.5301  0.0564
  914MPD2    H313387   2.693   0.287  12.356  1.7442 -0.9506  1.1557
  914MPD2     N13388   2.904   0.657  12.532  0.1115  0.3448 -0.2869
  914MPD2    H513389   2.917   0.757  12.520 -1.7060  0.6111 -0.0089
  914MPD2    N113390   2.598   0.675  12.161 -0.0617  0.4382 -0.4034
  914MPD2    H713391   2.564   0.623  12.080 -0.7404 -0.6478  0.5936
  915MPD2     C13392   0.566   0.987  15.543 -0.3276  0.3498  0.5818
  915MPD2    C113393   0.597   1.118  15.506  0.0302  0.7820  0.2032
  915MPD2    C213394   0.616   1.219  15.602 -0.0773  0.5064  0.6516
  915MPD2    C313395   0.598   1.187  15.737 -0.1353  0.0645  0.1863
  915MPD2    C413396   0.581   1.054  15.766 -0.0611  0.2122 -0.0713
  915MPD2    C513397   0.560   0.956  15.674 -0.5363 -0.0040  0.3262
  915MPD2     H13398   0.624   1.317  15.556 -5.0522  1.0227  0.8645
  915MPD2    H113399   0.567   1.023  15.869 -2.5949 -2.5847 -1.2435
  915MPD2    H213400   0.571   0.906  15.472  1.6172  0.4377  0.6111
  915MPD2    H313401   0.536   0.859  15.717 -1.1373  0.0837  0.1794
  915MPD2     N13402   0.621   1.279  15.841  0.6017  0.6118 -0.5625
  915MPD2    H513403   0.633   1.379  15.823 -0.5786  0.9152  0.3190
  915MPD2    N113404   0.601   1.153  15.365 -0.2227  0.3020  0.7150
  915MPD2    H713405   0.607   1.253  15.349 -0.2735 -0.0294 -1.4185
  916MPD2     C13406   4.022   3.928  15.688  0.0179 -0.2886 -0.2903
  916MPD2    C113407   3.947   3.836  15.753 -0.5704 -0.1774 -0.3841
  916MPD2    C213408   3.973   3.705  15.729 -0.0340  0.2472 -0.1962
  916MPD2    C313409   4.082   3.668  15.653  0.1000  0.4519  0.4745
  916MPD2    C413410   4.152   3.763  15.583  1.0298  0.4613  0.7351
  916MPD2    C513411   4.117   3.895  15.599 -0.5046  0.0729  0.7646
  916MPD2     H13412   3.913   3.634  15.785 -0.0081 -0.4623 -1.0748
  916MPD2    H113413   4.232   3.748  15.512 -0.0738  1.0247 -0.6262
  916MPD2    H213414   4.000   4.030  15.716 -3.4071 -1.2963  0.6746
  916MPD2    H313415   4.181   3.969  15.554 -0.1267 -0.2222  0.8235
  916MPD2     N13416   4.103   3.531  15.644  0.2806  0.2093 -0.4943
  916MPD2    H513417   4.049   3.463  15.695  0.0148  0.0883 -0.9358
  916MPD2    N113418   3.851   3.883  15.843 -0.3977 -0.3860  0.3741
  916MPD2    H713419   3.842   3.984  15.845  0.2522 -0.3284  0.2559
  917MPD2     C13420   4.244   1.544  10.945 -0.0400  0.0267  0.6661
  917MPD2    C113421   4.254   1.646  11.032  0.5084 -0.3735 -0.6400
  917MPD2    C213422   4.314   1.767  10.988  0.2678  0.0487 -1.0865
  917MPD2    C313423   4.385   1.771  10.866  0.1754 -0.1391 -0.1529
  917MPD2    C413424   4.380   1.667  10.790  0.9624 -0.0070  0.5887
  917MPD2    C513425   4.315   1.552  10.831  0.4779  0.1598  0.1820
  917MPD2     H13426   4.311   1.858  11.047  0.5933 -0.2003 -0.6846
  917MPD2    H113427   4.431   1.663  10.694 -0.6036 -1.1391 -0.1920
  917MPD2    H213428   4.201   1.450  10.978  0.7766 -0.5248  0.1598
  917MPD2    H313429   4.330   1.461  10.774 -0.9580 -0.6420  1.0731
  917MPD2     N13430   4.443   1.894  10.826 -0.5932 -0.0800  0.4100
  917MPD2    H513431   4.421   1.980  10.874 -2.2221 -0.5980  0.5960
  917MPD2    N113432   4.187   1.632  11.158  0.1805 -0.6658 -0.0151
  917MPD2    H713433   4.135   1.547  11.176 -1.0873 -0.1357 -1.1569
  918MPD2     C13434   4.522   1.644  12.188  0.0642 -0.2230 -0.1334
  918MPD2    C113435   4.539   1.517  12.136  0.5042  0.1398  0.8490
  918MPD2    C213436   4.480   1.489  12.013 -0.9855  0.8489 -0.2819
  918MPD2    C313437   4.417   1.589  11.935  0.2450 -0.0171  0.6451
  918MPD2    C413438   4.420   1.716  11.990 -0.5703  0.3333 -0.0284
  918MPD2    C513439   4.465   1.747  12.118  0.3428 -0.4966  0.5883
  918MPD2     H13440   4.486   1.395  11.958 -2.0124  0.1020  0.8886
  918MPD2    H113441   4.378   1.803  11.941 -0.5455 -0.2897 -1.1771
  918MPD2    H213442   4.574   1.676  12.277 -1.7643  3.4188 -0.3632
  918MPD2    H313443   4.461   1.844  12.165  0.1226  0.8580 -2.2337
  918MPD2     N13444   4.356   1.557  11.815 -0.0745  0.2675  0.6410
  918MPD2    H513445   4.356   1.461  11.783 -3.3953  0.3888  0.2872
  918MPD2    N113446   4.613   1.420  12.193  0.3748  0.5907 -0.0852
  918MPD2    H713447   4.634   1.340  12.135  0.7111  1.3074 -0.9444
  919MPD2     C13448   4.585   0.630  11.342  0.5370  0.3728 -0.6410
  919MPD2    C113449   4.641   0.504  11.320  0.9602 -0.5206 -0.2998
  919MPD2    C213450   4.673   0.464  11.190  0.7852 -0.0707 -0.1708
  919MPD2    C313451   4.631   0.551  11.083 -0.0073 -0.6306  0.0897
  919MPD2    C413452   4.588   0.680  11.108 -0.5732  0.5789  0.8623
  919MPD2    C513453   4.575   0.717  11.237  0.1138 -0.5761  0.0109
  919MPD2     H13454   4.709   0.366  11.158  0.5709 -0.4682  0.8150
  919MPD2    H113455   4.558   0.750  11.031  1.3656 -0.2987 -0.7081
  919MPD2    H213456   4.563   0.671  11.440 -0.1616 -0.0796 -0.6127
  919MPD2    H313457   4.521   0.809  11.256 -1.5635 -1.5432 -0.0398
  919MPD2     N13458   4.637   0.518  10.944 -0.0020 -0.3331 -0.6723
  919MPD2    H513459   4.616   0.591  10.876  0.9954  0.0405 -0.5923
  919MPD2    N113460   4.657   0.424  11.440 -0.3319 -0.1476  0.2165
  919MPD2    H713461   4.606   0.452  11.523  0.2476  1.5076  0.0270
  920MPD2     C13462   4.480   0.872  10.027 -0.0450  0.4641  0.0536
  920MPD2    C113463   4.466   0.734  10.009  0.0096  0.1566  0.1125
  920MPD2    C213464   4.519   0.644  10.105 -0.1238  0.5074  0.5925
  920MPD2    C313465   4.579   0.690  10.218 -0.2984 -0.4223  0.3443
  920MPD2    C413466   4.610   0.822  10.226 -0.1113 -0.3276  0.6487
  920MPD2    C513467   4.561   0.910  10.133 -0.0004 -0.8558  0.4132
  920MPD2     H13468   4.517   0.538  10.082 -0.1001  0.2009  2.0474
  920MPD2    H113469   4.672   0.859  10.306  1.3312 -1.5034  0.0799
  920MPD2    H213470   4.437   0.936   9.952 -0.0854  1.5535  0.9975
  920MPD2    H313471   4.571   1.017  10.146  0.2105 -0.7377 -0.7264
  920MPD2     N13472   4.615   0.590  10.314  0.2328  0.2010 -0.0514
  920MPD2    H513473   4.597   0.493  10.291 -0.6303  0.2736  0.3113
  920MPD2    N113474   4.391   0.672   9.906 -0.2361  0.3400 -1.2082
  920MPD2    H713475   4.363   0.575   9.914  0.2139  0.2452 -0.7303
  921MPD2     C13476   1.060   4.658  17.112 -0.8054  0.0076  1.0419
  921MPD2    C113477   1.103   4.643  16.987 -0.6274  1.2046  0.3383
  921MPD2    C213478   1.011   4.589  16.899  0.3207  0.3424 -0.2398
  921MPD2    C313479   0.876   4.561  16.930 -0.1325  0.8073 -0.5543
  921MPD2    C413480   0.840   4.577  17.061 -0.3794  0.1328 -0.6065
  921MPD2    C513481   0.932   4.633  17.155 -0.2824 -0.0521 -0.0507
  921MPD2     H13482   1.036   4.589  16.793 -0.0342  1.5532 -0.3323
  921MPD2    H113483   0.742   4.555  17.103 -0.1144  1.1382  0.5427
  921MPD2    H213484   1.125   4.699  17.188  1.0603  1.1328 -1.1731
  921MPD2    H313485   0.899   4.642  17.258 -2.7096 -1.4575 -0.6972
  921MPD2     N13486   0.787   4.522  16.825 -0.0518 -0.1850  0.7517
  921MPD2    H513487   0.817   4.511  16.729 -0.2607  0.3893  0.6228
  921MPD2    N113488   1.227   4.703  16.954 -0.1788  0.0299 -0.0319
  921MPD2    H713489   1.281   0.022  17.028 -1.3115  0.5142  0.5235
  922MPD2     C13490   1.280   2.106  17.127 -0.3597  0.3117  0.0242
  922MPD2    C113491   1.372   2.129  17.231  0.3318 -0.1606 -0.7131
  922MPD2    C213492   1.323   2.121  17.361  0.3846  0.6511 -0.2630
  922MPD2    C313493   1.189   2.093  17.386 -0.5386  0.1444 -0.1972
  922MPD2    C413494   1.097   2.087  17.282 -0.2424 -1.3808  0.3552
  922MPD2    C513495   1.144   2.095  17.153  0.2482 -0.5032 -0.3149
  922MPD2     H13496   1.396   2.127  17.441 -1.6582 -0.6603  1.6878
  922MPD2    H113497   0.990   2.081  17.299 -0.6023  2.2835 -0.6611
  922MPD2    H213498   1.293   2.124  17.021 -0.5995  2.5957  0.3860
  922MPD2    H313499   1.074   2.105  17.071  1.0816 -0.4487 -1.0178
  922MPD2     N13500   1.128   2.092  17.515  0.7553  0.1295  0.4541
  922MPD2    H513501   1.027   2.087  17.521  0.6902  1.3967  0.5117
  922MPD2    N113502   1.512   2.144  17.209 -0.2329  1.0030  0.2400
  922MPD2    H713503   1.563   2.155  17.296 -1.3623 -1.8341  1.2684
  923MPD2     C13504   3.372   3.956   8.867  0.0938  0.4217 -0.0410
  923MPD2    C113505   3.284   3.983   8.966 -0.0092  0.0156  0.9368
  923MPD2    C213506   3.336   3.971   9.095 -0.2556  0.5752 -0.3165
  923MPD2    C313507   3.469   3.938   9.114  0.0332  1.0755 -0.0595
  923MPD2    C413508   3.553   3.916   9.008 -0.0572 -0.0071  0.0838
  923MPD2    C513509   3.503   3.918   8.880  0.0037  0.8232 -0.3051
  923MPD2     H13510   3.271   3.971   9.182  1.1444 -0.4173  0.7136
  923MPD2    H113511   3.654   3.879   9.013 -0.2655 -0.5750  0.1843
  923MPD2    H213512   3.331   3.965   8.767 -2.9995  0.4501  1.2605
  923MPD2    H313513   3.566   3.909   8.793  0.4824 -3.2462  0.4522
  923MPD2     N13514   3.520   3.929   9.243 -0.1889 -0.8579 -0.3467
  923MPD2    H513515   3.620   3.915   9.252 -0.4603 -1.5122  1.6456
  923MPD2    N113516   3.145   4.003   8.939 -0.7711  0.3382 -0.2489
  923MPD2    H713517   3.125   4.009   8.840 -0.1069 -0.2003 -0.4139
  924MPD2     C13518   2.556   2.054  16.059 -0.3333 -0.6083  0.5086
  924MPD2    C113519   2.587   2.052  16.190  0.2811  0.1215  0.2236
  924MPD2    C213520   2.663   2.157  16.248 -0.3885  0.1589 -1.5817
  924MPD2    C313521   2.702   2.264  16.177  0.5199 -0.0553 -0.9907
  924MPD2    C413522   2.677   2.267  16.039 -0.2370 -0.0434 -0.3567
  924MPD2    C513523   2.608   2.159  15.983 -0.5546 -0.1386  0.3693
  924MPD2     H13524   2.695   2.139  16.350 -3.2394 -0.9255 -0.8717
  924MPD2    H113525   2.698   2.354  15.978 -0.6690  0.6120  0.4262
  924MPD2    H213526   2.500   1.980  16.004 -1.6275  1.8332 -1.4926
  924MPD2    H313527   2.582   2.168  15.879 -1.8017  1.6841  0.8362
  924MPD2     N13528   2.761   2.383  16.227 -1.0454 -0.8973  0.7305
  924MPD2    H513529   2.798   2.448  16.158  1.7128 -0.7363  2.3494
  924MPD2    N113530   2.523   1.948  16.265  0.2896 -0.0193  0.2884
  924MPD2    H713531   2.449   1.902  16.213  0.4870  0.3484 -0.3228
  925MPD2     C13532   1.417   0.428  14.971  0.0383  0.3618 -0.2117
  925MPD2    C113533   1.384   0.304  14.917 -0.2771 -0.4984  0.0371
  925MPD2    C213534   1.315   0.217  14.993 -1.1145  0.2421 -0.0750
  925MPD2    C313535   1.279   0.245  15.120  0.0501 -0.6720 -0.0311
  925MPD2    C413536   1.320   0.358  15.178  0.3440 -0.3574  0.2645
  925MPD2    C513537   1.389   0.456  15.105 -0.1974  0.2903 -0.4412
  925MPD2     H13538   1.284   0.122  14.949  2.4761 -0.4919 -0.9610
  925MPD2    H113539   1.305   0.371  15.284 -1.3132  2.0349 -0.2668
  925MPD2    H213540   1.462   0.510  14.917 -0.8696  0.7045 -0.4440
  925MPD2    H313541   1.419   0.548  15.154  0.8262 -0.6888  0.7392
  925MPD2     N13542   1.224   0.159  15.221  0.4204 -0.0486  0.4404
  925MPD2    H513543   1.202   0.196  15.313  1.4024  0.5579  0.4305
  925MPD2    N113544   1.426   0.267  14.782 -0.4692 -0.4083 -0.6023
  925MPD2    H713545   1.389   0.180  14.745 -0.5397 -0.7852  0.3652
  926MPD2     C13546   0.221   3.254  13.479  0.0338 -0.3338 -0.1745
  926MPD2    C113547   0.180   3.381  13.452 -0.2811  0.2668 -0.3266
  926MPD2    C213548   0.228   3.461  13.345  0.0650 -0.1162  0.5921
  926MPD2    C313549   0.315   3.406  13.249  0.2782 -0.2744  0.4566
  926MPD2    C413550   0.356   3.276  13.278 -0.8032  0.1878  0.0118
  926MPD2    C513551   0.320   3.204  13.392 -0.3699  1.1545  0.7150
  926MPD2     H13552   0.205   3.567  13.350  1.5984  0.2689 -0.5191
  926MPD2    H113553   0.428   3.240  13.205 -0.3101  1.2414 -0.0249
  926MPD2    H213554   0.174   3.191  13.554 -1.0006 -0.9057 -1.3060
  926MPD2    H313555   0.381   3.116  13.412  0.4922  1.1549 -1.8661
  926MPD2     N13556   0.366   3.472  13.131  0.3112 -0.2439 -0.4925
  926MPD2    H513557   0.419   3.410  13.070  0.8303 -0.4890  0.2044
  926MPD2    N113558   0.095   3.447  13.545 -0.2231  0.8944 -0.3213
  926MPD2    H713559   0.067   3.541  13.518 -0.1388  1.2628  0.9051
  927MPD2     C13560   4.309   0.899  17.397 -0.1551  0.3803  0.1322
  927MPD2    C113561   4.434   0.892  17.460 -0.2473  1.3247 -0.0916
  927MPD2    C213562   4.549   0.919  17.389 -0.2520  0.9601  0.4110
  927MPD2    C313563   4.552   0.941  17.250 -0.0657  0.4789 -0.3079
  927MPD2    C413564   4.433   0.942  17.184  0.0629  0.4054 -0.0291
  927MPD2    C513565   4.310   0.913  17.258  0.4489  0.2204 -0.6197
  927MPD2     H13566   4.646   0.925  17.438  0.0861  0.3875 -0.1826
  927MPD2    H113567   4.420   0.947  17.076 -3.0030  0.9776  0.3788
  927MPD2    H213568   4.213   0.895  17.447 -0.6111 -0.4549 -0.8363
  927MPD2    H313569   4.215   0.918  17.206  0.1538  0.0009 -0.0884
  927MPD2     N13570   4.679   0.946  17.192  0.3020 -0.4322 -0.6267
  927MPD2    H513571   0.036   0.911  17.243 -0.1825 -0.2617  0.2573
  927MPD2    N113572   4.432   0.871  17.601 -0.1126  0.5385  0.7013
  927MPD2    H713573   4.336   0.863  17.633  0.2846 -1.8022  1.3413
  928MPD2     C13574   2.634   4.236   1.173 -0.1055  0.0651 -0.5618
  928MPD2    C113575   2.761   4.252   1.213 -0.1611  0.1483  0.1316
  928MPD2    C213576   2.856   4.293   1.122 -0.0398  0.3752 -0.3706
  928MPD2    C313577   2.819   4.317   0.990 -0.4484 -0.2743 -0.2099
  928MPD2    C413578   2.687   4.289   0.946 -0.1397  0.3970  0.0769
  928MPD2    C513579   2.599   4.247   1.042 -0.5096 -0.0811  1.0660
  928MPD2     H13580   2.959   4.306   1.155 -0.4257  0.4584  0.7907
  928MPD2    H113581   2.647   4.310   0.847 -0.3161  2.1636  0.5132
  928MPD2    H213582   2.566   4.196   1.248  0.0110 -1.9828 -1.5285
  928MPD2    H313583   2.495   4.230   1.017 -1.1760  1.5105  2.7171
  928MPD2     N13584   2.907   4.360   0.886 -0.4385  0.0454  0.3098
  928MPD2    H513585   2.869   4.362   0.792  1.3345 -0.6760 -0.4272
  928MPD2    N113586   2.795   4.220   1.352  0.6109  0.0049 -0.2127
  928MPD2    H713587   2.715   4.212   1.413  0.0074  0.8981 -0.8876
  929MPD2     C13588   3.153   3.936   9.771  0.0794 -0.2694 -0.1863
  929MPD2    C113589   3.041   3.863   9.804 -0.2773 -1.0472  0.4642
  929MPD2    C213590   2.962   3.806   9.709 -0.3843 -0.2322 -0.1692
  929MPD2    C313591   2.981   3.846   9.576 -0.7860 -0.0071  0.1199
  929MPD2    C413592   3.070   3.939   9.542 -0.1433 -0.2009 -0.4685
  929MPD2    C513593   3.160   3.974   9.639 -0.0878 -0.8046 -0.5628
  929MPD2     H13594   2.896   3.723   9.731 -0.4229  0.6152  2.9377
  929MPD2    H113595   3.082   3.988   9.446  0.2479  0.7422  0.0506
  929MPD2    H213596   3.213   3.977   9.851  0.4522 -0.2425 -0.4787
  929MPD2    H313597   3.233   4.053   9.622 -1.9000  1.0188  0.1412
  929MPD2     N13598   2.897   3.793   9.474 -0.5353 -0.3064 -0.4453
  929MPD2    H513599   2.931   3.809   9.380  0.1530  1.8086  0.1701
  929MPD2    N113600   3.015   3.838   9.940 -0.1379 -0.5962 -0.5462
  929MPD2    H713601   3.065   3.898  10.005 -0.5824 -0.0746 -0.6795
  930MPD2     C13602   4.504   1.680  13.645 -0.0367  0.6416  0.0573
  930MPD2    C113603   4.604   1.736  13.577 -0.2378 -0.2771  0.0923
  930MPD2    C213604   4.632   1.691  13.452  0.6182 -0.3704 -1.4215
  930MPD2    C313605   4.553   1.594  13.394  0.9204 -0.0883  0.1140
  930MPD2    C413606   4.442   1.547  13.452 -0.2993 -0.2889  0.0535
  930MPD2    C513607   4.415   1.594  13.582 -0.5494 -0.2492  0.1704
  930MPD2     H13608   0.000   1.722  13.403  0.8029 -0.0479 -0.8766
  930MPD2    H113609   4.368   1.486  13.403 -1.4038  0.7648  0.4192
  930MPD2    H213610   4.485   1.694  13.751  0.7452  0.0292  0.2822
  930MPD2    H313611   4.331   1.545  13.630  0.4991 -1.0384  1.1998
  930MPD2     N13612   4.573   1.539  13.267  0.5496  0.1689  0.2949
  930MPD2    H513613   4.533   1.448  13.251 -0.4514  0.8203 -0.9398
  930MPD2    N113614   4.703   1.818  13.631  0.0238  1.4204 -0.1610
  930MPD2    H713615   0.055   1.836  13.565 -0.3396 -0.1248 -1.0135
  931MPD2     C13616   0.263   1.048   0.382  1.0027 -0.6157  0.0650
  931MPD2    C113617   0.160   1.011   0.465 -0.7815  0.8221 -0.1569
  931MPD2    C213618   0.165   1.024   0.600 -0.0221  0.3401 -0.1783
  931MPD2    C313619   0.281   1.072   0.655  0.8993  0.1825  0.3964
  931MPD2    C413620   0.392   1.098   0.582 -0.1169  0.3696  1.1226
  931MPD2    C513621   0.376   1.091   0.438 -0.4641 -0.7024 -0.4362
  931MPD2     H13622   0.092   0.979   0.667 -0.2673  0.6479 -0.2371
  931MPD2    H113623   0.487   1.117   0.630  0.4456 -0.4771  0.3450
  931MPD2    H213624   0.252   1.037   0.274 -0.3273 -2.8125  0.4350
  931MPD2    H313625   0.454   1.107   0.364  0.6863 -0.7967  0.7670
  931MPD2     N13626   0.300   1.073   0.795 -0.2048 -0.5394  0.4848
  931MPD2    H513627   0.393   1.100   0.828 -0.4994  1.0147  0.0542
  931MPD2    N113628   0.046   0.961   0.399 -0.1739 -0.0319 -0.5203
  931MPD2    H713629   0.039   0.985   0.300 -0.0149 -0.8080 -0.7193
  932MPD2     C13630   1.685   4.191  11.348 -0.1722  0.4520 -0.4730
  932MPD2    C113631   1.738   4.258  11.452 -0.4077 -0.0215  0.1081
  932MPD2    C213632   1.704   4.217  11.579 -0.3402 -0.6939 -0.0613
  932MPD2    C313633   1.636   4.097  11.597  0.7856  0.3153  0.3776
  932MPD2    C413634   1.577   4.036  11.490  0.7292  0.8223  0.1114
  932MPD2    C513635   1.605   4.082  11.370  0.8379  0.1562  0.1254
  932MPD2     H13636   1.748   4.266  11.665 -1.1327 -1.6868  0.9145
  932MPD2    H113637   1.523   3.945  11.509  2.2301  0.2912  1.8412
  932MPD2    H213638   1.716   4.214  11.247  0.3100 -1.0646 -0.6707
  932MPD2    H313639   1.579   4.028  11.280 -0.0667  0.3539  0.2636
  932MPD2     N13640   1.610   4.035  11.720 -0.2077  0.2837 -0.3031
  932MPD2    H513641   1.539   3.962  11.721 -0.6558  0.7168 -0.2123
  932MPD2    N113642   1.820   4.371  11.439  0.0525  0.1725 -0.1725
  932MPD2    H713643   1.860   4.417  11.521 -2.5504  0.5282  0.8814
  933MPD2     C13644   2.427   4.280   1.820 -0.1122 -0.4298  0.0443
  933MPD2    C113645   2.542   4.328   1.876 -0.1864 -0.0878  0.5811
  933MPD2    C213646   2.540   4.380   2.007  0.2450 -1.1081 -0.3740
  933MPD2    C313647   2.412   4.411   2.062 -0.0138 -0.4610  0.4496
  933MPD2    C413648   2.297   4.377   2.001  0.7080 -0.2675  0.4379
  933MPD2    C513649   2.303   4.311   1.879  0.1084  0.7334 -0.2986
  933MPD2     H13650   2.636   4.407   2.050  0.0783 -1.0093 -0.0647
  933MPD2    H113651   2.204   4.398   2.054  2.0065 -0.7491  2.8978
  933MPD2    H213652   2.417   4.220   1.730 -2.6153  1.7753 -1.1527
  933MPD2    H313653   2.209   4.277   1.836  1.5188 -0.6244 -2.3223
  933MPD2     N13654   2.424   4.485   2.180 -0.1183  0.2461  0.0553
  933MPD2    H513655   2.517   4.514   2.211  0.6672 -3.6456  1.3182
  933MPD2    N113656   2.658   4.301   1.799  0.4174 -0.1153 -0.4101
  933MPD2    H713657   2.640   4.258   1.708  0.9249 -1.0808 -0.0604
  934MPD2     C13658   3.832   2.094   2.007 -0.6749  0.0969  0.1904
  934MPD2    C113659   3.934   2.027   1.945 -0.1796  0.9269 -0.5872
  934MPD2    C213660   3.898   1.921   1.857  0.6902 -0.4626  0.3212
  934MPD2    C313661   3.768   1.869   1.854 -0.3684 -0.7183  0.0227
  934MPD2    C413662   3.672   1.936   1.927 -0.5725 -0.2844  1.0538
  934MPD2    C513663   3.708   2.057   1.992  0.2183 -0.1138  0.5787
  934MPD2     H13664   3.973   1.881   1.791 -0.5283 -1.6126 -0.3494
  934MPD2    H113665   3.570   1.900   1.928 -0.5676 -0.3143  0.5224
  934MPD2    H213666   3.843   2.196   2.042  0.7961  0.6287 -1.7590
  934MPD2    H313667   3.625   2.106   2.041 -1.3321 -2.2563  0.1022
  934MPD2     N13668   3.726   1.747   1.789  0.7818 -0.3771  0.2503
  934MPD2    H513669   3.627   1.724   1.790  0.5715  0.4348 -1.1481
  934MPD2    N113670   4.071   2.076   1.941 -0.6629  0.1573 -0.5448
  934MPD2    H713671   4.142   2.016   1.898  0.0676  0.0701  0.7660
  935MPD2     C13672   4.203   0.966   1.269  0.4454  0.4621  0.3319
  935MPD2    C113673   4.066   0.947   1.269  0.0023  0.2643  0.7911
  935MPD2    C213674   3.989   1.040   1.317 -0.3620 -0.5407  0.2735
  935MPD2    C313675   4.040   1.164   1.364 -0.3442 -0.4542 -0.7596
  935MPD2    C413676   4.177   1.190   1.352  0.7493 -0.2931  0.2831
  935MPD2    C513677   4.256   1.092   1.308 -0.4518 -0.5750  0.3356
  935MPD2     H13678   3.883   1.018   1.309 -0.6198  1.0590 -0.5640
  935MPD2    H113679   4.227   1.277   1.392 -0.2635  0.7421 -0.6704
  935MPD2    H213680   4.277   0.892   1.241  0.6180  0.8493 -0.2220
  935MPD2    H313681   4.362   1.108   1.299 -0.8760  0.8046 -2.3519
  935MPD2     N13682   3.961   1.265   1.432  0.2197 -0.1224  0.3112
  935MPD2    H513683   4.007   1.356   1.442  1.0318 -0.5272  0.2574
  935MPD2    N113684   3.998   0.836   1.216  0.0143  0.1274 -0.1594
  935MPD2    H713685   3.898   0.834   1.232 -0.0177  0.0923 -0.3666
  936MPD2     C13686   2.333   3.940  12.453  0.1255  0.3406  0.6589
  936MPD2    C113687   2.397   3.850  12.530 -0.7127 -0.0607 -0.6225
  936MPD2    C213688   2.485   3.892  12.621  0.3277  0.1276 -0.6336
  936MPD2    C313689   2.515   4.029  12.637  0.3442  0.1492  0.0848
  936MPD2    C413690   2.465   4.122  12.549  0.7612 -0.1285  0.5412
  936MPD2    C513691   2.368   4.070  12.460 -0.6453  0.4323 -0.4707
  936MPD2     H13692   2.518   3.820  12.695  0.5044 -1.0250 -1.8354
  936MPD2    H113693   2.482   4.229  12.540  0.0490 -0.0118  0.6048
  936MPD2    H213694   2.260   3.918  12.376  2.0425  2.8637 -1.8881
  936MPD2    H313695   2.333   4.142  12.387 -1.6973  1.1403  0.7397
  936MPD2     N13696   2.610   4.068  12.736  0.6094  0.2821  0.5191
  936MPD2    H513697   2.641   3.993  12.798 -0.0296 -0.2445  0.2099
  936MPD2    N113698   2.383   3.709  12.518  0.3110  0.2693 -0.2633
  936MPD2    H713699   2.432   3.652  12.587 -0.2385 -1.2369 -1.1063
  937MPD2     C13700   0.145   4.336  11.510 -0.6861  0.3600 -0.3165
  937MPD2    C113701   0.189   4.463  11.480 -0.1919  0.3573  0.3072
  937MPD2    C213702   0.309   4.478  11.412 -0.1012 -0.4823 -0.0085
  937MPD2    C313703   0.367   4.361  11.353  0.5104  0.3885 -0.0382
  937MPD2    C413704   0.301   4.241  11.359 -0.6186  0.6117  0.6088
  937MPD2    C513705   0.193   4.231  11.435 -0.1175 -0.3732  1.1797
  937MPD2     H13706   0.347   4.575  11.381 -0.0745  0.1126  1.9082
  937MPD2    H113707   0.328   4.150  11.307 -1.2075  2.0224 -2.1459
  937MPD2    H213708   0.056   4.308  11.565 -1.8404 -1.1111 -2.9417
  937MPD2    H313709   0.147   4.133  11.442 -1.9844  0.3092 -1.4434
  937MPD2     N13710   0.479   4.371  11.273  0.3837  0.6888 -0.4338
  937MPD2    H513711   0.509   4.282  11.233  1.8422  0.3127  1.5478
  937MPD2    N113712   0.143   4.581  11.551 -0.6862  0.7721 -0.2620
  937MPD2    H713713   0.202   4.664  11.546  2.0706 -1.0768  1.2113
  938MPD2     C13714   2.826   1.240   0.784 -0.1750  0.6772 -0.0492
  938MPD2    C113715   2.920   1.238   0.891  0.0225 -0.5910 -0.5258
  938MPD2    C213716   2.884   1.233   1.022 -0.4137 -0.4287 -0.0296
  938MPD2    C313717   2.754   1.232   1.063  0.2817 -0.0685  0.6227
  938MPD2    C413718   2.657   1.237   0.965 -0.6167  0.4170 -0.4408
  938MPD2    C513719   2.694   1.245   0.831 -0.2455  0.0818  0.3757
  938MPD2     H13720   2.970   1.218   1.087 -0.1092  0.0277 -0.3315
  938MPD2    H113721   2.552   1.253   0.987 -0.0570  0.2868  2.3290
  938MPD2    H213722   2.857   1.262   0.683  0.4832  1.0650  0.2360
  938MPD2    H313723   2.619   1.247   0.752 -1.0496  1.2238  1.1681
  938MPD2     N13724   2.710   1.229   1.201 -0.1831 -0.3716  0.0421
  938MPD2    H513725   2.610   1.223   1.216  0.1375  1.1155  2.7541
  938MPD2    N113726   3.058   1.245   0.867 -0.3856  0.0413  0.7186
  938MPD2    H713727   3.119   1.265   0.945  1.9572  1.8673 -1.5751
  939MPD2     C13728   3.880   2.119   1.192 -0.4870 -0.1323 -0.2272
  939MPD2    C113729   3.921   2.251   1.195  0.1651 -0.2460 -0.1386
  939MPD2    C213730   4.018   2.293   1.107  0.7267  0.2429 -0.3314
  939MPD2    C313731   4.058   2.214   1.002 -0.1345 -0.1362  0.3866
  939MPD2    C413732   4.017   2.080   0.998 -0.1692 -0.1308 -0.2679
  939MPD2    C513733   3.933   2.035   1.093 -0.2158  0.1662 -0.0782
  939MPD2     H13734   4.061   2.393   1.112  1.6015 -0.0964 -1.0117
  939MPD2    H113735   4.034   2.013   0.915  0.8208  0.9280 -0.9177
  939MPD2    H213736   3.825   2.070   1.271  0.0128 -0.7090 -0.2385
  939MPD2    H313737   3.911   1.929   1.095 -0.0918  0.1492  0.4432
  939MPD2     N13738   4.147   2.273   0.912  0.7853 -0.5098 -0.2883
  939MPD2    H513739   4.158   2.374   0.918  0.6010 -0.6871  3.4622
  939MPD2    N113740   3.879   2.327   1.307 -0.6100  0.9000 -0.7675
  939MPD2    H713741   3.798   2.288   1.354 -0.4980  2.0772  0.3941
  940MPD2     C13742   2.326   3.232  13.121 -0.3408  0.4159 -0.7775
  940MPD2    C113743   2.435   3.199  13.198  0.4457 -0.2905 -0.2980
  940MPD2    C213744   2.547   3.146  13.141 -0.2637 -0.5645 -0.2083
  940MPD2    C313745   2.550   3.115  13.005 -0.7548  0.1608  0.4558
  940MPD2    C413746   2.439   3.147  12.928 -0.6782  0.7631 -0.2415
  940MPD2    C513747   2.330   3.190  12.992  0.4087 -0.1233 -0.1740
  940MPD2     H13748   2.628   3.132  13.211 -1.5035 -1.8451  0.9809
  940MPD2    H113749   2.436   3.116  12.825 -1.2691  1.1006 -0.3257
  940MPD2    H213750   2.234   3.268  13.166  0.2552 -1.7325  2.1097
  940MPD2    H313751   2.237   3.217  12.943  0.4265 -1.3426 -0.8703
  940MPD2     N13752   2.661   3.058  12.945 -0.4888 -0.4407  0.8459
  940MPD2    H513753   2.651   3.046  12.845  0.7393  1.5998  0.4888
  940MPD2    N113754   2.448   3.213  13.340 -0.1217  0.5186 -0.5011
  940MPD2    H713755   2.527   3.168  13.386 -1.0677  0.0669  0.7029
  941MPD2     C13756   2.373   2.460  10.672  0.3276  0.3262 -0.0951
  941MPD2    C113757   2.504   2.416  10.693 -0.3740 -0.4068 -0.1217
  941MPD2    C213758   2.525   2.305  10.770 -0.7292  0.2409 -0.1476
  941MPD2    C313759   2.416   2.226  10.811 -0.0098  0.3844 -0.4184
  941MPD2    C413760   2.289   2.270  10.789  0.0030  0.0485 -0.1036
  941MPD2    C513761   2.268   2.385  10.719 -0.0174  0.3639  0.2266
  941MPD2     H13762   2.629   2.278  10.786 -0.4988  0.7065 -0.8891
  941MPD2    H113763   2.201   2.207  10.801  0.0507  0.1994  1.0613
  941MPD2    H213764   2.344   2.542  10.607  1.8295 -0.0848 -1.2823
  941MPD2    H313765   2.167   2.418  10.697 -0.3232 -1.7999 -1.6717
  941MPD2     N13766   2.432   2.094  10.875  0.2039 -0.1886  0.1000
  941MPD2    H513767   2.348   2.058  10.919 -0.5776  1.8092  0.2794
  941MPD2    N113768   2.618   2.489  10.661 -0.3411 -0.3097 -0.2269
  941MPD2    H713769   2.711   2.454  10.685 -1.6322 -2.3636  1.8187
  942MPD2     C13770   2.368   4.444   8.747  0.7375 -0.1885 -0.1097
  942MPD2    C113771   2.325   4.399   8.866 -0.2700 -0.2409 -0.0447
  942MPD2    C213772   2.357   4.266   8.913 -0.0997 -0.3470 -0.1727
  942MPD2    C313773   2.424   4.177   8.826 -0.2198 -0.8690 -1.2657
  942MPD2    C413774   2.474   4.229   8.713 -0.0289  0.3810 -0.6962
  942MPD2    C513775   2.440   4.356   8.672 -0.1977 -0.3916 -0.2225
  942MPD2     H13776   2.315   4.232   9.007  0.4821 -1.2741 -0.2494
  942MPD2    H113777   2.536   4.171   8.647  0.7129  0.9738 -0.5167
  942MPD2    H213778   2.349   4.547   8.716  1.2329 -0.1428 -0.2559
  942MPD2    H313779   2.475   4.400   8.579  0.3705  0.4266  0.3764
  942MPD2     N13780   2.463   4.052   8.876  0.5718 -0.0927 -0.2528
  942MPD2    H513781   2.532   3.996   8.828 -1.0206 -1.3060 -1.1340
  942MPD2    N113782   2.254   4.474   8.961  0.1768 -0.5269 -0.4033
  942MPD2    H713783   2.223   4.429   9.046  0.0591  2.6004  1.2372
  943MPD2     C13784   0.714   2.553   9.718  0.4811 -0.5806 -0.3041
  943MPD2    C113785   0.701   2.411   9.726 -0.2848 -0.7886  0.1232
  943MPD2    C213786   0.785   2.343   9.814 -0.5853  0.6568  0.5917
  943MPD2    C313787   0.874   2.399   9.895 -0.1341  0.8062 -0.4339
  943MPD2    C413788   0.888   2.538   9.885  0.3227 -0.6201 -1.0386
  943MPD2    C513789   0.808   2.616   9.798 -0.3107  0.1551 -0.0856
  943MPD2     H13790   0.776   2.238   9.838  0.7322  1.0497  2.8208
  943MPD2    H113791   0.939   2.597   9.960  1.1231 -0.7526 -1.4722
  943MPD2    H213792   0.644   2.610   9.658 -2.0653  1.5489  4.7554
  943MPD2    H313793   0.810   2.724   9.799  2.0294  0.0886  1.4554
  943MPD2     N13794   0.950   2.314   9.982 -0.0268  0.4188 -0.5153
  943MPD2    H513795   0.944   2.213   9.975  1.6160  0.3434 -0.9209
  943MPD2    N113796   0.603   2.341   9.650 -0.3690  0.6303 -0.5647
  943MPD2    H713797   0.575   2.388   9.564  0.0544  1.0545 -0.4727
  944MPD2     C13798   0.467   1.038  10.817 -0.3919 -0.0479 -0.6108
  944MPD2    C113799   0.567   0.960  10.870  0.8864 -0.4443  0.3743
  944MPD2    C213800   0.619   1.000  10.996  0.3991 -0.6415  0.2335
  944MPD2    C313801   0.571   1.109  11.066 -0.5522  0.4841 -0.2200
  944MPD2    C413802   0.473   1.184  11.001  0.6557 -0.7403  0.6328
  944MPD2    C513803   0.422   1.150  10.881  0.5393  0.3653 -0.8854
  944MPD2     H13804   0.700   0.945  11.043  0.9403 -0.9655 -1.0895
  944MPD2    H113805   0.428   1.264  11.058 -1.0337 -1.4108  0.2247
  944MPD2    H213806   0.408   1.005  10.732 -0.2601  0.4944 -0.9148
  944MPD2    H313807   0.345   1.215  10.841  0.5408 -0.3137 -1.9957
  944MPD2     N13808   0.616   1.123  11.200 -0.2661  0.2373 -0.5728
  944MPD2    H513809   0.676   1.047  11.232  0.5902  0.2269 -2.1825
  944MPD2    N113810   0.613   0.850  10.784  0.1210  0.4762 -0.1609
  944MPD2    H713811   0.568   0.851  10.693 -1.9118  0.1932  0.8379
    1TCq1    O113812   4.114   2.012  14.233  0.0837 -0.0416  0.8521
    1TCq1    C113813   4.204   1.926  14.289 -0.0014  0.0565 -0.2390
    1TCq1    O213814   4.252   1.835  14.224 -0.5248 -0.4901 -0.5556
    1TCq1    C213815   4.183   1.907  14.427 -0.0931 -0.1882 -0.0119
    1TCq1    C313816   4.199   1.782  14.478  0.1121  0.1095  0.3271
    1TCq1    C413817   4.177   1.765  14.616 -0.9669 -0.2296  0.3681
    1TCq1    C513818   4.157   1.874  14.693 -0.1186  0.0380 -0.1926
    1TCq1    C613819   4.149   2.002  14.639 -0.5879 -0.1737 -0.3065
    1TCq1    C713820   4.157   2.021  14.501  0.5639  0.3030 -0.3132
    1TCq1    C813821   4.096   2.105  14.721  0.3638 -0.4858  0.4282
    1TCq1    O413822   4.120   2.094  14.841 -0.6426  0.1220 -0.2123
    1TCq1    C913823   4.177   1.637  14.683 -0.0918  0.7911  0.5742
    1TCq1    O513824   4.212   1.542  14.610 -0.3431 -0.2556  0.0544
    1TCq1    O613825   4.108   1.634  14.786  0.2007 -0.2504 -0.3397
    1TCq1    H113826   4.067   2.063  14.302 -0.9343  1.2263 -0.7694
    1TCq1    H213827   4.222   1.689  14.427 -1.2178 -0.1935  0.2627
    1TCq1    H313828   4.137   1.865  14.799  2.5882 -0.9813  0.2180
    1TCq1    H413829   4.156   2.117  14.449 -2.8004  0.5534  0.2223
    2MPD2     C13830   3.850   2.544  14.802 -0.5186  0.7559  0.0867
    2MPD2    C113831   3.850   2.523  14.662  0.2408 -0.2648  0.1272
    2MPD2    C213832   3.914   2.408  14.617  0.3826  0.2121 -0.6055
    2MPD2    C313833   3.968   2.312  14.702 -0.3652  0.7283  0.2791
    2MPD2    C413834   3.958   2.340  14.845 -0.5167  0.5113 -0.7009
    2MPD2    C513835   3.890   2.452  14.891 -0.2950 -0.1928 -0.4866
    2MPD2     H13836   3.931   2.401  14.510 -2.0604  0.9248 -1.0332
    2MPD2    H113837   4.000   2.280  14.925 -0.4342  2.1821  0.5022
    2MPD2    H213838   3.801   2.636  14.833  0.1917  1.5408 -1.1127
    2MPD2    H313839   3.888   2.472  14.997  0.4227 -1.4476 -0.2347
    2MPD2     N13840   4.033   2.202  14.649  0.0645 -0.6725 -0.0007
    2MPD2    H513841   4.026   2.179  14.551  0.1472 -3.1779  0.5800
    2MPD2    N113842   3.827   2.633  14.575 -0.5773 -0.0310 -0.0352
    2MPD2    H713843   3.787   2.719  14.612  1.5514  1.3075 -0.8604
    3TMC2    C113844   3.803   2.758  14.384 -0.6153  0.5798 -0.5290
    3TMC2    C213845   3.822   2.876  14.455  0.1595  0.5431  0.3979
    3TMC2    C313846   3.826   2.995  14.392  0.2945  0.2134  0.9821
    3TMC2    C413847   3.789   2.758  14.246 -0.1279  0.0813  0.1201
    3TMC2    C513848   3.772   2.884  14.196 -0.4474 -0.0791 -0.1125
    3TMC2    C613849   3.793   3.002  14.257 -0.4614  0.2440  0.2012
    3TMC2     C13850   3.829   2.627  14.439  0.3279 -0.1534 -0.1930
    3TMC2     O13851   3.846   2.535  14.361  0.0335  0.5054 -0.0176
    3TMC2     H13852   3.876   2.872  14.550  0.8507 -2.9290 -0.1421
    3TMC2    H113853   3.759   2.673  14.187  0.2316  0.5886 -0.7977
    3TMC2    H213854   3.823   3.091  14.204 -1.3023  0.4506  0.0719
    3TMC2    C713855   3.781   2.888  14.049 -0.3304  0.1899 -0.1741
    3TMC2    C813856   3.897   3.110  14.451 -0.3799  0.1974 -0.0458
    3TMC2    O113857   3.828   2.792  13.989 -0.1240  0.2749 -0.8417
    3TMC2    O213858   3.861   3.227  14.434  0.2650  0.2523 -0.6463
    3TMC2    O513859   4.027   3.074  14.448 -0.0489  0.5754  0.2682
    3TMC2    H513860   4.042   2.978  14.464  0.1285  0.1608 -2.3038
    4MPD2     C13861   2.669   3.934  13.725 -0.4367  0.6927  0.1256
    4MPD2    C113862   2.732   3.970  13.609  0.2969  0.3357  0.2536
    4MPD2    C213863   2.856   3.925  13.585 -0.3288 -0.1612 -0.6671
    4MPD2    C313864   2.912   3.826  13.662  0.1424 -1.2622 -0.4243
    4MPD2    C413865   2.853   3.796  13.781 -0.4407 -0.2057  0.1077
    4MPD2    C513866   2.734   3.846  13.811  0.7876 -0.4185 -1.0704
    4MPD2     H13867   2.919   3.961  13.505  1.9184 -2.2896  0.1374
    4MPD2    H113868   2.905   3.734  13.854 -1.5028  0.6802  1.6171
    4MPD2    H213869   2.568   3.966  13.748 -1.1258 -1.2545 -0.2193
    4MPD2    H313870   2.680   3.811  13.898  1.5083  2.0329  0.3902
    4MPD2     N13871   3.029   3.765  13.626 -0.0075 -0.3046 -0.4568
    4MPD2    H513872   3.056   3.775  13.529  0.6423  0.4253 -0.1974
    4MPD2    N113873   2.667   4.062  13.530 -0.4211 -0.4904 -0.1071
    4MPD2    H713874   2.588   4.108  13.574  0.7490  0.1542  1.2878
    5TCq2    C113875   3.105   3.675  13.706 -0.0739  0.5245  0.5316
    5TCq2    O213876   3.104   3.657  13.827  0.3490  0.1401 -0.2149
    5TCq2    C213877   3.188   3.588  13.625 -0.1509 -0.0056 -0.5382
    5TCq2    C313878   3.177   3.584  13.485 -0.2268 -0.2394 -0.6953
    5TCq2    C413879   3.275   3.505  13.429  0.1924 -0.8906 -0.0410
    5TCq2    C513880   3.371   3.441  13.497  0.1768  0.2131 -0.0617
    5TCq2    C613881   3.367   3.438  13.633 -0.4350 -0.3348 -1.1804
    5TCq2    C713882   3.282   3.520  13.698  0.4487  1.1947 -0.0463
    5TCq2    C813883   3.457   3.355  13.711 -0.7276 -0.1882  0.2705
    5TCq2    O413884   3.461   3.373  13.831 -0.4632  0.3955 -0.5558
    5TCq2    C913885   3.295   3.504  13.287  0.7062 -0.4125  0.2090
    5TCq2    O513886   3.412   3.528  13.240 -0.1431  0.0863 -0.2915
    5TCq2    O613887   3.188   3.500  13.220 -0.3624  0.1598  0.1064
    5TCq2    H213888   3.099   3.633  13.428  0.9354  3.0127  0.5060
    5TCq2    H313889   3.436   3.374  13.442  0.0833  2.8428 -3.3435
    5TCq2    H413890   3.282   3.539  13.805 -2.9971 -0.1134  0.1847
    6MPD1     C13891   1.670   0.913  13.481 -1.0752 -0.0669  1.0593
    6MPD1    C113892   1.788   0.904  13.411  0.1287 -0.1819  0.5741
    6MPD1    C213893   1.869   0.795  13.428 -0.4112  0.4883 -0.4885
    6MPD1    C313894   1.825   0.693  13.516 -0.8224 -0.5160 -0.6411
    6MPD1    C413895   1.701   0.700  13.578 -0.1005 -0.4705 -0.5064
    6MPD1    C513896   1.621   0.805  13.549 -0.2042  0.1790 -0.1328
    6MPD1     H13897   1.953   0.781  13.362 -1.4404 -1.9300 -1.2832
    6MPD1    H113898   1.666   0.620  13.642 -0.9748  0.5280  0.2647
    6MPD1    H213899   1.605   0.999  13.468  0.0310  0.8427  1.5250
    6MPD1    H313900   1.518   0.816  13.580 -0.9260 -1.1277 -2.0986
    6MPD1     N13901   1.901   0.576  13.543 -0.1016 -0.2222 -0.4791
    6MPD1    H513902   1.864   0.513  13.613 -0.5641 -1.1468 -1.5585
    6MPD1    N113903   1.834   1.007  13.325 -0.5263  0.8056 -0.1352
    6MPD1    H613904   1.877   0.968  13.240 -0.3226 -1.4900  1.0070
    6MPD1    H713905   1.757   1.063  13.290  0.3078  1.4497 -0.9734
    7MPD2     C13906   1.883   4.603  13.407 -0.6788 -0.2271 -0.1952
    7MPD2    C113907   2.014   4.605  13.462  0.1699 -0.0164  0.2718
    7MPD2    C213908   2.102   4.511  13.420 -0.1732  0.5151  0.1218
    7MPD2    C313909   2.065   4.415  13.336 -0.2793  0.8309 -0.1945
    7MPD2    C413910   1.943   4.420  13.281  0.1897 -0.3115 -0.1279
    7MPD2    C513911   1.846   4.501  13.324  0.0538 -0.3066 -0.3126
    7MPD2     H13912   2.203   4.526  13.455 -1.0437  2.2209  1.9268
    7MPD2    H113913   1.912   4.337  13.219  0.5293 -0.4775 -0.0746
    7MPD2    H213914   1.810   4.677  13.439 -1.2224 -1.1265  0.6594
    7MPD2    H313915   1.749   4.499  13.275  0.7206  1.6853 -1.7395
    7MPD2     N13916   2.157   4.318  13.298 -0.3672  0.4656  0.2100
    7MPD2    H513917   2.123   4.259  13.222 -0.3622 -1.3084  1.5909
    7MPD2    N113918   2.061   4.708  13.555  0.2317  0.2440  0.2319
    7MPD2    H713919   2.158   4.687  13.577  0.0965  0.9656  1.5064
    8TMC3    C113920   2.375   4.207  13.301 -0.6193 -0.5223  0.3717
    8TMC3    C213921   2.471   4.181  13.391 -0.6912  0.2199 -0.8485
    8TMC3    C313922   2.599   4.184  13.341 -0.6206 -0.5571 -0.2301
    8TMC3    C413923   2.397   4.250  13.167  0.0981  0.6319  0.7025
    8TMC3    C513924   2.525   4.276  13.131 -0.3481 -0.2732 -0.7408
    8TMC3    C613925   2.628   4.246  13.219 -0.3396  0.9106 -0.3745
    8TMC3     C13926   2.269   4.278  13.372  0.6188 -0.2267 -0.5872
    8TMC3     O13927   2.301   4.312  13.488 -0.2157 -0.8664  0.2280
    8TMC3     H13928   2.443   4.124  13.480  0.3282  0.6276 -0.2700
    8TMC3    H113929   2.317   4.280  13.100  1.0100 -1.0198 -1.1426
    8TMC3    H213930   2.732   4.271  13.206  0.9950 -4.5015 -0.0175
    8TMC3    C713931   2.531   4.403  13.062  0.5796  0.4029  0.8502
    8TMC3    C813932   2.704   4.111  13.410  0.6819 -0.0693  0.3854
    8TMC3    O113933   2.477   4.411  12.952 -0.1195  0.3434  0.2384
    8TMC3    O213934   2.801   4.084  13.342  0.1707 -0.0963  0.1159
    9TMC3    C113935   2.093   0.443  13.568  0.0099  0.9670 -0.2711
    9TMC3    C213936   2.232   0.441  13.537  0.6177  0.6668  0.6325
    9TMC3    C313937   2.285   0.312  13.518 -0.4432  0.6621 -0.0584
    9TMC3    C413938   2.028   0.326  13.605  0.8497  0.4253  0.0969
    9TMC3    C513939   2.091   0.210  13.611 -0.5417  0.4090  0.3011
    9TMC3    C613940   2.218   0.198  13.555 -0.0061  0.3856  0.0471
    9TMC3     C13941   2.030   0.555  13.504 -0.3354  0.3136 -0.4659
    9TMC3     O13942   2.098   0.620  13.422  0.5523 -0.0227  0.3734
    9TMC3     H13943   2.281   0.534  13.509  1.4306 -1.1423 -4.0294
    9TMC3    H113944   1.926   0.335  13.642  0.5850  2.1058 -0.9945
    9TMC3    H213945   2.266   0.100  13.548  2.2307  1.4023  1.2501
    9TMC3    C713946   1.993   0.102  13.583 -0.3458  0.1263  0.3389
    9TMC3    C813947   2.383   0.302  13.407  0.6130  0.2718  0.0378
    9TMC3    O113948   1.877   0.127  13.570 -0.5917  0.8809 -0.1107
    9TMC3    O213949   2.385   0.400  13.335  0.1039 -0.2377  0.2773
   10MPD2     C13950   2.506   4.694  13.020 -0.2217 -0.5072  0.1674
   10MPD2    C113951   2.525   4.638  13.148 -0.2407  0.0258 -0.0983
   10MPD2    C213952   2.503   4.709  13.262 -0.1557 -0.5197  0.6495
   10MPD2    C313953   2.460   0.118  13.264 -0.3795  0.4088  0.6475
   10MPD2    C413954   2.444   0.179  13.142 -0.0231 -0.1488  0.3692
   10MPD2    C513955   2.473   0.108  13.024  0.3233 -0.2305  0.1024
   10MPD2     H13956   2.517   4.664  13.359 -0.3733  0.6368  1.2286
   10MPD2    H113957   2.402   0.278  13.138 -1.3956 -0.6671  1.9183
   10MPD2    H213958   2.532   4.653  12.923  2.9780  2.0399 -0.0730
   10MPD2    H313959   2.462   0.155  12.927  2.5949  1.0651  0.4541
   10MPD2     N13960   2.404   0.175  13.384 -0.2269 -0.1348  0.3772
   10MPD2    H513961   2.399   0.106  13.458  1.0500  0.4508  1.0023
   10MPD2    N113962   2.558   4.501  13.159 -0.0602 -0.2405 -0.8100
   10MPD2    H713963   2.579   4.468  13.252 -0.8771  1.6051  0.0229
   11MPD2     C13964   3.754   2.948  13.759  0.0591 -0.6432 -0.3958
   11MPD2    C113965   3.687   3.015  13.858  0.4949  0.1215 -0.2385
   11MPD2    C213966   3.598   3.117  13.821 -0.7127 -0.2980 -0.3768
   11MPD2    C313967   3.580   3.140  13.687  0.6803  0.3012 -0.6124
   11MPD2    C413968   3.624   3.053  13.593  0.8977  0.6126 -0.2151
   11MPD2    C513969   3.721   2.965  13.628  0.2460  0.0985 -0.0795
   11MPD2     H13970   3.543   3.168  13.900 -0.3980  1.1699 -1.1068
   11MPD2    H113971   3.586   3.050  13.492 -0.8011 -3.9434  0.5543
   11MPD2    H213972   3.839   2.885  13.782 -0.1509 -1.3930 -1.6398
   11MPD2    H313973   3.763   2.903  13.549  3.4618  0.8894  1.0207
   11MPD2     N13974   3.514   3.252  13.637  0.1547  0.3212 -0.2199
   11MPD2    H513975   3.488   3.244  13.539  0.0248 -0.2162 -0.1395
   11MPD2    N113976   3.712   2.996  14.000 -0.9787  0.0134 -0.1278
   11MPD2    H713977   3.650   3.045  14.063 -0.2680 -0.0191  0.5954
    1MPD1     C13978   1.720   0.386  17.384 -0.4480 -0.3854  0.0183
    1MPD1    C113979   1.728   0.261  17.317  0.1688  0.8126  0.9172
    1MPD1    C213980   1.841   0.225  17.248  0.4479  0.0331  0.1762
    1MPD1    C313981   1.953   0.313  17.264  0.7334 -0.5330 -0.1900
    1MPD1    C413982   1.945   0.429  17.336 -0.2809  0.4443  0.4940
    1MPD1    C513983   1.825   0.471  17.389  0.2716 -0.0951  0.1028
    1MPD1     H13984   1.850   0.136  17.187  1.6726 -2.1875  3.6195
    1MPD1    H113985   2.032   0.490  17.355 -0.1677  0.8675 -1.4041
    1MPD1    H213986   1.627   0.418  17.429 -1.2050 -0.8843 -1.1832
    1MPD1    H313987   1.818   0.568  17.438  2.5184 -0.6847  1.6116
    1MPD1     N13988   2.082   0.272  17.221  0.1186  0.5730 -0.2634
    1MPD1    H513989   2.144   0.352  17.208  2.6127 -1.4089 -0.6091
    1MPD1    N113990   1.610   0.192  17.295 -0.0870 -0.3630  0.2460
    1MPD1    H613991   1.626   0.092  17.296 -0.6278 -0.4485  0.4267
    1MPD1    H713992   1.547   0.215  17.371  1.5979  2.5438  0.7829
    2MPD1     C13993   2.813   0.629  16.653 -0.2162  0.1381  0.2308
    2MPD1    C113994   2.858   0.496  16.661  0.2483  0.2072 -1.0595
    2MPD1    C213995   2.773   0.404  16.729 -0.1610  0.1994 -0.3359
    2MPD1    C313996   2.653   0.442  16.786 -0.0602 -0.2077 -1.0434
    2MPD1    C413997   2.613   0.573  16.771  0.1201  0.3111 -1.1463
    2MPD1    C513998   2.696   0.660  16.710 -0.0170  0.1466  0.3727
    2MPD1     H13999   2.815   0.305  16.743 -0.6229 -0.0475 -0.7184
    2MPD1    H114000   2.526   0.611  16.825  0.2452 -0.4310 -0.4311
    2MPD1    H214001   2.872   0.708  16.608  0.8036 -0.8536 -0.1678
    2MPD1    H314002   2.678   0.766  16.698 -2.7279 -0.3603  0.0860
    2MPD1     N14003   2.576   0.346  16.861  0.2929 -0.3651 -0.3178
    2MPD1    H514004   2.599   0.248  16.847  2.3591 -0.1077  1.3695
    2MPD1    N114005   2.984   0.462  16.614  0.3879  0.3340 -0.1049
    2MPD1    H614006   3.003   0.514  16.529  0.3292 -1.7149 -1.3710
    2MPD1    H714007   2.983   0.361  16.600 -1.0855  0.4191 -0.5905
    3TMC3    C114008   2.402   0.249  16.983 -0.4967 -0.8368  0.1871
    3TMC3    C214009   2.417   0.138  16.903 -0.1421 -0.6041 -0.4820
    3TMC3    C314010   2.347   0.024  16.934  0.3253  0.3223  0.2065
    3TMC3    C414011   2.308   0.251  17.085  0.2575 -0.3911 -0.0028
    3TMC3    C514012   2.253   0.137  17.122  0.1488  0.3709 -0.5969
    3TMC3    C614013   2.262   0.025  17.043  0.1629 -0.0141 -0.0809
    3TMC3     C14014   2.465   0.373  16.937  0.0913 -0.2099 -0.5462
    3TMC3     O14015   2.402   0.475  16.971  0.1442 -0.8203  0.0939
    3TMC3     H14016   2.481   0.146  16.816  0.4370  0.7708  0.0802
    3TMC3    H114017   2.313   0.325  17.164 -2.0932 -0.2229 -0.0189
    3TMC3    H214018   2.211   4.657  17.067 -1.3255  0.7833 -0.2079
    3TMC3    C714019   2.124   0.142  17.189 -0.5360 -0.0722 -0.4859
    3TMC3    C814020   2.335   4.638  16.842  0.0289  0.7739 -0.4105
    3TMC3    O114021   2.063   0.040  17.208 -0.1457 -0.4900  0.2198
    3TMC3    O214022   2.302   4.531  16.892  0.3973 -0.0652 -0.3411
    4MPD1     C14023   2.413   4.391  16.402 -0.8123 -0.1396  0.0117
    4MPD1    C114024   2.435   4.522  16.374 -0.0703  0.3516 -0.0807
    4MPD1    C214025   2.415   4.607  16.484 -0.0009 -0.0864  0.2682
    4MPD1    C314026   2.379   4.566  16.610 -0.1938  0.3064  0.7601
    4MPD1    C414027   2.358   4.433  16.629  0.0605  0.5902 -0.2078
    4MPD1    C514028   2.372   4.349  16.524 -0.0903 -0.2832 -0.5948
    4MPD1     H14029   2.452   4.708  16.477  0.5583 -0.3307 -0.2669
    4MPD1    H114030   2.330   4.397  16.728  1.2299  2.5554  0.8224
    4MPD1    H214031   2.442   4.315  16.330 -1.1335 -0.6767  0.4499
    4MPD1    H314032   2.351   4.243  16.534  1.4566 -0.5081  0.3536
    4MPD1     N14033   2.358   4.666  16.709  0.1926  0.1992  0.4782
    4MPD1    H514034   2.361   0.040  16.683  2.1816  0.0162  0.0288
    4MPD1    N114035   2.503   4.561  16.254 -0.7030 -0.0791  0.5313
    4MPD1    H614036   2.456   4.501  16.186 -2.4246  0.9844  0.7597
    4MPD1    H714037   2.481   4.656  16.225 -0.4300 -0.2026 -0.0772
    1TCq1    O114038   1.958   3.583  11.444 -0.1205 -0.0738 -0.2727
    1TCq1    C114039   1.912   3.711  11.452  0.3389 -0.3473  0.1909
    1TCq1    O214040   1.874   3.772  11.357  0.2501 -0.0875 -0.6686
    1TCq1    C214041   1.999   3.770  11.555 -0.4602  0.2848 -0.0775
    1TCq1    C314042   2.013   3.714  11.680 -0.2571  0.5716 -0.1954
    1TCq1    C414043   2.081   3.786  11.770  0.0008  1.0229 -0.0935
    1TCq1    C514044   2.086   3.922  11.752  0.6155  0.1852  0.5412
    1TCq1    C614045   2.077   3.975  11.627  0.1082  0.9126  0.3274
    1TCq1    C714046   2.031   3.894  11.531  0.0534 -0.9959  0.3193
    1TCq1    C814047   2.080   4.119  11.607 -0.2248 -0.6751 -0.5296
    1TCq1    O414048   2.133   4.153  11.503 -0.0503 -0.1593  0.1320
    1TCq1    C914049   2.096   3.741  11.908  0.5247 -0.6517 -0.3404
    1TCq1    O514050   2.158   3.800  12.001 -0.4128  0.1328  0.3437
    1TCq1    O614051   2.015   3.657  11.938 -0.0485 -0.7166  0.0879
    1TCq1    H114052   1.999   3.553  11.527 -0.3493  2.1235  0.6388
    1TCq1    H214053   2.001   3.611  11.710  1.6820 -0.2416 -2.1921
    1TCq1    H314054   2.122   3.979  11.836 -0.1310  0.4017  0.7151
    1TCq1    H414055   2.008   3.944  11.438 -0.3679 -1.7607  0.0138
    2MPD1     C14056   2.052   4.605  11.777  0.3227  0.7591 -0.7921
    2MPD1    C114057   1.973   4.526  11.856 -0.2407  0.1105  0.4247
    2MPD1    C214058   1.957   4.390  11.824  0.4334  0.2544 -0.3857
    2MPD1    C314059   2.028   4.338  11.718  0.2207 -0.6777  0.2625
    2MPD1    C414060   2.104   4.417  11.632 -0.0041  0.3421  0.2061
    2MPD1    C514061   2.123   4.547  11.673 -0.0859  0.7143  0.6216
    2MPD1     H14062   1.896   4.328  11.889 -2.0559  1.3975 -1.6284
    2MPD1    H114063   2.170   4.385  11.552 -0.5091 -0.8374  0.2709
    2MPD1    H214064   2.058   4.711  11.798  0.9480  0.7809 -1.0731
    2MPD1    H314065   2.203   4.608  11.632  0.3065  0.3495  0.8355
    2MPD1     N14066   2.019   4.193  11.709 -0.0426 -0.4219  0.2260
    2MPD1    H514067   1.971   4.134  11.777 -2.1285 -0.1258 -0.9825
    2MPD1    N114068   1.886   4.591  11.946  0.2360  0.2912  0.4463
    2MPD1    H614069   1.920   4.680  11.980  1.0223 -0.7707  2.4733
    2MPD1    H714070   1.879   4.533  12.030 -1.9754  0.3293  0.2907
    1TCq1    O114071   0.539   1.640   0.594 -0.1307  1.0134  0.3512
    1TCq1    C114072   0.437   1.543   0.581 -0.6636  0.1130  0.2813
    1TCq1    O214073   0.451   1.459   0.495  0.0032 -0.3077  0.3856
    1TCq1    C214074   0.420   1.514   0.721  0.1408  0.2706  0.8177
    1TCq1    C314075   0.387   1.623   0.795 -0.6175  0.0566  0.2201
    1TCq1    C414076   0.383   1.608   0.930  0.2950 -0.4343 -0.0384
    1TCq1    C514077   0.430   1.492   0.992  0.1197 -0.9141  0.3452
    1TCq1    C614078   0.461   1.388   0.905 -0.7088 -0.7405 -0.4131
    1TCq1    C714079   0.466   1.398   0.770 -0.2960  0.2985  0.1426
    1TCq1    C814080   0.528   1.272   0.973  0.3973  0.9587  0.1273
    1TCq1    O414081   0.565   1.178   0.904  0.1300  0.8690 -0.0253
    1TCq1    C914082   0.373   1.724   1.012 -0.5864  0.2316  0.3321
    1TCq1    O514083   0.355   1.710   1.133 -0.9997 -0.4459 -0.0093
    1TCq1    O614084   0.375   1.836   0.954 -0.0205  0.2961  0.0760
    1TCq1    H114085   0.536   1.692   0.677 -0.5403 -0.6263  1.3592
    1TCq1    H214086   0.339   1.701   0.735  1.2538  1.3629  0.4094
    1TCq1    H314087   0.461   1.502   1.096  1.5787 -1.5271 -0.0292
    1TCq1    H414088   0.499   1.325   0.696 -1.3492 -0.7220  0.6938
    2MPD1     C14089   0.710   1.028   1.380  0.1686  0.1973  0.2883
    2MPD1    C114090   0.597   1.101   1.418 -0.0178  0.0792 -0.0549
    2MPD1    C214091   0.523   1.170   1.320  0.1383 -0.1518 -0.1223
    2MPD1    C314092   0.570   1.173   1.190  0.5795  1.0143 -0.0392
    2MPD1    C414093   0.681   1.101   1.156  0.3522 -0.5762 -0.2953
    2MPD1    C514094   0.737   1.017   1.244  0.0890 -1.6197 -0.4463
    2MPD1     H14095   0.444   1.238   1.351  0.6577  0.8954 -1.1254
    2MPD1    H114096   0.738   1.110   1.064 -0.1948  1.4171 -0.4297
    2MPD1    H214097   0.782   0.978   1.445 -1.2790 -0.2381  1.5829
    2MPD1    H314098   0.817   0.957   1.203  2.3623 -0.1829  1.9100
    2MPD1     N14099   0.510   1.272   1.103 -1.0603  0.1137  0.3310
    2MPD1    H514100   0.449   1.344   1.142 -2.1201 -1.3816  1.4330
    2MPD1    N114101   0.587   1.138   1.550  0.2565 -0.9192  0.6725
    2MPD1    H614102   0.494   1.131   1.591  0.2250  0.8606  0.8830
    2MPD1    H714103   0.647   1.073   1.601  0.9364 -0.1774  0.8088
    1MPD1     C14104   3.301   4.343  11.232  0.1989  0.9474  0.0730
    1MPD1    C114105   3.300   4.433  11.332  0.6952  0.5055  0.3657
    1MPD1    C214106   3.316   4.568  11.298  0.1275  0.1698  0.5607
    1MPD1    C314107   3.336   4.620  11.171 -0.1192  0.3490  0.3019
    1MPD1    C414108   3.350   4.520  11.077 -0.1747 -0.5861  0.9367
    1MPD1    C514109   3.321   4.388  11.104  0.2300  0.2438 -0.0770
    1MPD1     H14110   3.295   4.648  11.369  0.1873  0.9506 -0.3012
    1MPD1    H114111   3.354   4.553  10.974  0.7705 -3.8345 -0.0622
    1MPD1    H214112   3.276   4.240  11.257 -1.9961  1.4994  0.1699
    1MPD1    H314113   3.319   4.320  11.019  2.1977  1.2929 -0.9459
    1MPD1     N14114   3.355   0.029  11.143 -0.5151 -0.1189 -0.7371
    1MPD1    H514115   3.362   0.091  11.223 -2.1979  0.6483 -1.1834
    1MPD1    N114116   3.262   4.392  11.464  0.2152 -0.0809  0.2889
    1MPD1    H614117   3.303   4.447  11.539 -0.2248  2.1922 -1.1276
    1MPD1    H714118   3.276   4.294  11.486 -0.6034 -0.6359 -1.6464
    2MPD1     C14119   3.270   4.253  11.921 -0.0664  0.0584  0.5480
    2MPD1    C114120   3.248   4.176  11.813 -0.5787 -0.0322 -0.2724
    2MPD1    C214121   3.333   4.172  11.710  0.4468  0.1791  0.4856
    2MPD1    C314122   3.456   4.241  11.709 -0.0866  0.3430  0.5496
    2MPD1    C414123   3.480   4.317  11.825  0.4868 -0.0772  0.0349
    2MPD1    C514124   3.384   4.329  11.924 -0.0180  0.2912 -0.5192
    2MPD1     H14125   3.304   4.121  11.620  1.2644  1.3534 -0.4588
    2MPD1    H114126   3.571   4.373  11.846 -0.2846  0.5587  1.6998
    2MPD1    H214127   3.189   4.270  11.991 -1.4283 -0.0172 -0.9979
    2MPD1    H314128   3.389   4.404  12.002  0.4193 -2.7845  2.4035
    2MPD1     N14129   3.555   4.253  11.607  0.7016 -0.3418  0.1682
    2MPD1    H514130   3.628   4.319  11.631 -0.1082  1.0112 -1.0510
    2MPD1    N114131   3.119   4.111  11.795  0.5437 -0.6578 -0.0374
    2MPD1    H614132   3.124   4.031  11.732 -1.9085  0.2588 -1.3677
    2MPD1    H714133   3.090   4.076  11.886  0.6124 -0.9036 -0.1101
    3MPD1     C14134   3.466   4.033  10.600  0.0356  0.2033  0.2029
    3MPD1    C114135   3.399   3.981  10.706  0.2273 -0.6398 -0.2121
    3MPD1    C214136   3.443   4.019  10.836 -0.1278 -0.3260  0.7022
    3MPD1    C314137   3.549   4.095  10.859 -0.4564 -0.8015 -0.1340
    3MPD1    C414138   3.609   4.155  10.753 -0.5301 -0.2952  0.0440
    3MPD1    C514139   3.559   4.124  10.629  0.5221 -0.0068  0.1938
    3MPD1     H14140   3.390   3.974  10.919 -2.6636 -0.8611 -1.2051
    3MPD1    H114141   3.685   4.232  10.763 -1.9753  0.6686  3.8648
    3MPD1    H214142   3.457   4.007  10.495  2.2825 -0.5858  0.2120
    3MPD1    H314143   3.616   4.165  10.546 -0.0644 -0.1487 -0.2746
    3MPD1     N14144   3.591   4.118  10.991 -0.6094 -0.3335 -0.0359
    3MPD1    H514145   3.562   4.053  11.064 -2.7269  0.5302 -0.1411
    3MPD1    N114146   3.283   3.908  10.686  0.3107  0.8791 -0.3715
    3MPD1    H614147   3.287   3.860  10.597 -0.5877 -0.3967  0.2793
    3MPD1    H714148   3.266   3.836  10.755 -1.1093  0.0353 -1.6247
    4MPD2     C14149   3.867   0.290  10.694 -0.5364  0.8641  0.3598
    4MPD2    C114150   3.850   0.361  10.813 -0.6401  0.3611  0.3380
    4MPD2    C214151   3.957   0.401  10.895 -0.1755 -1.2256 -0.2263
    4MPD2    C314152   4.083   0.356  10.857  0.3997 -0.3610 -0.6204
    4MPD2    C414153   4.103   0.276  10.743  0.4292  0.0937  0.3528
    4MPD2    C514154   3.993   0.255  10.662  0.1368 -0.3791 -0.1070
    4MPD2     H14155   3.946   0.453  10.990 -4.2403  0.4042 -1.5750
    4MPD2    H114156   4.201   0.239  10.714 -1.0997 -2.9458 -0.8696
    4MPD2    H214157   3.797   0.291  10.610  0.6164  1.2847 -0.5990
    4MPD2    H314158   4.019   0.199  10.572  0.2830 -0.0991 -0.2386
    4MPD2     N14159   4.186   0.384  10.946 -0.2127 -0.2128 -0.0371
    4MPD2    H514160   4.157   0.435  11.028 -1.8715 -0.9466 -0.1539
    4MPD2    N114161   3.723   0.396  10.855 -0.2437  0.0576 -0.6255
    4MPD2    H714162   3.714   0.416  10.954 -0.8028  0.9618 -0.8669
    5TMC3    C114163   3.488   0.394  10.867 -0.0016 -0.2972 -0.0067
    5TMC3    C214164   3.430   0.270  10.881  0.5273  0.2160  0.1171
    5TMC3    C314165   3.407   0.224  11.007  0.0544 -0.4059  0.4574
    5TMC3    C414166   3.521   0.466  10.978  0.8398  0.3286  0.1342
    5TMC3    C514167   3.502   0.413  11.105  0.3156 -0.5676 -0.2578
    5TMC3    C614168   3.451   0.282  11.122  0.3146  0.2181 -0.7716
    5TMC3     C14169   3.609   0.355  10.791  0.1960  0.1315  1.0719
    5TMC3     O14170   3.592   0.296  10.685  0.0281  0.1283 -0.2982
    5TMC3     H14171   3.393   0.228  10.788 -1.4401  1.5692  0.3067
    5TMC3    H114172   3.551   0.567  10.952 -3.8531  1.2095 -1.8069
    5TMC3    H214173   3.471   0.232  11.216  0.8643 -1.5519 -1.8417
    5TMC3    C714174   3.621   0.450  11.179 -0.4966  0.3794 -0.1481
    5TMC3    C814175   3.353   0.085  11.017  0.3235 -0.1038 -1.0576
    5TMC3    O114176   3.713   0.499  11.115  0.6042  0.1412  0.2443
    5TMC3    O214177   3.335   0.030  10.910  0.2605  0.4396 -0.2358
    6TMC3    C114178   3.638   4.235  11.391 -0.2739 -0.3428  0.0937
    6TMC3    C214179   3.610   4.209  11.262  0.0937  0.3701  0.1362
    6TMC3    C314180   3.695   4.253  11.166  0.6326  0.1406  0.2559
    6TMC3    C414181   3.751   4.306  11.420 -0.4480  0.6543  0.2465
    6TMC3    C514182   3.825   4.363  11.324 -0.7161 -0.1208 -0.8055
    6TMC3    C614183   3.801   4.341  11.194  0.5882  0.0892 -0.2132
    6TMC3     C14184   3.539   4.191  11.487 -0.0361  0.2641 -0.2113
    6TMC3     O14185   3.456   4.108  11.454 -0.0411 -0.1083 -0.0318
    6TMC3     H14186   3.525   4.148  11.233 -1.3377  2.1642  0.5409
    6TMC3    H114187   3.788   4.309  11.522  1.6864  0.2929 -0.5254
    6TMC3    H214188   3.872   4.378  11.121  1.0319 -0.4473 -0.0536
    6TMC3    C714189   3.915   4.462  11.363 -0.9179 -0.0766  0.4918
    6TMC3    C814190   3.674   4.223  11.024 -0.4680 -0.3508 -0.6314
    6TMC3    O114191   3.924   4.559  11.292  0.1165 -0.2866  0.2692
    6TMC3    O214192   3.712   4.320  10.960  0.0957  0.1070 -0.1648
    7MPD2     C14193   3.929   0.404  11.586 -0.9835  0.6875 -0.8639
    7MPD2    C114194   3.953   0.447  11.459  0.5513  0.4868 -0.4788
    7MPD2    C214195   3.848   0.461  11.371 -0.0233 -0.0882 -0.0565
    7MPD2    C314196   3.722   0.426  11.409  0.3119 -0.3411  0.2502
    7MPD2    C414197   3.696   0.389  11.535  0.2367 -0.1044 -0.3573
    7MPD2    C514198   3.795   0.374  11.622  0.5540  0.4897 -0.2236
    7MPD2     H14199   3.859   0.507  11.273  0.0516  0.7053  0.3294
    7MPD2    H114200   3.601   0.372  11.586 -1.1167 -0.2537 -2.9223
    7MPD2    H214201   4.003   0.380  11.661 -1.1834  0.4686 -0.7334
    7MPD2    H314202   3.776   0.349  11.726  1.7441 -3.0542 -0.8422
    7MPD2     N14203   3.613   0.420  11.318  0.0107 -0.3195  0.3194
    7MPD2    H514204   3.525   0.389  11.359  0.8661 -1.5268  1.2533
    7MPD2    N114205   4.090   0.464  11.420  0.8878 -0.0312 -0.6074
    7MPD2    H714206   4.157   0.470  11.496 -0.3618  0.0958  0.4847
    8TMC3    C114207   4.267   0.455  11.265  0.0760 -0.5721  0.1993
    8TMC3    C214208   4.319   0.354  11.343 -0.3924  0.5676 -0.0472
    8TMC3    C314209   4.384   0.251  11.286 -0.6126 -0.5196  0.0028
    8TMC3    C414210   4.304   0.468  11.132  0.4445  0.1926 -0.2093
    8TMC3    C514211   4.375   0.364  11.079 -0.2632 -0.6846  0.4357
    8TMC3    C614212   4.412   0.256  11.152  0.3060 -0.6589  0.4156
    8TMC3     C14213   4.132   0.495  11.295  0.5379 -0.2564  0.6821
    8TMC3     O14214   4.068   0.533  11.197  0.2602 -0.1615  0.7277
    8TMC3     H14215   4.278   0.344  11.443  0.3568 -2.9025 -0.0839
    8TMC3    H114216   4.288   0.558  11.074  1.3549  1.1336  1.0218
    8TMC3    H214217   4.450   0.167  11.103  0.9607  1.8903 -3.6907
    8TMC3    C714218   4.310   0.326  10.954  0.2800 -0.7460 -0.6179
    8TMC3    C814219   4.417   0.131  11.359 -0.0023 -0.3966 -0.1799
    8TMC3    O114220   4.365   0.240  10.885 -0.3170  0.0127 -0.3757
    8TMC3    O214221   4.528   0.087  11.342  0.0945  0.1364  0.4247
    9MPD2     C14222   4.402   4.589  11.472  0.2593 -0.3629 -0.2549
    9MPD2    C114223   4.290   4.662  11.442 -0.5637  0.0627 -0.0963
    9MPD2    C214224   4.166   4.605  11.440 -0.2347 -0.4470  0.0510
    9MPD2    C314225   4.140   4.471  11.470  0.3450  0.3017 -0.2798
    9MPD2    C414226   4.253   4.402  11.511 -1.1164 -0.4772 -0.2709
    9MPD2    C514227   4.374   4.461  11.514  0.2276  0.5534 -0.7772
    9MPD2     H14228   4.089   4.667  11.397  0.0333 -1.0425 -1.2956
    9MPD2    H114229   4.248   4.295  11.527 -2.7390 -0.5519 -1.3007
    9MPD2    H214230   4.503   4.628  11.472  0.3266 -0.5382 -0.3063
    9MPD2    H314231   4.459   4.394  11.525  0.2103  0.5154 -0.8788
    9MPD2     N14232   4.012   4.407  11.441 -0.0712  0.7522  0.3991
    9MPD2    H514233   3.990   4.314  11.475  1.9317 -0.5846 -1.9260
    9MPD2    N114234   4.296   0.074  11.396 -0.5922  0.3593 -0.2673
    9MPD2    H714235   4.205   0.114  11.376  0.4688  2.4800 -0.7723
    1MPD1     C14236   4.361   3.749  16.333  0.4115 -0.0657 -0.0660
    1MPD1    C114237   4.282   3.647  16.389  0.5649 -0.4351 -0.1544
    1MPD1    C214238   4.266   3.641  16.522 -0.3571 -1.0049  0.6192
    1MPD1    C314239   4.318   3.739  16.604  0.5459 -0.5642 -0.3533
    1MPD1    C414240   4.396   3.837  16.547 -0.4042 -0.0657 -0.8028
    1MPD1    C514241   4.416   3.837  16.413  0.1834  0.5069 -0.0613
    1MPD1     H14242   4.215   3.557  16.567 -0.2062 -0.7858  1.2074
    1MPD1    H114243   4.440   3.912  16.611  1.2354 -1.1990 -0.6149
    1MPD1    H214244   4.382   3.748  16.227 -1.1751  2.3657 -0.3943
    1MPD1    H314245   4.464   3.924  16.369  0.2117  0.5266  0.0080
    1MPD1     N14246   4.297   3.741  16.740  0.7946 -0.5088 -0.0185
    1MPD1    H514247   4.344   3.815  16.790  0.0982  1.4323 -2.2386
    1MPD1    N114248   4.237   3.551  16.302 -0.1152 -0.1557 -0.5626
    1MPD1    H614249   4.186   3.593  16.225 -0.7008 -0.8199 -0.5411
    1MPD1    H714250   4.165   3.490  16.343  1.7893 -2.4877 -0.6537
    2MPD1     C14251   3.522   3.537  17.367  0.7088 -0.3803  0.0196
    2MPD1    C114252   3.569   3.469  17.253 -0.0115 -0.5987  0.0807
    2MPD1    C214253   3.676   3.519  17.186 -0.0849 -0.2694 -0.5442
    2MPD1    C314254   3.757   3.624  17.236 -0.2630 -0.2184 -0.2178
    2MPD1    C414255   3.712   3.682  17.354  0.0260  0.2586 -0.2978
    2MPD1    C514256   3.606   3.633  17.426 -0.8028  0.7827 -0.9285
    2MPD1     H14257   3.709   3.463  17.099  0.3164  0.4175 -0.8390
    2MPD1    H114258   3.756   3.775  17.388 -1.3372  1.4067 -1.7293
    2MPD1    H214259   3.433   3.502  17.416 -0.1548  2.3400  0.3887
    2MPD1    H314260   3.584   3.674  17.524 -1.8865 -0.3517 -0.7002
    2MPD1     N14261   3.871   3.665  17.167 -0.6376 -0.6929 -0.0047
    2MPD1    H514262   3.884   3.620  17.077 -0.7359  0.0984 -0.4136
    2MPD1    N114263   3.485   3.383  17.181 -0.2427  0.1866 -0.7324
    2MPD1    H614264   3.422   3.327  17.238  0.6596 -1.3468 -1.2655
    2MPD1    H714265   3.520   3.326  17.105  1.2017 -0.8971  0.7395
    3TCq2    C114266   3.958   3.770  17.198 -0.2296  0.0258 -0.1338
    3TCq2    O214267   3.947   3.851  17.287 -0.2522 -0.3814  0.0087
    3TCq2    C214268   4.077   3.779  17.109  0.5005 -0.0303  0.0950
    3TCq2    C314269   4.182   3.856  17.157 -0.1104  0.0604 -0.2397
    3TCq2    C414270   4.304   3.855  17.094 -0.0696 -0.3331 -0.6335
    3TCq2    C514271   4.326   3.767  16.988  0.5509  0.9212 -0.6085
    3TCq2    C614272   4.223   3.692  16.949 -0.2736 -0.1740 -0.1761
    3TCq2    C714273   4.101   3.688  17.010 -0.5607  0.3002 -0.3094
    3TCq2    C814274   4.215   3.653  16.812 -0.4190 -0.0399  0.2520
    3TCq2    O414275   4.119   3.579  16.784  0.5332 -0.3632  1.3063
    3TCq2    C914276   4.414   3.924  17.150 -0.1626  0.4862  0.4194
    3TCq2    O514277   4.522   3.929  17.084 -0.4814  0.5623 -0.4941
    3TCq2    O614278   4.408   3.933  17.274  0.2987 -0.4760 -0.4370
    3TCq2    H214279   4.163   3.924  17.239  1.0810  3.0228 -2.3915
    3TCq2    H314280   4.424   3.756  16.942  0.3359  0.1426 -0.8653
    3TCq2    H414281   4.015   3.638  16.967 -0.6393 -1.5329  1.9490
    1TCq1    O114282   1.471   2.541  12.247 -0.0565 -0.4665  0.0808
    1TCq1    C114283   1.576   2.459  12.210  0.2266  1.0748 -0.8945
    1TCq1    O214284   1.619   2.447  12.098 -0.8060 -0.0173  0.3388
    1TCq1    C214285   1.647   2.429  12.327 -0.1431 -0.2852  0.2723
    1TCq1    C314286   1.568   2.424  12.440  0.4462  0.1458 -1.1745
    1TCq1    C414287   1.612   2.456  12.551 -0.9220  0.1415 -0.8308
    1TCq1    C514288   1.742   2.488  12.569 -0.7610  0.2258 -0.2679
    1TCq1    C614289   1.827   2.486  12.467  0.2954 -0.0428  0.3801
    1TCq1    C714290   1.776   2.466  12.336 -0.3156  0.3661 -0.7876
    1TCq1    C814291   1.970   2.516  12.481  0.2020  0.1099 -0.0472
    1TCq1    O414292   2.021   2.532  12.370 -0.2525 -0.6000 -0.5317
    1TCq1    C914293   1.526   2.458  12.666 -0.3828  0.3811  0.6296
    1TCq1    O514294   1.538   2.547  12.752 -0.0703 -0.3485  0.3892
    1TCq1    O614295   1.427   2.379  12.672  0.4154  0.1094  0.1366
    1TCq1    H114296   1.433   2.538  12.338  0.8102 -2.1444  0.3821
    1TCq1    H214297   1.467   2.386  12.436  1.2839 -2.0065 -1.9531
    1TCq1    H314298   1.778   2.510  12.669 -2.8722 -0.4709  0.6571
    1TCq1    H414299   1.839   2.481  12.249 -0.7556  0.3948 -1.0949
    2MPD2     C14300   2.233   2.645  12.559 -0.8261  0.4927  0.1389
    2MPD2    C114301   2.138   2.591  12.644  0.1291  0.2944  0.6118
    2MPD2    C214302   2.155   2.618  12.779  0.0419  0.7546  0.3517
    2MPD2    C314303   2.260   2.700  12.823 -0.0767 -0.2773 -0.4831
    2MPD2    C414304   2.342   2.759  12.733 -0.1979 -0.0297 -0.3825
    2MPD2    C514305   2.329   2.734  12.606 -0.1577  1.1076  0.0272
    2MPD2     H14306   2.092   2.575  12.856  0.7141  0.4938  0.7634
    2MPD2    H114307   2.405   2.842  12.764 -0.8727  0.3543 -0.0443
    2MPD2    H214308   2.217   2.630  12.453  0.2033 -0.6192  0.1386
    2MPD2    H314309   2.384   2.791  12.532  0.9353 -0.2821 -0.2269
    2MPD2     N14310   2.265   2.749  12.957  0.1960  0.1909  0.0235
    2MPD2    H514311   2.188   2.719  13.017 -0.9426 -0.5073 -1.7761
    2MPD2    N114312   2.017   2.528  12.609  0.5186 -0.0459 -0.3394
    2MPD2    H714313   1.962   2.488  12.684  0.8447 -2.2038 -1.2521
    3TCq1    O114314   2.059   2.995  13.463 -0.0311 -0.4531  0.2207
    3TCq1    C114315   2.093   2.985  13.329 -0.9489  0.6267 -0.0168
    3TCq1    O214316   2.014   3.011  13.242  0.3756 -0.2207 -0.7401
    3TCq1    C214317   2.209   2.908  13.315  0.2098  0.0376 -0.8295
    3TCq1    C314318   2.309   2.898  13.413 -0.5075 -0.4606 -0.3461
    3TCq1    C414319   2.437   2.872  13.372  0.1093  0.6528 -0.1296
    3TCq1    C514320   2.463   2.837  13.246 -0.3046  0.2562 -0.2376
    3TCq1    C614321   2.365   2.824  13.159  0.1225  0.5718  0.0956
    3TCq1    C714322   2.238   2.866  13.185 -0.1433 -0.2978 -0.2514
    3TCq1    C814323   2.384   2.781  13.018 -0.1428  0.3350 -0.0651
    3TCq1    O414324   2.499   2.762  12.981  0.4017 -0.1654  0.2999
    3TCq1    C914325   2.542   2.878  13.474  0.1812  0.4522  0.3128
    3TCq1    O514326   2.516   2.926  13.587  0.2890  0.0685 -0.3235
    3TCq1    O614327   2.658   2.845  13.434 -0.0841  0.1749  0.0454
    3TCq1    H114328   2.107   2.939  13.528  1.4290  0.7219  0.1579
    3TCq1    H214329   2.293   2.933  13.514 -2.2647  0.2981 -0.8822
    3TCq1    H314330   2.564   2.819  13.210 -0.2004 -1.0029  0.7096
    3TCq1    H414331   2.161   2.876  13.109  0.3318 -1.1923 -0.8479
    1MPD2     C14332   1.164   3.452  14.787  0.4711 -0.0800 -0.0611
    1MPD2    C114333   1.023   3.445  14.772  0.3228 -0.0266 -0.2720
    1MPD2    C214334   0.954   3.334  14.823  0.4098 -1.0547  0.2558
    1MPD2    C314335   1.019   3.226  14.873 -0.5925 -0.2482 -0.0291
    1MPD2    C414336   1.159   3.228  14.866 -0.3564  0.0613  0.7605
    1MPD2    C514337   1.230   3.343  14.835  0.3686 -0.8440 -0.7078
    1MPD2     H14338   0.846   3.335  14.830  0.4762  3.1639  0.8282
    1MPD2    H114339   1.208   3.142  14.911 -1.3961 -1.0279 -0.1831
    1MPD2    H214340   1.209   3.545  14.754 -1.2494  0.8616  0.2830
    1MPD2    H314341   1.336   3.353  14.853  0.5062 -3.4347 -0.0674
    1MPD2     N14342   0.955   3.114  14.937 -0.2823 -0.1774 -0.0324
    1MPD2    H514343   1.009   3.029  14.952 -1.8323 -0.9438  1.1723
    1MPD2    N114344   0.961   3.550  14.697  0.1123  0.4291  0.5383
    1MPD2    H714345   1.013   3.631  14.665  1.7657 -0.9877 -0.3491
    2TMC3    C114346   0.782   3.658  14.582 -0.3657  0.1547 -0.3780
    2TMC3    C214347   0.668   3.613  14.530  0.6164  0.3783 -0.5131
    2TMC3    C314348   0.657   3.609  14.396 -0.6821 -0.5846  1.4166
    2TMC3    C414349   0.887   3.711  14.506 -0.8560 -0.7393 -0.5051
    2TMC3    C514350   0.864   3.723  14.375 -0.3123  0.5498 -0.1533
    2TMC3    C614351   0.756   3.663  14.318  0.2180  0.2130 -0.1855
    2TMC3     C14352   0.831   3.545  14.663 -0.1650 -0.1567  0.3585
    2TMC3     O14353   0.744   3.462  14.690  0.5960 -0.5092 -0.8121
    2TMC3     H14354   0.584   3.591  14.596  0.4875  0.7640 -0.5452
    2TMC3    H114355   0.946   3.784  14.559 -1.2219 -0.8151  0.0051
    2TMC3    H214356   0.752   3.661  14.209 -0.3411 -1.0539 -0.1422
    2TMC3    C714357   0.897   3.854  14.308 -0.0995  0.9280  0.1727
    2TMC3    C814358   0.616   3.486  14.338  0.1925 -0.2699 -0.4695
    2TMC3    O114359   0.836   3.879  14.205 -0.1643 -0.5679  0.0793
    2TMC3    O214360   0.592   3.494  14.218  0.3114 -0.2309 -0.1485
    3TCq1    O114361   1.562   4.688  14.408 -0.6090  0.2890  0.6880
    3TCq1    C114362   1.619   4.653  14.527  0.2743  0.0782 -0.3319
    3TCq1    O214363   1.688   0.004  14.596 -0.7388  0.2064 -0.0093
    3TCq1    C214364   1.627   4.506  14.542  0.1647  0.0681 -0.5859
    3TCq1    C314365   1.739   4.461  14.596 -0.2236  0.3096  0.1072
    3TCq1    C414366   1.756   4.325  14.601 -0.0562  0.3089  0.6983
    3TCq1    C514367   1.680   4.235  14.528 -0.0349 -0.2757 -0.6392
    3TCq1    C614368   1.566   4.288  14.479 -0.6513 -0.1099 -0.6813
    3TCq1    C714369   1.548   4.422  14.475 -0.5765  0.5085  0.1600
    3TCq1    C814370   1.455   4.197  14.441  0.7956  0.3536  0.0537
    3TCq1    O414371   1.458   4.083  14.477  0.0949 -0.1691 -0.6128
    3TCq1    C914372   1.861   4.270  14.679  0.4672 -0.0478  0.0428
    3TCq1    O514373   1.936   4.353  14.734 -0.0021  0.4521 -0.5083
    3TCq1    O614374   1.882   4.144  14.680 -0.2808 -0.1249  0.8154
    3TCq1    H114375   1.529   4.614  14.352 -2.4982  1.0225  0.8012
    3TCq1    H214376   1.808   4.519  14.656 -1.3149  0.7608  0.9148
    3TCq1    H314377   1.689   4.127  14.536 -3.1562 -0.4456  0.7317
    3TCq1    H414378   1.458   4.461  14.429 -0.7213 -1.3582 -1.1430
    4MPD2     C14379   1.181   4.259  14.203 -0.5291 -0.3214 -0.1141
    4MPD2    C114380   1.242   4.197  14.306 -1.5035 -0.5146 -0.3586
    4MPD2    C214381   1.188   4.076  14.354 -0.5235  0.4030  0.2615
    4MPD2    C314382   1.065   4.031  14.303  0.4285 -0.0238 -0.2866
    4MPD2    C414383   1.000   4.108  14.203 -0.1697 -0.8225 -0.0570
    4MPD2    C514384   1.059   4.223  14.159 -0.6252 -0.3655  0.3562
    4MPD2     H14385   1.220   4.020  14.441  0.4342 -2.4729 -1.9378
    4MPD2    H114386   0.897   4.090  14.175 -0.6828  1.0739  0.6335
    4MPD2    H214387   1.222   4.357  14.179 -0.0583  0.1436  2.5548
    4MPD2    H314388   1.008   4.279  14.080 -0.1128  1.3530  1.2570
    4MPD2     N14389   1.008   3.912  14.356 -0.3138  0.6272  0.0553
    4MPD2    H514390   1.064   3.860  14.423 -3.1795  0.4373  2.3079
    4MPD2    N114391   1.365   4.253  14.350  0.1326  0.4667 -0.0878
    4MPD2    H714392   1.393   4.344  14.314 -1.0539  0.3629 -1.3079
    5TMC2    C114393   0.645   2.895  14.817  0.3769 -0.3486  0.6377
    5TMC2    C214394   0.734   2.799  14.787  0.0128  0.2358  0.5377
    5TMC2    C314395   0.844   2.806  14.871  0.2538 -0.0034 -0.0658
    5TMC2    C414396   0.660   2.986  14.918 -0.0982 -0.2963 -0.6598
    5TMC2    C514397   0.775   2.988  14.994  0.0480  0.0194  0.4763
    5TMC2    C614398   0.868   2.890  14.974  0.3656  0.1076  0.3853
    5TMC2     C14399   0.566   2.955  14.709 -0.5923 -0.2610 -0.7320
    5TMC2     O14400   0.487   3.042  14.740  0.0446 -0.5343  0.1657
    5TMC2     H14401   0.720   2.729  14.705  4.0885 -0.3036  0.3118
    5TMC2    H114402   0.594   3.070  14.936  0.1211 -0.0014 -1.2207
    5TMC2    H214403   0.947   2.872  15.045 -0.1984 -1.1239  0.6971
    5TMC2    C714404   0.827   3.122  14.988 -0.8742  0.3488  0.1175
    5TMC2    C814405   0.945   2.700  14.839 -0.3905 -0.5852 -0.9549
    5TMC2    O114406   0.747   3.212  14.985  1.1799  0.2413 -0.1496
    5TMC2    O214407   0.986   2.624  14.925  0.0304 -0.0324 -0.3307
    5TMC2    O514408   0.985   2.714  14.714  0.1552  0.1061 -0.1828
    5TMC2    H514409   0.943   2.789  14.667  0.1694 -0.6465 -1.3941
    6MPD2     C14410   0.601   3.198  14.262 -0.0639 -0.9806  0.0170
    6MPD2    C114411   0.596   3.246  14.394 -0.1507  0.1727  0.7696
    6MPD2    C214412   0.591   3.157  14.498 -0.2595 -0.1630  0.3800
    6MPD2    C314413   0.602   3.017  14.477 -0.1859  0.1941  0.0933
    6MPD2    C414414   0.592   2.971  14.348 -0.0215 -0.7522 -1.0334
    6MPD2    C514415   0.600   3.062  14.242  1.1679  0.2325 -0.2056
    6MPD2     H14416   0.594   3.191  14.600  1.5025 -1.5050  0.7867
    6MPD2    H114417   0.596   2.865  14.323 -1.4421 -1.2252  0.7097
    6MPD2    H214418   0.620   3.268  14.182  0.6588 -0.2280  0.8558
    6MPD2    H314419   0.609   3.033  14.138 -1.9185  0.5734 -0.5713
    6MPD2     N14420   0.604   2.927  14.575 -0.9065  0.5878 -0.4987
    6MPD2    H514421   0.644   2.836  14.554 -3.0692 -0.2094 -1.1649
    6MPD2    N114422   0.612   3.383  14.426 -0.8835  0.1062 -0.1440
    6MPD2    H714423   0.634   3.402  14.523 -1.1738  0.6406 -0.1864
  945NH3     N114424   0.783   3.229   3.234 -0.7567  0.4662  0.4456
  945NH3     H214425   0.813   3.319   3.198 -0.4347  1.3444  2.9686
  945NH3     H314426   0.859   3.166   3.211 -0.6115  1.2184 -1.0999
  945NH3     H414427   0.707   3.203   3.171 -1.9258  1.9316  1.2591
  946SOD     NA14428   1.570   3.807  14.819  0.1158  0.1860 -0.3252
  947SOD     NA14429   4.006   1.462  15.508 -0.4732  0.4211 -0.0198
  948SOD     NA14430   1.395   3.248  10.771 -0.3236  0.0034  0.4474
  949SOD     NA14431   2.189   2.616  11.500  0.3777  0.1190  0.2671
  950SOD     NA14432   3.670   0.260   0.652 -0.1726  0.3568 -0.2781
  951SOD     NA14433   4.581   4.572  17.581 -0.0907 -0.2257 -0.1873
  952SOD     NA14434   1.653   2.127   6.748 -0.1026  0.1632 -0.2201
  953SOD     NA14435   2.733   0.711  16.141 -0.1397  0.0146  0.4117
  954SOD     NA14436   3.257   1.965  14.228  0.2451  0.0574  0.1636
  955SOD     NA14437   2.670   2.259  14.571  0.1134  0.0138 -0.4568
  956SOD     NA14438   0.679   3.351   0.711  0.3505 -0.5625 -0.5008
  957SOD     NA14439   0.802   3.240  11.130  0.5077 -0.4681 -0.0762
  958SOD     NA14440   2.988   2.583   9.443  0.4020  0.3000  0.0807
  959SOD     NA14441   2.668   1.877  12.337 -0.5282  0.0532 -0.3524
  960SOD     NA14442   0.156   1.817  12.512  0.1458  0.3015  0.6471
  961SOD     NA14443   2.093   2.542  12.167  0.0996  0.1533 -0.2159
  962SOD     NA14444   3.746   0.026   1.022  0.0202 -0.0858  0.3648
  963SOD     NA14445   0.319   0.195   0.628  0.0180 -0.1341 -0.2059
  964SOD     NA14446   3.670   1.209  12.877  0.7027  0.5252 -0.0138
  965SOD     NA14447   3.325   1.025   8.961  0.0776 -0.5386  0.0711
  966SOD     NA14448   1.912   0.290  15.790 -0.1206 -0.1849 -0.2041
  967SOD     NA14449   1.964   0.407   9.762  0.2603  0.4970 -0.3380
  968SOD     NA14450   1.870   1.737  10.410 -0.0968 -0.0582 -0.2152
  969SOD     NA14451   2.033   3.769   3.195  0.3552 -0.1375  0.3147
  970SOD     NA14452   0.403   2.289  10.705 -0.3710 -0.0402 -0.1387
  971SOD     NA14453   2.527   1.660  12.505  0.3256 -0.1510  0.1718
  972SOD     NA14454   2.037   1.477  10.574  0.0544  0.0936 -0.0878
  973SOD     NA14455   4.252   1.610   2.017  0.4011 -0.0047  0.0505
  974SOD     NA14456   1.351   2.452  12.860 -0.2705  0.2369 -0.7250
  975SOD     NA14457   1.068   3.254   0.178  0.1664 -0.2212 -0.0298
  976SOD     NA14458   2.099   3.675  12.162  0.1142 -0.0935 -0.1595
  977SOD     NA14459   2.619   0.378   2.625 -0.0264 -0.5420 -0.0398
  978SOD     NA14460   4.619   2.653   1.819 -0.2600  0.4160 -0.4740
  979SOD     NA14461   1.050   1.367  14.072  0.3152 -0.1861  0.2084
  980SOD     NA14462   2.718   1.654   3.140 -0.0022  0.5924  0.3079
  981SOD     NA14463   3.695   3.304  15.016 -0.2996 -0.1064  0.3056
  982SOD     NA14464   3.889   3.532  15.188  0.3097  0.1784  0.5259
  983SOD     NA14465   3.908   3.504  16.048  0.0018  0.1392 -0.6713
  984SOD     NA14466   3.913   3.463   0.258  0.1885  0.2849 -0.1180
  985SOD     NA14467   3.081   2.579  11.687 -0.3157  0.1667 -0.4460
  986SOD     NA14468   0.372   3.297   7.486 -0.1885 -0.5363 -0.3406
  987SOD     NA14469   4.121   2.716   0.263 -0.2370 -0.0606 -0.5774
  988SOD     NA14470   0.213   1.822  10.368 -0.5458  0.4164 -0.0658
  989SOD     NA14471   2.225   0.982   3.770 -0.5040  0.0719 -0.1493
  990SOD     NA14472   3.030   1.331  16.569  1.0989 -0.3105  0.0979
  991SOD     NA14473   1.812   3.183  15.411 -0.1793 -0.5123  0.0145
  992SOD     NA14474   1.855   3.743  14.590  0.4416  0.1713 -0.2090
  993SOD     NA14475   1.142   0.137   4.212  0.2245  0.6158  0.5517
  994SOD     NA14476   2.188   2.814  11.739 -0.0517  0.1698 -0.0087
  995SOD     NA14477   2.987   2.522  11.037  0.4547  0.4249 -0.0317
  996SOD     NA14478   1.367   2.107  10.615 -0.0976  0.4506  0.0311
  997SOD     NA14479   3.768   1.613  12.442  0.1989  0.0657  0.5740
  998SOD     NA14480   1.127   3.687   8.648 -0.0812  0.4000  0.6635
  999SOD     NA14481   3.591   4.487   2.718 -0.1839 -0.0230 -0.2186
 1000SOD     NA14482   3.251   2.594  10.913 -0.9708  0.3172 -0.0718
 1001SOD     NA14483   3.142   3.863  12.267 -0.0083  0.5353 -0.3191
 1002SOD     NA14484   3.220   2.969  13.883 -0.6580  0.0314 -0.2572
 1003SOD     NA14485   1.573   1.850  10.510  0.1092 -0.0527  0.4400
 1004SOD     NA14486   2.331   3.884  10.224  0.2822 -0.1558  0.0584
 1005SOD     NA14487   0.365   1.693  11.309  0.3144  0.0371  0.2936
 1006SOD     NA14488   1.520   2.942   9.948  0.4797 -0.8086  0.6687
 1007SOD     NA14489   1.078   4.609   9.072 -0.1245  0.2337 -0.5107
 1008SOD     NA14490   2.504   2.375  14.308 -0.1846 -0.7450  0.4037
 1009SOD     NA14491   4.058   2.886   0.531  0.2884 -0.3455 -0.0359
 1010SOD     NA14492   2.531   3.476  17.694  0.1208  0.2097  0.1150
 1011SOD     NA14493   4.419   2.585   1.084 -0.9557 -0.2808  0.5191
 1012SOL     OW14494   3.959   0.028   2.843  0.5405 -0.0933  0.0541
 1012SOL    HW114495   3.890   0.081   2.883  0.7606 -1.6719  2.5182
 1012SOL    HW214496   3.976   0.068   2.758  0.8062 -1.6606 -0.6418
 1013SOL     OW14497   0.837   3.102   8.351 -0.1027  0.3386  0.0049
 1013SOL    HW114498   0.833   3.093   8.447 -0.5726  0.5975  0.0124
 1013SOL    HW214499   0.783   3.181   8.348  2.0560  1.7271 -2.4392
 1014SOL     OW14500   2.063   3.563  12.848  0.7827 -0.5359 -0.3971
 1014SOL    HW114501   2.051   3.517  12.765 -0.7251  2.2904 -1.7564
 1014SOL    HW214502   2.015   3.509  12.910  0.6134  0.5545  0.4233
 1015SOL     OW14503   0.034   2.878  15.822 -0.6351 -0.0121  0.0978
 1015SOL    HW114504   0.007   2.811  15.885  2.0802  1.5537  2.9488
 1015SOL    HW214505   0.068   2.821  15.754 -3.1796  0.0168 -1.1910
 1016SOL     OW14506   2.591   4.419  11.028 -0.0071 -0.6874 -0.4307
 1016SOL    HW114507   2.567   4.480  11.098 -0.5975 -2.6833  1.0885
 1016SOL    HW214508   2.607   4.340  11.079 -0.0887  0.5406  1.4983
 1017SOL     OW14509   0.436   4.090   6.537  0.0193  0.3346  0.1985
 1017SOL    HW114510   0.524   4.053   6.545 -0.5024 -0.7789  0.7531
 1017SOL    HW214511   0.405   4.087   6.627  2.0058 -2.0583  0.7776
 1018SOL     OW14512   2.715   0.326   0.894  0.2215 -0.1878  0.1766
 1018SOL    HW114513   2.667   0.383   0.954  0.2995 -0.4038  0.4409
 1018SOL    HW214514   2.768   0.264   0.943 -0.1955  2.8562  4.5617
 1019SOL     OW14515   2.478   2.573   9.929 -0.1521 -0.1819  0.0794
 1019SOL    HW114516   2.392   2.597   9.963 -0.9114 -0.1651 -1.8557
 1019SOL    HW214517   2.474   2.627   9.850 -0.2894 -2.1287 -1.2432
 1020SOL     OW14518   2.698   2.639   7.133 -0.5662  0.3526 -0.3152
 1020SOL    HW114519   2.618   2.612   7.088  0.2340 -0.2126 -1.4258
 1020SOL    HW214520   2.685   2.603   7.221 -0.0561 -2.0012 -1.1968
 1021SOL     OW14521   0.897   3.462  13.246  0.7339 -0.6499  0.1166
 1021SOL    HW114522   0.986   3.450  13.280  1.4382 -2.2655 -2.3070
 1021SOL    HW214523   0.912   3.520  13.171 -1.8190 -0.0008  0.1195
 1022SOL     OW14524   1.079   3.037   4.669  0.2335 -0.6957  0.0183
 1022SOL    HW114525   1.161   3.033   4.619 -1.2255  0.3844 -2.4244
 1022SOL    HW214526   1.056   3.129   4.665 -2.2484 -1.3515 -0.5736
 1023SOL     OW14527   3.740   1.522  14.302 -0.1563  0.7280  0.0236
 1023SOL    HW114528   3.828   1.525  14.340 -0.4371  0.7468  0.6754
 1023SOL    HW214529   3.769   1.525  14.211 -1.6632 -0.6675 -0.5078
 1024SOL     OW14530   0.878   2.429   5.596  0.3243  0.4027 -0.3421
 1024SOL    HW114531   0.934   2.353   5.614 -0.3385 -0.3007 -1.2342
 1024SOL    HW214532   0.915   2.453   5.511  2.0078  1.7877  0.7853
 1025SOL     OW14533   3.876   0.713   5.118 -0.1468  0.0410  0.4921
 1025SOL    HW114534   3.851   0.631   5.076 -1.5862  1.2054 -0.9160
 1025SOL    HW214535   3.948   0.687   5.175 -0.1136  0.0451  0.4523
 1026SOL     OW14536   4.645   3.008   8.805  0.2740 -0.7034 -0.1415
 1026SOL    HW114537   4.693   3.003   8.888 -1.5160  1.0104  1.0227
 1026SOL    HW214538   4.565   2.956   8.816 -1.2703  1.6141 -0.4128
 1027SOL     OW14539   1.191   2.818   0.721 -0.6640 -0.0466  0.6238
 1027SOL    HW114540   1.238   2.856   0.795 -1.3309  0.9926  0.5135
 1027SOL    HW214541   1.120   2.779   0.772  0.8531 -1.5074  1.6022
 1028SOL     OW14542   2.235   3.491   0.628 -0.2990 -0.3031  0.0046
 1028SOL    HW114543   2.231   3.504   0.533  0.7809 -1.2493 -0.1805
 1028SOL    HW214544   2.142   3.502   0.647 -0.2069  0.7837 -0.1898
 1029SOL     OW14545   0.245   3.050   5.807  0.1224 -0.2442  0.2840
 1029SOL    HW114546   0.328   3.094   5.822  0.9982 -2.3442  1.6569
 1029SOL    HW214547   0.276   2.963   5.780 -3.4394 -1.7234  0.9730
 1030SOL     OW14548   2.101   4.411   4.269  0.0866  0.0536 -0.3304
 1030SOL    HW114549   2.080   4.504   4.277  0.2578  0.1107 -0.5517
 1030SOL    HW214550   2.106   4.388   4.362  1.7256  2.2889  0.1140
 1031SOL     OW14551   1.398   3.600   3.802 -0.0970 -0.1031 -0.3803
 1031SOL    HW114552   1.452   3.680   3.804 -1.5564  0.8312  1.0401
 1031SOL    HW214553   1.383   3.592   3.708  0.4488 -3.2654 -0.2118
 1032SOL     OW14554   2.571   1.912  12.112 -0.2287  0.0815  0.2599
 1032SOL    HW114555   2.634   1.881  12.047  0.6385 -1.4957  1.8485
 1032SOL    HW214556   2.540   1.999  12.087 -0.2207  0.2692  0.8949
 1033SOL     OW14557   4.501   1.697   3.039  0.5594  0.2257 -0.5123
 1033SOL    HW114558   4.569   1.713   3.104 -1.9741 -1.6669  2.6147
 1033SOL    HW214559   4.515   1.769   2.978 -1.1842 -0.2896 -1.5127
 1034SOL     OW14560   2.848   4.396   4.202  0.4764  0.1939  0.3232
 1034SOL    HW114561   2.825   4.372   4.292  0.7597  2.8102  1.0904
 1034SOL    HW214562   2.765   4.434   4.175  1.0427  0.8254 -0.5322
 1035SOL     OW14563   4.562   3.013   2.981 -0.8321  0.3074  0.0902
 1035SOL    HW114564   4.491   3.060   2.938  1.3978  2.2790 -1.4482
 1035SOL    HW214565   4.635   3.073   2.966  0.6604 -2.0865 -2.3497
 1036SOL     OW14566   2.743   1.744  11.934  0.2727  0.1706  0.2389
 1036SOL    HW114567   2.684   1.674  11.961  0.4900 -0.3906 -0.7539
 1036SOL    HW214568   2.716   1.750  11.842 -2.3706  4.0441  1.2194
 1037SOL     OW14569   3.976   2.014   5.444  0.5900  0.4510  0.1772
 1037SOL    HW114570   4.030   1.986   5.369 -0.2490 -0.2024 -0.1773
 1037SOL    HW214571   3.984   2.108   5.426  0.6932  0.2515 -0.8160
 1038SOL     OW14572   0.097   0.686   1.207  0.3529 -0.1311 -0.4345
 1038SOL    HW114573   0.122   0.650   1.122  0.9236 -1.1934  0.1935
 1038SOL    HW214574   0.028   0.750   1.189 -0.3690 -0.5694  0.7808
 1039SOL     OW14575   2.088   2.984   7.584 -0.3000  0.3024 -0.3373
 1039SOL    HW114576   2.138   3.065   7.584 -1.9763  1.3379  1.3242
 1039SOL    HW214577   2.004   3.023   7.559 -0.7955 -0.5984 -0.0886
 1040SOL     OW14578   0.306   1.969   8.683  0.0679 -0.7553  0.0624
 1040SOL    HW114579   0.368   1.951   8.614 -0.7884  3.2656 -1.7398
 1040SOL    HW214580   0.371   1.975   8.753 -0.3351 -0.3934  0.4120
 1041SOL     OW14581   2.789   0.490   6.947 -0.1317 -0.2164  0.0685
 1041SOL    HW114582   2.745   0.455   7.024 -0.8622  2.4855  0.8662
 1041SOL    HW214583   2.878   0.479   6.981  0.2685  1.2553 -0.4873
 1042SOL     OW14584   2.918   1.273   3.489 -0.4959  0.2736 -0.0093
 1042SOL    HW114585   2.858   1.261   3.562 -0.5384 -1.3988 -0.2970
 1042SOL    HW214586   2.943   1.183   3.464  1.7794  1.0579 -0.5834
 1043SOL     OW14587   0.100   0.156  15.102  0.7974  0.1966 -0.6323
 1043SOL    HW114588   0.173   0.192  15.152  1.1879  0.7201 -1.5758
 1043SOL    HW214589   0.027   0.156  15.164 -0.3572  0.4020 -1.9968
 1044SOL     OW14590   4.085   4.445   6.961  0.3499 -0.4734 -0.1120
 1044SOL    HW114591   4.145   4.385   6.917  2.3645  0.9217  0.7378
 1044SOL    HW214592   4.145   4.474   7.030  1.5936  0.2452 -1.4830
 1045SOL     OW14593   4.312   0.086  12.585 -0.2882  0.3168  0.1061
 1045SOL    HW114594   4.242   0.046  12.636  0.8316 -0.0188  1.3954
 1045SOL    HW214595   4.364   0.005  12.579  0.3481  0.7172  0.1879
 1046SOL     OW14596   2.580   0.468   9.073  0.4218  0.2176  0.3688
 1046SOL    HW114597   2.504   0.525   9.086  0.1469  0.0881 -0.6712
 1046SOL    HW214598   2.561   0.403   9.140 -0.3629  1.0362  0.9449
 1047SOL     OW14599   4.109   1.649  15.599  0.2622  0.0683  0.3573
 1047SOL    HW114600   4.164   1.612  15.669  0.1767  0.2871  0.5404
 1047SOL    HW214601   4.146   1.737  15.602  0.5768 -0.0523 -0.0276
 1048SOL     OW14602   3.365   1.812   6.002 -0.9038  0.0798 -0.5608
 1048SOL    HW114603   3.303   1.876   6.037 -1.5901 -2.1922  2.4436
 1048SOL    HW214604   3.300   1.756   5.960 -2.3346 -0.9560  2.9690
 1049SOL     OW14605   3.761   3.948   5.236 -0.1037 -0.1677 -0.5789
 1049SOL    HW114606   3.683   3.930   5.289 -0.7760  0.7971 -1.2407
 1049SOL    HW214607   3.791   4.033   5.266 -0.5455  0.2977 -1.4536
 1050SOL     OW14608   2.204   2.861   6.183  0.2123  0.0154 -0.1467
 1050SOL    HW114609   2.113   2.873   6.210  0.4110  1.2751 -0.0179
 1050SOL    HW214610   2.201   2.839   6.090 -1.9793  2.1838 -0.5867
 1051SOL     OW14611   3.996   2.281  11.810  0.1023  0.2454  0.1749
 1051SOL    HW114612   4.087   2.257  11.827  1.0060  3.6345 -0.0449
 1051SOL    HW214613   3.990   2.297  11.716  2.1804  1.7923  0.3292
 1052SOL     OW14614   2.790   0.800   8.504  0.8505 -0.5790 -0.3782
 1052SOL    HW114615   2.752   0.729   8.555  0.4994  0.2909  0.5613
 1052SOL    HW214616   2.855   0.841   8.561 -1.0830  1.0088  0.6821
 1053SOL     OW14617   4.719   1.806  17.268  0.0601 -0.8075  0.0762
 1053SOL    HW114618   4.688   1.896  17.261  0.0524 -0.7144  1.2485
 1053SOL    HW214619   0.075   1.823  17.318 -0.6417 -0.5680  1.1121
 1054SOL     OW14620   0.816   2.113   7.921  0.4719  0.2150  0.1317
 1054SOL    HW114621   0.894   2.068   7.952 -1.9170 -1.5403  3.7171
 1054SOL    HW214622   0.764   2.037   7.894  0.3059  1.2265 -2.3830
 1055SOL     OW14623   3.191   2.027   6.028  0.2408 -0.3765  0.0904
 1055SOL    HW114624   3.208   2.121   6.034  0.2367 -0.2491 -1.9620
 1055SOL    HW214625   3.135   2.013   6.105 -1.2541  0.9774 -0.7516
 1056SOL     OW14626   1.302   2.660   1.634 -0.3707 -0.0708 -0.1672
 1056SOL    HW114627   1.293   2.730   1.570  0.1348  0.4567  0.3318
 1056SOL    HW214628   1.309   2.582   1.579 -2.0548 -0.7907  0.6581
 1057SOL     OW14629   3.244   2.604   6.470  0.3105  0.1687  0.0180
 1057SOL    HW114630   3.330   2.618   6.510 -0.2415  2.1547  0.4839
 1057SOL    HW214631   3.192   2.574   6.544  0.8862  0.3388  0.4911
 1058SOL     OW14632   4.482   4.338   0.954 -0.2484  0.1719 -0.1908
 1058SOL    HW114633   4.480   4.287   0.873  1.9609 -0.0299 -0.1250
 1058SOL    HW214634   4.390   4.346   0.975 -0.5106 -2.8857 -0.1552
 1059SOL     OW14635   4.157   2.256  11.269  0.1431 -0.0502  0.5163
 1059SOL    HW114636   4.073   2.265  11.224 -0.8302  0.3394  2.4533
 1059SOL    HW214637   4.203   2.334  11.239 -0.2929 -0.1191 -0.3503
 1060SOL     OW14638   2.246   3.686  16.798  0.3193  0.1621  0.0781
 1060SOL    HW114639   2.290   3.748  16.740 -0.6598  0.6914 -0.0974
 1060SOL    HW214640   2.161   3.728  16.813  0.9992  1.6789 -0.2698
 1061SOL     OW14641   1.749   0.789  10.251  0.0157 -0.3544 -0.3491
 1061SOL    HW114642   1.680   0.781  10.317 -0.4025 -2.4212 -1.0355
 1061SOL    HW214643   1.789   0.869  10.285  0.2792 -0.9300  0.7146
 1062SOL     OW14644   1.891   3.962   4.583  0.0822 -0.5406  0.0709
 1062SOL    HW114645   1.796   3.955   4.571  0.5596 -1.8417 -2.8696
 1062SOL    HW214646   1.895   3.997   4.672  0.4259  0.7959 -0.4815
 1063SOL     OW14647   0.430   1.350   3.603  0.2873 -0.2160 -0.0186
 1063SOL    HW114648   0.503   1.292   3.621 -0.0731 -1.8131 -3.5373
 1063SOL    HW214649   0.398   1.305   3.524  0.6562 -2.7672  1.2670
 1064SOL     OW14650   3.135   1.330   6.518  0.0608 -0.1107 -0.1056
 1064SOL    HW114651   3.219   1.370   6.492  1.1860 -2.3721  0.0324
 1064SOL    HW214652   3.099   1.294   6.437 -0.7036 -1.8423  1.0097
 1065SOL     OW14653   2.894   2.303   2.677 -0.9051 -0.7126 -0.9414
 1065SOL    HW114654   2.815   2.250   2.672 -0.5377 -1.4727  1.0581
 1065SOL    HW214655   2.890   2.350   2.594  5.0801  1.9359  0.2633
 1066SOL     OW14656   2.741   3.826   0.142 -0.0993 -0.1508 -0.4701
 1066SOL    HW114657   2.761   3.853   0.231 -1.4867 -1.1029  0.1447
 1066SOL    HW214658   2.833   3.819   0.117 -0.5296  0.1544 -2.0963
 1067SOL     OW14659   0.123   3.980   3.086 -0.0412  0.3585  0.7705
 1067SOL    HW114660   0.078   3.966   3.002 -1.3820  3.6748  0.9313
 1067SOL    HW214661   0.214   3.957   3.069 -0.6753 -1.6724  0.0670
 1068SOL     OW14662   2.503   2.523   1.804 -1.0003 -0.2088 -0.0833
 1068SOL    HW114663   2.592   2.490   1.800  0.3318  3.2967  0.8356
 1068SOL    HW214664   2.507   2.559   1.892 -2.0161  1.3247 -0.6647
 1069SOL     OW14665   0.034   0.565   6.012  0.3082  0.5069 -0.9026
 1069SOL    HW114666   0.068   0.587   5.926  0.9184  0.7721 -0.5970
 1069SOL    HW214667   0.115   0.531   6.050  1.1136 -0.2869 -3.3776
 1070SOL     OW14668   2.304   2.103  13.802  0.4076 -0.0781 -0.3796
 1070SOL    HW114669   2.232   2.141  13.753 -1.3497 -0.0737  2.2234
 1070SOL    HW214670   2.378   2.158  13.773 -0.3149  1.1727  0.1458
 1071SOL     OW14671   2.315   1.870  10.241 -0.5623  0.1401 -0.4095
 1071SOL    HW114672   2.275   1.885  10.326  1.2806  0.8729  0.3165
 1071SOL    HW214673   2.346   1.959  10.222  0.7092 -0.2804 -0.2523
 1072SOL     OW14674   3.168   3.938  14.760  0.7095  0.4149 -0.1178
 1072SOL    HW114675   3.249   3.972  14.798  0.9640  1.7748 -1.9066
 1072SOL    HW214676   3.208   3.898  14.684 -0.3660  2.7980 -1.9274
 1073SOL     OW14677   0.875   4.405  15.597  0.2042  0.1894  0.4790
 1073SOL    HW114678   0.787   4.387  15.631 -0.2747 -1.8064 -1.8125
 1073SOL    HW214679   0.858   4.460  15.521 -1.1849 -1.1625 -0.1875
 1074SOL     OW14680   0.918   2.701   8.636  0.0374  0.5832 -0.3234
 1074SOL    HW114681   0.930   2.607   8.649  2.4199  0.9064 -0.1321
 1074SOL    HW214682   0.865   2.694   8.556  0.6543 -0.0207 -0.6785
 1075SOL     OW14683   2.884   1.040   8.912 -0.2895 -0.7294  0.3993
 1075SOL    HW114684   2.896   1.128   8.946 -0.3271 -0.6496  0.2084
 1075SOL    HW214685   2.828   1.042   8.834  1.4727 -0.5287 -0.8699
 1076SOL     OW14686   1.885   1.755   5.854  0.0619  0.1556 -0.3369
 1076SOL    HW114687   1.961   1.789   5.900  1.0741 -0.9063 -1.2339
 1076SOL    HW214688   1.912   1.664   5.840 -2.0511 -0.7004  1.0974
 1077SOL     OW14689   0.396   3.119  15.958  0.1113 -0.3954 -0.0553
 1077SOL    HW114690   0.314   3.080  15.986 -0.4211 -0.3174 -1.5047
 1077SOL    HW214691   0.460   3.052  15.982  2.6758  2.4420  1.0478
 1078SOL     OW14692   0.709   2.558  12.201 -0.2541  0.4350 -0.2088
 1078SOL    HW114693   0.652   2.634  12.191 -0.9248 -0.0380  0.0874
 1078SOL    HW214694   0.788   2.582  12.152 -1.6748  3.0305 -1.2513
 1079SOL     OW14695   3.529   2.185   6.459  0.1890  0.0754  0.1182
 1079SOL    HW114696   3.604   2.141   6.498 -1.5015 -0.8593  2.3608
 1079SOL    HW214697   3.513   2.256   6.521 -0.6277  0.9916 -1.1151
 1080SOL     OW14698   1.908   3.452   5.030  0.5171  0.1369  0.7759
 1080SOL    HW114699   1.851   3.505   4.973  1.8195  1.4065  0.6606
 1080SOL    HW214700   1.866   3.472   5.114 -2.3963  1.4352 -0.9843
 1081SOL     OW14701   0.195   1.409   7.566 -0.1331 -0.2255  0.3037
 1081SOL    HW114702   0.238   1.376   7.487  0.7727 -2.1727  1.6344
 1081SOL    HW214703   0.215   1.345   7.634  0.5463 -0.3824 -0.0424
 1082SOL     OW14704   3.394   1.785  15.791  0.7032 -0.5097  0.0934
 1082SOL    HW114705   3.392   1.859  15.852 -1.0543 -1.1807  0.8278
 1082SOL    HW214706   3.332   1.728  15.836 -0.0891 -0.1410 -0.5246
 1083SOL     OW14707   3.505   1.706  12.838 -0.2340 -0.1974 -0.5675
 1083SOL    HW114708   3.595   1.690  12.808  0.2648  2.0592 -0.2722
 1083SOL    HW214709   3.473   1.619  12.862  0.9557 -0.3483  0.4480
 1084SOL     OW14710   4.180   4.008   6.241 -0.2675  0.2888  0.0444
 1084SOL    HW114711   4.267   3.986   6.208 -0.4133  1.4118 -1.1023
 1084SOL    HW214712   4.192   4.103   6.232 -2.1163  0.3892 -1.2344
 1085SOL     OW14713   3.311   1.465   7.779  0.0286 -0.3479  0.0435
 1085SOL    HW114714   3.235   1.467   7.838  1.1381  2.5169  1.4122
 1085SOL    HW214715   3.385   1.491   7.833  0.8863 -0.8268 -0.9190
 1086SOL     OW14716   3.847   4.429   3.739 -0.5573 -0.0495 -0.1533
 1086SOL    HW114717   3.848   4.469   3.827 -0.4849  0.8532 -0.5648
 1086SOL    HW214718   3.919   4.474   3.694  1.8794 -1.7930  1.9593
 1087SOL     OW14719   1.300   0.409   7.303 -0.4456  0.4822 -0.0758
 1087SOL    HW114720   1.272   0.326   7.264  0.0858 -0.4721  1.5454
 1087SOL    HW214721   1.258   0.477   7.251 -1.5992  0.7251  1.1737
 1088SOL     OW14722   3.646   3.564   4.865 -0.0553  0.4106  0.1674
 1088SOL    HW114723   3.679   3.654   4.861 -0.1008  0.4964  1.5217
 1088SOL    HW214724   3.588   3.584   4.792 -0.5241 -1.9168 -0.1029
 1089SOL     OW14725   1.624   1.211  15.798 -0.2121 -0.0797 -0.9727
 1089SOL    HW114726   1.592   1.198  15.709  0.0924 -0.4202 -1.0361
 1089SOL    HW214727   1.720   1.201  15.795 -0.3048 -0.5673 -2.3218
 1090SOL     OW14728   0.092   0.120   9.145 -0.3607  0.4530 -0.3458
 1090SOL    HW114729   0.122   0.089   9.060 -0.4238  0.6896 -0.4538
 1090SOL    HW214730   0.166   0.130   9.204 -0.4913 -1.7678  0.1766
 1091SOL     OW14731   2.789   3.135  14.362  1.3123 -0.0513 -0.3754
 1091SOL    HW114732   2.787   3.046  14.327 -1.3735 -0.1394  0.0134
 1091SOL    HW214733   2.824   3.181  14.285  1.2086  0.0134 -0.3835
 1092SOL     OW14734   0.359   0.312   9.196 -0.0020  0.2513  0.2816
 1092SOL    HW114735   0.355   0.309   9.100 -0.8740  2.4475  0.2439
 1092SOL    HW214736   0.425   0.379   9.211 -2.4627  2.7389  0.0014
 1093SOL     OW14737   3.220   1.561   5.908  0.0867  0.1282 -0.0372
 1093SOL    HW114738   3.280   1.501   5.952  3.0037  0.6432 -3.2829
 1093SOL    HW214739   3.266   1.560   5.824  1.2280  0.9656  0.5777
 1094SOL     OW14740   2.802   3.318   5.023  0.3585  0.0439 -0.0421
 1094SOL    HW114741   2.754   3.359   5.096 -1.5873  0.4065 -1.5022
 1094SOL    HW214742   2.891   3.348   5.041  0.9277 -1.9579  0.4323
 1095SOL     OW14743   3.211   1.156   5.934 -0.0505 -0.4280 -0.0663
 1095SOL    HW114744   3.133   1.143   5.881  0.2206  0.1900 -0.6194
 1095SOL    HW214745   3.266   1.079   5.919 -1.2557 -1.0066 -1.4475
 1096SOL     OW14746   1.440   3.289   3.431  0.2284  0.1517 -0.3615
 1096SOL    HW114747   1.377   3.358   3.449 -0.2152  0.0243 -1.4089
 1096SOL    HW214748   1.404   3.255   3.349  0.2715 -2.0295  0.5141
 1097SOL     OW14749   0.298   3.536  14.202 -0.3093  0.1792 -0.0031
 1097SOL    HW114750   0.383   3.496  14.221 -0.1437  0.6343  0.2199
 1097SOL    HW214751   0.238   3.461  14.204 -2.3342  1.8249  0.9061
 1098SOL     OW14752   0.845   2.375   7.834 -0.5169 -0.2247  0.0912
 1098SOL    HW114753   0.924   2.348   7.787 -0.5032  0.1884 -0.1139
 1098SOL    HW214754   0.826   2.287   7.868 -0.1482 -0.7829 -1.1642
 1099SOL     OW14755   4.615   1.025   3.923 -0.3279  0.0599  0.1206
 1099SOL    HW114756   4.708   1.024   3.898  0.1377  0.0385  1.8082
 1099SOL    HW214757   4.574   1.029   3.837 -1.1464 -2.6735  0.3865
 1100SOL     OW14758   1.713   2.512   4.074  0.8135 -0.1087 -0.4414
 1100SOL    HW114759   1.704   2.447   4.144 -1.5234  1.6602  0.8990
 1100SOL    HW214760   1.792   2.479   4.030  0.5226 -1.8233  0.2945
 1101SOL     OW14761   2.383   1.937   9.810 -0.5847 -0.3862  0.2828
 1101SOL    HW114762   2.356   1.884   9.885  0.5650  0.4587  1.2861
 1101SOL    HW214763   2.465   1.893   9.788  0.3093  2.1077 -1.3273
 1102SOL     OW14764   0.649   0.896   6.328 -0.8466  0.0784  0.1926
 1102SOL    HW114765   0.629   0.866   6.240  1.7131  0.6256 -0.5825
 1102SOL    HW214766   0.582   0.961   6.349 -1.4599 -1.2400  2.3082
 1103SOL     OW14767   1.575   3.480   2.271  0.5780 -0.1175 -0.6385
 1103SOL    HW114768   1.495   3.481   2.219  0.2234  0.6882 -0.0720
 1103SOL    HW214769   1.631   3.530   2.211  0.3321 -0.9764 -1.5920
 1104SOL     OW14770   0.414   3.578  15.916 -0.4341  0.0015 -0.0497
 1104SOL    HW114771   0.442   3.612  15.832 -2.4202  1.1415 -0.2500
 1104SOL    HW214772   0.437   3.485  15.908 -1.3357 -0.1341 -1.1412
 1105SOL     OW14773   3.637   4.115   4.121 -0.2197 -0.0385  0.6976
 1105SOL    HW114774   3.641   4.055   4.047  2.6681 -1.4142  1.9669
 1105SOL    HW214775   3.543   4.126   4.135 -0.5292 -1.3563 -0.3947
 1106SOL     OW14776   4.099   1.630   7.751  0.2354 -0.5680 -0.3123
 1106SOL    HW114777   4.084   1.708   7.698  1.7737  0.1390  0.2907
 1106SOL    HW214778   4.019   1.577   7.746 -0.0083 -0.1555 -0.7272
 1107SOL     OW14779   3.271   2.662   4.259 -0.3198  0.1160  0.0948
 1107SOL    HW114780   3.277   2.613   4.177  0.7360 -0.4973  0.5436
 1107SOL    HW214781   3.288   2.584   4.310  0.1495  1.7856  2.4787
 1108SOL     OW14782   1.750   4.177   7.953  0.6516 -1.0034 -0.0011
 1108SOL    HW114783   1.742   4.165   7.858  2.2956 -0.6993 -0.1748
 1108SOL    HW214784   1.657   4.158   7.967  0.1346  0.4156 -1.5836
 1109SOL     OW14785   2.707   1.447   4.586 -0.0611 -0.3556  0.0624
 1109SOL    HW114786   2.652   1.394   4.644 -0.0408  1.5655  1.8154
 1109SOL    HW214787   2.679   1.533   4.617  1.3407  0.1910 -0.1894
 1110SOL     OW14788   3.912   3.676   7.965  0.3271  0.4801  0.3316
 1110SOL    HW114789   3.866   3.605   7.920 -2.7275  0.6908  3.1894
 1110SOL    HW214790   3.923   3.630   8.048 -2.5637  2.0235  1.5200
 1111SOL     OW14791   0.948   1.905   4.011 -0.6410 -0.0571 -0.2964
 1111SOL    HW114792   1.016   1.971   4.026 -0.8513  0.2291 -0.5837
 1111SOL    HW214793   0.871   1.959   3.990 -0.9930 -0.3940  0.1387
 1112SOL     OW14794   0.188   2.357  17.037  0.2975  0.4672  0.5882
 1112SOL    HW114795   0.143   2.273  17.038  1.8832 -0.3336  3.2122
 1112SOL    HW214796   0.208   2.360  17.131 -0.0473  0.7108  0.6534
 1113SOL     OW14797   0.548   4.361   0.043 -0.2087  0.1051 -0.4169
 1113SOL    HW114798   0.592   4.421   0.103  3.5022 -2.3511 -0.7032
 1113SOL    HW214799   0.465   4.351   0.089 -1.6579 -1.7367 -3.3818
 1114SOL     OW14800   3.264   0.255   2.639  0.1524  0.8336  0.3786
 1114SOL    HW114801   3.357   0.229   2.646 -0.2529 -0.6350  0.3785
 1114SOL    HW214802   3.271   0.333   2.584 -1.2541 -0.1044 -1.1346
 1115SOL     OW14803   2.264   1.356   9.279 -0.6580 -0.1565  0.2478
 1115SOL    HW114804   2.221   1.442   9.273  0.2902  0.4036  1.4305
 1115SOL    HW214805   2.183   1.307   9.294 -0.9869  0.4049  0.3343
 1116SOL     OW14806   0.450   2.547  12.901  0.1889  0.3555  0.1936
 1116SOL    HW114807   0.432   2.545  12.995  0.2088 -0.3080  0.1847
 1116SOL    HW214808   0.378   2.494  12.866  0.8897  0.0811 -0.8564
 1117SOL     OW14809   3.100   2.142   2.473 -0.5196 -0.3432  0.3413
 1117SOL    HW114810   3.168   2.077   2.454 -2.1435 -1.1408 -2.9268
 1117SOL    HW214811   3.148   2.188   2.541 -0.8878  1.3263 -0.5286
 1118SOL     OW14812   3.028   4.220   2.700  0.0443  0.0461 -0.6148
 1118SOL    HW114813   3.119   4.245   2.684  0.5036 -1.4356 -0.2871
 1118SOL    HW214814   2.983   4.281   2.759  1.1837 -0.2432  0.5460
 1119SOL     OW14815   1.240   2.243   5.635 -0.4745 -0.1360 -0.0678
 1119SOL    HW114816   1.324   2.284   5.656  0.6686 -1.6551 -1.6093
 1119SOL    HW214817   1.275   2.184   5.568 -0.4899 -0.4319  0.1792
 1120SOL     OW14818   2.958   3.972   4.248 -0.2130  0.1189 -0.0013
 1120SOL    HW114819   3.013   4.049   4.258  0.0616  0.1141 -1.4937
 1120SOL    HW214820   3.013   3.901   4.213  0.2110 -1.2151  3.3678
 1121SOL     OW14821   2.485   3.229  12.168  0.3023  0.0038 -0.0742
 1121SOL    HW114822   2.573   3.209  12.198  0.3882  0.0333 -0.3054
 1121SOL    HW214823   2.486   3.164  12.098  1.2916 -0.1057  0.0519
 1122SOL     OW14824   4.706   1.716  15.461  0.0556 -0.2558 -0.0061
 1122SOL    HW114825   4.679   1.629  15.433  0.1474  0.3443 -1.9088
 1122SOL    HW214826   4.631   1.766  15.431  0.2221  0.9298  1.5639
 1123SOL     OW14827   4.427   3.344   0.698  0.1079  0.2913 -0.1776
 1123SOL    HW114828   4.336   3.318   0.714  0.3999  0.1524  1.2591
 1123SOL    HW214829   4.404   3.404   0.627  0.8633 -2.5916 -2.8580
 1124SOL     OW14830   2.251   3.828   4.282 -0.1990  0.1937  0.0170
 1124SOL    HW114831   2.298   3.911   4.269  1.3997 -1.0234 -1.8273
 1124SOL    HW214832   2.161   3.855   4.261  0.0906  0.8228 -0.4272
 1125SOL     OW14833   2.471   0.249   7.040 -0.3931  0.5287 -0.4147
 1125SOL    HW114834   2.385   0.227   7.076 -0.9304  1.1182 -1.3370
 1125SOL    HW214835   2.462   0.344   7.042 -0.1843  0.5761 -1.9554
 1126SOL     OW14836   2.269   3.253   8.554  0.0978  0.3573 -0.1771
 1126SOL    HW114837   2.348   3.205   8.531  0.2600 -0.4461  2.0509
 1126SOL    HW214838   2.301   3.340   8.531 -1.2191  0.2640 -2.3495
 1127SOL     OW14839   1.604   1.687   6.133  0.2461 -0.2617 -0.4640
 1127SOL    HW114840   1.520   1.660   6.171  0.9729  0.1481  1.4278
 1127SOL    HW214841   1.658   1.609   6.147  0.8591  0.2136 -0.1912
 1128SOL     OW14842   3.153   4.154   7.503  0.4115 -0.1465  0.2708
 1128SOL    HW114843   3.139   4.248   7.519 -0.7587 -0.5660  1.6751
 1128SOL    HW214844   3.248   4.154   7.516  0.0679 -2.9240  2.6295
 1129SOL     OW14845   3.130   2.143   5.461  0.5450  0.2787  0.3264
 1129SOL    HW114846   3.189   2.068   5.473 -0.2666 -0.4008  0.0822
 1129SOL    HW214847   3.070   2.133   5.534 -1.3085  0.2263 -1.1868
 1130SOL     OW14848   3.220   2.846   6.367  0.0796 -0.0590 -0.3532
 1130SOL    HW114849   3.210   2.885   6.454  0.2460 -0.3550 -0.2057
 1130SOL    HW214850   3.216   2.752   6.381 -0.4418 -0.1862 -1.3283
 1131SOL     OW14851   2.570   1.368   2.168 -0.1648 -0.2916 -0.3296
 1131SOL    HW114852   2.650   1.332   2.129  0.1290  0.7960 -0.7042
 1131SOL    HW214853   2.599   1.439   2.225  0.5947 -0.2841 -0.7197
 1132SOL     OW14854   4.129   0.259   4.435  0.1401  0.4131 -0.2496
 1132SOL    HW114855   4.196   0.242   4.369 -1.7054  1.0005 -2.2566
 1132SOL    HW214856   4.055   0.275   4.377 -0.5915  2.8150  1.3177
 1133SOL     OW14857   1.567   0.821  11.300  0.2007  0.4621  0.2144
 1133SOL    HW114858   1.589   0.913  11.315  0.3044  0.2674  1.2170
 1133SOL    HW214859   1.623   0.812  11.223  0.6609  2.4571  0.3047
 1134SOL     OW14860   1.825   2.087  10.185  0.7960  0.1832  0.0124
 1134SOL    HW114861   1.730   2.083  10.190  0.9261 -0.9881  1.4662
 1134SOL    HW214862   1.842   2.013  10.126  0.6802  0.7059 -0.6692
 1135SOL     OW14863   0.387   2.848   7.378 -0.0660  0.2964 -0.0719
 1135SOL    HW114864   0.349   2.778   7.431 -0.9471 -0.2543 -1.4350
 1135SOL    HW214865   0.457   2.884   7.433 -0.4322 -1.6074  1.6305
 1136SOL     OW14866   0.824   1.929   8.454  0.1855 -0.0276  0.6085
 1136SOL    HW114867   0.898   1.917   8.395  0.8814  0.1244  1.4600
 1136SOL    HW214868   0.853   1.883   8.533  2.0460 -0.0168 -0.0690
 1137SOL     OW14869   2.669   2.587   5.293  0.5964  0.0671 -0.0166
 1137SOL    HW114870   2.726   2.510   5.291  0.1430 -0.2608 -0.3224
 1137SOL    HW214871   2.666   2.603   5.199  0.7465 -0.8024 -0.1656
 1138SOL     OW14872   3.155   3.369  14.163 -0.7831 -0.2474  0.4675
 1138SOL    HW114873   3.143   3.330  14.249 -1.0051  1.5649  1.2530
 1138SOL    HW214874   3.218   3.439  14.181  1.2166 -1.9855  0.2234
 1139SOL     OW14875   3.835   4.237   6.763  0.7186  0.3886  0.5580
 1139SOL    HW114876   3.897   4.228   6.835 -0.4150  1.5886  1.6933
 1139SOL    HW214877   3.822   4.332   6.757 -1.0564  0.1627  0.9269
 1140SOL     OW14878   3.039   2.942   3.238  0.1100 -0.7421 -0.5497
 1140SOL    HW114879   3.017   2.884   3.165 -2.1565  0.8360 -1.1544
 1140SOL    HW214880   2.970   2.903   3.292  2.1147 -2.5585  0.6553
 1141SOL     OW14881   2.857   0.050   3.143 -0.2451  0.0283  0.2811
 1141SOL    HW114882   2.891   0.029   3.230  1.2268 -2.6191 -0.9299
 1141SOL    HW214883   2.821   4.694   3.102  1.9386 -0.3361 -0.9103
 1142SOL     OW14884   1.321   1.563  15.444 -0.2662 -0.4183  0.1700
 1142SOL    HW114885   1.296   1.655  15.435  2.0931  0.2406  0.4633
 1142SOL    HW214886   1.240   1.516  15.462  0.1198 -1.4463 -0.7675
 1143SOL     OW14887   2.608   3.680   3.572  0.8721  0.0711  0.3047
 1143SOL    HW114888   2.693   3.645   3.597  0.5457 -0.4078  0.7551
 1143SOL    HW214889   2.639   3.763   3.537 -0.9041  0.4490 -0.3751
 1144SOL     OW14890   3.811   3.280   5.349  0.3243  0.3294 -0.2132
 1144SOL    HW114891   3.880   3.313   5.407  0.8001 -0.9574 -0.0356
 1144SOL    HW214892   3.852   3.319   5.271  4.3691 -2.9597  0.2213
 1145SOL     OW14893   1.045   1.091   8.743  0.1878 -0.2077  0.1074
 1145SOL    HW114894   1.087   1.158   8.797  0.9382 -0.2119 -0.4803
 1145SOL    HW214895   1.010   1.136   8.666 -0.4624  0.3515  0.7378
 1146SOL     OW14896   1.526   3.242   8.023 -0.4872  0.6668 -0.4203
 1146SOL    HW114897   1.486   3.155   8.016 -0.9961  0.8637 -0.0166
 1146SOL    HW214898   1.611   3.227   7.982 -2.1756 -1.3265 -3.1780
 1147SOL     OW14899   2.071   0.308  15.969  0.0171  0.2410 -0.1858
 1147SOL    HW114900   2.130   0.363  16.021  0.2374  0.2564 -0.4472
 1147SOL    HW214901   1.998   0.305  16.030 -0.7855 -0.3222 -1.1756
 1148SOL     OW14902   0.422   4.557   4.903 -0.4203  0.0388 -0.0343
 1148SOL    HW114903   0.424   4.600   4.988  0.4229 -2.6317  1.3000
 1148SOL    HW214904   0.367   4.617   4.853 -0.9062 -1.0950 -0.8692
 1149SOL     OW14905   0.999   1.487  16.800 -0.0814 -0.2115 -0.1892
 1149SOL    HW114906   0.932   1.524  16.743 -0.0414 -0.3862 -0.3489
 1149SOL    HW214907   0.984   1.535  16.882 -0.7465  0.9611 -0.9958
 1150SOL     OW14908   3.070   3.226   5.033  0.3229  0.1489  0.4206
 1150SOL    HW114909   3.116   3.288   4.977 -0.4353 -1.1709 -1.6361
 1150SOL    HW214910   3.047   3.148   4.984 -0.4104 -0.0303  1.0460
 1151SOL     OW14911   2.165   1.009   1.399 -0.4811  0.0636  0.3536
 1151SOL    HW114912   2.232   1.038   1.337 -0.4867  0.0863  0.3579
 1151SOL    HW214913   2.103   1.081   1.412  0.4574  1.2329 -1.7467
 1152SOL     OW14914   0.033   3.556   8.905 -0.5254 -0.2553 -0.4658
 1152SOL    HW114915   4.684   3.496   8.890 -1.3223  0.1736  1.7460
 1152SOL    HW214916   4.723   3.643   8.882  1.0721  0.2164 -1.0253
 1153SOL     OW14917   3.433   3.371  15.683  0.1455  0.5748  0.0010
 1153SOL    HW114918   3.341   3.350  15.667 -0.0705  1.3837  0.1773
 1153SOL    HW214919   3.451   3.453  15.636 -0.4026  1.4279  1.2634
 1154SOL     OW14920   1.003   1.864   7.658 -0.3125 -0.7908  0.5983
 1154SOL    HW114921   1.070   1.927   7.632 -0.8087 -0.6469 -0.3096
 1154SOL    HW214922   0.945   1.866   7.582  0.1614  0.1153  0.2542
 1155SOL     OW14923   1.907   1.836  10.914 -0.2073  0.0380 -0.6688
 1155SOL    HW114924   1.840   1.874  10.858 -0.1085 -0.0847 -0.8674
 1155SOL    HW214925   1.985   1.890  10.904  0.0339 -0.0729  0.5316
 1156SOL     OW14926   4.424   2.998   2.433 -0.6227 -0.1502 -0.5735
 1156SOL    HW114927   4.333   3.027   2.420 -0.0834  1.2616 -1.2284
 1156SOL    HW214928   4.410   2.915   2.387 -0.5368  1.3482 -3.2878
 1157SOL     OW14929   3.922   0.612   4.314  0.2941 -0.0700 -0.2514
 1157SOL    HW114930   3.890   0.663   4.389 -0.4936 -2.1149  0.7971
 1157SOL    HW214931   4.009   0.577   4.336  0.6636  1.0107  0.0344
 1158SOL     OW14932   2.437   1.509   0.542 -0.0239  0.0263 -0.3103
 1158SOL    HW114933   2.470   1.585   0.495 -0.5085  0.6865  0.4079
 1158SOL    HW214934   2.501   1.448   0.507  1.2012 -0.4600  2.7579
 1159SOL     OW14935   0.624   0.725   3.866  0.0023  0.1185  0.1719
 1159SOL    HW114936   0.567   0.798   3.842 -0.3776  0.8182  3.1197
 1159SOL    HW214937   0.685   0.757   3.932 -0.0422 -0.7175  0.6248
 1160SOL     OW14938   3.329   3.583  14.242 -0.0215 -0.4467  0.1804
 1160SOL    HW114939   3.413   3.557  14.204  0.0825  0.5749 -0.2729
 1160SOL    HW214940   3.346   3.672  14.271  0.7862 -0.9713  1.3128
 1161SOL     OW14941   3.638   1.892   9.411  0.2003 -0.7935  0.2996
 1161SOL    HW114942   3.570   1.959   9.421 -0.2066 -0.8638 -1.8925
 1161SOL    HW214943   3.668   1.923   9.325 -2.9620 -0.0185 -0.5446
 1162SOL     OW14944   3.477   4.582   7.811 -0.1424 -0.2568  0.2500
 1162SOL    HW114945   3.497   4.502   7.861 -1.1657  0.5227  1.8936
 1162SOL    HW214946   3.394   4.613   7.846 -1.4446 -2.0106 -1.2675
 1163SOL     OW14947   1.630   1.874   5.144 -0.0833 -0.8726  0.3136
 1163SOL    HW114948   1.696   1.807   5.126  0.9799  0.3243 -0.2264
 1163SOL    HW214949   1.677   1.940   5.195 -1.1095  0.2329 -0.1813
 1164SOL     OW14950   4.683   2.707  16.009 -0.1069 -0.1312 -0.2957
 1164SOL    HW114951   4.641   2.621  16.010  1.1610 -0.7326  0.2789
 1164SOL    HW214952   4.616   2.758  16.055  0.1004 -1.1486  1.1249
 1165SOL     OW14953   4.326   3.877  15.134  0.1592  0.0553  0.7043
 1165SOL    HW114954   4.318   3.783  15.149 -0.2462 -0.1713 -0.9588
 1165SOL    HW214955   4.396   3.874  15.070  0.7080 -2.2885  1.4064
 1166SOL     OW14956   3.093   0.492  16.876  0.1273 -0.3723 -0.1031
 1166SOL    HW114957   3.060   0.457  16.794 -0.9063  2.3568 -0.8541
 1166SOL    HW214958   3.066   0.428  16.942 -0.6265 -0.6765 -0.7060
 1167SOL     OW14959   4.320   3.097   3.202 -0.2715  0.1397  0.3663
 1167SOL    HW114960   4.230   3.107   3.171 -0.0760  0.3486 -0.1321
 1167SOL    HW214961   4.316   3.006   3.232 -1.1727  0.4999  1.3295
 1168SOL     OW14962   1.681   4.266   5.721 -0.2979  0.3748 -0.1081
 1168SOL    HW114963   1.703   4.323   5.794  0.1492 -0.7553  0.6307
 1168SOL    HW214964   1.697   4.328   5.650 -1.7968  0.5335 -0.3089
 1169SOL     OW14965   3.697   2.833   9.376  0.4958 -0.1018  0.4204
 1169SOL    HW114966   3.698   2.799   9.466 -1.0604  2.1879  1.3202
 1169SOL    HW214967   3.622   2.786   9.338  0.0606  1.0066 -0.1019
 1170SOL     OW14968   1.081   4.549   8.134  0.2805 -0.2534  0.0072
 1170SOL    HW114969   1.148   4.481   8.146  2.1812  1.5384 -0.3357
 1170SOL    HW214970   1.118   4.616   8.076  1.3994 -1.3426 -0.5452
 1171SOL     OW14971   1.019   0.755  12.075 -0.0052  0.3236  0.1159
 1171SOL    HW114972   0.981   0.796  11.997  0.1506 -0.4466 -0.3587
 1171SOL    HW214973   1.084   0.699  12.033  0.3699  0.2320  0.8257
 1172SOL     OW14974   1.523   0.192   5.253 -0.5360 -0.4748 -0.4478
 1172SOL    HW114975   1.539   0.112   5.302  0.0105 -1.1635 -1.7343
 1172SOL    HW214976   1.435   0.200   5.289 -0.3986  1.1155 -0.4703
 1173SOL     OW14977   3.652   3.594   5.191 -0.0015  0.7096  0.2362
 1173SOL    HW114978   3.733   3.608   5.142  0.6365  0.7203  1.3208
 1173SOL    HW214979   3.595   3.642   5.131  0.2718 -1.0205 -1.4197
 1174SOL     OW14980   3.075   2.108  13.858 -0.3474  0.2681  0.2863
 1174SOL    HW114981   3.104   2.128  13.769 -0.8451  1.1563  0.3247
 1174SOL    HW214982   3.033   2.189  13.884 -2.3566 -1.4632  2.4554
 1175SOL     OW14983   3.501   4.008  17.605  0.2024 -0.6257  0.5137
 1175SOL    HW114984   3.575   4.025  17.662  1.2455 -0.8949 -0.7686
 1175SOL    HW214985   3.495   4.089  17.555  2.3194 -2.2472 -2.3599
 1176SOL     OW14986   1.130   0.245   8.625 -0.0861  0.5765  0.1373
 1176SOL    HW114987   1.182   0.186   8.681 -1.7754 -1.9807 -1.0007
 1176SOL    HW214988   1.145   0.327   8.673 -0.1898 -0.3414  1.7361
 1177SOL     OW14989   0.196   0.934   7.081  0.4040 -0.1330 -0.0748
 1177SOL    HW114990   0.267   0.993   7.054  1.0967 -1.2659 -0.7431
 1177SOL    HW214991   0.230   0.902   7.165 -0.2477 -2.1853 -0.5801
 1178SOL     OW14992   2.181   4.468   8.312 -0.2340 -1.0373  0.3453
 1178SOL    HW114993   2.093   4.504   8.322 -0.0394 -0.4733 -0.0244
 1178SOL    HW214994   2.198   4.475   8.219  1.0744  1.0442  0.7583
 1179SOL     OW14995   0.961   3.246   2.102  0.1375  0.1056 -0.0672
 1179SOL    HW114996   0.947   3.331   2.060  1.2017 -0.3922 -1.4083
 1179SOL    HW214997   1.050   3.224   2.077  0.6359 -0.2832  2.0261
 1180SOL     OW14998   0.621   3.260  10.005 -0.8436 -0.4167  0.5149
 1180SOL    HW114999   0.605   3.205   9.928 -0.6156  1.1995 -0.6827
 1180SOL    HW215000   0.529   3.277  10.024 -1.0887 -2.4492  1.2264
 1181SOL     OW15001   3.330   0.714  11.453 -0.2102 -0.5936 -0.0653
 1181SOL    HW115002   3.332   0.806  11.479  1.6395  0.3493 -3.6113
 1181SOL    HW215003   3.240   0.684  11.464 -0.2434 -0.0834  1.0428
 1182SOL     OW15004   1.863   1.231   0.353 -0.6884  0.2591 -0.2287
 1182SOL    HW115005   1.935   1.275   0.398 -0.2244 -0.8021  0.0496
 1182SOL    HW215006   1.852   1.158   0.414  0.1146  0.3737  0.0572
 1183SOL     OW15007   2.013   4.225   9.024  0.5742  0.2291 -0.5578
 1183SOL    HW115008   1.919   4.238   9.028  0.5258 -0.4837  0.6753
 1183SOL    HW215009   2.015   4.136   8.988  0.2802  0.2423 -0.6007
 1184SOL     OW15010   2.592   1.600   5.185  0.3416 -0.0369 -0.1047
 1184SOL    HW115011   2.592   1.523   5.241 -0.0972 -0.9374 -1.3270
 1184SOL    HW215012   2.659   1.576   5.120  0.4610 -0.5195  0.1960
 1185SOL     OW15013   0.170   1.214   3.877  0.3955  0.8897  0.3276
 1185SOL    HW115014   0.174   1.176   3.789  0.1724 -1.1337  1.1934
 1185SOL    HW215015   0.215   1.298   3.864  0.5290  0.8796  0.7160
 1186SOL     OW15016   0.189   4.647   2.633 -0.1994 -0.0624  0.2369
 1186SOL    HW115017   0.219   4.644   2.542  0.1758  0.3150  0.3464
 1186SOL    HW215018   0.134   0.002   2.633 -1.8612 -1.2222  0.9501
 1187SOL     OW15019   0.368   1.803   5.314  0.1648  0.2994  0.0257
 1187SOL    HW115020   0.347   1.832   5.225 -1.1503  1.5965  0.7776
 1187SOL    HW215021   0.412   1.724   5.281 -1.6939 -1.1245  0.9823
 1188SOL     OW15022   3.714   3.454  13.914  0.2744  0.3892 -0.7042
 1188SOL    HW115023   3.757   3.384  13.866 -2.7579 -0.9983 -1.3981
 1188SOL    HW215024   3.625   3.450  13.879  0.3175 -4.8269 -0.2194
 1189SOL     OW15025   4.057   3.176  13.029 -0.1365  0.1957 -0.2077
 1189SOL    HW115026   4.148   3.157  13.004  0.6305  1.0915  1.9136
 1189SOL    HW215027   4.041   3.100  13.086 -1.3425  0.8261  0.2997
 1190SOL     OW15028   0.124   2.942   4.470  0.1040  0.2192 -0.1878
 1190SOL    HW115029   0.217   2.936   4.447  0.8516  1.2093  2.5481
 1190SOL    HW215030   0.104   3.035   4.455 -0.1773  0.0238 -1.0053
 1191SOL     OW15031   3.085   2.577   7.772  0.2369  0.1579  0.1424
 1191SOL    HW115032   3.130   2.510   7.720 -1.1869 -0.6819  0.0004
 1191SOL    HW215033   3.158   2.638   7.762  1.2247 -0.5188  3.5450
 1192SOL     OW15034   2.094   3.941   9.252  0.0625 -0.4559  0.3444
 1192SOL    HW115035   2.047   3.875   9.201 -1.1766  1.2049 -0.6528
 1192SOL    HW215036   2.030   4.007   9.278  0.4458 -0.8505  2.3265
 1193SOL     OW15037   0.943   1.262   5.294  0.2756 -0.3621  0.7028
 1193SOL    HW115038   0.980   1.184   5.335  1.5478  0.1038  0.4431
 1193SOL    HW215039   0.998   1.334   5.325  0.4879  0.6787 -2.1091
 1194SOL     OW15040   1.700   1.312   6.383 -0.4956  0.2005  0.0947
 1194SOL    HW115041   1.696   1.228   6.337 -0.4659  0.1635  0.1616
 1194SOL    HW215042   1.622   1.292   6.434 -1.4356 -0.3440 -1.5276
 1195SOL     OW15043   2.652   1.128   8.707 -0.3532 -0.1497  0.5974
 1195SOL    HW115044   2.709   1.112   8.632  0.3028 -2.7459  1.6350
 1195SOL    HW215045   2.617   1.209   8.673  0.7647  0.2803  0.4641
 1196SOL     OW15046   3.094   1.015   6.771  0.4083  0.1218  0.3359
 1196SOL    HW115047   3.043   1.079   6.821 -1.3550 -0.1231 -1.1658
 1196SOL    HW215048   3.171   1.067   6.751  0.2109 -0.1150 -0.9980
 1197SOL     OW15049   2.037   2.622  13.093 -0.0622  0.1872  0.5305
 1197SOL    HW115050   2.068   2.534  13.116 -1.1229 -0.4615 -0.5341
 1197SOL    HW215051   2.010   2.654  13.179 -0.7550  0.9903  0.0073
 1198SOL     OW15052   3.344   0.030   6.894  0.0922  0.0593  0.5059
 1198SOL    HW115053   3.282   0.055   6.963 -0.4897 -0.7525  0.2809
 1198SOL    HW215054   3.379   0.110   6.856 -0.5669  0.1850  0.1642
 1199SOL     OW15055   2.818   1.833   6.216 -0.4697 -0.0882  0.2486
 1199SOL    HW115056   2.813   1.824   6.121  2.1293 -0.3760  0.1479
 1199SOL    HW215057   2.888   1.898   6.222  1.1892 -1.9594  1.3079
 1200SOL     OW15058   3.660   2.506   4.607  0.0423 -0.4032 -0.3018
 1200SOL    HW115059   3.591   2.460   4.654  0.0515 -0.2600 -0.1477
 1200SOL    HW215060   3.688   2.433   4.552  1.7218 -0.4687  0.6334
 1201SOL     OW15061   3.588   0.075   9.668 -0.5570  0.3546 -0.1452
 1201SOL    HW115062   3.634   0.008   9.618 -1.4317 -1.2738  1.2152
 1201SOL    HW215063   3.509   0.026   9.689  0.0877 -1.7458 -2.7548
 1202SOL     OW15064   1.616   3.621  10.966  0.2852  0.6916 -0.0671
 1202SOL    HW115065   1.654   3.708  10.981 -1.1175  1.0667  1.3940
 1202SOL    HW215066   1.640   3.600  10.876  1.5837  2.4943 -0.1564
 1203SOL     OW15067   1.698   4.370   2.896  0.2472 -0.0301 -0.4783
 1203SOL    HW115068   1.664   4.282   2.914  1.7176 -0.5877 -0.4735
 1203SOL    HW215069   1.686   4.416   2.979  0.6719 -0.5344 -0.1363
 1204SOL     OW15070   4.686   1.908   6.295  0.4804  0.0823 -0.1037
 1204SOL    HW115071   0.014   1.868   6.226 -0.6372 -0.6438 -0.5064
 1204SOL    HW215072   0.028   1.896   6.364  1.5549  0.1618 -1.1332
 1205SOL     OW15073   0.603   1.588   3.861 -0.4171 -0.1102  0.0005
 1205SOL    HW115074   0.598   1.539   3.779 -0.3727 -0.7458  0.3773
 1205SOL    HW215075   0.600   1.675   3.821 -0.4494 -1.8684 -3.8020
 1206SOL     OW15076   4.702   3.048  10.225  0.4458 -0.2903  0.4049
 1206SOL    HW115077   0.003   3.122  10.170  1.9625 -1.6206 -0.6887
 1206SOL    HW215078   0.056   2.995  10.209 -1.2934 -2.1315 -1.8926
 1207SOL     OW15079   1.034   2.746   6.888 -0.1686  0.2641  0.3984
 1207SOL    HW115080   1.036   2.818   6.952 -0.4281  1.5957 -1.0910
 1207SOL    HW215081   1.074   2.681   6.944 -1.9455  0.2058  1.6163
 1208SOL     OW15082   3.034   1.338   6.020 -0.3439  0.8007  0.0725
 1208SOL    HW115083   3.109   1.285   5.993  0.0590  0.7254  1.3318
 1208SOL    HW215084   3.045   1.420   5.972  1.9760  1.3557  1.5670
 1209SOL     OW15085   0.770   1.268  12.675  0.3801 -0.8460 -0.3272
 1209SOL    HW115086   0.700   1.317  12.632 -0.6350 -0.6740  1.5143
 1209SOL    HW215087   0.835   1.337  12.689 -0.2230 -0.7080  1.8054
 1210SOL     OW15088   1.317   0.700   8.966 -0.9531  0.0193  0.0105
 1210SOL    HW115089   1.359   0.670   8.885 -1.1631  1.7513 -0.7479
 1210SOL    HW215090   1.362   0.660   9.041  2.0984  2.4631 -0.5253
 1211SOL     OW15091   2.368   3.764   2.834 -0.1498  0.1042 -0.1116
 1211SOL    HW115092   2.333   3.826   2.770 -0.3445 -1.2104 -1.2708
 1211SOL    HW215093   2.459   3.795   2.838  0.3514 -1.5407  1.2065
 1212SOL     OW15094   0.751   4.337   8.043  0.0421 -0.1196 -0.0329
 1212SOL    HW115095   0.780   4.252   8.010  2.6231  0.3989  0.8900
 1212SOL    HW215096   0.789   4.325   8.130  1.5105  1.4561 -0.4533
 1213SOL     OW15097   0.047   4.422   8.388  0.0953  0.1955 -0.2139
 1213SOL    HW115098   4.681   4.427   8.421  0.3466 -0.5654  0.5858
 1213SOL    HW215099   0.099   4.454   8.462  1.4206 -0.5629 -0.8181
 1214SOL     OW15100   0.242   1.656   7.481  0.3504 -0.5374 -0.0782
 1214SOL    HW115101   0.227   1.714   7.557 -0.6153 -0.6495 -0.1864
 1214SOL    HW215102   0.213   1.572   7.516 -3.0888  0.1858 -1.2215
 1215SOL     OW15103   3.198   3.371   6.519 -0.3908 -0.1444  0.8391
 1215SOL    HW115104   3.209   3.406   6.431  2.1834  0.6637  1.4765
 1215SOL    HW215105   3.112   3.331   6.531 -1.6767  1.8443 -1.7766
 1216SOL     OW15106   3.948   1.984   9.478 -0.2998 -0.2763 -0.4308
 1216SOL    HW115107   3.944   1.949   9.567  1.0468  0.4953 -0.0728
 1216SOL    HW215108   3.856   2.004   9.460 -0.6719 -0.6067  1.0927
 1217SOL     OW15109   0.492   4.489   6.017  0.3002 -0.5064  0.1880
 1217SOL    HW115110   0.429   4.468   6.086 -0.2985 -1.3764 -0.6226
 1217SOL    HW215111   0.538   4.405   6.011  0.0775 -0.6997  1.2368
 1218SOL     OW15112   4.313   1.336   3.154  0.6066  0.0334  0.3697
 1218SOL    HW115113   4.290   1.253   3.195 -0.3774 -0.9289 -2.1346
 1218SOL    HW215114   4.403   1.348   3.185  1.8145 -2.5198 -2.1256
 1219SOL     OW15115   4.425   2.229   7.864  0.2501  0.6572  0.2960
 1219SOL    HW115116   4.455   2.316   7.889  1.8777 -0.2449  1.5161
 1219SOL    HW215117   4.405   2.232   7.770  1.2149  0.0283  0.0707
 1220SOL     OW15118   4.401   3.967  12.407 -0.2921  0.0882 -0.0821
 1220SOL    HW115119   4.349   4.013  12.341  2.5278  0.4473 -2.0787
 1220SOL    HW215120   4.337   3.908  12.445 -0.3665  0.3251  0.1621
 1221SOL     OW15121   2.453   0.332  17.393  0.1940  0.1574  0.4653
 1221SOL    HW115122   2.517   0.269  17.362 -0.2069 -0.0115 -0.0205
 1221SOL    HW215123   2.475   0.328  17.486 -0.7783 -1.5305  0.6260
 1222SOL     OW15124   3.349   2.306   7.927  0.2744 -0.0845  0.5128
 1222SOL    HW115125   3.381   2.396   7.920  2.7552 -1.0325 -0.3764
 1222SOL    HW215126   3.435   2.263   7.925  0.4754  0.2608  1.8723
 1223SOL     OW15127   0.456   3.392  11.233  0.9990  0.4786  0.4202
 1223SOL    HW115128   0.455   3.311  11.183  2.6729  0.4274  0.4688
 1223SOL    HW215129   0.369   3.392  11.272  2.4150 -0.0075  3.5633
 1224SOL     OW15130   4.347   0.921  14.955  0.1765 -0.1459 -0.2406
 1224SOL    HW115131   4.264   0.893  14.916  0.3459 -0.5064 -0.3428
 1224SOL    HW215132   4.377   0.838  14.993 -0.9809 -0.4388  0.0269
 1225SOL     OW15133   3.582   4.114   4.454  0.0051  0.1029 -0.1296
 1225SOL    HW115134   3.553   4.178   4.389 -1.1009 -1.3761 -1.0875
 1225SOL    HW215135   3.624   4.175   4.514 -3.1873  1.4770  0.6818
 1226SOL     OW15136   1.188   4.235   9.780  0.4517 -0.1944 -0.1702
 1226SOL    HW115137   1.249   4.236   9.853 -0.4175 -1.1733  0.5642
 1226SOL    HW215138   1.170   4.141   9.779  2.0987 -0.4974 -2.1524
 1227SOL     OW15139   2.915   1.468   3.778  0.6035 -0.6616  0.5423
 1227SOL    HW115140   3.005   1.468   3.809  1.7435  0.2260 -2.7357
 1227SOL    HW215141   2.938   1.468   3.685  1.6032  1.5689  0.7775
 1228SOL     OW15142   0.393   1.141   5.042 -0.2108 -0.1920 -0.2328
 1228SOL    HW115143   0.428   1.136   5.131  1.1626 -0.6424 -0.7939
 1228SOL    HW215144   0.455   1.201   5.001 -1.2160  0.5668 -0.6229
 1229SOL     OW15145   0.279   2.508   5.497 -0.0747  0.2617  0.2608
 1229SOL    HW115146   0.312   2.553   5.419  0.2306 -0.1333  0.1630
 1229SOL    HW215147   0.272   2.424   5.452 -3.2618  1.1601 -0.9639
 1230SOL     OW15148   1.279   1.594  10.090  0.1353  0.0816  0.0700
 1230SOL    HW115149   1.262   1.658  10.158  0.6979 -0.4204  0.6836
 1230SOL    HW215150   1.258   1.513  10.137  0.8891 -0.8634 -1.2075
 1231SOL     OW15151   3.884   1.739  16.028 -0.1105  0.0908 -0.3853
 1231SOL    HW115152   3.920   1.750  15.941  1.1819  0.1616  0.1665
 1231SOL    HW215153   3.919   1.653  16.052 -1.4638 -0.1021  0.9415
 1232SOL     OW15154   2.190   3.226   5.669  0.3123 -0.0033  0.0229
 1232SOL    HW115155   2.219   3.171   5.742 -3.0460 -0.6219  0.8991
 1232SOL    HW215156   2.097   3.201   5.673  0.4054 -0.5993 -1.4200
 1233SOL     OW15157   0.246   3.445   3.894  0.5515 -0.2772  0.2874
 1233SOL    HW115158   0.234   3.369   3.838 -1.1641  0.8162 -0.8442
 1233SOL    HW215159   0.282   3.508   3.831  0.3966 -0.3125  0.1640
 1234SOL     OW15160   4.005   4.493   7.374  0.4336  0.3518 -0.3490
 1234SOL    HW115161   3.995   4.537   7.459  1.4996  1.0925 -0.6058
 1234SOL    HW215162   3.972   4.404   7.385 -1.2050  1.1671  1.4243
 1235SOL     OW15163   3.859   0.033   7.543 -0.0491  0.1423 -0.0252
 1235SOL    HW115164   3.938   0.001   7.587 -0.9227 -0.6845  0.9546
 1235SOL    HW215165   3.901   0.075   7.468 -0.8232 -0.6582 -0.8937
 1236SOL     OW15166   0.425   0.256   2.292 -0.1582 -0.3960 -0.3964
 1236SOL    HW115167   0.450   0.176   2.246  0.5357 -0.2751 -0.2317
 1236SOL    HW215168   0.483   0.320   2.250  0.5268 -0.0731  1.0295
 1237SOL     OW15169   4.129   3.590   4.923 -0.0613 -0.1921  0.6333
 1237SOL    HW115170   4.130   3.686   4.919  0.3437 -0.2750 -1.4467
 1237SOL    HW215171   4.221   3.565   4.917  0.4443  1.3014  2.2015
 1238SOL     OW15172   2.257   3.972   2.570  0.1919 -0.5708 -0.0810
 1238SOL    HW115173   2.241   4.038   2.503 -2.4827 -0.8677  0.2677
 1238SOL    HW215174   2.332   3.929   2.529 -0.7176 -1.0807 -1.2232
 1239SOL     OW15175   2.210   3.991   4.600  0.3231 -0.1442 -0.2098
 1239SOL    HW115176   2.197   3.985   4.506 -3.2140  0.1952  0.2715
 1239SOL    HW215177   2.143   3.932   4.633  1.0303 -0.0816  1.3712
 1240SOL     OW15178   1.068   2.873   2.284  0.1337  0.2167  0.0169
 1240SOL    HW115179   0.984   2.920   2.290 -0.0781 -0.2361  0.5696
 1240SOL    HW215180   1.127   2.948   2.290  1.4875 -0.9806  1.4654
 1241SOL     OW15181   4.498   0.654   0.862 -0.1920 -0.1444 -1.0245
 1241SOL    HW115182   4.432   0.599   0.819 -1.4535  1.1986 -0.8145
 1241SOL    HW215183   4.434   0.709   0.908  1.6095 -0.1572  1.4605
 1242SOL     OW15184   1.102   1.617   1.225  0.1489  0.3188 -0.1007
 1242SOL    HW115185   1.157   1.670   1.283  1.1980  0.2940 -1.0872
 1242SOL    HW215186   1.080   1.544   1.282  1.3903  1.5850  1.9967
 1243SOL     OW15187   2.421   0.796   2.199 -0.5607 -0.6098  0.4310
 1243SOL    HW115188   2.400   0.776   2.290 -2.5540  0.5681  0.2122
 1243SOL    HW215189   2.357   0.865   2.187 -0.5433 -0.1242  3.1380
 1244SOL     OW15190   1.340   0.525   0.929 -0.0311 -0.3850 -0.3410
 1244SOL    HW115191   1.277   0.595   0.914 -1.4494 -1.0431  2.6396
 1244SOL    HW215192   1.411   0.561   0.982  0.6565  1.9097 -2.8070
 1245SOL     OW15193   3.315   2.331   7.280 -0.1820 -0.1215  0.1235
 1245SOL    HW115194   3.336   2.332   7.186 -0.4835  0.8700  0.0674
 1245SOL    HW215195   3.388   2.382   7.315  1.4306 -1.3876 -1.3726
 1246SOL     OW15196   4.177   1.615   2.237 -0.1939 -0.0864 -0.0678
 1246SOL    HW115197   4.269   1.600   2.260  0.3291  2.5069 -0.4581
 1246SOL    HW215198   4.141   1.677   2.300  1.4355  0.5299  0.2483
 1247SOL     OW15199   3.779   2.430  10.391 -0.1476 -0.3062 -0.4590
 1247SOL    HW115200   3.730   2.495  10.341  0.1105  0.6478  0.5392
 1247SOL    HW215201   3.858   2.420  10.338  0.2737  1.8441 -0.2034
 1248SOL     OW15202   0.831   3.460  11.994 -0.2364  0.1568 -0.0210
 1248SOL    HW115203   0.912   3.409  11.997 -0.6246 -0.5753 -1.7766
 1248SOL    HW215204   0.856   3.541  11.950  0.1805 -0.8719 -1.6945
 1249SOL     OW15205   3.822   1.191   4.435  0.0531  0.3794  0.0652
 1249SOL    HW115206   3.859   1.174   4.349  1.2148  0.0702  0.6275
 1249SOL    HW215207   3.745   1.134   4.439  0.1217  0.3508  1.1629
 1250SOL     OW15208   1.655   1.302   9.701 -0.1540 -0.2010 -0.5562
 1250SOL    HW115209   1.744   1.279   9.728 -0.6742 -0.4320  0.9218
 1250SOL    HW215210   1.661   1.246   9.623 -0.5564 -0.4773 -0.3848
 1251SOL     OW15211   1.678   2.862   3.476  0.3761  0.5652  0.0760
 1251SOL    HW115212   1.774   2.871   3.476  0.4944 -0.7706 -0.9960
 1251SOL    HW215213   1.655   2.950   3.506  1.0471  0.8460 -0.2383
 1252SOL     OW15214   2.426   4.073  10.138  0.5967  0.4585  0.3360
 1252SOL    HW115215   2.496   4.047  10.079  0.8904 -1.9953  1.8022
 1252SOL    HW215216   2.357   4.107  10.080 -0.8007 -3.3533 -0.2051
 1253SOL     OW15217   4.517   4.314   6.308 -0.5254 -0.2114 -0.0010
 1253SOL    HW115218   4.491   4.374   6.378 -2.9500 -0.4237 -0.7296
 1253SOL    HW215219   4.606   4.285   6.329 -0.7634  0.4944  2.0161
 1254SOL     OW15220   2.998   0.329   8.521 -0.1386  0.6449 -0.2896
 1254SOL    HW115221   3.038   0.253   8.480 -1.3391 -0.8753  1.3776
 1254SOL    HW215222   3.073   0.376   8.557 -0.5718  2.9095 -2.2845
 1255SOL     OW15223   1.793   1.962   0.696  0.1771 -0.4838  0.3250
 1255SOL    HW115224   1.833   2.024   0.758  0.0447 -0.9890  0.9090
 1255SOL    HW215225   1.859   1.898   0.671 -0.2359 -1.2899  1.2943
 1256SOL     OW15226   1.113   3.494   2.039 -0.1118  0.5099  0.1036
 1256SOL    HW115227   1.201   3.456   2.044  0.5206  1.7729 -1.2943
 1256SOL    HW215228   1.131   3.544   2.118  1.0151  0.0299  0.1547
 1257SOL     OW15229   1.906   3.696   4.293  0.2629 -0.0365 -0.2514
 1257SOL    HW115230   1.963   3.691   4.216  1.1844 -0.6004  0.4680
 1257SOL    HW215231   1.853   3.618   4.278 -0.5079  0.6911 -1.3045
 1258SOL     OW15232   2.074   1.811   0.862 -0.0537  0.3289 -0.2298
 1258SOL    HW115233   2.037   1.864   0.932  0.4768 -0.1291  0.3990
 1258SOL    HW215234   2.094   1.873   0.792  2.1947 -0.5490 -0.3770
 1259SOL     OW15235   3.106   2.917   5.438  0.0817 -0.2259  0.4561
 1259SOL    HW115236   3.096   2.996   5.386  0.9620 -0.6195 -0.3238
 1259SOL    HW215237   3.015   2.889   5.448  0.5731 -1.7555  0.6262
 1260SOL     OW15238   3.620   3.834  11.159  0.5745  0.5955 -1.0299
 1260SOL    HW115239   3.667   3.825  11.076  0.2251  1.3047 -1.2997
 1260SOL    HW215240   3.628   3.749  11.203 -0.5190  0.8699 -0.2799
 1261SOL     OW15241   0.465   3.698   4.474 -0.9376  0.2167  0.1823
 1261SOL    HW115242   0.473   3.792   4.462 -0.2596  0.2758  1.0399
 1261SOL    HW215243   0.523   3.686   4.550 -1.8614  2.0066  1.1693
 1262SOL     OW15244   1.820   3.431   4.270 -0.2284  0.1623 -0.2647
 1262SOL    HW115245   1.731   3.403   4.293  0.6284 -0.1417  2.6507
 1262SOL    HW215246   1.866   3.358   4.312 -2.2496 -0.6764  0.5204
 1263SOL     OW15247   3.093   2.210   4.737 -0.2909 -0.1346  0.6494
 1263SOL    HW115248   3.134   2.141   4.788  3.7301  1.5999 -0.1942
 1263SOL    HW215249   3.146   2.203   4.657 -2.2743  0.5509 -0.7468
 1264SOL     OW15250   1.754   3.645   3.605 -0.7820 -0.2620  0.4616
 1264SOL    HW115251   1.713   3.621   3.522 -1.2514 -0.2983  0.7018
 1264SOL    HW215252   1.718   3.578   3.663  0.1013 -0.4741  0.7567
 1265SOL     OW15253   3.511   1.702   4.628  0.3964 -0.0538  0.3885
 1265SOL    HW115254   3.524   1.632   4.564  1.3271  0.3636  0.1202
 1265SOL    HW215255   3.602   1.725   4.644  0.2874 -0.8301  2.0621
 1266SOL     OW15256   2.439   1.194   7.651  0.3657 -0.4480  0.1954
 1266SOL    HW115257   2.511   1.157   7.601  0.6135 -2.7818  2.3082
 1266SOL    HW215258   2.451   1.285   7.623 -3.4180  0.1350  0.4204
 1267SOL     OW15259   3.946   1.140   4.217  0.1918 -0.3555 -0.0612
 1267SOL    HW115260   4.025   1.164   4.168  0.7461 -0.1873  0.9221
 1267SOL    HW215261   3.913   1.079   4.150 -0.3808  2.0205 -1.9526
 1268SOL     OW15262   1.927   1.435   8.777  0.0500 -0.0367 -0.1221
 1268SOL    HW115263   1.991   1.497   8.811 -0.4089  0.4547 -0.1705
 1268SOL    HW215264   1.975   1.397   8.704  0.2665  0.2130 -0.1086
 1269SOL     OW15265   4.477   1.844   3.870  0.0384 -0.5274 -0.0681
 1269SOL    HW115266   4.539   1.917   3.874  0.1675 -0.6992  1.1422
 1269SOL    HW215267   4.394   1.887   3.853  0.8014  0.9958  0.0934
 1270SOL     OW15268   3.930   2.444  17.045 -0.4898  0.3859 -0.5517
 1270SOL    HW115269   3.946   2.537  17.026  0.2071  0.1510 -1.1228
 1270SOL    HW215270   3.902   2.456  17.136  1.8500 -1.8550  0.4713
 1271SOL     OW15271   2.479   2.002   4.317 -0.1449  0.1284 -0.1406
 1271SOL    HW115272   2.503   1.963   4.233  0.0568 -1.5437  0.7068
 1271SOL    HW215273   2.392   2.040   4.307  0.4461  1.7082  0.6501
 1272SOL     OW15274   4.405   1.389  14.514 -0.4323  0.0263  0.2246
 1272SOL    HW115275   4.401   1.325  14.586 -0.1011  1.4893  1.5470
 1272SOL    HW215276   4.332   1.446  14.538 -0.6435 -0.4724  0.7724
 1273SOL     OW15277   0.215   1.018   3.226  0.3835  0.1774  0.0073
 1273SOL    HW115278   0.268   0.988   3.152  0.1630  1.5412 -0.7054
 1273SOL    HW215279   0.137   0.962   3.220 -0.8855  2.2317 -2.6207
 1274SOL     OW15280   0.385   1.928  10.218 -0.0961  0.2020  0.1853
 1274SOL    HW115281   0.471   1.933  10.258  0.3550 -0.0479 -0.7552
 1274SOL    HW215282   0.368   2.008  10.168 -1.5407  0.8464  1.7095
 1275SOL     OW15283   4.477   3.552   1.389  0.5119 -0.1023  0.0151
 1275SOL    HW115284   4.459   3.600   1.469 -2.0539  0.7538 -1.0671
 1275SOL    HW215285   4.551   3.502   1.422 -0.2959 -0.5567  1.1339
 1276SOL     OW15286   0.325   3.600   2.897  0.2517 -0.2657  0.6794
 1276SOL    HW115287   0.235   3.608   2.867  0.9872 -0.0412 -1.4355
 1276SOL    HW215288   0.310   3.541   2.971  2.6808  0.3750  1.6763
 1277SOL     OW15289   2.800   0.639   1.076  0.5398 -0.4780 -0.6660
 1277SOL    HW115290   2.857   0.659   1.002 -0.2800 -2.6978 -1.8937
 1277SOL    HW215291   2.861   0.641   1.150 -1.0087  0.7230  0.5781
 1278SOL     OW15292   3.753   1.577   7.589  0.7387  0.3214 -0.4411
 1278SOL    HW115293   3.739   1.485   7.567  0.1886 -0.0776  1.5648
 1278SOL    HW215294   3.693   1.618   7.526  0.0289 -0.8397 -0.5143
 1279SOL     OW15295   4.534   1.602   7.629  0.1483  0.0331  0.1956
 1279SOL    HW115296   4.548   1.562   7.543  2.5859 -0.1538  0.7023
 1279SOL    HW215297   4.490   1.524   7.663  2.9753 -0.6935  2.1065
 1280SOL     OW15298   2.057   3.065   3.130 -0.4908 -0.1334 -0.2480
 1280SOL    HW115299   2.112   3.050   3.208 -0.9232 -1.3538 -0.1811
 1280SOL    HW215300   1.973   3.064   3.176 -0.3909  1.5147 -0.0410
 1281SOL     OW15301   2.350   0.496   7.986  0.1486  1.0061  0.0082
 1281SOL    HW115302   2.267   0.531   7.954 -0.1990  1.7739  1.7584
 1281SOL    HW215303   2.349   0.531   8.075  1.0968  1.6994 -0.2621
 1282SOL     OW15304   3.811   2.224  10.786  0.2979 -0.2476  0.1661
 1282SOL    HW115305   3.762   2.171  10.723 -1.3597 -0.9499  2.0399
 1282SOL    HW215306   3.882   2.256  10.730 -0.6252  0.9742 -0.3240
 1283SOL     OW15307   1.172   1.956  11.730  0.2164 -0.2998 -0.9309
 1283SOL    HW115308   1.101   2.020  11.727  0.4024 -0.0457  0.5012
 1283SOL    HW215309   1.244   2.008  11.765  0.2003 -0.2284 -1.0049
 1284SOL     OW15310   1.498   0.016   3.897 -0.7143  0.4444  0.0479
 1284SOL    HW115311   1.561   4.674   3.926 -0.6393 -0.2013 -1.5630
 1284SOL    HW215312   1.439   4.679   3.852 -0.5138  0.5652 -0.3809
 1285SOL     OW15313   2.839   0.276   8.767 -0.5378 -0.5134 -0.0870
 1285SOL    HW115314   2.887   0.297   8.687  1.3790  0.4196  1.3143
 1285SOL    HW215315   2.894   0.205   8.799  0.6925 -0.4963 -2.1790
 1286SOL     OW15316   1.996   1.554   4.686  0.8424 -0.3292 -0.2513
 1286SOL    HW115317   2.073   1.610   4.699  1.0838 -0.5483 -0.7148
 1286SOL    HW215318   2.043   1.473   4.665 -1.4154 -1.3750 -1.2738
 1287SOL     OW15319   0.995   2.658  10.750  0.3498 -0.8177 -0.3490
 1287SOL    HW115320   1.044   2.684  10.828  1.4820  0.8068 -1.5992
 1287SOL    HW215321   1.056   2.601  10.705 -0.2437 -1.9908  0.3453
 1288SOL     OW15322   0.428   3.223   0.373 -0.4795 -0.3252 -0.0260
 1288SOL    HW115323   0.347   3.198   0.329 -0.6108 -1.6377  0.9459
 1288SOL    HW215324   0.504   3.199   0.319 -0.3716 -0.8958  0.3854
 1289SOL     OW15325   4.169   1.382  13.693 -0.1245  0.1841 -0.1245
 1289SOL    HW115326   4.128   1.433  13.622 -1.3998 -1.7427 -0.7631
 1289SOL    HW215327   4.134   1.428  13.770 -1.9031 -2.6700  0.7678
 1290SOL     OW15328   1.157   4.051   7.276 -0.7244  1.0662 -0.1383
 1290SOL    HW115329   1.083   4.078   7.331 -1.6267 -0.1004 -0.7960
 1290SOL    HW215330   1.117   4.059   7.189  1.0248 -1.6231 -1.1915
 1291SOL     OW15331   2.734   2.303  11.256 -0.5675  0.0640  0.1364
 1291SOL    HW115332   2.764   2.295  11.347 -1.3423 -2.8876  0.1395
 1291SOL    HW215333   2.686   2.220  11.254  2.0092 -1.3782 -1.5205
 1292SOL     OW15334   4.339   2.712   8.134  0.0191  0.2250 -0.0171
 1292SOL    HW115335   4.276   2.722   8.206 -1.5762 -0.6718 -1.2861
 1292SOL    HW215336   4.320   2.620   8.117  1.1399 -0.1240  0.6159
 1293SOL     OW15337   1.231   2.660  10.163  0.1251 -0.2091  0.0139
 1293SOL    HW115338   1.176   2.730  10.128  0.3774 -1.1382 -2.2510
 1293SOL    HW215339   1.186   2.596  10.107 -1.1099  0.8416 -0.1907
 1294SOL     OW15340   1.984   4.595   5.644 -0.1521  0.2225 -0.0491
 1294SOL    HW115341   1.992   4.585   5.739 -0.2540 -1.0637 -0.1695
 1294SOL    HW215342   1.971   4.689   5.638  2.6175  0.6437  0.4247
 1295SOL     OW15343   3.567   4.138   6.724 -0.1570  0.2304 -0.0554
 1295SOL    HW115344   3.662   4.146   6.736 -0.0532 -1.2311  0.1178
 1295SOL    HW215345   3.547   4.053   6.764  1.7512 -0.7758 -1.2572
 1296SOL     OW15346   4.056   0.328  15.832  0.0450 -0.2027  0.3580
 1296SOL    HW115347   4.072   0.370  15.917 -0.7177 -0.2585  0.5317
 1296SOL    HW215348   3.973   0.374  15.820 -0.2559 -0.7391  0.3738
 1297SOL     OW15349   1.191   3.042   3.426  0.2405 -0.5528  0.5901
 1297SOL    HW115350   1.133   3.059   3.351  0.4462  0.7552  0.7208
 1297SOL    HW215351   1.272   3.030   3.375  0.7035  1.4731  0.8376
 1298SOL     OW15352   3.660   1.437   2.464  0.6609 -0.0746 -0.1503
 1298SOL    HW115353   3.679   1.383   2.387  1.4723 -1.7623  1.2227
 1298SOL    HW215354   3.722   1.402   2.529  1.5151 -0.8259 -1.3619
 1299SOL     OW15355   0.243   3.265  13.924  0.4826  0.2961 -0.0421
 1299SOL    HW115356   0.172   3.257  13.860 -0.6765 -1.2150  1.4027
 1299SOL    HW215357   0.243   3.360  13.919  0.7383  0.2987  0.0373
 1300SOL     OW15358   2.299   3.923   8.626  0.0457  0.5195  0.3403
 1300SOL    HW115359   2.229   3.987   8.642  0.1567  0.8524 -0.4905
 1300SOL    HW215360   2.365   3.986   8.654  0.7015 -0.4482  0.9469
 1301SOL     OW15361   2.594   3.517  17.474  0.3955 -0.2094 -0.0311
 1301SOL    HW115362   2.605   3.591  17.413 -0.4978 -0.6957 -0.7782
 1301SOL    HW215363   2.679   3.477  17.453  2.1417  1.6743  3.4991
 1302SOL     OW15364   4.205   3.277  16.787  0.4646 -0.3910 -0.3532
 1302SOL    HW115365   4.262   3.247  16.716  1.9005  1.5604 -0.0094
 1302SOL    HW215366   4.171   3.359  16.751 -0.4756 -1.0321 -0.9374
 1303SOL     OW15367   4.604   0.009   6.266  0.0547  0.2670  0.3133
 1303SOL    HW115368   4.509   0.013   6.259  0.1768 -0.1706 -1.7049
 1303SOL    HW215369   4.638   0.027   6.178  0.6747 -2.9280 -0.0841
 1304SOL     OW15370   4.193   1.336  15.555  0.0807 -0.1916 -0.1422
 1304SOL    HW115371   4.286   1.359  15.563 -0.1343  0.3970  0.7392
 1304SOL    HW215372   4.190   1.280  15.633  2.5622  0.2457  0.2825
 1305SOL     OW15373   0.752   0.855  17.059 -0.4078  0.5144  0.1087
 1305SOL    HW115374   0.717   0.840  16.971  2.2634  1.8851 -1.1672
 1305SOL    HW215375   0.698   0.926  17.093  0.1114  1.1903 -0.4787
 1306SOL     OW15376   0.546   4.227   7.048  0.0365  0.2496 -0.0092
 1306SOL    HW115377   0.499   4.292   6.996 -1.6122 -2.3601 -1.7768
 1306SOL    HW215378   0.520   4.150   6.996 -0.9027  0.3816  0.2625
 1307SOL     OW15379   3.884   0.088   5.298  0.1585 -0.3111  0.9487
 1307SOL    HW115380   3.958   0.132   5.256  0.8937 -0.5965  1.9260
 1307SOL    HW215381   3.908   0.106   5.389  0.4450 -0.5011  0.9111
 1308SOL     OW15382   1.704   2.237   4.242  0.4452  0.1652 -0.0432
 1308SOL    HW115383   1.668   2.194   4.319 -0.4156  0.7031 -0.1504
 1308SOL    HW215384   1.682   2.166   4.180  1.0639  0.3102 -0.4325
 1309SOL     OW15385   2.231   2.682   5.264 -0.0773  0.3119 -0.0945
 1309SOL    HW115386   2.177   2.620   5.215 -0.2945  1.2262 -1.0079
 1309SOL    HW215387   2.164   2.741   5.299 -0.1531  1.3171 -1.9903
 1310SOL     OW15388   2.776   1.472   1.996 -0.2593  0.5797  0.0543
 1310SOL    HW115389   2.782   1.383   1.961 -1.8876  1.2244 -1.8823
 1310SOL    HW215390   2.862   1.496   2.029 -0.0881  2.1079 -1.4753
 1311SOL     OW15391   4.709   2.547   3.826 -0.2355  0.2768 -0.0856
 1311SOL    HW115392   0.077   2.536   3.849  0.3495  0.6585 -2.3038
 1311SOL    HW215393   4.670   2.464   3.855 -1.6094  0.6761 -0.7899
 1312SOL     OW15394   2.762   1.387   0.492  0.3872  0.0137  0.0081
 1312SOL    HW115395   2.813   1.451   0.543  1.7100 -0.3736 -0.8326
 1312SOL    HW215396   2.835   1.333   0.461  0.7449 -0.0810  1.0059
 1313SOL     OW15397   4.547   0.017   7.558  0.2441  0.1064 -0.3113
 1313SOL    HW115398   4.576   0.044   7.645 -2.0745 -0.2956  0.5866
 1313SOL    HW215399   4.551   0.102   7.515 -0.9048 -0.0520 -0.7287
 1314SOL     OW15400   2.920   3.653   3.224  0.2951 -0.3881 -0.2351
 1314SOL    HW115401   2.978   3.581   3.250  0.4188 -0.0322  0.4871
 1314SOL    HW215402   2.949   3.663   3.133  0.0187  2.0669 -0.0505
 1315SOL     OW15403   3.547   1.710   2.963  0.2882 -0.2853  0.2410
 1315SOL    HW115404   3.618   1.757   2.919  0.7815 -1.4425 -0.2048
 1315SOL    HW215405   3.597   1.654   3.022  2.9783  1.5961 -0.2971
 1316SOL     OW15406   0.302   1.980  15.854  0.0388  0.7071 -0.0947
 1316SOL    HW115407   0.227   1.948  15.803  1.5432 -2.5669 -0.2641
 1316SOL    HW215408   0.364   1.912  15.827  0.4440  0.4712  1.4337
 1317SOL     OW15409   0.324   1.656   8.458  0.6689  0.2620  0.3663
 1317SOL    HW115410   0.377   1.736   8.455  0.1677  0.5620 -0.5419
 1317SOL    HW215411   0.355   1.629   8.544 -3.4563  0.5534  1.9244
 1318SOL     OW15412   1.189   1.872   9.892 -0.1764  0.1498  0.9009
 1318SOL    HW115413   1.250   1.942   9.869  2.3590 -2.0441  0.9595
 1318SOL    HW215414   1.235   1.791   9.913 -1.4839 -0.4274  1.5508
 1319SOL     OW15415   2.116   1.028   2.532 -0.3278  0.5433  0.6381
 1319SOL    HW115416   2.104   1.089   2.459 -1.8984 -0.2953  0.1950
 1319SOL    HW215417   2.042   1.050   2.588 -1.3343 -0.9702 -0.0874
 1320SOL     OW15418   1.475   3.081   5.577 -0.1328 -0.5242  0.0913
 1320SOL    HW115419   1.431   2.999   5.600  1.1462 -1.6099 -1.3842
 1320SOL    HW215420   1.399   3.138   5.572  1.3965  1.7050  2.1904
 1321SOL     OW15421   3.869   1.109   5.631 -0.6834  0.1208 -0.1138
 1321SOL    HW115422   3.846   1.042   5.567 -1.2192 -0.2065  0.4189
 1321SOL    HW215423   3.935   1.172   5.599 -0.2428 -0.2678  0.0383
 1322SOL     OW15424   1.133   2.545   7.058  0.0073  0.3801 -0.1560
 1322SOL    HW115425   1.042   2.524   7.080 -0.1253  1.6780  0.5314
 1322SOL    HW215426   1.171   2.548   7.146 -0.4082  2.2439 -0.0394
 1323SOL     OW15427   4.555   3.078   4.794  0.0560  0.2247  0.1849
 1323SOL    HW115428   4.481   3.079   4.855 -0.9980  0.6013 -1.0890
 1323SOL    HW215429   4.540   3.014   4.725  0.3157 -0.5152  0.8141
 1324SOL     OW15430   2.510   1.915   6.329 -0.0229 -0.4362  0.0716
 1324SOL    HW115431   2.447   1.987   6.321 -0.4505 -1.1850 -3.4522
 1324SOL    HW215432   2.527   1.930   6.422 -0.8504 -1.2594  0.3476
 1325SOL     OW15433   3.524   1.777   7.109  0.0819  0.3453 -0.2265
 1325SOL    HW115434   3.603   1.752   7.157 -0.4393 -1.2619 -0.1956
 1325SOL    HW215435   3.515   1.721   7.032 -2.3378  1.7152 -0.9298
 1326SOL     OW15436   1.872   2.794  14.749  1.2176  0.2036  0.0695
 1326SOL    HW115437   1.962   2.763  14.743  0.9377 -0.5966  0.0112
 1326SOL    HW215438   1.836   2.709  14.723  0.9757  0.4298 -0.3343
 1327SOL     OW15439   3.619   3.824  14.044 -0.1184  0.2045  0.2356
 1327SOL    HW115440   3.644   3.841  13.953 -2.9380  2.2084 -0.1625
 1327SOL    HW215441   3.645   3.901  14.093 -1.5330  0.6996  0.2073
 1328SOL     OW15442   3.990   1.524   6.203  0.2400  0.1133 -0.3556
 1328SOL    HW115443   3.915   1.471   6.179 -0.2147  0.6976 -0.2262
 1328SOL    HW215444   3.969   1.616   6.186  0.2978  0.1406 -0.2860
 1329SOL     OW15445   3.664   0.751   5.313  0.1082 -0.1770 -0.6968
 1329SOL    HW115446   3.726   0.719   5.247  1.1018 -1.9403  1.0755
 1329SOL    HW215447   3.722   0.782   5.382 -1.1806 -1.9050  1.1898
 1330SOL     OW15448   1.309   1.370  10.270 -0.0467 -0.0072  0.0724
 1330SOL    HW115449   1.380   1.427  10.301  0.2601  0.2266 -1.0436
 1330SOL    HW215450   1.360   1.290  10.263  1.8128  1.1794 -0.0414
 1331SOL     OW15451   1.957   4.419   1.834  0.4868  0.0092  0.3746
 1331SOL    HW115452   1.926   4.473   1.761  1.3407  0.0351  0.0277
 1331SOL    HW215453   1.993   4.492   1.883  1.3741  0.5002 -0.9884
 1332SOL     OW15454   3.870   0.984   3.559 -0.2419 -0.0888  0.1769
 1332SOL    HW115455   3.802   0.933   3.514  0.4755 -1.7653  1.0046
 1332SOL    HW215456   3.878   1.059   3.500 -0.9248  0.2457  0.4991
 1333SOL     OW15457   4.532   0.397   1.649 -0.3059  0.0742 -0.1744
 1333SOL    HW115458   4.520   0.450   1.571 -1.8020 -0.3227 -0.2121
 1333SOL    HW215459   4.461   0.333   1.652 -0.7842  0.6384  0.5550
 1334SOL     OW15460   2.502   3.937   1.074 -0.1172 -0.0302  0.3724
 1334SOL    HW115461   2.436   3.997   1.108  2.1156  1.9889  1.1544
 1334SOL    HW215462   2.524   3.876   1.145 -1.5319 -2.1732 -1.0308
 1335SOL     OW15463   3.908   4.679  12.993  0.0618 -0.4292 -0.2202
 1335SOL    HW115464   3.898   4.698  12.900 -1.9575  0.7278  0.2397
 1335SOL    HW215465   3.923   0.037  13.041 -2.2176 -1.0253  1.4654
 1336SOL     OW15466   1.412   1.364   4.045 -0.1627  0.0088 -0.0980
 1336SOL    HW115467   1.325   1.376   4.007 -0.3585 -0.1575  0.2936
 1336SOL    HW215468   1.467   1.348   3.969  0.3140 -1.6621  0.5840
 1337SOL     OW15469   3.740   0.951   4.753  0.2002 -0.3815  0.4260
 1337SOL    HW115470   3.707   1.029   4.798  0.3130 -0.0648 -0.0383
 1337SOL    HW215471   3.816   0.986   4.706 -0.7923  1.5853  0.2828
 1338SOL     OW15472   3.936   3.608   2.184 -0.0717  0.1592 -0.5446
 1338SOL    HW115473   3.968   3.594   2.095 -0.4739 -3.2206 -0.1472
 1338SOL    HW215474   3.889   3.525   2.176  1.0454 -0.4981 -0.2157
 1339SOL     OW15475   3.961   3.004   8.973  1.2691 -0.2844 -0.2073
 1339SOL    HW115476   3.950   3.048   9.057  1.0184  0.8528 -0.8308
 1339SOL    HW215477   4.045   2.964   8.995 -0.1250 -2.9004  0.3010
 1340SOL     OW15478   4.098   0.679   7.706 -0.2429  0.4124  0.0707
 1340SOL    HW115479   4.090   0.596   7.753  0.6252 -0.7177 -1.7713
 1340SOL    HW215480   4.042   0.739   7.755 -5.6242 -2.2950 -2.7372
 1341SOL     OW15481   2.007   3.732   9.106 -0.7342 -0.6586 -0.0146
 1341SOL    HW115482   2.034   3.710   9.017 -1.2375  0.4885 -0.4590
 1341SOL    HW215483   2.083   3.686   9.141 -0.7964 -1.4649 -0.9576
 1342SOL     OW15484   2.516   4.140   2.338 -0.6201 -0.3243 -0.3014
 1342SOL    HW115485   2.587   4.082   2.366 -0.9292  0.2240  1.6285
 1342SOL    HW215486   2.538   4.138   2.245  0.0628  0.9608 -0.1650
 1343SOL     OW15487   2.298   1.339  10.913  0.0759  0.1956 -0.1235
 1343SOL    HW115488   2.252   1.342  10.997  0.3771  0.0086  0.0455
 1343SOL    HW215489   2.361   1.271  10.934 -0.8445 -0.6241 -0.0171
 1344SOL     OW15490   0.042   2.921  15.439 -0.2922 -0.2322  0.5665
 1344SOL    HW115491   4.685   2.956  15.479 -0.5449 -3.0335  2.4949
 1344SOL    HW215492   0.111   2.976  15.477  0.2906 -0.1467 -0.6137
 1345SOL     OW15493   0.552   1.078   2.953  0.0442  0.4958  0.0310
 1345SOL    HW115494   0.542   1.128   3.034 -0.0634 -1.3252  1.1460
 1345SOL    HW215495   0.540   0.990   2.989  0.7711 -0.0409 -1.0220
 1346SOL     OW15496   3.808   2.768   6.472  0.3378  0.3096 -0.6150
 1346SOL    HW115497   3.897   2.782   6.441  0.8322 -1.0436  0.2228
 1346SOL    HW215498   3.772   2.846   6.429 -2.6656  0.1787  1.6451
 1347SOL     OW15499   2.272   3.521   2.905  0.0219 -0.0633 -1.0229
 1347SOL    HW115500   2.344   3.460   2.890 -1.3185 -2.2310  1.4226
 1347SOL    HW215501   2.307   3.596   2.856  0.3945  0.6852  0.3654
 1348SOL     OW15502   1.799   1.482   6.198 -0.3210  0.4784  0.1862
 1348SOL    HW115503   1.749   1.445   6.271  1.7238  1.3884  2.0226
 1348SOL    HW215504   1.870   1.532   6.237 -1.1057  2.5127 -0.9895
 1349SOL     OW15505   2.616   2.393   2.268  0.2260 -0.1968 -0.4469
 1349SOL    HW115506   2.623   2.439   2.352 -2.1746  1.9315 -1.4399
 1349SOL    HW215507   2.691   2.428   2.220 -0.0912 -0.1118 -0.8724
 1350SOL     OW15508   3.845   1.405   3.674 -0.0489 -0.3715  0.2120
 1350SOL    HW115509   3.845   1.311   3.688  0.3338 -0.5728 -1.2432
 1350SOL    HW215510   3.828   1.406   3.580  1.1441 -0.0134 -0.0043
 1351SOL     OW15511   2.244   1.362  12.586 -0.1670 -0.0461  0.2387
 1351SOL    HW115512   2.268   1.270  12.601  0.1532  0.1183  0.7268
 1351SOL    HW215513   2.276   1.376  12.497 -1.1567  1.1165  0.0734
 1352SOL     OW15514   0.693   4.566   9.478  0.8043  0.2403  0.0864
 1352SOL    HW115515   0.765   4.509   9.452 -0.9611 -2.2057  0.5968
 1352SOL    HW215516   0.704   4.642   9.421 -0.5016 -0.4140 -1.0291
 1353SOL     OW15517   2.599   3.065   1.876 -0.0044 -0.5766 -0.4330
 1353SOL    HW115518   2.537   3.024   1.815  1.0832 -0.5582 -1.5421
 1353SOL    HW215519   2.554   3.150   1.872  2.7943  0.8677 -1.0404
 1354SOL     OW15520   0.441   0.890   2.039 -0.4714 -0.4484  0.1330
 1354SOL    HW115521   0.521   0.836   2.037  0.6629  1.2912 -0.9388
 1354SOL    HW215522   0.407   0.876   2.128  1.7071  3.8636  1.6355
 1355SOL     OW15523   2.531   3.700   0.025 -0.1486  0.5092  0.1642
 1355SOL    HW115524   2.614   3.726   0.064  0.7336 -0.3702 -1.1049
 1355SOL    HW215525   2.502   3.772  17.666 -2.6345 -1.5582 -1.2687
 1356SOL     OW15526   0.007   3.690   5.442  0.3291 -0.1120 -0.3593
 1356SOL    HW115527   4.653   3.745   5.435  1.4464  1.1505 -2.8618
 1356SOL    HW215528   0.023   3.667   5.350 -3.7654  3.0385 -1.8351
 1357SOL     OW15529   3.168   2.804   9.608  0.2932  0.8842  0.3208
 1357SOL    HW115530   3.113   2.883   9.611 -0.9430  0.0661 -0.7275
 1357SOL    HW215531   3.168   2.787   9.514 -1.9848 -0.6143  0.5907
 1358SOL     OW15532   0.422   0.135  12.968  0.0620 -0.2788  0.5891
 1358SOL    HW115533   0.426   0.088  12.886  0.2664  0.4695  0.1707
 1358SOL    HW215534   0.479   0.210  12.950 -0.9889  0.5732  0.7618
 1359SOL     OW15535   2.349   0.149   8.142  0.2253 -0.2275  0.1219
 1359SOL    HW115536   2.258   0.137   8.169  0.3160  0.8984  0.9491
 1359SOL    HW215537   2.395   0.077   8.185  0.5741 -0.2785 -0.3384
 1360SOL     OW15538   4.394   0.878  11.453  0.2535 -0.2286 -0.2678
 1360SOL    HW115539   4.484   0.896  11.423  0.2557 -1.2480 -0.8680
 1360SOL    HW215540   4.339   0.866  11.375  0.5542  2.4795 -0.9108
 1361SOL     OW15541   3.534   3.771  14.756  0.1058 -0.3497  0.5823
 1361SOL    HW115542   3.601   3.702  14.760 -0.0727 -0.5186  0.6871
 1361SOL    HW215543   3.562   3.838  14.818 -0.4846  0.9014 -0.5016
 1362SOL     OW15544   3.507   3.288   2.890 -0.1284 -0.4017  0.1170
 1362SOL    HW115545   3.479   3.358   2.949  1.2187 -2.3670  3.0993
 1362SOL    HW215546   3.596   3.315   2.867 -0.2681  0.0675  0.1287
 1363SOL     OW15547   1.076   2.319   9.015  0.4369 -0.1985  0.0555
 1363SOL    HW115548   1.083   2.410   9.045 -0.9773 -1.2096  3.4461
 1363SOL    HW215549   1.135   2.327   8.940 -0.6001 -0.9882 -0.8489
 1364SOL     OW15550   4.349   0.594  15.993  0.0260 -0.0014 -0.7678
 1364SOL    HW115551   4.366   0.663  15.930  2.4974 -1.6956 -1.9753
 1364SOL    HW215552   4.271   0.557  15.952  1.6525 -2.2300 -1.8641
 1365SOL     OW15553   3.589   1.620   0.709  0.2002 -0.5201 -0.2291
 1365SOL    HW115554   3.659   1.642   0.648 -0.0782  0.0727 -0.3394
 1365SOL    HW215555   3.614   1.665   0.790  1.4492  0.8865 -1.4168
 1366SOL     OW15556   3.316   2.691   7.844  0.4341  0.1143  0.4074
 1366SOL    HW115557   3.399   2.659   7.879  1.4698  3.2112  0.6951
 1366SOL    HW215558   3.350   2.764   7.793 -1.5710  2.2849  2.2136
 1367SOL     OW15559   0.560   1.052   8.664 -0.2691  0.1849  0.0596
 1367SOL    HW115560   0.569   1.002   8.745 -0.6273 -1.5048 -0.9342
 1367SOL    HW215561   0.466   1.065   8.655 -0.0155  1.1179 -1.2642
 1368SOL     OW15562   4.157   0.262   8.745  0.3238 -1.1246  0.5631
 1368SOL    HW115563   4.143   0.310   8.826 -2.9919 -0.1698 -0.6017
 1368SOL    HW215564   4.250   0.279   8.732  0.1489  0.1649  0.9836
 1369SOL     OW15565   1.151   2.743  12.311  0.5978  0.0256 -0.7948
 1369SOL    HW115566   1.110   2.658  12.320  0.0788  0.2388 -1.1435
 1369SOL    HW215567   1.233   2.727  12.357  1.6203  1.8837 -1.9507
 1370SOL     OW15568   3.110   3.741   1.287  0.2614 -0.5999 -0.9057
 1370SOL    HW115569   3.192   3.694   1.277  0.4728 -0.6904  1.1102
 1370SOL    HW215570   3.046   3.671   1.274 -0.4289 -0.3618  1.1003
 1371SOL     OW15571   2.114   2.302   1.983  0.5757  0.0055 -0.6323
 1371SOL    HW115572   2.110   2.211   2.015  0.7011  0.7463  1.4772
 1371SOL    HW215573   2.163   2.345   2.054 -1.5653  0.5351  0.5199
 1372SOL     OW15574   3.210   1.042   4.437 -0.2642 -0.0761  0.2343
 1372SOL    HW115575   3.194   1.130   4.472  1.3260  1.3337 -2.6266
 1372SOL    HW215576   3.296   1.019   4.471  0.0423 -0.3041 -0.7008
 1373SOL     OW15577   0.780   0.327   9.623  0.3756 -0.5764  0.3921
 1373SOL    HW115578   0.831   0.304   9.701 -0.0342  0.6574  1.0363
 1373SOL    HW215579   0.847   0.363   9.565  0.3057 -0.7360  0.2143
 1374SOL     OW15580   4.551   3.790   4.611 -0.2302 -0.1407  0.3432
 1374SOL    HW115581   4.640   3.813   4.584 -0.2117  0.5330  0.9849
 1374SOL    HW215582   4.506   3.779   4.527 -0.8856  0.8840  0.5678
 1375SOL     OW15583   2.709   4.261  14.734  0.8920 -0.3107 -0.1906
 1375SOL    HW115584   2.704   4.342  14.684  0.6575  0.6050  1.2976
 1375SOL    HW215585   2.718   4.298  14.822  2.5109 -1.1947  0.0246
 1376SOL     OW15586   2.722   4.527   5.749 -0.2074 -0.3932 -0.3673
 1376SOL    HW115587   2.712   4.436   5.776 -0.9197 -0.4849 -0.9403
 1376SOL    HW215588   2.633   4.562   5.764  0.1389 -0.2410  1.4083
 1377SOL     OW15589   3.193   3.694   6.306 -0.3100 -0.7051  0.0347
 1377SOL    HW115590   3.177   3.601   6.318  0.4417 -0.8237  0.1043
 1377SOL    HW215591   3.229   3.691   6.218 -1.5987 -2.1369 -0.4446
 1378SOL     OW15592   3.541   0.284   6.958 -0.5743 -0.0150 -0.1972
 1378SOL    HW115593   3.493   0.274   6.876  1.5559  0.0653 -1.4495
 1378SOL    HW215594   3.610   0.348   6.939 -1.2994  0.7638 -0.2332
 1379SOL     OW15595   0.307   1.157   1.613 -0.4324 -0.0627  0.5673
 1379SOL    HW115596   0.328   1.114   1.695  1.0400 -1.6589 -0.6382
 1379SOL    HW215597   0.241   1.103   1.570 -0.1751  0.4268 -0.4609
 1380SOL     OW15598   3.999   4.622   0.335 -0.1324 -0.0630 -0.0270
 1380SOL    HW115599   3.920   4.668   0.365  1.7744  2.8403  0.5789
 1380SOL    HW215600   4.052   4.638   0.413 -0.6889  0.5783  0.2256
 1381SOL     OW15601   3.581   2.722   8.925 -0.9370  0.8282 -0.2270
 1381SOL    HW115602   3.506   2.777   8.946 -0.4800  0.8263  1.4044
 1381SOL    HW215603   3.540   2.636   8.917 -0.6923  0.7892 -1.0618
 1382SOL     OW15604   1.562   0.706   3.542  0.0087 -0.5824 -0.5839
 1382SOL    HW115605   1.625   0.643   3.508 -0.0647  0.5598 -2.8617
 1382SOL    HW215606   1.519   0.734   3.461 -3.0369 -2.8399  0.2520
 1383SOL     OW15607   3.494   1.003   6.529  0.0150 -0.3200 -0.0100
 1383SOL    HW115608   3.571   1.056   6.550  0.3182 -1.0043  0.6034
 1383SOL    HW215609   3.484   0.944   6.604  0.9131 -0.7622 -0.2320
 1384SOL     OW15610   3.820   2.176   9.018 -0.2561  0.2523 -0.4328
 1384SOL    HW115611   3.828   2.242   8.949  0.3049  0.0422 -0.5660
 1384SOL    HW215612   3.822   2.239   9.090  0.4364 -1.2545  0.8828
 1385SOL     OW15613   0.624   1.908   7.504 -0.1740  0.1468 -0.0490
 1385SOL    HW115614   0.577   1.826   7.490 -1.2081  0.5661  0.9430
 1385SOL    HW215615   0.640   1.941   7.415 -0.1644 -2.5922 -1.0644
 1386SOL     OW15616   4.020   1.171   6.970  0.2224 -0.1046  0.1368
 1386SOL    HW115617   4.063   1.254   6.948 -1.6499  0.7505 -0.2919
 1386SOL    HW215618   4.098   1.119   6.992  1.3188  1.2335 -0.6029
 1387SOL     OW15619   1.634   0.789   9.223 -0.1131  0.3325  0.1929
 1387SOL    HW115620   1.581   0.752   9.294 -1.0633  3.0985  0.9480
 1387SOL    HW215621   1.598   0.877   9.210  1.3424  0.9899  0.6013
 1388SOL     OW15622   1.383   3.230   3.162  0.3576  0.4560 -0.0979
 1388SOL    HW115623   1.313   3.180   3.120  1.3445 -0.9362 -0.0729
 1388SOL    HW215624   1.458   3.191   3.117  0.7244 -0.6580  1.4870
 1389SOL     OW15625   2.756   0.476   3.650  0.3764  0.4557 -0.6477
 1389SOL    HW115626   2.730   0.396   3.603  2.4750 -2.0981  2.4805
 1389SOL    HW215627   2.851   0.466   3.650  0.4096  0.7755  0.4585
 1390SOL     OW15628   4.273   1.045   6.956 -0.2881 -0.1419 -0.1741
 1390SOL    HW115629   4.311   1.044   7.044 -1.2194 -0.1466  0.2252
 1390SOL    HW215630   4.348   1.018   6.903  0.2401  2.4084 -0.7710
 1391SOL     OW15631   0.578   3.457   7.378  0.1383 -0.2712  0.8993
 1391SOL    HW115632   0.494   3.488   7.343 -0.0277 -1.4299  0.2576
 1391SOL    HW215633   0.594   3.392   7.310  1.9242  0.7544  0.3515
 1392SOL     OW15634   0.331   2.988   7.899 -0.2389  0.2070 -0.3790
 1392SOL    HW115635   0.281   3.015   7.976 -1.0744 -0.2318 -0.7702
 1392SOL    HW215636   0.388   3.064   7.889  1.3086 -0.7496  1.1776
 1393SOL     OW15637   1.829   2.076   3.827  0.5316  0.2143 -0.0778
 1393SOL    HW115638   1.897   2.143   3.823  0.1696  0.5027 -1.4291
 1393SOL    HW215639   1.812   2.084   3.733 -2.8348 -1.2601  0.3971
 1394SOL     OW15640   2.989   2.446  14.621  0.5320 -0.0315  0.4574
 1394SOL    HW115641   3.017   2.457  14.712 -2.5957  1.6472  1.1927
 1394SOL    HW215642   2.897   2.469  14.634  1.4934  3.5986  0.7338
 1395SOL     OW15643   4.529   2.755   6.380 -0.1611 -0.0491 -0.4003
 1395SOL    HW115644   4.485   2.830   6.419  3.2392  1.5758  0.2834
 1395SOL    HW215645   4.529   2.691   6.451 -0.5782  1.2041  0.7345
 1396SOL     OW15646   0.260   1.653  13.614 -0.0365 -0.4598  0.2226
 1396SOL    HW115647   0.244   1.713  13.542  1.2832  0.1133  0.4003
 1396SOL    HW215648   0.355   1.643  13.609 -0.3958 -2.9193 -1.5988
 1397SOL     OW15649   1.862   3.993  11.176  0.0773  0.9371  0.6923
 1397SOL    HW115650   1.956   4.010  11.190 -0.2045  1.2649  2.1911
 1397SOL    HW215651   1.835   3.971  11.265  1.0410 -3.1080 -0.0098
 1398SOL     OW15652   3.001   1.961   7.184 -0.2030 -0.8183 -0.1376
 1398SOL    HW115653   3.090   1.943   7.156  0.7349  1.2251  1.4872
 1398SOL    HW215654   2.975   1.896   7.249  0.9916 -1.0177  0.1375
 1399SOL     OW15655   0.391   3.546   4.800 -0.4627 -0.5632 -0.0961
 1399SOL    HW115656   0.355   3.608   4.864  1.2885 -1.1798  1.4986
 1399SOL    HW215657   0.337   3.473   4.829 -1.7599  1.6363  3.0526
 1400SOL     OW15658   1.563   3.154   6.930 -0.3378 -0.0168  0.4681
 1400SOL    HW115659   1.514   3.073   6.945  0.4170 -0.8747 -1.7277
 1400SOL    HW215660   1.536   3.209   7.003  2.6992  1.5175  0.4180
 1401SOL     OW15661   3.538   3.307  14.546 -0.1710 -0.2847 -0.0635
 1401SOL    HW115662   3.466   3.253  14.514 -0.0067 -0.7781  0.4122
 1401SOL    HW215663   3.495   3.392  14.537  0.4024 -0.1006 -1.1225
 1402SOL     OW15664   2.501   2.549   1.031 -0.0583  0.2549 -0.3708
 1402SOL    HW115665   2.444   2.473   1.023 -0.0710  0.2261  0.0402
 1402SOL    HW215666   2.542   2.565   0.945 -0.1453 -2.5563 -0.9414
 1403SOL     OW15667   0.240   2.719  11.286  0.4348 -0.1314 -0.8015
 1403SOL    HW115668   0.212   2.810  11.295  0.4405 -0.2355  0.2545
 1403SOL    HW215669   0.329   2.719  11.321  0.4324 -0.4010 -0.7924
 1404SOL     OW15670   0.373   1.022   6.646  0.0870 -0.1260  0.3057
 1404SOL    HW115671   0.336   1.110   6.638 -0.6487 -0.4477  0.0972
 1404SOL    HW215672   0.442   1.034   6.711 -0.8565  2.0115  0.9057
 1405SOL     OW15673   1.412   3.657   6.505  0.0406  0.4475  0.3420
 1405SOL    HW115674   1.377   3.571   6.486 -3.1174  1.6609  0.7005
 1405SOL    HW215675   1.492   3.629   6.551  1.3539  1.7608 -1.1426
 1406SOL     OW15676   2.971   4.527   4.006 -0.7805  1.0272 -0.0314
 1406SOL    HW115677   3.018   4.580   4.070 -0.5851  0.0460  0.6423
 1406SOL    HW215678   2.925   4.464   4.062  2.9002 -0.9313  0.7814
 1407SOL     OW15679   2.116   4.241   5.486 -0.2816  0.7401  0.2606
 1407SOL    HW115680   2.028   4.277   5.502  0.1740  1.5387  0.9333
 1407SOL    HW215681   2.121   4.188   5.565  0.7210  1.2769  0.5519
 1408SOL     OW15682   0.322   1.656   6.245 -0.2950 -0.0720 -0.6839
 1408SOL    HW115683   0.391   1.686   6.186  0.8307 -0.9950  0.1517
 1408SOL    HW215684   0.366   1.688   6.324  3.1117 -0.8798 -2.2437
 1409SOL     OW15685   1.283   2.522  10.407 -0.2519 -0.1002 -0.5320
 1409SOL    HW115686   1.263   2.576  10.331 -0.9149  3.9127  2.4828
 1409SOL    HW215687   1.377   2.526  10.395 -0.2726  1.5240 -0.1568
 1410SOL     OW15688   2.379   1.681   6.271 -0.2543  0.4729  0.4677
 1410SOL    HW115689   2.454   1.622   6.261 -0.8480 -0.2900  0.5096
 1410SOL    HW215690   2.427   1.761   6.291  0.7951 -0.1676  0.5448
 1411SOL     OW15691   2.972   2.070  10.177 -0.1708 -0.1798  0.9257
 1411SOL    HW115692   2.881   2.094  10.197 -0.0984  0.4764  0.4718
 1411SOL    HW215693   3.014   2.045  10.259  0.1690  0.3955  0.9246
 1412SOL     OW15694   1.566   3.821   0.634 -0.1498  0.1108  0.0120
 1412SOL    HW115695   1.495   3.868   0.590 -1.0375  0.3688  1.7086
 1412SOL    HW215696   1.521   3.795   0.715  0.4966 -0.2875  0.2389
 1413SOL     OW15697   3.459   0.062  14.882 -0.1397  0.1782 -0.2118
 1413SOL    HW115698   3.441   0.056  14.788  0.4215  1.6379 -0.4140
 1413SOL    HW215699   3.487   4.697  14.906 -0.0477 -0.1912 -1.6599
 1414SOL     OW15700   1.168   2.362  10.819  0.1790  0.3876  0.0159
 1414SOL    HW115701   1.243   2.369  10.878 -0.8665 -0.6849  1.4700
 1414SOL    HW215702   1.170   2.267  10.814 -0.2119  0.3776  0.0680
 1415SOL     OW15703   1.973   0.341   6.627 -0.1484  0.0107  0.5512
 1415SOL    HW115704   2.025   0.397   6.570 -0.5022  0.7492  0.9624
 1415SOL    HW215705   1.992   0.251   6.598  0.4394  0.3741 -0.1744
 1416SOL     OW15706   2.074   1.121  10.388 -0.1945 -0.0415  0.0379
 1416SOL    HW115707   2.099   1.169  10.309 -1.3593 -0.8873 -0.8342
 1416SOL    HW215708   2.040   1.187  10.448  1.5642  1.2540 -0.3694
 1417SOL     OW15709   1.865   2.549   6.597 -0.0870 -0.1152 -0.0930
 1417SOL    HW115710   1.949   2.536   6.552  0.1056 -0.6993  0.4373
 1417SOL    HW215711   1.810   2.601   6.538  1.5339  0.7072 -0.8957
 1418SOL     OW15712   4.334   4.420   5.837  0.0988 -0.2482  0.8854
 1418SOL    HW115713   4.389   4.414   5.914  1.9687 -0.8758 -0.4943
 1418SOL    HW215714   4.302   4.330   5.823  0.7575 -0.3831  0.2342
 1419SOL     OW15715   4.337   2.633   5.675  0.0592  0.2436 -0.2031
 1419SOL    HW115716   4.301   2.548   5.701  1.3173 -0.2017  0.0868
 1419SOL    HW215717   4.428   2.607   5.685 -0.0285  0.2456  0.6297
 1420SOL     OW15718   3.938   4.125   6.513 -0.2806  0.2478  0.0777
 1420SOL    HW115719   3.864   4.140   6.453 -1.2863 -0.0896  1.2384
 1420SOL    HW215720   3.894   4.156   6.592 -0.0685 -1.3493  0.8348
 1421SOL     OW15721   0.610   3.301   0.166  0.3908  0.1545  0.2599
 1421SOL    HW115722   0.539   3.291   0.103 -1.2518  1.3780  1.9178
 1421SOL    HW215723   0.658   3.373   0.124  0.8452  0.8644  2.0009
 1422SOL     OW15724   4.569   3.009  13.271 -0.2685 -0.2989 -0.3489
 1422SOL    HW115725   4.586   3.057  13.351  1.1776 -1.7215  0.2107
 1422SOL    HW215726   4.508   3.063  13.221 -0.4029  0.6916  0.9224
 1423SOL     OW15727   0.181   1.759  11.180 -0.0291  0.0455 -0.7463
 1423SOL    HW115728   0.093   1.730  11.205 -0.4482  2.0119  0.0741
 1423SOL    HW215729   0.170   1.765  11.085 -0.3909  0.0160 -0.7083
 1424SOL     OW15730   3.543   3.773   8.231  0.3372  0.0529 -0.3814
 1424SOL    HW115731   3.535   3.784   8.136 -0.1159 -1.6518 -0.5327
 1424SOL    HW215732   3.534   3.862   8.265 -1.2487 -0.8836  1.6623
 1425SOL     OW15733   2.767   2.576   3.165  0.1646  0.3405  0.4793
 1425SOL    HW115734   2.754   2.559   3.259 -2.4529  0.8516  0.2215
 1425SOL    HW215735   2.677   2.592   3.135 -0.2829 -2.2669  0.4127
 1426SOL     OW15736   3.268   3.451   3.611 -0.0423  0.6763  0.0966
 1426SOL    HW115737   3.202   3.430   3.545  0.1249  1.1472 -0.2216
 1426SOL    HW215738   3.319   3.370   3.610  1.9629  1.9376  1.1561
 1427SOL     OW15739   4.601   2.524  10.982  0.2291 -0.5053  0.5525
 1427SOL    HW115740   4.569   2.472  11.056 -0.1009  0.8850  1.3957
 1427SOL    HW215741   4.685   2.481  10.967  0.3265  0.2138 -0.9419
 1428SOL     OW15742   1.972   2.412   4.056 -0.3468  0.0404 -0.1778
 1428SOL    HW115743   2.014   2.493   4.028 -2.2134  1.1869  0.3566
 1428SOL    HW215744   1.984   2.407   4.151 -1.2650 -1.8895 -0.1552
 1429SOL     OW15745   1.201   0.036  17.560  0.5618 -0.4384 -0.4466
 1429SOL    HW115746   1.118   0.070  17.527 -0.2932 -2.5612 -0.4641
 1429SOL    HW215747   1.193   0.024  17.654  1.0342  0.2786 -0.3115
 1430SOL     OW15748   0.329   3.516   5.972 -0.2983  0.3571  0.3716
 1430SOL    HW115749   0.320   3.578   6.044 -0.5852  0.8215 -0.0687
 1430SOL    HW215750   0.381   3.565   5.909  1.0232 -0.1176  1.0995
 1431SOL     OW15751   3.995   0.875   4.049  0.8156 -0.3158  0.6638
 1431SOL    HW115752   3.955   0.899   3.965  1.2055 -2.0241 -0.0141
 1431SOL    HW215753   3.975   0.782   4.038  1.9336 -0.8101  2.7213
 1432SOL     OW15754   3.515   2.924  15.346 -0.4420 -0.3065 -0.0075
 1432SOL    HW115755   3.468   2.943  15.265  0.4880 -1.8609 -0.9067
 1432SOL    HW215756   3.489   2.995  15.405  0.1187  1.0121 -1.3462
 1433SOL     OW15757   2.832   2.607   7.796  0.6951 -0.6255  0.2460
 1433SOL    HW115758   2.926   2.592   7.798  0.9451  1.1209  1.1914
 1433SOL    HW215759   2.823   2.701   7.783 -1.5695 -0.7465  0.9629
 1434SOL     OW15760   4.261   1.823   8.398 -0.2197  0.1867  0.6600
 1434SOL    HW115761   4.349   1.842   8.365 -1.1094 -0.5488 -2.1386
 1434SOL    HW215762   4.221   1.774   8.325 -0.1580  3.1309 -1.3608
 1435SOL     OW15763   3.264   3.838  12.473 -0.3939 -0.0309 -0.6118
 1435SOL    HW115764   3.304   3.751  12.480  0.7769  0.2357 -3.8985
 1435SOL    HW215765   3.234   3.851  12.563  1.5151 -1.9178  0.2873
 1436SOL     OW15766   3.158   3.978   0.670 -0.4560  0.1772 -0.3205
 1436SOL    HW115767   3.082   4.026   0.637 -2.2223 -1.3447  1.5322
 1436SOL    HW215768   3.179   4.024   0.751 -0.7279  0.4075 -0.3824
 1437SOL     OW15769   3.613   3.089   5.757 -0.1342 -0.2327 -0.1519
 1437SOL    HW115770   3.692   3.095   5.703  0.7844  3.1919  1.5183
 1437SOL    HW215771   3.651   3.082   5.845  1.0162 -0.3851 -0.6568
 1438SOL     OW15772   4.633   2.444   2.300  0.1263 -0.3101  0.2228
 1438SOL    HW115773   4.565   2.481   2.243 -1.7156 -0.6032  2.2350
 1438SOL    HW215774   4.705   2.448   2.238  0.4440 -0.6324  0.5733
 1439SOL     OW15775   0.270   2.737   9.625  0.0300  0.1807 -0.0226
 1439SOL    HW115776   0.344   2.797   9.623  1.3117 -1.4629 -1.8793
 1439SOL    HW215777   0.269   2.708   9.533 -0.1859 -0.4258  0.1670
 1440SOL     OW15778   2.541   0.194   6.698  0.3091  0.0804  0.4419
 1440SOL    HW115779   2.597   0.126   6.735  2.2795  1.9241  0.8337
 1440SOL    HW215780   2.512   0.234   6.780  0.2879 -0.4862  0.7109
 1441SOL     OW15781   0.761   0.644  17.266  0.0529 -0.2826 -0.0909
 1441SOL    HW115782   0.751   0.697  17.187 -1.2429  0.8090  0.8179
 1441SOL    HW215783   0.763   0.708  17.337  0.6366  0.1904 -0.5369
 1442SOL     OW15784   3.853   0.086   4.486  0.0775 -0.1776  0.0742
 1442SOL    HW115785   3.900   0.035   4.420 -0.8312  0.9766 -1.4940
 1442SOL    HW215786   3.810   0.020   4.540 -1.5913  1.1356  0.3723
 1443SOL     OW15787   4.442   1.029   4.891 -0.0389 -0.4690 -0.1621
 1443SOL    HW115788   4.469   1.094   4.957  0.0439  0.3979 -1.0501
 1443SOL    HW215789   4.497   1.054   4.817  1.0325 -1.6387  0.2478
 1444SOL     OW15790   3.180   1.131   8.485 -0.2814  0.0321 -0.2886
 1444SOL    HW115791   3.161   1.188   8.410 -0.7399 -0.7463 -0.7706
 1444SOL    HW215792   3.270   1.159   8.500 -0.5679  0.9256 -0.2544
 1445SOL     OW15793   2.712   0.049   9.433 -0.5099 -0.4315 -0.1872
 1445SOL    HW115794   2.648   4.703   9.447  2.1432 -3.1376 -1.8334
 1445SOL    HW215795   2.659   0.116   9.477 -1.1777 -0.2314 -1.2865
 1446SOL     OW15796   1.885   3.900  13.139 -0.2332 -0.3235  0.5108
 1446SOL    HW115797   1.878   3.902  13.044  0.9950 -1.4121  0.3910
 1446SOL    HW215798   1.951   3.831  13.148  0.6573  0.4283 -0.3110
 1447SOL     OW15799   2.244   4.421   7.344 -0.2177  0.7680 -0.0709
 1447SOL    HW115800   2.198   4.438   7.426  0.4423  1.1985  0.2088
 1447SOL    HW215801   2.245   4.326   7.353  0.0222  0.7849  0.0846
 1448SOL     OW15802   4.686   2.157   4.365 -1.2192 -0.0475  0.5066
 1448SOL    HW115803   0.049   2.155   4.404 -0.6300  0.0932 -0.7900
 1448SOL    HW215804   4.686   2.089   4.297  0.4574  2.9627 -2.4887
 1449SOL     OW15805   3.351   1.700   8.005 -0.0773 -0.3676  0.1944
 1449SOL    HW115806   3.257   1.701   8.026 -0.2903  0.5585 -0.7446
 1449SOL    HW215807   3.351   1.701   7.909 -0.6576 -0.1181  0.1947
 1450SOL     OW15808   1.344   3.485  10.808  0.1931 -0.0270 -0.5378
 1450SOL    HW115809   1.320   3.522  10.723 -0.7994 -3.9273 -1.9564
 1450SOL    HW215810   1.414   3.539  10.844  0.2075  0.5346 -1.4025
 1451SOL     OW15811   2.029   0.688   3.497  0.3433  0.4488 -0.0549
 1451SOL    HW115812   2.105   0.654   3.545 -0.5992 -1.1967  0.2657
 1451SOL    HW215813   2.074   0.702   3.413  0.2293  2.4138  0.2135
 1452SOL     OW15814   0.164   2.520   5.749  0.1985 -0.3220 -0.5036
 1452SOL    HW115815   0.188   2.449   5.810  1.3924  0.6163  0.1374
 1452SOL    HW215816   0.225   2.496   5.680  0.9675 -0.5973  0.2663
 1453SOL     OW15817   2.147   3.722   6.186  0.4600  0.2620  0.0986
 1453SOL    HW115818   2.150   3.698   6.093 -0.6061  0.1047  0.0988
 1453SOL    HW215819   2.183   3.642   6.223 -0.0964  0.5424  1.2530
 1454SOL     OW15820   3.021   0.765  16.837  0.0916  0.6424  0.3170
 1454SOL    HW115821   3.096   0.781  16.893  0.4727 -1.5960  0.4345
 1454SOL    HW215822   3.012   0.672  16.855 -1.4445  0.5578 -0.8564
 1455SOL     OW15823   0.716   3.112   6.707  1.1054 -0.3691 -0.5465
 1455SOL    HW115824   0.746   3.182   6.765 -0.4149 -1.7440  1.9262
 1455SOL    HW215825   0.661   3.060   6.766 -0.0883  1.4482 -0.0252
 1456SOL     OW15826   4.528   4.219   4.327 -0.6188 -0.7114 -0.3454
 1456SOL    HW115827   4.513   4.125   4.328  1.1120 -0.9593  0.6140
 1456SOL    HW215828   4.622   4.235   4.319 -1.2339  3.5665  0.7281
 1457SOL     OW15829   2.151   4.152   6.533  0.8391  0.8045 -0.0908
 1457SOL    HW115830   2.184   4.197   6.455  1.6252 -0.6648 -0.5898
 1457SOL    HW215831   2.127   4.068   6.496 -1.8247  1.4334  0.2438
 1458SOL     OW15832   1.776   0.431   4.159  0.5250 -0.5855 -0.3950
 1458SOL    HW115833   1.698   0.487   4.158  0.6484 -0.4156 -0.6352
 1458SOL    HW215834   1.820   0.454   4.077  0.7984 -0.0358 -0.1025
 1459SOL     OW15835   1.811   1.281   7.950 -0.1023  0.1680 -0.2357
 1459SOL    HW115836   1.817   1.186   7.941  0.9468  0.3938 -1.9209
 1459SOL    HW215837   1.852   1.291   8.036 -3.3612  3.2568  0.9434
 1460SOL     OW15838   0.922   0.973   9.358 -0.1012  0.3193 -0.1230
 1460SOL    HW115839   0.843   0.928   9.327 -1.3365  3.7249 -1.9211
 1460SOL    HW215840   0.905   0.972   9.452  0.7626  0.7870  0.0323
 1461SOL     OW15841   1.057   1.652   9.199 -0.1004 -0.7650  0.1544
 1461SOL    HW115842   0.993   1.693   9.258  0.3015  1.2997 -0.8764
 1461SOL    HW215843   1.011   1.572   9.173 -0.3738  0.0036 -1.7074
 1462SOL     OW15844   1.613   4.070   3.029 -0.6679 -0.8761  0.0012
 1462SOL    HW115845   1.576   3.981   3.032  0.0181 -1.1488  0.4500
 1462SOL    HW215846   1.649   4.075   3.118  0.5824 -1.0073 -0.4989
 1463SOL     OW15847   3.488   2.473  14.265  0.2318  0.1971 -0.0783
 1463SOL    HW115848   3.465   2.538  14.198 -0.6145  0.5029  0.5093
 1463SOL    HW215849   3.452   2.515  14.343  1.8228  1.6294 -0.1122
 1464SOL     OW15850   0.314   1.112   5.571 -0.0146  0.0745  0.4824
 1464SOL    HW115851   0.223   1.113   5.601 -0.8173  1.0194 -1.9579
 1464SOL    HW215852   0.337   1.022   5.590 -1.7520 -0.2056  1.2612
 1465SOL     OW15853   4.695   4.380  15.884 -0.2180 -0.1902  0.9154
 1465SOL    HW115854   4.660   4.307  15.833 -0.3563  0.4902  0.0487
 1465SOL    HW215855   4.640   4.452  15.853 -0.2780 -0.7386 -0.2330
 1466SOL     OW15856   3.206   2.593  16.332 -0.5137 -0.4266  0.2481
 1466SOL    HW115857   3.182   2.529  16.399  3.9441 -1.8500  0.4526
 1466SOL    HW215858   3.216   2.530  16.261  2.3303 -0.5664  0.7922
 1467SOL     OW15859   3.151   4.531   9.506 -0.0796 -0.2067 -0.0263
 1467SOL    HW115860   3.080   4.592   9.524  0.7865  0.1694  2.1809
 1467SOL    HW215861   3.229   4.580   9.533 -0.6014  0.2100  0.7117
 1468SOL     OW15862   4.112   0.641  12.790  0.0768 -0.1647 -0.0936
 1468SOL    HW115863   4.208   0.641  12.786  0.0556  0.7049 -0.7387
 1468SOL    HW215864   4.099   0.586  12.712  0.1360  0.2930 -0.4283
 1469SOL     OW15865   1.918   0.591  16.569 -0.0753  0.1107  0.1399
 1469SOL    HW115866   1.874   0.621  16.490  0.5845  2.1411  0.5312
 1469SOL    HW215867   1.861   0.624  16.638 -1.7767 -0.6541 -0.8981
 1470SOL     OW15868   1.410   3.109  12.264  0.5138 -0.2044  0.0213
 1470SOL    HW115869   1.376   3.036  12.315 -1.0311 -1.0899 -2.2770
 1470SOL    HW215870   1.487   3.140  12.312  0.6176 -1.2439  0.5310
 1471SOL     OW15871   3.933   1.953  13.885 -0.6507 -0.4892 -0.4309
 1471SOL    HW115872   3.882   1.906  13.951  1.3600 -0.6636  0.9841
 1471SOL    HW215873   4.008   1.894  13.887 -0.1700  0.1172 -0.3234
 1472SOL     OW15874   3.921   2.101  10.370  0.8061  0.0374 -0.2074
 1472SOL    HW115875   3.957   2.189  10.356  1.2838 -0.0054  0.7710
 1472SOL    HW215876   3.998   2.045  10.363  0.9728  0.4329 -1.7135
 1473SOL     OW15877   2.370   1.981   9.505  0.1276 -0.1025  0.2726
 1473SOL    HW115878   2.335   2.067   9.480 -1.5119 -0.9432 -0.2899
 1473SOL    HW215879   2.355   1.981   9.600  0.3142 -1.5061  0.2988
 1474SOL     OW15880   1.012   2.484   9.496  0.3191 -0.4853 -0.5042
 1474SOL    HW115881   1.057   2.459   9.577 -1.1679 -2.5044 -0.3299
 1474SOL    HW215882   0.963   2.560   9.526  1.3670  0.1984 -0.5051
 1475SOL     OW15883   4.233   2.771   1.541  0.1865 -0.3679  0.2893
 1475SOL    HW115884   4.145   2.757   1.578  0.2172 -1.1030  0.0829
 1475SOL    HW215885   4.224   2.863   1.517  3.4974 -0.4966 -1.3708
 1476SOL     OW15886   1.388   4.439  10.255  0.0740 -0.6772  0.1043
 1476SOL    HW115887   1.362   4.522  10.294 -0.0980 -0.5457 -0.2876
 1476SOL    HW215888   1.404   4.392  10.336  0.8893 -1.1933 -0.3529
 1477SOL     OW15889   0.377   2.588   8.255 -0.7797  0.0469  0.2061
 1477SOL    HW115890   0.410   2.525   8.191 -0.5627  0.6539 -0.2674
 1477SOL    HW215891   0.441   2.659   8.258  0.7672 -1.3226 -0.3299
 1478SOL     OW15892   4.160   1.381   6.907  0.0629  0.4289  0.4746
 1478SOL    HW115893   4.081   1.430   6.931 -1.6503 -2.3245  0.4486
 1478SOL    HW215894   4.228   1.435   6.947  1.6871 -1.5250  0.3287
 1479SOL     OW15895   1.556   3.708   5.758 -0.3068  0.3176  1.0265
 1479SOL    HW115896   1.516   3.763   5.690 -0.5260 -0.7076  0.3251
 1479SOL    HW215897   1.639   3.755   5.760  1.2828 -2.4388 -0.1212
 1480SOL     OW15898   0.228   0.622  12.031 -0.1569  0.1411 -0.4182
 1480SOL    HW115899   0.241   0.568  11.954  1.4489 -0.7860  0.5225
 1480SOL    HW215900   0.313   0.614  12.074  0.4217 -1.3878 -1.8878
 1481SOL     OW15901   4.197   3.479   3.631 -0.1314  0.2531 -0.2806
 1481SOL    HW115902   4.159   3.552   3.582  0.1747  0.0609 -0.8150
 1481SOL    HW215903   4.170   3.504   3.719  0.3021 -0.9092  0.1863
 1482SOL     OW15904   2.401   4.618   5.164 -0.4124 -0.1677  0.0717
 1482SOL    HW115905   2.329   4.564   5.196 -0.4381 -0.6096 -0.7136
 1482SOL    HW215906   2.396   4.603   5.069 -0.0305  1.6619 -0.2339
 1483SOL     OW15907   3.319   3.759  14.558  0.1666 -0.3788 -0.8594
 1483SOL    HW115908   3.335   3.828  14.495 -1.4165 -0.8108 -1.7173
 1483SOL    HW215909   3.409   3.748  14.590  0.3797  1.7306 -0.7517
 1484SOL     OW15910   3.528   4.577  10.770 -0.4915 -0.6015  0.4623
 1484SOL    HW115911   3.474   4.542  10.698  1.1247 -0.4726 -0.8131
 1484SOL    HW215912   3.475   4.620  10.837 -0.4650 -1.7991  1.2444
 1485SOL     OW15913   3.433   4.241   7.476 -0.3697 -0.3999  0.2475
 1485SOL    HW115914   3.466   4.226   7.565  0.8808 -3.5687 -0.7437
 1485SOL    HW215915   3.404   4.332   7.482 -1.1862 -0.6377 -0.1015
 1486SOL     OW15916   1.429   2.378   7.726  0.1474 -0.0036 -0.0910
 1486SOL    HW115917   1.409   2.294   7.768  2.3363 -0.1338  0.7220
 1486SOL    HW215918   1.515   2.396   7.763  1.9077  0.0776 -4.2392
 1487SOL     OW15919   3.658   1.780   0.914 -0.0235 -0.4716  0.1690
 1487SOL    HW115920   3.717   1.727   0.968 -0.2140 -0.4928  0.3597
 1487SOL    HW215921   3.716   1.844   0.874 -1.4454  0.4331 -0.4365
 1488SOL     OW15922   1.915   2.074   6.267 -0.3737  0.9189  0.0438
 1488SOL    HW115923   1.998   2.027   6.261  0.3003  1.8756  1.8368
 1488SOL    HW215924   1.864   2.007   6.222  1.4678  0.1226 -0.8772
 1489SOL     OW15925   1.088   1.383   8.476  0.0644  0.2599 -0.2910
 1489SOL    HW115926   1.106   1.455   8.537 -1.0820  0.7601 -0.5436
 1489SOL    HW215927   1.170   1.333   8.482 -0.3938 -0.3793  0.6523
 1490SOL     OW15928   3.474   0.471   5.568  0.4799 -0.0038  0.1521
 1490SOL    HW115929   3.440   0.437   5.485  2.1012 -0.2363 -0.4104
 1490SOL    HW215930   3.507   0.389   5.603 -1.0313 -1.0509 -0.8679
 1491SOL     OW15931   3.040   0.090   1.123 -0.5674  0.3109 -0.2228
 1491SOL    HW115932   3.117   0.117   1.071  1.0004 -1.3084  1.2665
 1491SOL    HW215933   2.975   0.081   1.054 -1.8411 -1.5480  1.2241
 1492SOL     OW15934   2.418   1.685   0.751 -0.0907 -0.4035  0.2081
 1492SOL    HW115935   2.415   1.619   0.682 -0.3072  0.1749 -0.3347
 1492SOL    HW215936   2.326   1.698   0.772 -0.4268  2.1641 -2.9367
 1493SOL     OW15937   1.777   3.254   6.800 -0.2356  0.2955 -0.5891
 1493SOL    HW115938   1.749   3.275   6.711  2.9131  1.3897 -1.2933
 1493SOL    HW215939   1.698   3.217   6.840  1.6177 -3.0937 -0.1266
 1494SOL     OW15940   1.120   1.454   5.372 -0.6837 -0.2560 -0.0810
 1494SOL    HW115941   1.189   1.484   5.432 -1.5456  0.1362  0.7233
 1494SOL    HW215942   1.107   1.522   5.306  1.5502  0.2823  0.0054
 1495SOL     OW15943   2.771   4.429  16.196  0.1300  0.7593  0.0830
 1495SOL    HW115944   2.744   4.346  16.235  1.5536 -0.3867 -1.3480
 1495SOL    HW215945   2.689   4.477  16.205 -0.0690 -0.1483  3.2654
 1496SOL     OW15946   3.362   1.936   9.701  0.2975  0.1516  0.1450
 1496SOL    HW115947   3.421   1.863   9.678 -0.3743 -0.7137  1.1636
 1496SOL    HW215948   3.276   1.910   9.669  0.0501  1.2635 -0.0924
 1497SOL     OW15949   0.699   1.532  11.912 -0.1678 -0.9663  0.1202
 1497SOL    HW115950   0.757   1.464  11.878  0.9444  1.3034 -2.4495
 1497SOL    HW215951   0.746   1.562  11.990  2.0637  0.3352 -1.7606
 1498SOL     OW15952   3.840   1.188  14.417 -0.4007 -0.1163  0.2682
 1498SOL    HW115953   3.917   1.206  14.471 -0.4828 -0.4988  0.5130
 1498SOL    HW215954   3.876   1.136  14.345 -2.1416 -3.1393  1.5569
 1499SOL     OW15955   2.724   3.708  15.512  0.5525  0.0311 -0.6895
 1499SOL    HW115956   2.745   3.785  15.459  0.3930  1.4035  1.2485
 1499SOL    HW215957   2.761   3.725  15.599 -2.2107  1.0866  0.3114
 1500SOL     OW15958   1.035   1.662   3.133  0.7004  0.0730 -0.5260
 1500SOL    HW115959   0.991   1.588   3.089 -0.7093  1.1678 -0.9592
 1500SOL    HW215960   1.023   1.736   3.073  0.2285  0.5901  0.2183
 1501SOL     OW15961   2.330   3.964   4.020 -0.1691 -0.3858 -0.2849
 1501SOL    HW115962   2.286   4.029   4.074  0.8395  0.4166 -0.4402
 1501SOL    HW215963   2.388   4.019   3.967  0.3588 -0.9100 -0.2432
 1502SOL     OW15964   2.375   2.618  11.364 -0.0221 -0.3101  0.0545
 1502SOL    HW115965   2.384   2.651  11.275  1.9385  1.0122  0.7331
 1502SOL    HW215966   2.446   2.555  11.377  0.8691  0.1954 -2.3334
 1503SOL     OW15967   3.284   3.009  16.125 -0.9866 -0.2608  0.2305
 1503SOL    HW115968   3.340   3.082  16.153 -0.5770 -0.9508  1.1985
 1503SOL    HW215969   3.216   3.048  16.069 -2.4156  0.8219  2.7087
 1504SOL     OW15970   4.243   2.532  16.156 -0.0256 -0.0287  0.9188
 1504SOL    HW115971   4.292   2.582  16.222  0.1833  1.0603 -0.0466
 1504SOL    HW215972   4.190   2.605  16.122  2.5342  1.4754  0.1108
 1505SOL     OW15973   0.126   2.961  11.256 -0.3431  0.4092  0.3051
 1505SOL    HW115974   0.180   2.997  11.186  0.4146 -1.3453 -0.0233
 1505SOL    HW215975   0.067   2.896  11.217  0.9184  0.4958 -1.7285
 1506SOL     OW15976   0.600   4.218   0.980  0.4090  0.4608 -0.3445
 1506SOL    HW115977   0.531   4.197   0.917 -2.5117  2.2920  2.2796
 1506SOL    HW215978   0.594   4.313   0.982  0.9476  0.5212 -1.3870
 1507SOL     OW15979   0.168   3.417   2.548 -0.0380 -0.2109 -0.4050
 1507SOL    HW115980   0.186   3.413   2.454  0.8065 -2.4392 -0.1340
 1507SOL    HW215981   0.176   3.325   2.571  1.1423  0.1812  0.7341
 1508SOL     OW15982   2.603   2.627   7.639 -0.0719 -0.4931 -0.1637
 1508SOL    HW115983   2.682   2.609   7.689  0.1576  0.7881 -0.0710
 1508SOL    HW215984   2.597   2.717   7.669  0.6238 -0.5164  0.0413
 1509SOL     OW15985   4.239   2.521   6.037  0.3927  0.6313  0.3345
 1509SOL    HW115986   4.325   2.538   6.077  0.6741 -0.6340  0.2605
 1509SOL    HW215987   4.190   2.602   6.052  1.2259  1.2270 -0.1201
 1510SOL     OW15988   2.254   3.780   3.144  0.3994 -0.1197  0.0045
 1510SOL    HW115989   2.309   3.776   3.066  0.7346 -0.7963  0.2750
 1510SOL    HW215990   2.306   3.730   3.207  0.3274  1.2878  1.1881
 1511SOL     OW15991   0.290   3.442   5.405  0.5900  0.1947  0.5688
 1511SOL    HW115992   0.378   3.454   5.370  0.1083 -0.6227 -0.9159
 1511SOL    HW215993   0.303   3.411   5.495  1.8512 -0.5314  0.1327
 1512SOL     OW15994   2.522   2.831   2.352  0.2155  0.7806  0.5747
 1512SOL    HW115995   2.501   2.746   2.313 -0.3448  1.1454  0.0898
 1512SOL    HW215996   2.562   2.876   2.278 -0.7848  0.2627 -0.2792
 1513SOL     OW15997   2.792   4.215   9.576  0.6815 -0.4021  0.3933
 1513SOL    HW115998   2.717   4.275   9.579  1.9747  1.3751 -2.9721
 1513SOL    HW215999   2.844   4.265   9.513 -2.1229  0.7038 -1.1024
 1514SOL     OW16000   3.708   1.464  14.930 -0.3649 -0.5502  0.4671
 1514SOL    HW116001   3.761   1.496  14.857  0.7262  1.8561  2.3011
 1514SOL    HW216002   3.677   1.379  14.898 -2.3561 -0.4254  2.0517
 1515SOL     OW16003   2.271   0.353   6.272 -0.0203 -0.2860 -0.6139
 1515SOL    HW116004   2.331   0.297   6.321 -0.4849  0.8261  1.2134
 1515SOL    HW216005   2.293   0.330   6.181  1.1730 -1.6612  0.0287
 1516SOL     OW16006   3.838   1.250   5.148 -0.4552 -0.6392  0.3071
 1516SOL    HW116007   3.777   1.262   5.076 -1.2142  2.5426  1.4673
 1516SOL    HW216008   3.811   1.161   5.171  0.0776 -0.5237  1.4218
 1517SOL     OW16009   2.840   0.966  16.759  0.5095  0.3123 -0.0861
 1517SOL    HW116010   2.880   0.888  16.796  1.1239 -0.1285 -1.6780
 1517SOL    HW216011   2.871   0.954  16.669 -0.4510 -0.1596 -0.3548
 1518SOL     OW16012   3.773   1.118   9.075 -0.4130  0.3686  0.2029
 1518SOL    HW116013   3.808   1.072   9.152  0.0274 -0.2175 -0.3417
 1518SOL    HW216014   3.792   1.206   9.106 -0.0641  0.0560  0.8860
 1519SOL     OW16015   4.342   0.683   6.639  0.6834  0.8589  0.1851
 1519SOL    HW116016   4.330   0.673   6.734  0.6662 -1.5463 -0.0571
 1519SOL    HW216017   4.272   0.745   6.620 -0.1660 -0.4693 -1.0753
 1520SOL     OW16018   0.942   1.797  13.363 -0.2493  0.4549 -0.1487
 1520SOL    HW116019   0.858   1.815  13.406 -0.0844 -0.9878  0.7766
 1520SOL    HW216020   0.965   1.889  13.354  0.8213  0.1266 -0.6728
 1521SOL     OW16021   3.836   2.830   8.801  0.3789 -0.5753  0.3485
 1521SOL    HW116022   3.848   2.905   8.860 -0.7667 -2.0108  2.4084
 1521SOL    HW216023   3.754   2.793   8.832 -0.0881 -0.9825 -1.3903
 1522SOL     OW16024   2.783   3.746   8.532  0.1562  0.2423 -0.0590
 1522SOL    HW116025   2.842   3.815   8.502  0.2303  0.8255  1.4279
 1522SOL    HW216026   2.838   3.672   8.557  0.9289  0.5968 -0.7220
 1523SOL     OW16027   4.215   0.111   4.998 -0.4149  0.1908 -0.4459
 1523SOL    HW116028   4.215   0.086   5.090 -0.9939  0.1994 -0.4430
 1523SOL    HW216029   4.294   0.165   5.003 -0.1896 -0.2649  0.8527
 1524SOL     OW16030   4.421   3.404   3.456 -0.6505 -0.5836  0.2555
 1524SOL    HW116031   4.457   3.329   3.503 -1.9724 -0.1445  1.9748
 1524SOL    HW216032   4.336   3.424   3.496 -0.0697 -1.4454  1.9086
 1525SOL     OW16033   1.424   3.495   2.035  0.2088  0.6570  0.2992
 1525SOL    HW116034   1.406   3.474   1.943 -0.1019  0.2392  0.4556
 1525SOL    HW216035   1.431   3.589   2.023  1.0216  0.9591  3.2172
 1526SOL     OW16036   2.397   0.530   3.394 -0.0907  0.0891  0.1255
 1526SOL    HW116037   2.333   0.463   3.416  0.2261 -0.0792  0.5323
 1526SOL    HW216038   2.375   0.558   3.305  0.7523 -2.5146 -0.9264
 1527SOL     OW16039   0.696   3.180   5.754 -0.1268 -0.4589  0.1852
 1527SOL    HW116040   0.706   3.237   5.677 -2.1424  2.3740  2.0554
 1527SOL    HW216041   0.617   3.223   5.785  0.4559  0.6269  0.1832
 1528SOL     OW16042   0.367   3.069   9.247 -0.4876  0.0136 -0.0799
 1528SOL    HW116043   0.437   3.013   9.281  0.1979  2.0329  1.8584
 1528SOL    HW216044   0.416   3.114   9.178 -1.1750  1.1963  0.2091
 1529SOL     OW16045   2.004   1.876   6.826  0.6711 -0.1531  0.6442
 1529SOL    HW116046   2.096   1.896   6.807  0.3856 -0.6062 -1.2177
 1529SOL    HW216047   1.966   1.964   6.824 -0.7045 -0.7542 -0.0155
 1530SOL     OW16048   0.730   3.209  13.561  0.0438  0.1672  0.5421
 1530SOL    HW116049   0.748   3.137  13.621  1.3083  1.2751  1.4915
 1530SOL    HW216050   0.781   3.275  13.608 -0.0787 -0.2018  1.1861
 1531SOL     OW16051   1.033   1.020  13.499 -0.4812 -0.5577 -0.6928
 1531SOL    HW116052   0.962   0.999  13.560 -1.4644 -0.1511 -1.7122
 1531SOL    HW216053   1.003   1.107  13.472  1.2090  0.3881  0.4476
 1532SOL     OW16054   1.218   0.069   9.658  0.8993  0.6603 -0.0677
 1532SOL    HW116055   1.214   0.114   9.742 -0.4362  0.1861  0.1132
 1532SOL    HW216056   1.307   0.037   9.672  0.4999 -0.9013 -1.0890
 1533SOL     OW16057   2.267   4.312  12.195  0.1307 -0.2061 -0.2016
 1533SOL    HW116058   2.194   4.313  12.257 -0.4495 -0.8312 -0.8833
 1533SOL    HW216059   2.243   4.242  12.135  1.1950 -1.1313  0.4693
 1534SOL     OW16060   1.041   2.212   4.006  0.0484  0.3620  0.1032
 1534SOL    HW116061   1.062   2.229   3.915  2.3962  3.3748  1.2176
 1534SOL    HW216062   1.111   2.264   4.047 -0.6284  0.1966  1.4858
 1535SOL     OW16063   0.488   4.693   7.181 -0.1228 -0.4349 -0.5319
 1535SOL    HW116064   0.465   4.692   7.088  0.1723  0.6303 -0.6124
 1535SOL    HW216065   0.540   4.612   7.178 -0.1809 -0.4931  0.0038
 1536SOL     OW16066   1.821   3.107   0.533  0.7235 -0.4215  0.2000
 1536SOL    HW116067   1.814   3.150   0.448  0.9463  1.8977  1.3705
 1536SOL    HW216068   1.799   3.016   0.512 -2.6331 -0.0743  2.3540
 1537SOL     OW16069   4.434   1.684   0.356  0.0512 -0.1409  0.0778
 1537SOL    HW116070   4.409   1.674   0.447  0.2340 -2.6560 -0.1561
 1537SOL    HW216071   4.484   1.764   0.372  1.6429 -1.0911 -0.1713
 1538SOL     OW16072   1.807   0.874   4.837 -0.3085  0.7444 -0.2724
 1538SOL    HW116073   1.804   0.867   4.741 -0.9657  0.2148 -0.2160
 1538SOL    HW216074   1.727   0.924   4.849 -0.1220  0.9413  0.1505
 1539SOL     OW16075   0.999   2.783  15.782  0.4208  0.0988  0.2909
 1539SOL    HW116076   1.090   2.770  15.808 -0.1186  0.5692  2.4077
 1539SOL    HW216077   1.022   2.754  15.694 -1.3738  2.9228 -1.1201
 1540SOL     OW16078   2.204   2.084   4.281 -0.5544  0.0305  0.3214
 1540SOL    HW116079   2.131   2.138   4.310 -2.3284 -1.8894 -0.5341
 1540SOL    HW216080   2.164   1.997   4.289 -2.1444  0.3399 -4.2389
 1541SOL     OW16081   1.503   0.303   7.793  0.0172 -0.2734  0.1098
 1541SOL    HW116082   1.564   0.376   7.780 -0.2681 -0.5025 -2.4656
 1541SOL    HW216083   1.465   0.292   7.706 -1.2331 -1.9432  0.8758
 1542SOL     OW16084   0.785   2.852   3.248 -0.1050  0.1123 -0.0553
 1542SOL    HW116085   0.784   2.797   3.326 -0.9415  0.1260 -0.0635
 1542SOL    HW216086   0.880   2.844   3.239  0.0326  0.4048  1.0548
 1543SOL     OW16087   0.026   0.743   0.909  0.0562 -0.2621 -0.2909
 1543SOL    HW116088   0.008   0.825   0.955  0.4415  0.0628 -0.7121
 1543SOL    HW216089   4.663   0.717   0.880  0.1510 -0.7402 -0.1488
 1544SOL     OW16090   3.106   3.912   7.022  0.1666  0.3118 -0.1782
 1544SOL    HW116091   3.162   3.916   6.944 -1.6762 -0.7347 -1.5459
 1544SOL    HW216092   3.066   3.998   7.012  1.4469  0.8358 -0.9189
 1545SOL     OW16093   3.687   1.944  16.089  0.1900 -0.5353  0.1019
 1545SOL    HW116094   3.742   1.871  16.060 -1.0934 -1.8582  1.0353
 1545SOL    HW216095   3.742   2.022  16.088 -2.2353  1.1591 -0.9552
 1546SOL     OW16096   3.690   0.334   8.432  0.0502 -0.0572 -0.4185
 1546SOL    HW116097   3.767   0.326   8.377  2.0777 -0.2194  2.4369
 1546SOL    HW216098   3.718   0.327   8.524  0.6663  2.5817 -0.4052
 1547SOL     OW16099   0.460   3.295   6.140  0.1989 -0.4789 -0.4308
 1547SOL    HW116100   0.417   3.374   6.109 -1.5643 -0.8459  1.0735
 1547SOL    HW216101   0.535   3.326   6.191  1.3178 -1.3775 -1.5351
 1548SOL     OW16102   1.670   1.940   7.449  0.0278  0.2050 -0.2400
 1548SOL    HW116103   1.713   1.907   7.528  0.3520  0.6452 -0.2394
 1548SOL    HW216104   1.735   1.988   7.399 -1.2787  1.0447 -1.1487
 1549SOL     OW16105   1.683   3.963   4.241 -0.1369  0.0366 -0.1645
 1549SOL    HW116106   1.747   3.891   4.251 -1.3518 -0.7111  2.2815
 1549SOL    HW216107   1.725   4.044   4.270 -1.2005  0.7365 -0.6060
 1550SOL     OW16108   1.597   0.580   1.065 -0.0606  0.0959  0.0944
 1550SOL    HW116109   1.630   0.668   1.078 -0.8860  0.4761 -0.4039
 1550SOL    HW216110   1.549   0.560   1.146  1.8941 -2.4731  0.6376
 1551SOL     OW16111   2.802   4.009   6.593  0.2659 -0.2692  0.0450
 1551SOL    HW116112   2.883   3.993   6.641  0.7146 -0.7586 -0.8856
 1551SOL    HW216113   2.830   4.085   6.542 -0.6241 -0.8405 -1.2892
 1552SOL     OW16114   2.326   2.560  14.286  0.5193  0.2398  0.2115
 1552SOL    HW116115   2.259   2.593  14.346  1.6262  0.3447  1.3990
 1552SOL    HW216116   2.288   2.591  14.204  0.2120  1.0897  0.6722
 1553SOL     OW16117   4.225   1.421   9.911  0.3771  0.2130  0.4242
 1553SOL    HW116118   4.300   1.446   9.965  1.5399 -1.6776 -0.3146
 1553SOL    HW216119   4.265   1.399   9.827  0.9518 -2.1437  1.3236
 1554SOL     OW16120   2.292   4.015   6.104  0.0389  0.2149  0.0531
 1554SOL    HW116121   2.241   3.962   6.165 -0.9593  0.5495 -0.4953
 1554SOL    HW216122   2.298   4.094   6.158  1.9207  3.0268 -4.3012
 1555SOL     OW16123   2.980   3.662   8.755  0.1112 -0.1853 -0.5873
 1555SOL    HW116124   2.939   3.703   8.831  0.6499 -1.5346  0.4244
 1555SOL    HW216125   3.033   3.737   8.728  0.0301 -0.3053 -1.0879
 1556SOL     OW16126   2.419   3.806  11.972 -0.5716 -0.5147  0.1996
 1556SOL    HW116127   2.452   3.830  12.058  3.8842 -0.0547 -1.6508
 1556SOL    HW216128   2.330   3.839  11.986 -0.8045 -0.6851 -0.8599
 1557SOL     OW16129   1.607   3.220  10.787  0.3539 -0.2145 -0.6108
 1557SOL    HW116130   1.661   3.143  10.802 -0.8855 -0.7948  0.8395
 1557SOL    HW216131   1.677   3.284  10.772  2.9889 -2.9021  0.2139
 1558SOL     OW16132   4.720   2.079   5.318 -0.1332  0.2067 -0.2575
 1558SOL    HW116133   0.030   2.054   5.232 -0.6732 -0.9227 -0.1412
 1558SOL    HW216134   4.637   2.119   5.292 -0.0710  1.6471  1.8032
 1559SOL     OW16135   0.133   2.719   1.582 -0.4408  0.3050  0.3374
 1559SOL    HW116136   0.127   2.649   1.517 -0.7280 -0.2199  0.9306
 1559SOL    HW216137   0.225   2.737   1.562 -0.5166 -0.2339 -0.4770
 1560SOL     OW16138   2.094   3.692   4.097 -0.4089  0.1104  0.2938
 1560SOL    HW116139   2.182   3.709   4.131 -0.4656 -1.3314  1.1767
 1560SOL    HW216140   2.104   3.612   4.044  1.5012 -0.8427  2.0564
 1561SOL     OW16141   3.301   0.981  14.903 -0.1358  0.5808  0.6090
 1561SOL    HW116142   3.384   0.959  14.945 -0.1279  0.8947  0.7543
 1561SOL    HW216143   3.310   0.968  14.809 -2.1333  1.5786  0.2799
 1562SOL     OW16144   4.635   0.008  17.272  0.1702  0.2400  0.1456
 1562SOL    HW116145   4.570   4.669  17.303  0.6774  0.0806  0.8882
 1562SOL    HW216146   4.689   0.037  17.346  1.3467 -0.3295 -0.4949
 1563SOL     OW16147   0.656   0.648  14.499 -0.0137  0.2065 -0.0885
 1563SOL    HW116148   0.681   0.740  14.500  0.8502 -0.0206 -0.4349
 1563SOL    HW216149   0.633   0.628  14.590 -2.0097 -0.4747 -0.7450
 1564SOL     OW16150   1.507   2.007   1.823  0.3721  0.1374  0.3665
 1564SOL    HW116151   1.412   1.992   1.820  0.6086 -1.1704 -0.5870
 1564SOL    HW216152   1.537   1.938   1.763 -0.4415 -0.0406  0.1635
 1565SOL     OW16153   0.026   2.499   3.566 -0.8471  0.1402  0.7359
 1565SOL    HW116154   0.024   2.426   3.628 -1.3327 -1.8871 -1.6546
 1565SOL    HW216155   0.097   2.553   3.601  1.5468 -2.1891 -0.5232
 1566SOL     OW16156   2.225   1.068   8.622 -0.1971 -0.1928  0.3362
 1566SOL    HW116157   2.237   0.977   8.648 -0.0473 -0.4175 -0.4975
 1566SOL    HW216158   2.237   1.109   8.707 -1.6997  2.4136 -0.7084
 1567SOL     OW16159   3.855   2.784   7.925  0.4393 -0.3591 -0.5430
 1567SOL    HW116160   3.836   2.872   7.956  1.9102  0.2886 -1.4788
 1567SOL    HW216161   3.898   2.760   8.006  0.7094  0.8464 -0.3251
 1568SOL     OW16162   0.213   3.985   9.420 -0.1626 -0.4045  0.2162
 1568SOL    HW116163   0.146   4.053   9.428 -1.7222 -1.9962  0.7457
 1568SOL    HW216164   0.255   4.000   9.335 -2.9789  1.0092 -0.9439
 1569SOL     OW16165   2.568   3.387  15.322  0.0727 -0.1328  0.6468
 1569SOL    HW116166   2.479   3.417  15.340  0.5392  1.1464  0.7804
 1569SOL    HW216167   2.559   3.322  15.252 -3.9890 -0.1217  1.1393
 1570SOL     OW16168   1.644   2.909   0.256 -0.2684  0.4300  0.3145
 1570SOL    HW116169   1.711   2.961   0.210 -0.3963  0.4848  0.1891
 1570SOL    HW216170   1.563   2.952   0.228  0.0751  0.8630 -0.0348
 1571SOL     OW16171   3.117   2.151  11.114 -0.4267  0.0076 -0.1120
 1571SOL    HW116172   3.096   2.128  11.205  2.8439 -0.5692  0.5019
 1571SOL    HW216173   3.054   2.094  11.071 -0.4742 -0.1042  0.1076
 1572SOL     OW16174   1.142   0.795   6.513 -0.1255 -0.5186 -0.2234
 1572SOL    HW116175   1.125   0.889   6.511 -0.7823 -0.6185  1.2749
 1572SOL    HW216176   1.100   0.767   6.432  0.3578  0.0387 -0.6699
 1573SOL     OW16177   4.239   3.889   3.047 -0.3027  0.3658  0.0515
 1573SOL    HW116178   4.331   3.879   3.023 -0.5181 -0.4444 -0.4623
 1573SOL    HW216179   4.228   3.984   3.051 -1.1906  0.2930 -0.5926
 1574SOL     OW16180   3.858   4.513   6.828  0.4411 -0.0851 -0.2926
 1574SOL    HW116181   3.875   4.606   6.816  2.2095 -0.4549 -0.6874
 1574SOL    HW216182   3.932   4.503   6.887 -0.4407 -2.2904  0.4654
 1575SOL     OW16183   4.530   0.013  10.378  0.7152  0.0395 -0.0666
 1575SOL    HW116184   4.607   4.694  10.415  2.8184  3.7457 -0.0362
 1575SOL    HW216185   4.541   4.711  10.286  0.1873  1.6582 -0.5949
 1576SOL     OW16186   1.464   4.081   5.717 -0.4462  0.2539 -0.5632
 1576SOL    HW116187   1.476   4.005   5.660  0.0318 -0.8391  0.9795
 1576SOL    HW216188   1.533   4.139   5.686 -1.3756  1.5214 -0.2337
 1577SOL     OW16189   3.532   1.197   7.020 -0.5955 -0.0915  0.5527
 1577SOL    HW116190   3.600   1.262   7.035 -1.9962  1.6422 -0.6607
 1577SOL    HW216191   3.557   1.114   7.061 -0.1557 -0.2148  0.0240
 1578SOL     OW16192   0.305   1.980   4.237  0.2107  0.2789  0.3782
 1578SOL    HW116193   0.309   1.946   4.326  0.0251  0.6091  0.5122
 1578SOL    HW216194   0.285   1.898   4.191  0.5175  0.2622  0.2699
 1579SOL     OW16195   2.487   3.153   6.424  0.0843  0.1603  0.1722
 1579SOL    HW116196   2.532   3.077   6.387 -1.0617 -0.1524 -0.5687
 1579SOL    HW216197   2.397   3.120   6.434  0.6957 -2.0909 -1.8789
 1580SOL     OW16198   0.311   1.176  15.384  0.5501 -0.0220 -0.1227
 1580SOL    HW116199   0.290   1.217  15.468  0.8159 -0.2317  0.0505
 1580SOL    HW216200   0.399   1.211  15.369  0.6555 -0.0322  0.4594
 1581SOL     OW16201   0.776   3.358   4.489 -0.2210  0.1019  0.6085
 1581SOL    HW116202   0.697   3.303   4.490  0.8285 -1.3894  1.6753
 1581SOL    HW216203   0.782   3.355   4.394 -1.9676 -1.6215  0.5334
 1582SOL     OW16204   4.476   4.506   7.265 -0.6410 -0.1767 -0.5290
 1582SOL    HW116205   4.496   4.440   7.199  0.4609 -2.0525  1.6787
 1582SOL    HW216206   4.385   4.516   7.236 -0.3565  0.2535 -1.2629
 1583SOL     OW16207   0.685   2.068  13.958 -0.0122  0.4247  0.3708
 1583SOL    HW116208   0.656   2.123  13.886 -3.1720 -0.0690  1.2798
 1583SOL    HW216209   0.618   2.001  13.951  0.2867  0.2150 -0.3937
 1584SOL     OW16210   0.654   1.383  14.470 -0.5874  0.3020  0.0657
 1584SOL    HW116211   0.710   1.411  14.542 -0.8370  0.1906  0.3038
 1584SOL    HW216212   0.694   1.414  14.389 -1.5577 -1.4569 -1.0759
 1585SOL     OW16213   2.437   0.134   1.451  0.6019  0.0756 -0.3492
 1585SOL    HW116214   2.462   0.207   1.507  0.1449  1.8754 -2.4493
 1585SOL    HW216215   2.505   0.070   1.470  1.7878  2.0608  2.0213
 1586SOL     OW16216   1.171   4.597   8.856  0.1640 -0.0519  0.3719
 1586SOL    HW116217   1.198   4.649   8.781  0.9624 -2.0750 -0.7338
 1586SOL    HW216218   1.223   4.517   8.847 -0.8564 -0.2125 -3.7946
 1587SOL     OW16219   2.356   2.444   2.236  0.2110 -0.0400 -0.5472
 1587SOL    HW116220   2.316   2.372   2.285  0.7668  0.3004  0.4022
 1587SOL    HW216221   2.446   2.415   2.254  0.2278  0.0065 -0.5580
 1588SOL     OW16222   0.727   0.345   6.380 -0.0765 -0.2095 -1.1087
 1588SOL    HW116223   0.715   0.275   6.444  0.0860 -1.5048 -2.5042
 1588SOL    HW216224   0.696   0.302   6.300  0.0267 -1.2161 -0.6009
 1589SOL     OW16225   3.023   2.544   8.740  0.7238  0.3806 -0.4032
 1589SOL    HW116226   3.071   2.569   8.819  2.5201 -0.7394 -1.1237
 1589SOL    HW216227   2.949   2.604   8.743  0.4357  0.0234 -0.2729
 1590SOL     OW16228   1.740   3.715  12.039 -0.3888 -0.2882 -0.8617
 1590SOL    HW116229   1.725   3.751  11.952  1.4941 -0.7520 -1.3720
 1590SOL    HW216230   1.832   3.699  12.018  0.0918 -0.1231  1.1274
 1591SOL     OW16231   2.872   0.679  13.436  0.2889 -0.1116 -0.0991
 1591SOL    HW116232   2.962   0.701  13.459 -0.2211  2.8367 -0.9742
 1591SOL    HW216233   2.861   0.587  13.462 -0.3448  0.4517  1.6096
 1592SOL     OW16234   4.283   0.019   2.982 -0.5839 -0.1994 -0.1744
 1592SOL    HW116235   4.245   0.087   2.926 -1.7304 -0.3881  0.3750
 1592SOL    HW216236   4.367   0.053   3.013 -1.2451 -1.3555  2.9111
 1593SOL     OW16237   0.378   2.867  12.368  0.5210  0.1056 -0.2958
 1593SOL    HW116238   0.305   2.892  12.312 -2.0817 -0.1290  3.0158
 1593SOL    HW216239   0.422   2.806  12.309  1.4545 -2.4720  3.0309
 1594SOL     OW16240   4.516   3.236   3.968 -0.3693 -0.5490  0.2953
 1594SOL    HW116241   4.556   3.193   4.044 -0.2155 -0.5461  0.2158
 1594SOL    HW216242   4.522   3.168   3.902 -0.2103  2.7732 -3.1199
 1595SOL     OW16243   4.043   3.661   6.308 -0.1028  0.2534 -0.0966
 1595SOL    HW116244   4.026   3.637   6.217 -0.6610  2.4515 -0.5644
 1595SOL    HW216245   4.025   3.755   6.306 -0.3938  0.2871  4.0559
 1596SOL     OW16246   2.814   2.932  15.672 -0.1517 -0.3364 -0.4391
 1596SOL    HW116247   2.774   2.877  15.605 -0.6921  0.1156 -0.4887
 1596SOL    HW216248   2.735   2.975  15.706  0.2007  1.0164 -1.3308
 1597SOL     OW16249   0.961   0.290   1.657  0.4023  0.3649  0.0715
 1597SOL    HW116250   0.878   0.247   1.677  1.3584 -1.8097 -0.6675
 1597SOL    HW216251   0.948   0.384   1.641  2.9782  0.5039 -1.1731
 1598SOL     OW16252   0.127   3.131   2.567  0.2991  0.4064 -0.0606
 1598SOL    HW116253   0.072   3.078   2.625 -0.8912  0.3786 -1.2328
 1598SOL    HW216254   0.108   3.099   2.479  2.5810 -0.2231 -0.3441
 1599SOL     OW16255   2.668   1.863   2.658  0.1877 -0.3518 -0.5811
 1599SOL    HW116256   2.699   1.872   2.749 -0.1230  1.4235 -0.6721
 1599SOL    HW216257   2.744   1.814   2.624  1.0059  1.0801 -0.8049
 1600SOL     OW16258   1.667   3.354  10.565 -0.1268 -0.1167  0.0822
 1600SOL    HW116259   1.577   3.337  10.535  0.4254  1.2931 -2.3315
 1600SOL    HW216260   1.665   3.446  10.592 -0.9500 -0.1204  0.0329
 1601SOL     OW16261   2.479   1.569   3.508  0.3857  0.4189 -0.1506
 1601SOL    HW116262   2.469   1.488   3.458 -1.2495  1.0779 -0.8817
 1601SOL    HW216263   2.479   1.535   3.598 -1.1172 -0.6086 -0.5357
 1602SOL     OW16264   0.615   4.531   5.349  0.2800  0.2764  0.7026
 1602SOL    HW116265   0.616   4.441   5.314 -1.2449  0.6938 -0.4195
 1602SOL    HW216266   0.589   4.510   5.439 -0.2003  0.0806  0.5205
 1603SOL     OW16267   3.232   3.158  10.140 -0.2673 -0.0150 -0.1722
 1603SOL    HW116268   3.227   3.080  10.196  1.3308 -0.0943 -0.1478
 1603SOL    HW216269   3.187   3.213  10.204 -1.5343 -0.4297 -0.6988
 1604SOL     OW16270   3.617   2.338   6.227  0.3544 -0.3934  0.5572
 1604SOL    HW116271   3.646   2.290   6.149  1.8286  0.7243  0.4278
 1604SOL    HW216272   3.630   2.274   6.297  1.3975  0.5941  1.2618
 1605SOL     OW16273   1.046   4.576   2.648 -0.2961  0.4182  0.8391
 1605SOL    HW116274   0.996   4.495   2.650 -0.0445  0.2548  0.5216
 1605SOL    HW216275   1.133   4.540   2.633 -0.9879 -0.9851  0.2659
 1606SOL     OW16276   2.384   0.446   5.284  0.1970 -0.0589 -0.3293
 1606SOL    HW116277   2.389   0.463   5.378 -0.3472 -0.6199 -0.1956
 1606SOL    HW216278   2.418   0.357   5.276  0.6401 -0.0052  0.8463
 1607SOL     OW16279   2.190   3.420   6.612 -0.1200 -0.6185 -0.0466
 1607SOL    HW116280   2.154   3.420   6.523  0.9369 -1.5479 -0.4750
 1607SOL    HW216281   2.268   3.474   6.604 -0.8307  0.3253 -0.7153
 1608SOL     OW16282   3.083   3.718  13.137  0.2201 -0.5762  0.1026
 1608SOL    HW116283   3.174   3.729  13.108  0.5057 -1.2448  0.7502
 1608SOL    HW216284   3.099   3.631  13.173 -0.7685 -1.3249 -1.2960
 1609SOL     OW16285   2.703   3.260   7.473 -0.1971 -0.3495  0.1421
 1609SOL    HW116286   2.670   3.220   7.392  0.2024 -0.4327  0.0228
 1609SOL    HW216287   2.639   3.326   7.501  2.3845  2.6069 -0.9995
 1610SOL     OW16288   4.224   0.673  11.853  0.1110  0.3751  0.0298
 1610SOL    HW116289   4.162   0.615  11.897 -2.1826  2.8277  0.0259
 1610SOL    HW216290   4.281   0.687  11.929  0.3908 -0.4389 -0.0252
 1611SOL     OW16291   0.072   0.948   3.499  0.1253  0.3820 -0.0003
 1611SOL    HW116292   0.030   0.909   3.576 -1.9578  0.3355 -1.1505
 1611SOL    HW216293   0.035   0.890   3.432 -0.2188  0.8166 -0.1827
 1612SOL     OW16294   1.152   2.725  17.316 -0.7315  0.8593 -0.2251
 1612SOL    HW116295   1.203   2.734  17.397 -0.1930  0.8768 -0.5659
 1612SOL    HW216296   1.149   2.629  17.321  0.2760  0.7306 -2.4299
 1613SOL     OW16297   1.530   1.372  11.595 -0.1260  0.3583 -0.1525
 1613SOL    HW116298   1.457   1.314  11.617 -0.2609 -0.0447 -1.7065
 1613SOL    HW216299   1.596   1.361  11.664  1.5625  2.8676 -1.3487
 1614SOL     OW16300   0.408   3.258  15.104 -0.5955  0.0167  0.0433
 1614SOL    HW116301   0.389   3.351  15.097 -1.5977 -0.1996 -0.2194
 1614SOL    HW216302   0.359   3.216  15.033 -2.3698 -0.2900  1.4547
 1615SOL     OW16303   3.997   1.165  11.027 -0.9383 -0.6291 -0.1494
 1615SOL    HW116304   3.981   1.107  11.102  0.6849 -0.9445 -0.0519
 1615SOL    HW216305   4.057   1.115  10.972  3.1524  2.4313  1.5157
 1616SOL     OW16306   1.786   3.983   5.148 -0.2540  0.1565 -0.0037
 1616SOL    HW116307   1.749   3.951   5.230 -1.8599 -0.1601 -0.8432
 1616SOL    HW216308   1.709   4.006   5.096  0.2967  2.7302  0.3575
 1617SOL     OW16309   0.511   0.003   8.310  0.3708  0.3794  0.0084
 1617SOL    HW116310   0.454   0.080   8.318  3.1849  2.7309 -2.3555
 1617SOL    HW216311   0.463   4.650   8.340 -2.9672  1.0457 -3.5969
 1618SOL     OW16312   3.635   0.088  10.525  0.1602  0.2933  0.0773
 1618SOL    HW116313   3.613   0.123  10.611  0.8182  2.2260 -0.5213
 1618SOL    HW216314   3.689   0.012  10.546  0.7398  1.0579  1.3411
 1619SOL     OW16315   0.767   2.065   1.441  0.3735 -0.7108 -0.0367
 1619SOL    HW116316   0.833   2.101   1.382  0.1092  1.9383  1.2844
 1619SOL    HW216317   0.729   1.999   1.384 -0.6108  2.4785 -3.0433
 1620SOL     OW16318   0.187   3.730   7.490 -0.2509  0.2878  0.3153
 1620SOL    HW116319   0.166   3.723   7.584 -0.7075 -0.5699  0.1497
 1620SOL    HW216320   0.101   3.723   7.449  1.0927 -0.6571 -2.3177
 1621SOL     OW16321   4.574   1.466   6.498 -0.7958  0.1038  0.0452
 1621SOL    HW116322   4.528   1.536   6.543 -0.4870 -0.2824  0.9629
 1621SOL    HW216323   4.632   1.509   6.434 -0.4547 -1.3795 -0.6493
 1622SOL     OW16324   0.105   3.056   8.511  1.0415 -0.3674 -0.4526
 1622SOL    HW116325   0.084   2.984   8.451 -1.2692 -1.1295  1.2832
 1622SOL    HW216326   0.037   3.055   8.578  0.4942  1.4223 -0.9921
 1623SOL     OW16327   0.534   4.389   4.244 -0.1926  0.0266  0.4752
 1623SOL    HW116328   0.608   4.397   4.184  0.4454 -1.5668  1.0518
 1623SOL    HW216329   0.466   4.431   4.192 -0.8061 -1.0488  0.4301
 1624SOL     OW16330   0.039   2.958   0.669 -0.1094 -0.4906 -0.1100
 1624SOL    HW116331   4.691   3.009   0.631 -0.9768 -2.2021 -0.8152
 1624SOL    HW216332   0.089   3.028   0.710 -0.1807  0.3418 -1.4251
 1625SOL     OW16333   3.132   4.617   3.294 -0.4377 -0.3464 -0.1581
 1625SOL    HW116334   3.131   4.712   3.309 -1.4921  0.0078 -2.4906
 1625SOL    HW216335   3.222   4.594   3.273  0.1430  0.5793  1.3064
 1626SOL     OW16336   0.966   1.618   4.121 -0.1291 -0.8849  0.4047
 1626SOL    HW116337   1.010   1.618   4.206  0.6466  0.9983 -0.0084
 1626SOL    HW216338   0.967   1.713   4.110 -2.2386 -0.5787  2.6918
 1627SOL     OW16339   4.046   4.709   8.575  0.2429 -0.0814  0.5087
 1627SOL    HW116340   4.070   4.665   8.657  0.1945  2.3902  1.8725
 1627SOL    HW216341   4.133   0.004   8.542 -0.4088  1.6115 -0.2723
 1628SOL     OW16342   4.698   4.037  16.471  0.1220 -0.0296  0.3304
 1628SOL    HW116343   0.062   4.046  16.434  0.2348 -3.1503 -0.1877
 1628SOL    HW216344   4.703   3.943  16.451 -0.3125  0.0664 -0.2345
 1629SOL     OW16345   4.213   0.950   3.800  0.1449  0.3641 -0.2041
 1629SOL    HW116346   4.146   0.948   3.868  1.1870 -1.1343  0.7776
 1629SOL    HW216347   4.165   0.895   3.737  0.0386 -0.9651  1.0536
 1630SOL     OW16348   4.193   1.403   6.073 -0.1919 -0.7020 -0.3029
 1630SOL    HW116349   4.123   1.442   6.123  0.2614  1.0309 -1.0143
 1630SOL    HW216350   4.248   1.395   6.151  0.4426  0.0678 -0.6782
 1631SOL     OW16351   3.904   1.662   4.377 -0.1184 -0.3529  0.1391
 1631SOL    HW116352   3.978   1.602   4.369 -0.1324 -0.0884 -1.9681
 1631SOL    HW216353   3.835   1.597   4.364 -1.5030  0.9219  1.0807
 1632SOL     OW16354   3.959   4.530   2.366 -0.2961  0.4701  0.2566
 1632SOL    HW116355   4.015   4.519   2.443 -0.0030 -2.2824 -0.3466
 1632SOL    HW216356   3.930   4.439   2.364  0.7003  0.1838 -1.6309
 1633SOL     OW16357   1.524   1.427   8.747  0.0106  0.5583 -0.3420
 1633SOL    HW116358   1.556   1.411   8.835 -2.2601 -1.5346  0.1152
 1633SOL    HW216359   1.491   1.339   8.730  2.7596 -0.5586  0.2175
 1634SOL     OW16360   1.257   4.348   8.491 -0.4915 -0.1773 -0.0092
 1634SOL    HW116361   1.222   4.437   8.494 -0.4185 -0.1127 -1.5364
 1634SOL    HW216362   1.286   4.348   8.400  0.4976  0.7205  0.3003
 1635SOL     OW16363   0.758   0.097   9.401  0.1791 -0.6383  0.1546
 1635SOL    HW116364   0.848   0.118   9.427  1.1385 -1.2827 -2.6246
 1635SOL    HW216365   0.712   0.156   9.461  1.5480 -2.0355  2.5694
 1636SOL     OW16366   1.558   4.188   2.323  0.3198 -0.4357  0.0315
 1636SOL    HW116367   1.560   4.122   2.254  0.4785  0.3671 -0.7307
 1636SOL    HW216368   1.472   4.163   2.356  0.7243  0.2123  1.5850
 1637SOL     OW16369   3.095   0.382   7.301  0.5388  0.7705  0.1309
 1637SOL    HW116370   3.093   0.382   7.397  2.7960 -2.7159  0.1504
 1637SOL    HW216371   3.147   0.302   7.295 -1.1079 -0.2001 -1.1615
 1638SOL     OW16372   3.688   4.423   4.149 -0.0623 -0.2083 -0.5601
 1638SOL    HW116373   3.703   4.329   4.146  0.7121 -0.1216  0.7725
 1638SOL    HW216374   3.657   4.439   4.238  0.1701  0.8107 -0.6585
 1639SOL     OW16375   2.523   4.043  14.144  0.2601 -1.0280 -0.0164
 1639SOL    HW116376   2.451   4.062  14.083  1.5504  0.6439 -1.0170
 1639SOL    HW216377   2.566   4.128  14.153 -0.6067 -0.5203 -0.6170
 1640SOL     OW16378   0.889   3.269  11.673  0.6345 -0.0063  0.1293
 1640SOL    HW116379   0.918   3.237  11.759  2.5250  2.7419  0.4960
 1640SOL    HW216380   0.959   3.325  11.641 -1.0543  1.9326 -0.2311
 1641SOL     OW16381   0.034   1.877  15.706 -0.2808  0.0913 -0.0380
 1641SOL    HW116382   4.671   1.917  15.701 -0.0061  0.6977  0.0185
 1641SOL    HW216383   0.025   1.799  15.652 -0.9237 -0.4769  0.9089
 1642SOL     OW16384   1.226   0.073   5.056 -0.3169  0.1372  0.1183
 1642SOL    HW116385   1.250   0.000   5.114  3.2435  0.9056 -0.3435
 1642SOL    HW216386   1.136   0.089   5.082 -0.6503  0.5698 -1.3083
 1643SOL     OW16387   3.275   4.721  14.538  0.2893  0.4233 -0.3725
 1643SOL    HW116388   3.351   0.046  14.507  0.3785  0.0092 -0.8012
 1643SOL    HW216389   3.295   4.644  14.486  0.8356  1.0161 -1.0451
 1644SOL     OW16390   0.311   2.154   2.638  0.2250 -1.1633 -0.4853
 1644SOL    HW116391   0.223   2.123   2.616  0.0549 -1.3719  0.4701
 1644SOL    HW216392   0.304   2.249   2.629 -0.0359 -0.8287  2.9158
 1645SOL     OW16393   0.282   3.961  13.092  0.1858  0.2010 -0.0317
 1645SOL    HW116394   0.297   3.870  13.115 -1.3021  0.1088  0.5364
 1645SOL    HW216395   0.373   3.971  13.063 -0.3292  1.9821 -1.0158
 1646SOL     OW16396   4.458   0.931   6.763  0.0407  0.2814  0.3452
 1646SOL    HW116397   4.519   0.879   6.814 -0.6957 -2.5117 -1.6395
 1646SOL    HW216398   4.502   0.912   6.680  1.1094  0.4419  0.8757
 1647SOL     OW16399   3.915   0.036   9.371 -0.1421 -0.0599  0.4196
 1647SOL    HW116400   3.953   4.681   9.409 -3.8432 -0.8996  2.4849
 1647SOL    HW216401   3.878   0.020   9.284 -0.1470 -2.2558  0.8197
 1648SOL     OW16402   3.080   0.419   6.973 -0.5460  0.0028  0.3338
 1648SOL    HW116403   3.118   0.478   7.039  0.1203 -0.8707  0.7371
 1648SOL    HW216404   3.070   0.480   6.900  1.2864  2.8278  2.4296
 1649SOL     OW16405   0.925   1.469   1.793  0.5258  0.1356 -0.3922
 1649SOL    HW116406   0.938   1.500   1.703  0.0825  2.2534  0.2934
 1649SOL    HW216407   1.011   1.475   1.834  1.1418  0.0688 -1.6637
 1650SOL     OW16408   2.778   1.276   5.441 -0.2791  0.1450 -0.1048
 1650SOL    HW116409   2.855   1.331   5.456 -0.8525  1.1234 -0.7548
 1650SOL    HW216410   2.706   1.339   5.435  1.2005  1.9602  1.0925
 1651SOL     OW16411   3.834   2.019   0.132 -0.2834 -0.4500 -0.4208
 1651SOL    HW116412   3.790   1.942   0.168 -0.4187 -0.1289  0.0867
 1651SOL    HW216413   3.838   1.985   0.042 -2.6703  2.3017 -1.5773
 1652SOL     OW16414   3.265   0.946   7.352 -0.6567  0.5436  0.0201
 1652SOL    HW116415   3.306   0.895   7.422  1.1799 -2.4314 -3.2027
 1652SOL    HW216416   3.291   0.901   7.272  1.6705  3.1431 -0.6909
 1653SOL     OW16417   1.341   1.790  10.498 -0.5623  0.3349  0.1264
 1653SOL    HW116418   1.278   1.851  10.538  1.5328  0.4321  3.2663
 1653SOL    HW216419   1.311   1.782  10.407 -0.9078  2.3763  0.0540
 1654SOL     OW16420   4.370   1.742   8.109 -0.1202  0.0247  0.9159
 1654SOL    HW116421   4.368   1.722   8.016 -1.5063  0.4759  0.8646
 1654SOL    HW216422   4.391   1.835   8.101  0.6660 -0.3214 -1.0872
 1655SOL     OW16423   4.000   0.005   9.867  0.0354  0.0183 -0.4910
 1655SOL    HW116424   3.921   0.047   9.902 -0.4162 -0.5105 -0.8783
 1655SOL    HW216425   4.037   0.075   9.814  0.4275 -0.0539 -0.3171
 1656SOL     OW16426   0.418   0.307   5.362  0.3109  0.0102  0.2286
 1656SOL    HW116427   0.408   0.325   5.269 -0.2022 -1.9637 -0.0813
 1656SOL    HW216428   0.506   0.341   5.379  0.4223  1.0368 -2.4428
 1657SOL     OW16429   0.610   0.915   0.830 -0.4221  0.0883  0.2018
 1657SOL    HW116430   0.606   0.999   0.876 -1.0842 -1.5581  3.2172
 1657SOL    HW216431   0.699   0.917   0.796 -0.2881  0.7030  0.5793
 1658SOL     OW16432   0.333   0.966   3.537 -0.4058  0.4218 -0.0310
 1658SOL    HW116433   0.244   0.961   3.503 -0.0601  1.9402 -1.2142
 1658SOL    HW216434   0.360   1.057   3.519 -0.7749  0.9998  2.3416
 1659SOL     OW16435   0.833   4.185   4.357 -0.0293 -0.0590 -0.1237
 1659SOL    HW116436   0.778   4.189   4.279  1.0078  1.6629 -0.7612
 1659SOL    HW216437   0.805   4.098   4.387  0.9174 -1.1957 -2.5708
 1660SOL     OW16438   0.412   4.716   3.757  0.2499 -0.6263 -0.2455
 1660SOL    HW116439   0.358   4.653   3.710 -1.9453 -0.3743  1.9344
 1660SOL    HW216440   0.394   0.076   3.714 -0.9961 -0.2431  1.0344
 1661SOL     OW16441   1.287   3.877   0.581  0.1636  0.6845 -0.5958
 1661SOL    HW116442   1.238   3.908   0.505 -1.0077 -1.9635 -0.8963
 1661SOL    HW216443   1.226   3.906   0.649  0.2461 -3.6215  1.3045
 1662SOL     OW16444   0.008   1.407   2.227 -0.1464 -0.1189 -0.1799
 1662SOL    HW116445   4.715   1.501   2.213  0.2997 -0.1752 -1.0992
 1662SOL    HW216446   0.071   1.391   2.156 -0.7438  0.5263 -0.8541
 1663SOL     OW16447   2.903   1.635  14.393 -1.0082  1.0797  0.2677
 1663SOL    HW116448   2.849   1.572  14.439 -0.2448  0.8303  0.8178
 1663SOL    HW216449   2.966   1.576  14.353 -1.2305  0.1298  1.3429
 1664SOL     OW16450   2.839   3.853  11.144  0.4650 -0.9414  0.1249
 1664SOL    HW116451   2.899   3.855  11.069  1.7655  2.2535  1.2530
 1664SOL    HW216452   2.800   3.940  11.140  3.3313  0.3082 -0.6984
 1665SOL     OW16453   2.529   2.067  13.347 -0.7299  0.4973  0.5387
 1665SOL    HW116454   2.587   2.017  13.289  0.2841  1.0276  1.0889
 1665SOL    HW216455   2.562   2.157  13.338  0.9569 -0.1040  0.7024
 1666SOL     OW16456   1.615   0.326  16.339 -0.3438  0.2567  0.8058
 1666SOL    HW116457   1.678   0.329  16.411  0.3525 -0.0504  0.2153
 1666SOL    HW216458   1.676   0.279  16.283 -1.3977  0.6908 -0.7179
 1667SOL     OW16459   1.984   4.337   3.001  0.0758 -0.0235 -0.1471
 1667SOL    HW116460   1.915   4.272   3.005 -1.5194  1.7231  1.0133
 1667SOL    HW216461   1.955   4.414   2.952  0.0364  0.1887  0.2081
 1668SOL     OW16462   1.952   1.795   7.794 -0.0415  0.0368  0.3246
 1668SOL    HW116463   1.952   1.859   7.865  1.4933 -2.5360  2.6485
 1668SOL    HW216464   1.878   1.742   7.825 -1.0906  1.4145  0.1466
 1669SOL     OW16465   1.094   3.473   4.769 -0.0343  0.2420 -0.1394
 1669SOL    HW116466   1.080   3.414   4.695 -0.4126  0.8996 -0.6026
 1669SOL    HW216467   1.078   3.557   4.725 -0.1551  0.0526 -0.4532
 1670SOL     OW16468   4.390   0.164  15.486  0.4827 -0.2783 -0.4797
 1670SOL    HW116469   4.414   0.197  15.573 -2.4657 -1.3991  0.7620
 1670SOL    HW216470   4.295   0.161  15.493  0.6042 -0.5412  0.9800
 1671SOL     OW16471   0.590   1.017   7.613 -0.9208  0.2625 -0.2080
 1671SOL    HW116472   0.633   1.103   7.618  0.6957 -0.6752  2.4412
 1671SOL    HW216473   0.536   1.017   7.692 -2.0234  3.3851 -0.9479
 1672SOL     OW16474   1.371   0.587  16.671 -0.2061 -0.1396 -0.1135
 1672SOL    HW116475   1.345   0.601  16.580 -3.6359  0.7659  1.0062
 1672SOL    HW216476   1.431   0.513  16.664 -1.2834 -0.8652 -1.5801
 1673SOL     OW16477   2.561   0.305   1.632  0.6964  0.1272 -0.2496
 1673SOL    HW116478   2.549   0.380   1.691 -1.4119 -0.1533 -0.3297
 1673SOL    HW216479   2.586   0.348   1.550  2.6379 -1.2580 -0.3679
 1674SOL     OW16480   0.094   0.575  12.608 -0.5762 -0.2894  0.5292
 1674SOL    HW116481   0.187   0.561  12.593 -0.5354  2.5203 -1.9214
 1674SOL    HW216482   0.091   0.610  12.697 -0.4267  1.4322 -0.1366
 1675SOL     OW16483   2.539   1.744  12.732  0.4018  0.0710  0.1031
 1675SOL    HW116484   2.494   1.781  12.808 -1.3933  1.6251 -1.7177
 1675SOL    HW216485   2.622   1.734  12.778  1.0060  1.6312 -0.6512
 1676SOL     OW16486   4.161   0.103   0.784 -0.0573 -0.7124  0.1032
 1676SOL    HW116487   4.253   0.079   0.792  0.6816  1.0585 -3.0755
 1676SOL    HW216488   4.142   0.157   0.860  1.4575  0.7689 -0.5729
 1677SOL     OW16489   0.619   3.938  15.887 -0.4212 -0.3463  0.1781
 1677SOL    HW116490   0.634   3.853  15.846  0.9156  0.5339 -1.1586
 1677SOL    HW216491   0.524   3.942  15.889 -0.4369 -0.4442 -0.2438
 1678SOL     OW16492   3.460   1.096  10.026 -0.0176  0.0991 -0.3762
 1678SOL    HW116493   3.416   1.011  10.030  1.6013 -0.8352 -2.2723
 1678SOL    HW216494   3.545   1.073  10.064 -0.7665  2.1770  2.4955
 1679SOL     OW16495   1.295   2.940   5.320  0.4908 -0.3275 -0.0183
 1679SOL    HW116496   1.241   2.907   5.249 -0.4292 -0.1079  0.5872
 1679SOL    HW216497   1.248   2.917   5.400 -0.2038  1.2875  0.0369
 1680SOL     OW16498   4.537   3.493  16.573 -0.3069  0.0632 -0.2807
 1680SOL    HW116499   4.523   3.496  16.478 -0.5901  2.0118 -0.1716
 1680SOL    HW216500   4.538   3.585  16.596 -2.5090 -0.1219  0.5983
 1681SOL     OW16501   4.711   4.594   4.385 -0.5975 -0.1472 -0.1943
 1681SOL    HW116502   0.033   4.513   4.361 -0.4374  0.1791 -1.0017
 1681SOL    HW216503   4.637   4.554   4.430  0.0361 -1.4980 -0.3422
 1682SOL     OW16504   0.230   4.178   8.622  0.0845 -0.0087 -0.0545
 1682SOL    HW116505   0.305   4.237   8.617 -2.0054  2.6049 -0.3266
 1682SOL    HW216506   0.189   4.217   8.699  1.2207  1.7420 -0.3288
 1683SOL     OW16507   3.471   0.088   5.499 -0.2322  0.5596  0.4504
 1683SOL    HW116508   3.547   0.128   5.542 -0.8949  1.1892  1.0373
 1683SOL    HW216509   3.468   0.145   5.422 -0.8599  0.6851  0.5684
 1684SOL     OW16510   4.260   0.936  11.007 -1.1326  0.7135  0.2306
 1684SOL    HW116511   4.228   0.942  10.917  0.0011 -0.1963 -0.2270
 1684SOL    HW216512   4.303   1.019  11.029  0.9053 -0.5253  0.9411
 1685SOL     OW16513   2.900   2.766   4.386  0.2418  0.3484 -0.7531
 1685SOL    HW116514   2.868   2.845   4.341  0.4817  0.7368 -0.2323
 1685SOL    HW216515   2.981   2.805   4.419  0.7541 -0.8907 -0.5720
 1686SOL     OW16516   2.803   0.608  11.238 -0.1385 -0.0672  0.4200
 1686SOL    HW116517   2.751   0.687  11.251  0.9250  0.9031 -1.2112
 1686SOL    HW216518   2.862   0.612  11.313  0.3492  0.7738 -0.0160
 1687SOL     OW16519   0.735   0.658   5.052  0.4788  0.3448 -0.3466
 1687SOL    HW116520   0.691   0.634   5.133  0.2456 -0.3150 -0.6661
 1687SOL    HW216521   0.770   0.575   5.021  1.0880  1.5019 -2.7675
 1688SOL     OW16522   0.471   0.058   2.125  0.0688  0.2643  0.1504
 1688SOL    HW116523   0.419   0.051   2.045  0.0545 -1.1570  0.2873
 1688SOL    HW216524   0.527   4.705   2.115 -0.2752 -0.2154  1.9241
 1689SOL     OW16525   2.543   1.854   5.255 -0.2853  0.2539  0.1271
 1689SOL    HW116526   2.483   1.795   5.300 -0.7246 -0.9396 -2.0269
 1689SOL    HW216527   2.578   1.786   5.198 -0.6135  0.1874  0.0045
 1690SOL     OW16528   3.665   4.017   5.486  0.7423  0.4486  0.4638
 1690SOL    HW116529   3.631   4.101   5.455 -0.1960 -0.1573 -0.1672
 1690SOL    HW216530   3.724   4.050   5.553  0.3280 -0.7072  1.3932
 1691SOL     OW16531   2.867   2.953  14.016 -0.2262 -0.2808  0.2430
 1691SOL    HW116532   2.797   2.983  13.958  1.3057  0.7155 -1.0769
 1691SOL    HW216533   2.820   2.895  14.076  1.0761  0.7757  2.3072
 1692SOL     OW16534   1.918   1.258  14.955  0.0804  0.2390  0.1949
 1692SOL    HW116535   1.875   1.332  14.912 -1.7039 -0.7405  0.2987
 1692SOL    HW216536   1.850   1.199  14.986 -2.1586  3.7546  1.9926
 1693SOL     OW16537   3.706   3.795   2.864 -0.1875  0.0208  0.2385
 1693SOL    HW116538   3.753   3.877   2.849  1.1692 -0.5920  1.0983
 1693SOL    HW216539   3.713   3.786   2.959  0.3050  0.3127  0.2335
 1694SOL     OW16540   3.665   1.217   4.905 -0.0600 -0.0211  0.2953
 1694SOL    HW116541   3.613   1.277   4.958 -1.1846 -0.7640  0.0147
 1694SOL    HW216542   3.698   1.274   4.835 -0.4710 -0.8799 -0.6112
 1695SOL     OW16543   4.460   1.591   2.157 -0.2901 -0.2385  0.2728
 1695SOL    HW116544   4.459   1.569   2.250 -0.9675 -0.0592  0.3106
 1695SOL    HW216545   4.537   1.647   2.166 -0.1773 -0.0913 -1.5760
 1696SOL     OW16546   4.611   3.071   7.286  0.2776  0.0333  0.3379
 1696SOL    HW116547   4.596   3.143   7.225  1.6006 -1.0922 -1.2952
 1696SOL    HW216548   4.526   3.029   7.289 -0.6670  1.9907  1.0741
 1697SOL     OW16549   4.661   4.159   0.493  0.0514 -0.0045  0.5527
 1697SOL    HW116550   4.607   4.153   0.572  1.0441 -1.6650  1.1076
 1697SOL    HW216551   4.595   4.169   0.425  0.9941  0.9634 -0.2233
 1698SOL     OW16552   0.789   0.670  15.228  0.2990  1.0691 -0.2937
 1698SOL    HW116553   0.728   0.730  15.271  1.9091  1.1898  1.8334
 1698SOL    HW216554   0.745   0.668  15.143  0.4020  1.6976 -0.3606
 1699SOL     OW16555   1.431   2.193   6.712  0.1620 -0.1346 -0.2893
 1699SOL    HW116556   1.383   2.270   6.681  1.5282  0.6796 -0.4101
 1699SOL    HW216557   1.419   2.200   6.806 -0.5241  0.7179 -0.4384
 1700SOL     OW16558   0.767   3.559   4.683  0.2433 -0.1669 -0.2975
 1700SOL    HW116559   0.859   3.576   4.664  0.0441 -1.1878 -2.2270
 1700SOL    HW216560   0.749   3.489   4.619  0.9505  0.1520 -0.8519
 1701SOL     OW16561   2.934   0.106  10.322 -0.4978 -0.3466 -0.3894
 1701SOL    HW116562   2.851   0.062  10.337 -0.5663 -0.5115 -1.2441
 1701SOL    HW216563   2.933   0.169  10.393  1.1895  0.8258 -1.3890
 1702SOL     OW16564   1.577   1.362   8.051  0.3898  0.9434 -0.6441
 1702SOL    HW116565   1.529   1.322   7.978  1.2617 -1.1971 -0.0260
 1702SOL    HW216566   1.663   1.328   8.030 -0.2794 -0.1705 -1.5932
 1703SOL     OW16567   1.897   0.481   7.910  0.2129 -0.0668  0.5682
 1703SOL    HW116568   1.881   0.500   7.817 -0.3761 -0.4041  0.5997
 1703SOL    HW216569   1.920   0.559   7.961  0.2279 -0.6158  1.3917
 1704SOL     OW16570   1.637   1.148  16.263 -0.1114  0.0243 -0.5016
 1704SOL    HW116571   1.591   1.196  16.193 -2.1589 -0.5826  0.4099
 1704SOL    HW216572   1.627   1.215  16.331  0.9550  1.8254 -2.1024
 1705SOL     OW16573   1.449   2.773   6.466 -0.4985  0.2680  0.7821
 1705SOL    HW116574   1.433   2.805   6.555 -1.2789  0.2705  0.6423
 1705SOL    HW216575   1.365   2.735   6.441  0.0235  0.4061 -1.1966
 1706SOL     OW16576   2.935   4.092   0.592  0.1842 -0.2308 -0.2837
 1706SOL    HW116577   2.895   4.169   0.633  1.0936 -0.7681  1.5988
 1706SOL    HW216578   2.859   4.035   0.601 -0.4695  0.6045 -0.4599
 1707SOL     OW16579   1.543   1.536  15.297  0.5326  0.1721  0.0192
 1707SOL    HW116580   1.464   1.527  15.349 -0.1168  1.5489 -0.7217
 1707SOL    HW216581   1.516   1.591  15.223  2.2783 -1.7935 -2.0722
 1708SOL     OW16582   2.160   1.812   3.648  0.4445 -0.1117 -0.3732
 1708SOL    HW116583   2.255   1.806   3.655  0.3470 -1.1776 -0.0603
 1708SOL    HW216584   2.157   1.908   3.654 -0.7194 -0.1405 -0.4504
 1709SOL     OW16585   3.410   1.485   4.441 -0.3352  0.2091 -0.4776
 1709SOL    HW116586   3.319   1.479   4.469 -0.4229 -0.3886 -0.8862
 1709SOL    HW216587   3.381   1.526   4.360  0.5515  3.1911  0.7323
 1710SOL     OW16588   3.508   4.475   8.550 -0.3189 -0.1770  0.1036
 1710SOL    HW116589   3.504   4.546   8.614 -1.1266  0.2696 -0.4363
 1710SOL    HW216590   3.465   4.404   8.598  2.8777 -0.6113  2.3183
 1711SOL     OW16591   2.344   0.120   2.083  0.4806 -0.5983 -0.2142
 1711SOL    HW116592   2.398   0.125   2.003 -0.7341 -2.6997 -1.1703
 1711SOL    HW216593   2.296   0.039   2.065  1.4519 -1.2217  0.0044
 1712SOL     OW16594   4.272   2.056  11.401  0.7928  0.0200 -0.4215
 1712SOL    HW116595   4.244   2.125  11.341  0.0199  1.1322  1.2347
 1712SOL    HW216596   4.266   1.974  11.351 -0.7934 -0.3604  0.4047
 1713SOL     OW16597   0.665   2.888   4.079 -0.0327 -0.0507  0.4529
 1713SOL    HW116598   0.620   2.823   4.024  0.7302  0.7826 -1.1718
 1713SOL    HW216599   0.754   2.895   4.043 -0.2532 -1.4661 -0.3678
 1714SOL     OW16600   0.929   4.216   8.256  0.2174  0.0958  0.5261
 1714SOL    HW116601   0.932   4.287   8.321 -1.2952 -2.2044  3.0618
 1714SOL    HW216602   0.942   4.144   8.317 -0.6095 -0.8179 -0.3816
 1715SOL     OW16603   0.287   1.446   3.811  0.4258  0.3530 -0.4569
 1715SOL    HW116604   0.356   1.417   3.751  0.4712  2.3688 -1.3754
 1715SOL    HW216605   0.224   1.468   3.742  0.4881  0.7785 -0.3748
 1716SOL     OW16606   2.941   1.310   4.110  0.1961  0.1937  0.1443
 1716SOL    HW116607   2.928   1.235   4.167 -2.0511  0.0379 -0.5703
 1716SOL    HW216608   2.892   1.373   4.163  1.8996  1.0312  0.7360
 1717SOL     OW16609   3.672   3.322  11.463  0.1362 -0.3083  0.3031
 1717SOL    HW116610   3.634   3.253  11.518  1.7198  0.7426  2.7305
 1717SOL    HW216611   3.617   3.304  11.387  0.0478 -0.0650  0.3095
 1718SOL     OW16612   0.903   1.507   6.367  0.7510 -0.1141 -0.1037
 1718SOL    HW116613   0.840   1.576   6.345 -0.0472 -0.4469  1.1686
 1718SOL    HW216614   0.988   1.544   6.341  0.3246  1.1777  0.3501
 1719SOL     OW16615   4.052   1.626  10.577 -0.2127  0.0250 -0.4876
 1719SOL    HW116616   4.035   1.578  10.497  1.1363  0.7729 -1.2283
 1719SOL    HW216617   4.052   1.556  10.643 -2.1860 -1.4870 -2.1187
 1720SOL     OW16618   3.709   1.930   9.096 -0.1640 -0.1548 -0.1654
 1720SOL    HW116619   3.752   2.013   9.075 -0.3034 -0.0747 -0.1334
 1720SOL    HW216620   3.782   1.875   9.125 -0.5294 -0.8053 -0.4600
 1721SOL     OW16621   3.234   0.058  11.620 -0.5262  0.0522  0.3801
 1721SOL    HW116622   3.145   0.024  11.608 -0.9641  0.7996  1.5441
 1721SOL    HW216623   3.224   0.121  11.691 -1.3058 -0.6757  0.9204
 1722SOL     OW16624   1.343   0.943   2.371  0.5016 -0.1200  0.0041
 1722SOL    HW116625   1.330   1.037   2.355 -1.2725 -0.0880  1.6054
 1722SOL    HW216626   1.319   0.945   2.464 -2.3737 -1.9497 -0.7320
 1723SOL     OW16627   4.021   0.122   6.510 -0.5795 -0.2011 -0.4585
 1723SOL    HW116628   4.045   0.088   6.596 -0.2663  1.9563  0.3047
 1723SOL    HW216629   4.023   0.047   6.450 -2.0575 -0.0945 -0.6326
 1724SOL     OW16630   1.823   4.345   2.618  0.5902  0.7711 -0.7113
 1724SOL    HW116631   1.895   4.327   2.557  1.3844  0.2360  0.3803
 1724SOL    HW216632   1.829   4.272   2.681  2.6514 -0.5598 -2.4650
 1725SOL     OW16633   0.171   4.434   9.096 -0.0744  0.1984  0.3566
 1725SOL    HW116634   0.089   4.415   9.142 -1.3403  1.4565 -1.3797
 1725SOL    HW216635   0.197   4.515   9.140  1.8809 -0.6285  0.7116
 1726SOL     OW16636   0.867   0.090   3.422  0.0944  0.9528  0.1027
 1726SOL    HW116637   0.890   4.724   3.444  0.4570  0.5712 -1.8535
 1726SOL    HW216638   0.772   0.089   3.411  0.3852 -2.3609 -1.7416
 1727SOL     OW16639   1.503   2.070   3.779 -0.0398  0.3510  0.1358
 1727SOL    HW116640   1.503   2.078   3.683  0.3774 -0.6047  0.0517
 1727SOL    HW216641   1.541   2.152   3.809  1.7394 -0.2708 -0.4162
 1728SOL     OW16642   4.671   1.759   3.215 -0.0446 -0.2596  0.2896
 1728SOL    HW116643   4.645   1.732   3.304  1.3730  0.0349  0.7921
 1728SOL    HW216644   4.704   1.847   3.234  0.4325 -0.5774  0.9583
 1729SOL     OW16645   4.244   2.026   0.305  0.1614 -0.6599 -0.1348
 1729SOL    HW116646   4.153   2.046   0.329  0.0105 -1.0672 -0.3668
 1729SOL    HW216647   4.263   2.080   0.228 -1.4645 -1.9596 -1.4560
 1730SOL     OW16648   2.975   2.613   5.425 -0.0048  0.5533  0.1589
 1730SOL    HW116649   2.969   2.615   5.521  1.5067 -0.7058  0.2942
 1730SOL    HW216650   2.902   2.673   5.412 -1.5367 -1.1820  0.7428
 1731SOL     OW16651   2.848   4.657  12.463  0.1201  0.4835 -0.1678
 1731SOL    HW116652   2.894   4.614  12.535 -1.0509 -0.7164 -0.1484
 1731SOL    HW216653   2.759   4.627  12.480 -0.3356  0.7362 -2.0945
 1732SOL     OW16654   0.534   3.491   5.299  0.2687 -0.4428  0.7154
 1732SOL    HW116655   0.576   3.441   5.229 -2.6085  1.6948 -2.5419
 1732SOL    HW216656   0.572   3.576   5.282  1.6472 -0.6505  2.7617
 1733SOL     OW16657   4.660   3.007   3.854  0.2503  0.3816 -0.1361
 1733SOL    HW116658   4.698   2.971   3.934 -0.1520  0.8350  0.2536
 1733SOL    HW216659   4.671   2.928   3.801  0.0404  2.1251 -2.7739
 1734SOL     OW16660   1.387   3.908   6.458 -0.3392  0.3416 -0.1707
 1734SOL    HW116661   1.291   3.904   6.461 -0.3138  2.5273  3.0644
 1734SOL    HW216662   1.403   3.819   6.491 -1.0061  0.3129  0.0761
 1735SOL     OW16663   2.190   0.939   5.512  0.0681  0.0341 -0.2142
 1735SOL    HW116664   2.148   0.853   5.506 -0.2309  0.2305 -0.8774
 1735SOL    HW216665   2.133   0.975   5.580 -1.6664 -1.2381 -0.9838
 1736SOL     OW16666   2.155   1.113   3.937  0.0086  0.0751  0.3208
 1736SOL    HW116667   2.227   1.151   3.987 -1.2097  1.7664  0.7900
 1736SOL    HW216668   2.113   1.199   3.926  1.3854  0.7877  0.6274
 1737SOL     OW16669   2.107   2.666  10.570  0.5572 -0.2199 -0.2899
 1737SOL    HW116670   2.161   2.690  10.495  3.1344 -2.5404  0.8226
 1737SOL    HW216671   2.080   2.747  10.613 -0.6039 -1.2767  0.9622
 1738SOL     OW16672   1.495   3.524   8.003  0.5196 -0.1801 -0.0497
 1738SOL    HW116673   1.522   3.519   7.912 -1.3166  1.5392 -0.6823
 1738SOL    HW216674   1.517   3.435   8.032 -0.8351 -0.3300  0.5539
 1739SOL     OW16675   3.975   3.152   8.750 -0.1294 -0.5533 -0.2918
 1739SOL    HW116676   4.008   3.099   8.677  2.2502  0.1176  0.3080
 1739SOL    HW216677   3.963   3.096   8.826 -0.3105  0.7030  0.6091
 1740SOL     OW16678   3.927   3.786   5.094 -0.0272 -0.2553  0.1124
 1740SOL    HW116679   3.904   3.813   5.005  0.6943 -3.2720 -0.9947
 1740SOL    HW216680   3.842   3.816   5.127 -0.4436 -0.4305 -0.7931
 1741SOL     OW16681   3.054   4.468   7.235 -0.1543  0.0799 -0.3220
 1741SOL    HW116682   3.132   4.515   7.263 -0.2433 -0.2892  0.5614
 1741SOL    HW216683   3.046   4.520   7.156 -1.6435 -0.2081 -0.3713
 1742SOL     OW16684   2.807   0.992   4.568 -0.6729 -0.1074  0.2025
 1742SOL    HW116685   2.798   0.910   4.520  1.2062 -0.3883  0.3346
 1742SOL    HW216686   2.738   0.980   4.633 -1.4445  0.9212 -0.4260
 1743SOL     OW16687   0.062   0.408   4.799  0.1381  0.1360 -0.3357
 1743SOL    HW116688   0.058   0.342   4.869  0.7150 -0.9092 -1.2904
 1743SOL    HW216689   0.080   0.343   4.731  1.3137  1.1944 -1.0477
 1744SOL     OW16690   0.757   2.414  14.439 -0.0145  0.8645 -0.0647
 1744SOL    HW116691   0.847   2.430  14.468 -0.1279 -0.3997  0.9934
 1744SOL    HW216692   0.763   2.330  14.394 -0.0031  0.1096  1.3483
 1745SOL     OW16693   1.277   4.365   5.654 -0.1901  0.5454  0.6228
 1745SOL    HW116694   1.336   4.391   5.725  0.0011 -0.4992  0.8417
 1745SOL    HW216695   1.195   4.344   5.697 -0.3406  0.0201  0.0822
 1746SOL     OW16696   1.584   3.627   5.448  0.3098  0.6006  0.8369
 1746SOL    HW116697   1.578   3.590   5.359 -0.0052  2.5690  0.0382
 1746SOL    HW216698   1.600   3.549   5.500  0.0172 -0.5115 -0.7201
 1747SOL     OW16699   3.116   0.244   6.709 -0.3258  0.2100  0.1421
 1747SOL    HW116700   3.061   0.304   6.760  0.4188  1.2466 -0.2629
 1747SOL    HW216701   3.085   0.264   6.621  0.5758  1.0768  0.0189
 1748SOL     OW16702   4.028   2.390   2.345 -0.1468 -0.5226 -0.1698
 1748SOL    HW116703   4.012   2.354   2.258 -0.1578 -0.6377 -0.1197
 1748SOL    HW216704   4.119   2.420   2.340 -0.0781 -0.9017 -1.2814
 1749SOL     OW16705   1.974   0.095   1.251 -0.0714  0.0359  0.4010
 1749SOL    HW116706   1.911   0.025   1.238 -0.9945  0.9462 -0.0214
 1749SOL    HW216707   1.984   0.139   1.166  0.2346  0.2683  0.5587
 1750SOL     OW16708   2.380   3.906   0.501  0.0983 -0.5672  0.1465
 1750SOL    HW116709   2.412   3.980   0.450 -2.2157 -1.0398 -1.9875
 1750SOL    HW216710   2.405   3.929   0.591 -2.0922  0.1879  0.5559
 1751SOL     OW16711   2.788   4.237   3.500  0.1900  0.1733  0.2005
 1751SOL    HW116712   2.748   4.150   3.505 -2.0459  1.1309 -1.4509
 1751SOL    HW216713   2.858   4.219   3.563  0.2055 -1.9918 -0.4233
 1752SOL     OW16714   1.440   1.874   2.085  0.8302  0.2120 -0.2027
 1752SOL    HW116715   1.472   1.918   2.007  1.1345  2.2919  1.0808
 1752SOL    HW216716   1.383   1.946   2.114  0.1350 -0.6474  0.5602
 1753SOL     OW16717   3.196   0.829   2.628 -0.9466  0.0781 -0.4857
 1753SOL    HW116718   3.289   0.820   2.649 -0.8675 -0.5210 -1.1077
 1753SOL    HW216719   3.209   0.911   2.581 -0.5883  0.6083  0.5339
 1754SOL     OW16720   1.021   1.190   3.328  0.4474 -0.1244  0.0063
 1754SOL    HW116721   1.074   1.124   3.284 -0.1765 -1.4277  1.2186
 1754SOL    HW216722   0.941   1.200   3.277  0.8893 -1.4691 -0.9424
 1755SOL     OW16723   3.537   2.048  15.759  0.3063 -0.0373 -0.1041
 1755SOL    HW116724   3.521   1.962  15.720 -1.0628  0.1844 -0.0048
 1755SOL    HW216725   3.627   2.062  15.730  1.8091 -0.0701  4.5089
 1756SOL     OW16726   0.137   4.545   2.048  0.4051 -0.1921  0.3108
 1756SOL    HW116727   0.108   4.595   1.971 -0.7883 -0.6944  0.4335
 1756SOL    HW216728   0.229   4.570   2.045  0.7819 -1.4891  1.5241
 1757SOL     OW16729   4.648   0.371  13.512 -0.4557  0.4681 -0.1522
 1757SOL    HW116730   0.017   0.396  13.514 -0.6259  1.0622  0.1715
 1757SOL    HW216731   4.597   0.447  13.538 -0.0544  0.7128 -0.0686
 1758SOL     OW16732   4.033   1.776   0.558  0.6287  0.5484 -0.4408
 1758SOL    HW116733   4.109   1.772   0.615 -0.6554  0.5885  1.2671
 1758SOL    HW216734   4.060   1.744   0.472 -1.4489 -0.0434 -0.8608
 1759SOL     OW16735   0.729   4.287   2.087  0.3524 -0.2069  0.0586
 1759SOL    HW116736   0.649   4.234   2.094  0.5310 -0.5044 -0.1606
 1759SOL    HW216737   0.719   4.314   1.996 -0.6317 -0.8201 -0.0122
 1760SOL     OW16738   3.106   2.774   5.675 -0.4387 -0.3381  0.1416
 1760SOL    HW116739   3.200   2.778   5.689 -0.6586 -1.9188  1.9476
 1760SOL    HW216740   3.096   2.796   5.582 -3.1201 -1.5356  0.1475
 1761SOL     OW16741   4.079   2.249  10.100  0.1258  0.0596  0.2581
 1761SOL    HW116742   4.141   2.178  10.114  0.8540  0.5286 -0.5901
 1761SOL    HW216743   4.046   2.231  10.012  0.4982 -1.1182  0.3647
 1762SOL     OW16744   2.414   2.782   9.757  0.2369 -0.2103  0.0648
 1762SOL    HW116745   2.389   2.837   9.682  0.2648 -0.4015 -0.0847
 1762SOL    HW216746   2.404   2.850   9.824  1.6418  1.6848 -1.6488
 1763SOL     OW16747   0.542   3.154   0.624 -0.3892 -0.0024  0.0420
 1763SOL    HW116748   0.474   3.108   0.673 -0.9379 -0.6567 -1.3426
 1763SOL    HW216749   0.489   3.205   0.563  1.2390  1.8272  0.1631
 1764SOL     OW16750   2.378   1.433   7.136 -0.2710  0.5509 -0.2097
 1764SOL    HW116751   2.441   1.380   7.088  2.1949  2.5933  0.7330
 1764SOL    HW216752   2.380   1.383   7.217  2.1950  0.7870 -0.1297
 1765SOL     OW16753   3.843   1.406   8.116 -0.6935  0.6299  0.1720
 1765SOL    HW116754   3.927   1.361   8.126 -0.6426  0.9285  1.0969
 1765SOL    HW216755   3.875   1.456   8.042 -2.3421  1.0564 -0.2416
 1766SOL     OW16756   4.018   4.374   2.922  0.0097 -0.2047 -0.2193
 1766SOL    HW116757   4.031   4.283   2.948  1.6057 -0.6892 -2.7545
 1766SOL    HW216758   4.106   4.411   2.918  1.0878 -2.8145 -0.5560
 1767SOL     OW16759   0.599   4.488   6.663 -0.1014 -0.0211 -0.3911
 1767SOL    HW116760   0.664   4.458   6.726 -1.0043 -1.3260 -0.0766
 1767SOL    HW216761   0.630   4.453   6.580 -0.5018 -0.1504 -0.4871
 1768SOL     OW16762   1.110   1.330  11.592  0.0973 -0.6014 -0.2959
 1768SOL    HW116763   1.182   1.370  11.642  1.6208 -0.6893 -2.4355
 1768SOL    HW216764   1.154   1.299  11.513  2.6094  1.4026  0.3028
 1769SOL     OW16765   4.269   2.104   9.802  0.8002  0.9517 -0.2026
 1769SOL    HW116766   4.250   2.195   9.823 -0.2794 -0.2238  4.0606
 1769SOL    HW216767   4.204   2.050   9.848 -0.5647  1.8670 -1.0698
 1770SOL     OW16768   2.248   4.159   2.316 -0.0625  0.2267  0.3930
 1770SOL    HW116769   2.256   4.109   2.235  2.7386  0.6801  0.3928
 1770SOL    HW216770   2.342   4.165   2.329  0.0204 -0.9821  0.3382
 1771SOL     OW16771   1.085   2.802  10.973 -0.0267 -0.1794 -0.3057
 1771SOL    HW116772   1.084   2.847  11.058 -1.5899  1.1044 -1.0159
 1771SOL    HW216773   1.026   2.861  10.927  0.7278  0.2158 -0.7801
 1772SOL     OW16774   3.218   3.487  16.421 -0.2165 -0.2976  0.2783
 1772SOL    HW116775   3.152   3.548  16.452 -0.2291 -0.1442 -0.0567
 1772SOL    HW216776   3.192   3.415  16.478 -0.9165 -0.3806 -0.1501
 1773SOL     OW16777   2.859   2.717   6.095 -0.0702 -0.1266  0.2215
 1773SOL    HW116778   2.941   2.677   6.126 -0.4144 -0.9257  0.1059
 1773SOL    HW216779   2.811   2.641   6.063 -0.4834 -0.0785  0.7128
 1774SOL     OW16780   3.310   1.308  13.370  0.2819  0.2770 -0.6382
 1774SOL    HW116781   3.275   1.287  13.457  0.8102 -0.1757 -0.5405
 1774SOL    HW216782   3.401   1.329  13.392 -0.5153  0.9848  2.0979
 1775SOL     OW16783   1.660   1.489   4.149 -0.2260 -0.0606 -0.7234
 1775SOL    HW116784   1.636   1.581   4.153  1.0652  0.2663 -0.4040
 1775SOL    HW216785   1.575   1.446   4.139 -0.5587  0.5054 -0.2675
 1776SOL     OW16786   3.904   1.228  15.084 -0.4064 -0.2016 -0.0204
 1776SOL    HW116787   3.903   1.296  15.017 -0.2410  0.5871  0.7787
 1776SOL    HW216788   3.985   1.182  15.063 -0.6145  0.6618 -2.7465
 1777SOL     OW16789   1.950   3.715  16.849 -0.0945  0.0374  0.8863
 1777SOL    HW116790   1.989   3.794  16.812 -2.3898  0.3947 -0.7647
 1777SOL    HW216791   1.920   3.668  16.771  1.1399  1.0692 -0.1780
 1778SOL     OW16792   2.769   1.919  10.614  0.4590  0.3139 -0.2867
 1778SOL    HW116793   2.825   1.889  10.686  0.7478  1.0428 -0.2137
 1778SOL    HW216794   2.698   1.962  10.662  0.8421 -0.0348  0.5959
 1779SOL     OW16795   3.712   0.710  17.134  0.3110  0.0654  0.2206
 1779SOL    HW116796   3.718   0.622  17.098 -2.3124 -0.5857  1.3878
 1779SOL    HW216797   3.778   0.701  17.203  1.5822 -0.9332 -1.1386
 1780SOL     OW16798   0.665   4.089   1.228  0.2219 -0.5450 -0.4811
 1780SOL    HW116799   0.652   4.170   1.278  2.3342  0.3418 -1.3808
 1780SOL    HW216800   0.638   4.115   1.140  2.5747 -2.8288 -1.8674
 1781SOL     OW16801   4.269   3.456   5.218  0.1608 -0.3283 -0.4640
 1781SOL    HW116802   4.276   3.436   5.124  2.0368  0.8950 -0.5939
 1781SOL    HW216803   4.185   3.500   5.200  0.0101 -0.1256  0.7613
 1782SOL     OW16804   2.000   3.972   8.911 -0.0480 -0.7489  0.3054
 1782SOL    HW116805   2.096   3.964   8.917 -0.0869 -1.3825  0.0527
 1782SOL    HW216806   1.975   3.922   8.834 -1.3763  0.7625 -0.2446
 1783SOL     OW16807   1.152   4.400   7.851 -0.6858 -0.3434  0.1164
 1783SOL    HW116808   1.143   4.334   7.920  0.3787 -0.6965 -0.0804
 1783SOL    HW216809   1.233   4.443   7.876 -1.3935  1.5428 -0.8518
 1784SOL     OW16810   0.581   3.564  10.975 -0.1660  0.3022 -0.7369
 1784SOL    HW116811   0.526   3.509  11.031  0.1842  2.3267  1.5852
 1784SOL    HW216812   0.660   3.510  10.968 -0.8980 -0.8309 -0.3198
 1785SOL     OW16813   3.173   3.249  15.335 -0.3448  0.0702 -0.0910
 1785SOL    HW116814   3.205   3.305  15.405  0.7225 -0.1674 -0.4004
 1785SOL    HW216815   3.202   3.295  15.257  1.7559 -0.4753  0.3825
 1786SOL     OW16816   2.765   2.579   1.435 -0.0240 -0.2455 -0.4107
 1786SOL    HW116817   2.763   2.658   1.489  2.3387  0.2287 -1.0242
 1786SOL    HW216818   2.779   2.512   1.502  0.3930 -0.6903 -0.9456
 1787SOL     OW16819   1.397   3.911  14.669  0.0996 -0.4433 -0.2334
 1787SOL    HW116820   1.408   3.830  14.620 -2.3784  0.1519 -1.7836
 1787SOL    HW216821   1.440   3.975  14.613  0.4963  0.9539  1.6802
 1788SOL     OW16822   1.920   3.098   5.809  0.2912 -0.4845  0.2251
 1788SOL    HW116823   1.835   3.057   5.821 -0.2413  0.0686 -1.5753
 1788SOL    HW216824   1.931   3.092   5.714 -0.3503 -0.9670  0.1848
 1789SOL     OW16825   3.595   4.074  15.035  0.0821 -0.0064  0.0474
 1789SOL    HW116826   3.671   4.032  15.076  0.3125 -1.9160 -2.3618
 1789SOL    HW216827   3.528   4.049  15.099 -0.3773  0.0390 -0.4240
 1790SOL     OW16828   1.025   3.756   0.339  0.2200  0.7052  0.0773
 1790SOL    HW116829   1.018   3.847   0.367  0.8442  0.1892  1.9061
 1790SOL    HW216830   1.091   3.767   0.271 -1.3602  2.0422 -1.2361
 1791SOL     OW16831   3.264   2.410  13.489  0.1956  0.0602  0.2299
 1791SOL    HW116832   3.284   2.439  13.400  0.4620 -2.7705 -0.6228
 1791SOL    HW216833   3.352   2.377  13.507  0.0465  1.0500  2.7620
 1792SOL     OW16834   0.867   3.252   7.570  0.2188  0.4384  0.4138
 1792SOL    HW116835   0.842   3.161   7.554 -1.0802  0.8896 -0.1036
 1792SOL    HW216836   0.922   3.238   7.647 -1.3063 -1.9084  1.0539
 1793SOL     OW16837   1.452   2.750   9.858  0.3336  0.2451  0.0576
 1793SOL    HW116838   1.479   2.659   9.865 -1.1935 -0.1286  1.1988
 1793SOL    HW216839   1.387   2.738   9.789 -0.6646  0.1452  1.0050
 1794SOL     OW16840   2.567   1.357   4.782  0.4366  0.0157  0.4881
 1794SOL    HW116841   2.631   1.286   4.775  1.2886  0.5671  2.5800
 1794SOL    HW216842   2.498   1.328   4.842  0.3975  1.6043  1.2356
 1795SOL     OW16843   1.967   0.110   4.840 -0.1303 -0.1376 -0.1362
 1795SOL    HW116844   1.878   0.096   4.871  0.6116 -4.4065  0.0193
 1795SOL    HW216845   1.981   0.200   4.869 -0.3030  0.0243 -0.5497
 1796SOL     OW16846   0.870   2.540  17.308  0.1841  0.5727 -0.0212
 1796SOL    HW116847   0.836   2.610  17.252  0.9941  0.7829 -0.2520
 1796SOL    HW216848   0.808   2.473  17.281  1.2230 -0.4934  0.2608
 1797SOL     OW16849   0.541   3.209   3.641 -0.3156  0.4502  0.3798
 1797SOL    HW116850   0.511   3.158   3.566 -1.2575  2.6273 -0.7249
 1797SOL    HW216851   0.614   3.255   3.600  1.1787  0.1111  2.6630
 1798SOL     OW16852   3.998   3.840  13.936 -0.5003 -0.2713  0.3293
 1798SOL    HW116853   3.924   3.847  13.874 -0.1838 -0.3415 -0.0564
 1798SOL    HW216854   4.063   3.888  13.885  0.6450 -1.9641  0.2426
 1799SOL     OW16855   3.214   4.117   0.901  0.0465 -0.6183  0.7107
 1799SOL    HW116856   3.200   4.083   0.989 -2.5180 -0.4161  0.3827
 1799SOL    HW216857   3.287   4.178   0.913 -1.9723  1.9231  0.0422
 1800SOL     OW16858   0.747   1.306   8.154  0.1565 -0.3861  0.0764
 1800SOL    HW116859   0.724   1.380   8.211  2.6724 -0.4926  1.2502
 1800SOL    HW216860   0.725   1.231   8.210 -3.2023 -0.2034 -1.0142
 1801SOL     OW16861   4.635   1.318   7.693 -0.1802 -0.0042 -0.4105
 1801SOL    HW116862   4.650   1.279   7.607 -0.7857  0.4060 -0.6961
 1801SOL    HW216863   4.723   1.306   7.730 -0.2250 -0.1377 -0.3483
 1802SOL     OW16864   2.325   4.485   4.921  0.4761 -0.3259 -0.6176
 1802SOL    HW116865   2.381   4.498   4.845 -1.6614 -0.8628 -2.2706
 1802SOL    HW216866   2.255   4.542   4.890  0.8390  0.3461 -0.1882
 1803SOL     OW16867   3.862   1.222   8.730  0.4996 -0.0254  0.1961
 1803SOL    HW116868   3.793   1.289   8.733  0.8484  0.2674  1.7502
 1803SOL    HW216869   3.911   1.258   8.804 -0.0729 -1.5516  1.3329
 1804SOL     OW16870   3.656   3.462   4.334 -0.4693  0.3434  1.0229
 1804SOL    HW116871   3.637   3.372   4.307  1.1077  0.0884  0.7930
 1804SOL    HW216872   3.667   3.454   4.429  1.1291  2.7598  1.0311
 1805SOL     OW16873   1.437   2.752   4.876 -0.0308  0.1389 -0.7298
 1805SOL    HW116874   1.468   2.780   4.790  2.2140 -0.9149 -0.2889
 1805SOL    HW216875   1.368   2.818   4.885  0.1813  0.4604 -1.4523
 1806SOL     OW16876   0.135   2.749   6.582  0.1540 -0.1397 -0.4055
 1806SOL    HW116877   0.184   2.673   6.614  1.7655  0.4567 -1.4826
 1806SOL    HW216878   0.180   2.764   6.499  1.2545 -0.7703  0.0760
 1807SOL     OW16879   4.484   3.989  12.933 -0.2165  0.2392 -0.2378
 1807SOL    HW116880   4.445   3.929  12.869  1.3363 -1.0459  0.0128
 1807SOL    HW216881   4.577   3.976  12.911  0.2788  1.1207  1.4011
 1808SOL     OW16882   3.954   0.352   2.439 -0.1068  0.1064  0.1360
 1808SOL    HW116883   3.944   0.445   2.420  2.2126  0.0892 -1.1591
 1808SOL    HW216884   4.034   0.338   2.388 -1.2490 -0.3039 -1.5324
 1809SOL     OW16885   1.184   4.062  17.223 -0.3721 -0.5224  0.3445
 1809SOL    HW116886   1.191   4.068  17.127  0.0178  0.9500  0.4588
 1809SOL    HW216887   1.156   4.148  17.255 -1.3452 -0.1706 -1.4369
 1810SOL     OW16888   3.585   3.282  16.943  0.0274  0.0325 -0.4217
 1810SOL    HW116889   3.667   3.306  16.899  0.1058  1.4712  0.5031
 1810SOL    HW216890   3.513   3.310  16.887  0.0136 -1.3417 -1.0966
 1811SOL     OW16891   1.949   0.124   2.489  0.0152 -0.2115 -0.3605
 1811SOL    HW116892   1.916   0.034   2.491 -1.6140  0.3833 -0.5492
 1811SOL    HW216893   1.921   0.147   2.400 -0.3848 -1.5822 -0.5988
 1812SOL     OW16894   3.536   2.932  12.744  0.2751  0.1204  0.3205
 1812SOL    HW116895   3.458   2.926  12.799  0.1363  3.1608  0.4514
 1812SOL    HW216896   3.512   3.012  12.697 -0.5570  0.5087  1.4311
 1813SOL     OW16897   3.242   0.552   2.382  0.4577  0.1926 -0.1412
 1813SOL    HW116898   3.274   0.605   2.309  2.0719 -1.0356 -0.3211
 1813SOL    HW216899   3.319   0.505   2.414 -2.0025 -2.8561  1.2664
 1814SOL     OW16900   0.581   2.536   8.594 -0.2840 -0.0378 -0.0757
 1814SOL    HW116901   0.493   2.566   8.616  0.3264  1.8143 -0.1546
 1814SOL    HW216902   0.610   2.517   8.683  0.5762  0.0309 -0.3389
 1815SOL     OW16903   4.333   2.656   3.317  0.4422 -0.0962 -0.1199
 1815SOL    HW116904   4.404   2.671   3.380  0.8726  0.9220 -0.8521
 1815SOL    HW216905   4.377   2.695   3.242 -0.0965 -1.4227 -1.1111
 1816SOL     OW16906   3.517   1.566   2.659 -0.0124 -0.1288 -0.3039
 1816SOL    HW116907   3.473   1.645   2.628  3.0913  1.9943  0.7203
 1816SOL    HW216908   3.556   1.521   2.584 -0.5760 -1.0952 -0.0207
 1817SOL     OW16909   3.876   1.157  12.793  0.2615  0.6851 -0.0789
 1817SOL    HW116910   3.938   1.085  12.791  0.3008  0.7309 -0.5813
 1817SOL    HW216911   3.914   1.224  12.737 -1.6203  1.4206 -0.4832
 1818SOL     OW16912   3.258   1.224   5.186 -0.1553 -0.3566 -0.3647
 1818SOL    HW116913   3.172   1.188   5.165  1.0341 -2.3248 -1.8200
 1818SOL    HW216914   3.309   1.218   5.105  0.9919  1.0161  0.2510
 1819SOL     OW16915   4.155   0.882   6.577  0.4926  0.1452  0.3912
 1819SOL    HW116916   4.190   0.950   6.520 -2.0379 -0.0242 -1.3413
 1819SOL    HW216917   4.106   0.935   6.640  1.3506  1.9081 -0.4413
 1820SOL     OW16918   0.760   1.791  11.515  0.3108  0.4158  0.7150
 1820SOL    HW116919   0.753   1.759  11.605  2.1447  0.5762  0.9090
 1820SOL    HW216920   0.855   1.790  11.511  0.3774 -0.5077  2.5298
 1821SOL     OW16921   4.300   4.654   9.374 -0.6238  0.3816 -0.2472
 1821SOL    HW116922   4.244   4.619   9.443  0.0049 -2.5035 -1.2025
 1821SOL    HW216923   4.238   4.672   9.303 -1.0378 -1.4821 -0.3573
 1822SOL     OW16924   1.972   4.035  10.534  0.2071 -0.5010 -0.2234
 1822SOL    HW116925   1.921   4.028  10.614 -0.1511  2.2022 -0.2171
 1822SOL    HW216926   2.042   4.092  10.566 -0.4968 -0.4736  1.2559
 1823SOL     OW16927   0.592   4.565   1.992 -0.0802  0.1095  0.2313
 1823SOL    HW116928   0.545   4.536   1.915 -1.5007  1.5563  0.5645
 1823SOL    HW216929   0.682   4.549   1.962 -0.2752  0.5458 -0.5820
 1824SOL     OW16930   2.101   0.672   9.190  0.0182  0.0200 -0.6992
 1824SOL    HW116931   2.118   0.586   9.153  1.4430  0.2261 -0.5382
 1824SOL    HW216932   2.051   0.643   9.267  0.7706  1.9038  0.5023
 1825SOL     OW16933   4.282   4.091   1.707  0.3218  0.1491 -0.0086
 1825SOL    HW116934   4.245   4.095   1.795 -0.8535  2.9127 -0.6449
 1825SOL    HW216935   4.217   4.121   1.643  0.5366 -0.5924 -0.5821
 1826SOL     OW16936   2.563   4.084   2.813  0.4469 -0.3897 -0.2044
 1826SOL    HW116937   2.561   4.138   2.734 -1.2418 -0.6624 -0.3457
 1826SOL    HW216938   2.476   4.105   2.847  0.0908  0.4735 -1.6486
 1827SOL     OW16939   2.836   3.667   7.027 -0.2376  0.3114  0.2368
 1827SOL    HW116940   2.883   3.749   7.014 -0.9027  0.4511 -1.3300
 1827SOL    HW216941   2.838   3.663   7.123 -0.0934  4.0091  0.3745
 1828SOL     OW16942   4.122   2.094   8.984  0.1300  0.3258  0.1675
 1828SOL    HW116943   4.174   2.123   9.059 -0.0278  1.1179 -0.0267
 1828SOL    HW216944   4.037   2.124   9.017 -1.0292 -0.6535 -1.8986
 1829SOL     OW16945   4.267   0.227   4.210  0.1789  0.0279  1.0598
 1829SOL    HW116946   4.293   0.235   4.118  0.5972 -4.5820  0.7969
 1829SOL    HW216947   4.342   0.175   4.240 -0.2811 -2.3710 -1.9430
 1830SOL     OW16948   2.581   2.592   6.298  0.0225  0.2444 -0.3411
 1830SOL    HW116949   2.525   2.632   6.232 -0.2558 -0.2272 -0.3872
 1830SOL    HW216950   2.646   2.653   6.334  1.5105 -1.9035  0.5922
 1831SOL     OW16951   0.014   2.237   6.736 -0.1149 -0.1345  0.0098
 1831SOL    HW116952   4.680   2.288   6.794 -0.8090 -1.9583  0.9122
 1831SOL    HW216953   0.101   2.247   6.774  0.2776 -0.6867 -0.7404
 1832SOL     OW16954   4.193   1.900   2.625 -0.6014  0.0770 -0.0317
 1832SOL    HW116955   4.190   1.953   2.705 -1.2678 -0.2807  0.1864
 1832SOL    HW216956   4.182   1.967   2.558 -2.1045  0.8322  0.9650
 1833SOL     OW16957   0.460   1.197  10.288 -0.1041 -0.5579 -0.0857
 1833SOL    HW116958   0.510   1.119  10.312 -1.3156 -0.6238  2.2431
 1833SOL    HW216959   0.372   1.171  10.316  0.5669  0.1497  2.7467
 1834SOL     OW16960   3.010   0.303   5.557 -1.0272 -0.0973 -0.4467
 1834SOL    HW116961   2.995   0.311   5.462  3.3013 -0.0585 -1.1064
 1834SOL    HW216962   2.997   0.208   5.564 -1.5199 -0.0408 -0.5340
 1835SOL     OW16963   1.958   4.462   4.004 -0.1802  0.5217 -0.4970
 1835SOL    HW116964   2.024   4.516   3.962  0.4749  0.7880  0.8560
 1835SOL    HW216965   1.995   4.451   4.092  1.4002 -2.3187 -1.5267
 1836SOL     OW16966   4.227   1.160  12.935  0.1908 -0.8771  0.2558
 1836SOL    HW116967   4.257   1.226  12.997  1.1187  0.1961 -1.3425
 1836SOL    HW216968   4.300   1.099  12.930  1.1131  0.1912  0.7325
 1837SOL     OW16969   2.968   3.343   8.496  0.4739  0.7096 -0.5778
 1837SOL    HW116970   3.029   3.417   8.493  1.3631 -0.0599 -1.4622
 1837SOL    HW216971   3.023   3.265   8.497 -2.4069 -1.2698  0.3695
 1838SOL     OW16972   1.706   0.787   2.249  0.3581  0.1561  0.2037
 1838SOL    HW116973   1.748   0.763   2.167 -0.9126 -0.0155 -0.3988
 1838SOL    HW216974   1.733   0.878   2.260 -1.7496  0.8071  0.1630
 1839SOL     OW16975   2.325   2.017   6.163  0.0775 -0.1451 -0.1455
 1839SOL    HW116976   2.348   1.942   6.108  0.4722 -0.4096  0.3791
 1839SOL    HW216977   2.344   2.092   6.106 -0.4601 -0.2887 -0.5093
 1840SOL     OW16978   0.963   3.141   5.426  1.0873  0.1902  0.2052
 1840SOL    HW116979   0.896   3.206   5.406  0.5278 -1.1420 -2.2281
 1840SOL    HW216980   1.014   3.130   5.345 -2.0558  2.4234 -2.0930
 1841SOL     OW16981   0.407   2.759  10.573  0.2255  0.1345  0.3103
 1841SOL    HW116982   0.341   2.691  10.589 -1.4147  1.1541 -2.0676
 1841SOL    HW216983   0.443   2.738  10.487 -0.2645 -1.4878  0.4972
 1842SOL     OW16984   2.413   1.713   2.039 -0.3568 -0.4114  0.0339
 1842SOL    HW116985   2.320   1.727   2.020 -0.1714  1.8519  0.8459
 1842SOL    HW216986   2.424   1.777   2.110  1.3525 -1.8401  1.0688
 1843SOL     OW16987   2.684   4.245   5.816 -0.0987 -0.1067  0.1124
 1843SOL    HW116988   2.742   4.172   5.796 -0.1225  0.2763 -1.3308
 1843SOL    HW216989   2.670   4.220   5.908  0.8963 -1.4115 -0.0969
 1844SOL     OW16990   2.971   1.868  13.018 -0.0443  0.1581 -0.4424
 1844SOL    HW116991   3.037   1.919  13.067 -0.2548 -0.0051  0.0124
 1844SOL    HW216992   2.992   1.906  12.933 -2.0756  1.2838 -0.4470
 1845SOL     OW16993   3.323   1.916  12.913  0.4324 -0.2873 -0.3435
 1845SOL    HW116994   3.392   1.867  12.866  1.0767  0.4655 -0.1863
 1845SOL    HW216995   3.250   1.854  12.916 -0.3937  0.6786 -0.4397
 1846SOL     OW16996   1.029   1.049   5.684  0.0651  0.2105  0.0545
 1846SOL    HW116997   1.032   0.958   5.653 -0.1603  0.4313 -0.6002
 1846SOL    HW216998   0.935   1.062   5.691  0.0169  0.1895 -0.6064
 1847SOL     OW16999   3.218   2.372  11.012  0.3105 -0.8275  0.3307
 1847SOL    HW117000   3.284   2.383  11.080 -1.6081  1.9336  1.7615
 1847SOL    HW217001   3.172   2.294  11.042 -0.4256 -0.5440 -0.0580
 1848SOL     OW17002   2.788   2.944   2.599  0.0838 -0.0348  0.3508
 1848SOL    HW117003   2.859   3.008   2.590  0.8721 -1.0958 -0.9534
 1848SOL    HW217004   2.826   2.864   2.635 -1.3274 -0.4882  0.8429
 1849SOL     OW17005   3.528   2.323   4.778 -0.3822 -0.3510 -0.1471
 1849SOL    HW117006   3.482   2.365   4.850 -0.3111 -0.8540  0.1866
 1849SOL    HW217007   3.563   2.242   4.813  0.9878 -0.4060 -1.6159
 1850SOL     OW17008   4.038   3.236   3.567  0.2094 -0.6556 -0.2781
 1850SOL    HW117009   4.040   3.182   3.646  0.4231  3.1057  2.2615
 1850SOL    HW217010   4.091   3.312   3.591 -0.0661 -1.8778  4.2211
 1851SOL     OW17011   0.402   4.512   1.801 -0.3418 -0.5341 -0.3629
 1851SOL    HW117012   0.449   4.487   1.721  0.8763  0.6053 -0.0019
 1851SOL    HW217013   0.328   4.452   1.792 -0.3157 -0.6114 -0.0660
 1852SOL     OW17014   0.219   1.192   9.196 -0.1316 -0.5529  0.0229
 1852SOL    HW117015   0.283   1.160   9.259 -0.1529 -2.7865 -1.0741
 1852SOL    HW217016   0.244   1.174   9.105  1.2878 -1.0905  0.5314
 1853SOL     OW17017   3.820   2.631   0.977 -0.5211  0.3237  0.2582
 1853SOL    HW117018   3.794   2.558   1.034 -0.4407 -0.1748 -0.3368
 1853SOL    HW217019   3.807   2.700   1.041  1.2852  1.0906 -0.1982
 1854SOL     OW17020   1.969   2.171  11.033  0.1430 -0.2329  0.1488
 1854SOL    HW117021   1.948   2.248  11.085  0.6471  0.5556 -0.8136
 1854SOL    HW217022   1.904   2.115  11.075 -0.7615 -0.9864 -2.2829
 1855SOL     OW17023   2.749   3.010   8.316  0.0214 -0.3348 -0.0743
 1855SOL    HW117024   2.749   3.105   8.321 -1.8153 -0.5184  3.3411
 1855SOL    HW217025   2.764   2.990   8.408  4.9530 -2.6771 -1.3670
 1856SOL     OW17026   3.968   1.352  10.635 -0.2115 -0.3017 -0.2153
 1856SOL    HW117027   3.924   1.308  10.708 -0.5131  1.6320  0.7664
 1856SOL    HW217028   3.980   1.273  10.583 -0.4552 -1.1809  1.0662
 1857SOL     OW17029   0.147   0.029  11.929 -0.1850 -0.3991 -0.0205
 1857SOL    HW117030   0.235   0.057  11.908 -0.3366  0.2141  0.1759
 1857SOL    HW217031   0.113   0.111  11.965 -0.5987 -0.8390  0.5985
 1858SOL     OW17032   4.510   0.244  12.704 -0.5716 -0.1607 -0.4281
 1858SOL    HW117033   4.541   0.174  12.761  2.9732  1.8509  0.1478
 1858SOL    HW217034   4.452   0.200  12.641  1.6655 -1.3624 -1.6636
 1859SOL     OW17035   4.559   1.450   4.126 -0.1066 -0.1453  0.4365
 1859SOL    HW117036   4.533   1.376   4.072 -0.6835  1.2199 -1.1762
 1859SOL    HW217037   4.487   1.513   4.117  1.0288  1.0941 -0.0775
 1860SOL     OW17038   3.034   3.821   1.530 -0.3811  0.1486  0.7000
 1860SOL    HW117039   2.960   3.858   1.482 -0.6793 -0.1176  0.9577
 1860SOL    HW217040   3.068   3.770   1.457 -0.4478  0.8562  0.1753
 1861SOL     OW17041   0.922   4.565   5.964 -0.8234 -0.5285  0.5034
 1861SOL    HW117042   0.831   4.590   5.945 -0.9154 -0.5253  0.9449
 1861SOL    HW217043   0.931   4.475   5.931 -2.1324  0.0546 -1.4842
 1862SOL     OW17044   2.324   2.297   8.597 -0.4235 -0.2181  0.4375
 1862SOL    HW117045   2.374   2.339   8.667  1.0026  2.5056 -2.2254
 1862SOL    HW217046   2.397   2.285   8.536  1.2637 -0.1715  2.4575
 1863SOL     OW17047   1.307   1.089  10.079  0.1082 -0.1454  0.1296
 1863SOL    HW117048   1.215   1.111  10.065  0.3218  1.3334  1.0437
 1863SOL    HW217049   1.333   1.040  10.001 -3.1743 -2.3290  0.3939
 1864SOL     OW17050   2.437   4.366  13.998 -0.2392  0.5782 -0.5122
 1864SOL    HW117051   2.385   4.287  14.014 -1.1598  0.8771 -2.0850
 1864SOL    HW217052   2.518   4.352  14.046 -2.2123  0.0165  2.6743
 1865SOL     OW17053   4.212   3.003   1.349  0.0061  0.5730 -0.1986
 1865SOL    HW117054   4.130   2.954   1.352  0.8268 -0.8860 -1.5970
 1865SOL    HW217055   4.193   3.059   1.273 -1.2814  2.0355  1.1878
 1866SOL     OW17056   0.136   3.700  15.765 -0.0739 -0.5000 -0.1764
 1866SOL    HW117057   0.068   3.742  15.712  0.1444  0.2349  0.1266
 1866SOL    HW217058   0.124   3.608  15.741  1.6301 -2.3678  6.3382
 1867SOL     OW17059   3.448   1.212   8.563  0.2052 -0.2971  0.3383
 1867SOL    HW117060   3.532   1.205   8.518 -0.0950  0.7001 -0.3747
 1867SOL    HW217061   3.455   1.301   8.598 -0.1750  0.8178 -2.4460
 1868SOL     OW17062   1.305   2.909  14.804  0.4814  0.4737  0.0158
 1868SOL    HW117063   1.346   2.956  14.732  0.4442  0.3478 -0.0879
 1868SOL    HW217064   1.382   2.901  14.860 -0.4525 -0.8302  1.1295
 1869SOL     OW17065   0.624   0.892   7.959  0.3308 -0.2064 -0.3850
 1869SOL    HW117066   0.658   0.981   7.948 -1.3839  0.4042 -0.7764
 1869SOL    HW217067   0.649   0.870   8.049 -0.5093 -0.7505 -0.2803
 1870SOL     OW17068   4.182   0.049   7.579 -0.3447 -0.0246  0.3246
 1870SOL    HW117069   4.144   0.010   7.658  0.7357  1.3314  1.5315
 1870SOL    HW217070   4.255   0.097   7.619  0.7431  2.2010 -4.3773
 1871SOL     OW17071   3.017   3.251   3.185 -0.2486  0.0716  0.4864
 1871SOL    HW117072   3.093   3.243   3.243 -0.0553 -2.3877 -0.1170
 1871SOL    HW217073   2.974   3.166   3.196 -0.9757  0.6034  1.8600
 1872SOL     OW17074   1.915   2.143   6.766 -0.4515  0.1864 -0.9423
 1872SOL    HW117075   1.988   2.173   6.821  0.6822 -1.5994 -1.4718
 1872SOL    HW217076   1.955   2.172   6.684 -2.4526 -0.3550 -2.0863
 1873SOL     OW17077   1.945   1.968   4.782 -0.6834  0.0008 -0.2317
 1873SOL    HW117078   2.021   1.986   4.727 -0.6669 -0.4638 -0.3620
 1873SOL    HW217079   1.981   1.971   4.871 -0.1047 -0.1362 -0.4585
 1874SOL     OW17080   3.000   3.650   8.282  0.1317  0.4933  0.2107
 1874SOL    HW117081   3.071   3.618   8.227  1.0756  2.0631  0.5134
 1874SOL    HW217082   3.051   3.687   8.354 -1.3207  1.8256  0.5494
 1875SOL     OW17083   3.553   0.094   3.549 -0.1037 -0.4786 -0.3184
 1875SOL    HW117084   3.560   4.723   3.546 -0.4244 -0.5237  0.3510
 1875SOL    HW217085   3.583   0.105   3.639 -4.0360 -0.0440  0.9084
 1876SOL     OW17086   4.006   0.119   5.581 -0.0311  0.1187  0.4492
 1876SOL    HW117087   3.946   0.073   5.639  0.7800  0.7910  1.8246
 1876SOL    HW217088   3.992   0.207   5.616 -1.2567 -0.6716  1.9205
 1877SOL     OW17089   0.586   0.025   0.273  0.1298 -0.2078  0.2623
 1877SOL    HW117090   0.571   0.045   0.365  1.9478 -0.9141  0.7032
 1877SOL    HW217091   0.622   0.110   0.248 -0.9541 -0.0881 -0.8922
 1878SOL     OW17092   2.850   0.696  14.729 -0.2885  0.0607 -0.1686
 1878SOL    HW117093   2.848   0.626  14.793 -2.8076 -0.0659 -0.4032
 1878SOL    HW217094   2.924   0.671  14.673 -2.0650 -1.6135 -1.7261
 1879SOL     OW17095   4.302   1.950  13.723 -0.1856  0.0224 -0.4314
 1879SOL    HW117096   4.299   1.924  13.631 -1.3620 -0.1037 -0.3675
 1879SOL    HW217097   4.377   2.009  13.721  0.9205 -1.4330 -1.7779
 1880SOL     OW17098   0.275   4.693  16.187  0.3424 -0.1576 -0.1905
 1880SOL    HW117099   0.209   4.649  16.133 -0.3097  0.5025  0.0612
 1880SOL    HW217100   0.288   4.628  16.255  1.8044 -0.7739 -1.0588
 1881SOL     OW17101   3.925   0.261   8.312 -0.3474 -0.1857  0.4291
 1881SOL    HW117102   4.014   0.258   8.346  0.5557  0.8065 -1.8405
 1881SOL    HW217103   3.938   0.272   8.218  3.1802  1.6648  1.1797
 1882SOL     OW17104   1.335   1.611   2.017  0.0968  0.2846 -0.6471
 1882SOL    HW117105   1.334   1.561   2.098 -1.0100  0.4290 -0.5601
 1882SOL    HW217106   1.405   1.674   2.034 -1.0527  1.5780 -0.6165
 1883SOL     OW17107   1.071   2.436   3.421  0.4429 -0.0732  0.2006
 1883SOL    HW117108   1.118   2.481   3.492  3.0166  0.4561 -1.8483
 1883SOL    HW217109   1.129   2.446   3.345  1.8422 -1.5415  1.0765
 1884SOL     OW17110   2.131   4.509   1.307 -0.0239 -0.1527 -0.3351
 1884SOL    HW117111   2.117   4.469   1.222 -0.8971  0.4735 -0.4865
 1884SOL    HW217112   2.043   4.511   1.345 -0.5365  1.3146 -1.6155
 1885SOL     OW17113   1.392   3.196   5.282  0.6555  0.3819 -0.1375
 1885SOL    HW117114   1.367   3.217   5.372  4.0738 -0.9739  1.1349
 1885SOL    HW217115   1.362   3.106   5.276 -0.5839  0.7875 -0.0941
 1886SOL     OW17116   4.627   2.144   8.514 -0.1807 -0.8032  0.3238
 1886SOL    HW117117   4.548   2.148   8.567  1.7798 -0.1378  3.1567
 1886SOL    HW217118   4.702   2.177   8.562  0.4838 -1.4914 -0.2239
 1887SOL     OW17119   3.079   3.407   7.474 -0.1994 -0.3928 -0.2953
 1887SOL    HW117120   3.078   3.418   7.379 -1.6524  0.6304 -0.1789
 1887SOL    HW217121   3.061   3.314   7.489  0.3695 -0.5903 -0.8423
 1888SOL     OW17122   4.273   3.201   4.748  0.6069  0.9975 -0.1549
 1888SOL    HW117123   4.184   3.236   4.750  0.1670 -0.0127 -1.7650
 1888SOL    HW217124   4.273   3.139   4.821 -0.7867 -0.5932 -1.4713
 1889SOL     OW17125   2.131   2.822   5.911 -0.2470 -0.0572  0.4973
 1889SOL    HW117126   2.036   2.834   5.900  0.1680  0.9265 -2.0655
 1889SOL    HW217127   2.149   2.765   5.836  0.7741  0.3973  0.3955
 1890SOL     OW17128   2.740   4.360   6.850 -0.0760  0.4878 -0.0805
 1890SOL    HW117129   2.729   4.401   6.935 -0.8233 -0.8820  0.4842
 1890SOL    HW217130   2.714   4.268   6.857  1.2350  0.0804 -0.4694
 1891SOL     OW17131   3.573   2.647   5.053  0.0628  0.2479 -0.2158
 1891SOL    HW117132   3.627   2.643   5.132 -0.3214  0.9388  0.0823
 1891SOL    HW217133   3.629   2.649   4.976 -0.9685  1.0569 -0.9538
 1892SOL     OW17134   2.434   3.973   7.870 -0.1308  0.2028  0.4419
 1892SOL    HW117135   2.495   4.046   7.875  0.6482 -0.4621  0.5849
 1892SOL    HW217136   2.409   3.973   7.962 -0.0206  0.8313  0.4696
 1893SOL     OW17137   1.109   2.169   9.706  0.0658 -0.3619  0.3032
 1893SOL    HW117138   1.186   2.133   9.749  0.7095  3.0207  2.0023
 1893SOL    HW217139   1.134   2.262   9.712 -0.5460 -0.1084 -0.9662
 1894SOL     OW17140   4.149   2.414   9.136 -0.2080  0.5190  0.1328
 1894SOL    HW117141   4.127   2.465   9.058 -2.3615  0.1470  0.5002
 1894SOL    HW217142   4.125   2.474   9.206 -0.1471 -0.0836  0.6712
 1895SOL     OW17143   2.065   2.188   9.806  0.3537 -0.4025  0.6212
 1895SOL    HW117144   2.052   2.128   9.880 -0.9526 -1.2467 -0.3027
 1895SOL    HW217145   2.155   2.171   9.778 -0.0253 -2.2423  0.4878
 1896SOL     OW17146   2.046   1.363   3.939  0.0674 -0.1090 -0.1236
 1896SOL    HW117147   2.080   1.389   3.854  1.4081 -3.8732 -0.7409
 1896SOL    HW217148   2.083   1.425   4.002  0.6790  1.2335 -1.8071
 1897SOL     OW17149   3.482   3.050   8.864  0.8539  0.9494  0.0570
 1897SOL    HW117150   3.544   3.072   8.934  0.5756  0.8355  0.3393
 1897SOL    HW217151   3.426   2.987   8.908 -0.8753  1.6672 -1.1060
 1898SOL     OW17152   2.907   3.231  15.743 -0.5329 -0.5065  0.1598
 1898SOL    HW117153   2.817   3.199  15.748 -1.0509  0.7557 -1.0849
 1898SOL    HW217154   2.944   3.152  15.703 -0.0496  0.9589 -2.2981
 1899SOL     OW17155   2.849   3.830   3.421 -0.6014 -0.0528 -0.5426
 1899SOL    HW117156   2.867   3.768   3.350  1.4156  1.9100 -1.7286
 1899SOL    HW217157   2.883   3.914   3.390  0.4866 -0.1359  0.4283
 1900SOL     OW17158   2.914   1.944   3.733 -0.0140 -0.1673  0.1496
 1900SOL    HW117159   2.873   1.921   3.817  1.2757 -0.5397  0.6768
 1900SOL    HW217160   2.963   2.021   3.762 -2.5832  1.3480  0.4986
 1901SOL     OW17161   2.993   3.918  12.119  0.5665  0.0032  0.0085
 1901SOL    HW117162   2.979   4.012  12.109  0.4244 -0.0865 -0.6462
 1901SOL    HW217163   2.935   3.889  12.049 -1.9327  0.7157  1.8137
 1902SOL     OW17164   4.068   1.659   2.772 -0.2573 -0.4342  0.0835
 1902SOL    HW117165   4.120   1.719   2.825 -1.4883  0.1127  0.6825
 1902SOL    HW217166   4.064   1.698   2.685  0.7378  1.0328  0.6941
 1903SOL     OW17167   0.619   0.897   1.721 -0.5447  0.3780  0.1323
 1903SOL    HW117168   0.566   0.956   1.775 -0.2172  1.2360 -0.4863
 1903SOL    HW217169   0.545   0.845   1.690  0.8120 -0.2973 -1.9221
 1904SOL     OW17170   0.155   2.541   2.946  0.1995  0.4156  0.2642
 1904SOL    HW117171   0.154   2.529   3.041  1.7746  1.2437  0.3831
 1904SOL    HW217172   0.139   2.449   2.924  0.6556  0.1187  1.1453
 1905SOL     OW17173   4.320   3.318   5.900  0.5117 -0.2131 -0.0612
 1905SOL    HW117174   4.358   3.384   5.842 -1.1513  2.6362  2.0691
 1905SOL    HW217175   4.405   3.293   5.938  1.2708 -0.4997 -1.9394
 1906SOL     OW17176   2.086   2.419   6.256 -0.1096 -0.4113 -0.0068
 1906SOL    HW117177   2.104   2.458   6.170  0.1888 -2.4923 -0.8973
 1906SOL    HW217178   1.995   2.400   6.235 -0.6580  1.9533  0.2824
 1907SOL     OW17179   3.302   2.418  10.226 -0.7167 -0.7550 -0.2424
 1907SOL    HW117180   3.363   2.356  10.266 -1.1320 -0.5354  0.7449
 1907SOL    HW217181   3.349   2.502  10.228 -0.6845 -0.7839  0.3735
 1908SOL     OW17182   3.081   3.373   8.924 -0.3246 -0.2603 -0.1437
 1908SOL    HW117183   3.091   3.314   8.849 -0.3101 -1.8937  1.1514
 1908SOL    HW217184   3.097   3.463   8.897 -0.4437  0.1226  1.0825
 1909SOL     OW17185   0.729   1.836   6.620  0.1158  0.7042  0.2631
 1909SOL    HW117186   0.822   1.837   6.642 -0.0337  0.4031  0.9023
 1909SOL    HW217187   0.729   1.921   6.577  0.8104  0.4977 -0.1471
 1910SOL     OW17188   0.703   3.358   0.472 -0.6553  1.0489  0.1252
 1910SOL    HW117189   0.683   3.265   0.460 -0.4191  0.9044  0.8529
 1910SOL    HW217190   0.773   3.367   0.407  0.3492 -0.2483  1.0380
 1911SOL     OW17191   2.953   3.075   0.027  0.0752 -0.1589  0.6615
 1911SOL    HW117192   3.036   3.047   0.066 -0.1374  1.3965  2.2094
 1911SOL    HW217193   2.937   3.000  17.666 -3.5841  0.4889  0.8503
 1912SOL     OW17194   2.988   3.206  13.528 -0.3551 -0.3873  0.0373
 1912SOL    HW117195   3.031   3.190  13.444  0.2572  0.0281  0.2741
 1912SOL    HW217196   2.906   3.162  13.503 -1.2011  0.7031  0.8809
 1913SOL     OW17197   2.447   1.104  17.678  0.0210 -0.3942  0.0632
 1913SOL    HW117198   2.373   1.164  17.674 -0.9845 -1.6357 -0.0057
 1913SOL    HW217199   2.441   1.061  17.593 -0.7003 -1.2032  0.5120
 1914SOL     OW17200   2.488   4.220   2.583  0.6832  0.0992  0.2081
 1914SOL    HW117201   2.400   4.257   2.587  0.2134 -0.7220 -2.6279
 1914SOL    HW217202   2.493   4.199   2.490 -1.4799  1.1168 -0.1195
 1915SOL     OW17203   1.142   0.151   2.207  0.0622  0.7607 -0.1539
 1915SOL    HW117204   1.132   0.200   2.125  0.3677  1.8106  0.4361
 1915SOL    HW217205   1.238   0.146   2.211  0.0724  0.5938 -0.6426
 1916SOL     OW17206   1.589   2.606  14.742  0.2412 -0.0209  0.1371
 1916SOL    HW117207   1.566   2.677  14.683 -2.5919  0.3489  1.6936
 1916SOL    HW217208   1.654   2.562  14.686  1.2166  0.1922  1.1114
 1917SOL     OW17209   0.930   1.159   8.487 -0.1053 -0.8354 -0.9033
 1917SOL    HW117210   0.936   1.124   8.398 -0.1632 -0.0781 -1.2012
 1917SOL    HW217211   0.993   1.231   8.483  0.1794 -1.1311 -1.6251
 1918SOL     OW17212   0.795   3.765   9.085 -0.1222  0.1166  0.3018
 1918SOL    HW117213   0.801   3.783   8.991 -1.9343 -0.3105  0.1078
 1918SOL    HW217214   0.807   3.855   9.116 -0.6324 -0.6160  2.6260
 1919SOL     OW17215   2.941   0.944  16.513 -0.0560 -0.8000  0.3383
 1919SOL    HW117216   2.918   0.918  16.423 -0.8250  0.4441  0.1825
 1919SOL    HW217217   3.034   0.967  16.505  0.0133 -1.4453 -0.8538
 1920SOL     OW17218   1.431   1.515   7.524  0.0158 -0.0147  0.3488
 1920SOL    HW117219   1.480   1.439   7.553 -2.3656 -1.8227 -0.3734
 1920SOL    HW217220   1.414   1.551   7.611  1.1768  1.2694  0.0512
 1921SOL     OW17221   0.622   4.242   5.118  0.0897 -0.1501  0.3063
 1921SOL    HW117222   0.530   4.220   5.135 -0.2450  1.5557  0.6690
 1921SOL    HW217223   0.661   4.235   5.205 -1.7427 -0.7044  1.0703
 1922SOL     OW17224   4.065   2.650   8.973 -0.3614  0.0691  0.5054
 1922SOL    HW117225   3.971   2.665   8.982 -0.1850  1.6855 -0.2741
 1922SOL    HW217226   4.074   2.627   8.881  1.0265 -0.4063  0.7620
 1923SOL     OW17227   2.910   3.925  11.691  0.2214 -0.1153  0.4303
 1923SOL    HW117228   2.910   3.830  11.700 -0.8740 -0.2029 -0.5780
 1923SOL    HW217229   2.866   3.948  11.773  0.3806  0.8362  0.2483
 1924SOL     OW17230   1.867   4.355  10.163  0.0327 -0.1953  0.0168
 1924SOL    HW117231   1.885   4.267  10.194 -2.5792 -0.8822 -0.4054
 1924SOL    HW217232   1.929   4.365  10.091  0.9823 -0.8760  0.7438
 1925SOL     OW17233   4.375   4.562   2.570 -0.2081 -0.3954 -0.5152
 1925SOL    HW117234   4.338   4.504   2.637  0.1265  1.5137  1.3046
 1925SOL    HW217235   4.469   4.547   2.582  0.2315  3.1765  0.3890
 1926SOL     OW17236   1.718   3.864   5.406 -0.2351  0.3224  0.0092
 1926SOL    HW117237   1.722   3.903   5.494 -0.7498  1.8022 -0.6236
 1926SOL    HW217238   1.689   3.774   5.420  1.8584 -0.3456  0.0894
 1927SOL     OW17239   4.073   1.157   1.015 -0.2220 -0.1868 -0.4669
 1927SOL    HW117240   4.086   1.164   1.110 -0.0583 -1.3237 -0.4053
 1927SOL    HW217241   4.160   1.169   0.977  0.4950 -0.4390  1.0949
 1928SOL     OW17242   4.256   1.379   2.055  0.0087 -0.0005  0.4302
 1928SOL    HW117243   4.168   1.344   2.066 -0.0504 -0.3143 -1.0605
 1928SOL    HW217244   4.280   1.396   2.146  2.4609  1.2359 -0.4351
 1929SOL     OW17245   2.154   4.642   4.797 -0.4787 -0.0594 -0.2411
 1929SOL    HW117246   2.230   4.699   4.786 -0.1712 -0.6516 -1.1597
 1929SOL    HW217247   2.082   4.705   4.791  0.0377  0.5464 -0.1337
 1930SOL     OW17248   4.062   1.294   5.553 -0.3508  0.1171  0.1203
 1930SOL    HW117249   4.082   1.323   5.642  0.7971 -2.6765  0.7624
 1930SOL    HW217250   4.099   1.364   5.500  0.9419 -1.8981 -1.5955
 1931SOL     OW17251   2.125   4.590   3.185 -0.0460 -0.0284 -0.2751
 1931SOL    HW117252   2.103   4.545   3.267  1.5779 -1.5534 -0.6991
 1931SOL    HW217253   2.053   4.565   3.127 -0.9949  1.4320  0.2603
 1932SOL     OW17254   2.993   4.244  16.927  0.4598 -0.4432 -0.2763
 1932SOL    HW117255   2.975   4.231  17.020  1.2501  2.0515  0.2323
 1932SOL    HW217256   3.075   4.290  16.945 -0.1377 -0.2692  1.9982
 1933SOL     OW17257   2.212   0.481   4.057  0.0470 -0.4209  0.3010
 1933SOL    HW117258   2.168   0.562   4.082 -2.3685 -0.3463 -4.1238
 1933SOL    HW217259   2.301   0.511   4.039  0.0839 -1.0918 -0.6516
 1934SOL     OW17260   0.610   1.713  15.351  0.6643 -0.9059 -0.1486
 1934SOL    HW117261   0.671   1.692  15.421  0.5316 -2.0950 -0.3826
 1934SOL    HW217262   0.673   1.757  15.294  0.4355 -0.7609 -0.2882
 1935SOL     OW17263   0.190   3.593  16.133  0.1092  0.6175  0.7998
 1935SOL    HW117264   0.203   3.590  16.038 -1.7705  0.0552  0.5545
 1935SOL    HW217265   0.241   3.519  16.164 -0.9626  0.2420  1.6525
 1936SOL     OW17266   4.132   0.898  17.661 -0.6343  0.0974  0.4932
 1936SOL    HW117267   4.079   0.950   0.024 -2.9579 -1.0071 -0.6266
 1936SOL    HW217268   4.062   0.866  17.604 -1.9332  0.2592  1.9974
 1937SOL     OW17269   3.166   1.945  13.191  0.0749  0.3990 -0.9926
 1937SOL    HW117270   3.207   1.993  13.263  1.0976 -1.4123 -0.3439
 1937SOL    HW217271   3.238   1.923  13.131 -0.1409  0.5473 -1.3051
 1938SOL     OW17272   2.247   4.341   1.071 -0.0267  0.3368 -0.2196
 1938SOL    HW117273   2.313   4.282   1.107  0.4139  0.3373 -1.0304
 1938SOL    HW217274   2.166   4.293   1.087 -0.3382  0.3548 -1.7778
 1939SOL     OW17275   1.758   0.763   5.653  0.3670 -0.5488 -0.1580
 1939SOL    HW117276   1.763   0.841   5.599  0.9835 -0.6649 -0.2626
 1939SOL    HW217277   1.787   0.697   5.589 -0.1450  1.0325 -2.0037
 1940SOL     OW17278   3.919   2.787   7.134  0.2642 -0.2897  0.1343
 1940SOL    HW117279   3.902   2.693   7.145 -2.6101  0.0796 -0.9353
 1940SOL    HW217280   3.907   2.811   7.042  0.1557  1.4580  0.6020
 1941SOL     OW17281   2.411   0.327  15.402 -0.9597  0.0114  0.2046
 1941SOL    HW117282   2.323   0.322  15.365 -0.7652 -0.7569 -0.1609
 1941SOL    HW217283   2.440   0.418  15.395 -1.1545  0.0038 -0.7711
 1942SOL     OW17284   2.732   0.329   4.281  0.0872  0.6841 -0.4144
 1942SOL    HW117285   2.665   0.262   4.297 -0.6763  1.3582 -0.7526
 1942SOL    HW217286   2.753   0.292   4.196 -0.9309  0.5283 -0.6034
 1943SOL     OW17287   2.195   0.612  17.107 -0.0133 -0.3492  0.2160
 1943SOL    HW117288   2.245   0.604  17.188  0.7366 -0.9021 -0.3032
 1943SOL    HW217289   2.257   0.605  17.034 -0.1790 -1.6616  0.2052
 1944SOL     OW17290   3.602   3.154   3.277  0.3584  0.0632 -0.8836
 1944SOL    HW117291   3.594   3.241   3.240 -3.0140  0.5415  1.0300
 1944SOL    HW217292   3.670   3.111   3.225  2.3506 -0.2649  1.9743
 1945SOL     OW17293   1.514   0.304   7.097  0.1448 -0.2817 -0.4008
 1945SOL    HW117294   1.456   0.320   7.022 -0.8280 -0.3652  0.3333
 1945SOL    HW217295   1.592   0.327   7.047  0.8379 -0.9349  0.3884
 1946SOL     OW17296   4.278   3.891   7.834  0.0824 -0.6975  0.2842
 1946SOL    HW117297   4.282   3.900   7.738 -0.8044 -2.1323  0.1111
 1946SOL    HW217298   4.347   3.830   7.857  0.0905 -1.5646 -2.0456
 1947SOL     OW17299   4.560   1.444   6.094  0.1664  0.0772 -0.7670
 1947SOL    HW117300   4.492   1.507   6.073 -1.3932 -1.2636  0.2649
 1947SOL    HW217301   4.513   1.409   6.170  0.1428  1.1109 -0.3112
 1948SOL     OW17302   1.936   3.011  15.245  0.1040  0.7799 -0.1140
 1948SOL    HW117303   1.938   2.921  15.277 -2.0654  1.2940  1.4633
 1948SOL    HW217304   1.901   2.988  15.159  0.4931  2.4961 -0.7202
 1949SOL     OW17305   4.487   1.004  15.218  0.0626 -0.5658  0.4824
 1949SOL    HW117306   4.475   0.974  15.128 -1.2261  0.4189  0.3191
 1949SOL    HW217307   4.465   1.097  15.219  0.1367 -0.5227 -1.3701
 1950SOL     OW17308   0.137   0.740   4.455 -0.2868  0.3024  0.9273
 1950SOL    HW117309   0.182   0.813   4.496  1.3892  0.5041 -1.2847
 1950SOL    HW217310   0.094   0.698   4.530  0.8049 -1.9364  0.3085
 1951SOL     OW17311   1.290   3.064   6.204  0.3285  0.1570  0.0908
 1951SOL    HW117312   1.215   3.079   6.146  0.3802  1.2831  0.3276
 1951SOL    HW217313   1.247   3.095   6.284  0.3554 -1.1529  0.6249
 1952SOL     OW17314   3.418   0.526   4.203  0.2616 -0.5678 -0.1647
 1952SOL    HW117315   3.498   0.494   4.244  0.1130 -0.4851  0.1907
 1952SOL    HW217316   3.450   0.538   4.114 -1.5986  0.6092 -0.6797
 1953SOL     OW17317   2.881   4.444  12.292  0.0346 -0.8260 -0.1578
 1953SOL    HW117318   2.891   4.530  12.334  1.5073 -1.4367  0.7871
 1953SOL    HW217319   2.855   4.468  12.204  1.8830  0.7574 -0.2802
 1954SOL     OW17320   2.452   1.043  14.739 -0.4519 -0.4016  0.3841
 1954SOL    HW117321   2.418   1.072  14.654  0.1343  1.9209  0.9234
 1954SOL    HW217322   2.523   0.988  14.707 -0.4274 -0.9339  1.3476
 1955SOL     OW17323   1.242   2.715  15.713  0.4121 -0.6593  0.1783
 1955SOL    HW117324   1.277   2.648  15.655  0.1967  0.1728 -0.9003
 1955SOL    HW217325   1.315   2.762  15.754 -0.3896  0.2569  0.5545
 1956SOL     OW17326   3.929   2.588  12.144  0.1661  0.3996 -0.2862
 1956SOL    HW117327   3.934   2.684  12.146 -2.8636  0.5040  2.3437
 1956SOL    HW217328   3.843   2.579  12.185  0.0410 -2.0417 -1.0971
 1957SOL     OW17329   4.372   1.397   3.502 -0.3022 -0.0012 -0.5825
 1957SOL    HW117330   4.317   1.372   3.577  0.7021  0.1460  0.2122
 1957SOL    HW217331   4.317   1.455   3.449 -0.2909  0.3800 -0.1841
 1958SOL     OW17332   4.055   1.833   8.152  0.1654 -0.3183 -0.6386
 1958SOL    HW117333   4.090   1.773   8.086 -0.2041 -0.3647 -0.7887
 1958SOL    HW217334   4.119   1.904   8.156 -2.0857  1.7693 -1.3413
 1959SOL     OW17335   2.852   3.483  15.828 -0.1561  0.1925  0.0311
 1959SOL    HW117336   2.868   3.391  15.810 -0.2429 -0.1669  1.7697
 1959SOL    HW217337   2.942   3.517  15.834 -0.1245  0.6644 -3.0373
 1960SOL     OW17338   3.196   3.244   4.361  0.4881  0.0037 -0.2061
 1960SOL    HW117339   3.110   3.237   4.402  1.1136 -0.6667  1.0111
 1960SOL    HW217340   3.245   3.199   4.431  2.1089 -0.6891 -1.7800
 1961SOL     OW17341   0.248   4.097   9.157  0.4635 -0.5078  0.1848
 1961SOL    HW117342   0.322   4.154   9.139  1.3720 -1.5388  0.6731
 1961SOL    HW217343   0.181   4.164   9.142 -0.7872 -1.6309  0.6848
 1962SOL     OW17344   0.240   3.184   7.633  0.5956  0.2458 -0.1959
 1962SOL    HW117345   0.194   3.186   7.717  1.4269  1.4367  0.2397
 1962SOL    HW217346   0.176   3.129   7.588 -0.2129  0.7308  0.3668
 1963SOL     OW17347   1.746   3.960  14.796  0.1054 -0.7154  0.0511
 1963SOL    HW117348   1.823   3.945  14.851 -0.7997 -0.4282  1.3875
 1963SOL    HW217349   1.779   4.038  14.750  1.5724 -0.6885  1.1475
 1964SOL     OW17350   2.904   1.519   5.257 -0.6159  0.1996  0.1085
 1964SOL    HW117351   2.909   1.615   5.258  0.4904  0.1301  1.0995
 1964SOL    HW217352   2.927   1.487   5.344 -0.9083 -2.2344 -0.7237
 1965SOL     OW17353   1.399   0.010  11.993  0.0997  0.2599  0.4087
 1965SOL    HW117354   1.332   4.681  12.037  0.2687 -0.4195 -0.1440
 1965SOL    HW217355   1.460   0.042  12.059 -0.5411  2.2146  0.0416
 1966SOL     OW17356   4.114   2.019  15.672 -0.0035 -0.4590 -0.6305
 1966SOL    HW117357   4.162   1.967  15.737  0.8059  0.4570 -0.4897
 1966SOL    HW217358   4.172   2.095  15.667  0.3882 -0.6393  1.0613
 1967SOL     OW17359   4.236   0.812  11.248  0.0521 -0.1504  0.0908
 1967SOL    HW117360   4.260   0.856  11.166  0.4600 -0.7533 -0.1101
 1967SOL    HW217361   4.141   0.799  11.246 -0.4981  3.9480 -0.4666
 1968SOL     OW17362   2.073   2.542   1.625  0.5035 -0.2689 -0.2559
 1968SOL    HW117363   2.027   2.521   1.706 -1.0308 -2.1979 -1.6349
 1968SOL    HW217364   2.140   2.474   1.624  1.7569  0.9244  1.5852
 1969SOL     OW17365   0.436   0.715  15.261 -0.0491 -0.0203 -0.3588
 1969SOL    HW117366   0.489   0.793  15.248 -0.0176 -0.1627 -1.0849
 1969SOL    HW217367   0.360   0.754  15.302  0.8677  1.5268 -0.1253
 1970SOL     OW17368   4.353   1.222   2.762 -0.2525  0.4911  0.2482
 1970SOL    HW117369   4.330   1.233   2.670 -2.3465  0.5825  0.7898
 1970SOL    HW217370   4.375   1.313   2.783 -0.4837  0.8738 -1.1760
 1971SOL     OW17371   4.490   0.477   3.562  0.4457  0.1377  0.2707
 1971SOL    HW117372   4.407   0.434   3.542  0.3779 -0.3052  1.4656
 1971SOL    HW217373   4.556   0.431   3.510  1.4028  0.5111  1.1368
 1972SOL     OW17374   3.442   0.709  16.368 -0.0326 -0.3786  0.4094
 1972SOL    HW117375   3.494   0.744  16.296 -2.3667  0.0498 -1.0623
 1972SOL    HW217376   3.515   0.695  16.428 -1.4869  0.7179  2.4552
 1973SOL     OW17377   3.568   3.894   6.325 -0.2242  0.2188  0.1352
 1973SOL    HW117378   3.490   3.901   6.380 -1.0507  1.6302 -1.2204
 1973SOL    HW217379   3.613   3.973   6.355 -1.7282  0.3309  2.0509
 1974SOL     OW17380   1.246   1.499   3.202  0.3222 -0.1104 -0.1765
 1974SOL    HW117381   1.158   1.534   3.190 -0.2085 -1.9557 -1.7629
 1974SOL    HW217382   1.281   1.574   3.251  2.3181 -0.7087 -0.6748
 1975SOL     OW17383   3.712   3.259   8.760  0.1829 -0.4239 -0.3998
 1975SOL    HW117384   3.654   3.228   8.829  1.5680 -0.2310  0.8392
 1975SOL    HW217385   3.790   3.205   8.768  0.1269 -0.0894  2.3164
 1976SOL     OW17386   2.616   1.682  13.587 -0.2671  0.2628 -0.7317
 1976SOL    HW117387   2.553   1.752  13.570  1.1538  1.8172  0.4447
 1976SOL    HW217388   2.684   1.723  13.533 -0.5753  0.8889 -0.6437
 1977SOL     OW17389   0.834   2.868   1.049  0.6482 -0.1722  0.0723
 1977SOL    HW117390   0.829   2.960   1.073  0.9573 -0.5199  1.4989
 1977SOL    HW217391   0.741   2.849   1.058  0.8593 -1.3685 -0.2171
 1978SOL     OW17392   2.355   0.412   2.014  0.7314 -0.2031 -0.0899
 1978SOL    HW117393   2.411   0.368   2.078 -1.2278 -1.9220  0.4107
 1978SOL    HW217394   2.275   0.360   2.012 -0.5104  1.8216 -2.6510
 1979SOL     OW17395   4.411   1.232   4.008 -0.0170 -0.1879  0.0825
 1979SOL    HW117396   4.485   1.175   3.989 -1.2724 -1.1558 -1.7819
 1979SOL    HW217397   4.372   1.176   4.075  0.3143 -1.3520 -0.7076
 1980SOL     OW17398   3.785   1.278   7.097 -0.2382  0.6099  0.6630
 1980SOL    HW117399   3.850   1.221   7.055 -0.0751  0.3261  1.2919
 1980SOL    HW217400   3.780   1.238   7.184  2.5542 -1.3370 -0.0555
 1981SOL     OW17401   0.461   1.559  10.786 -0.1889 -0.2523 -0.1130
 1981SOL    HW117402   0.421   1.639  10.819 -1.7164 -0.7290 -0.7756
 1981SOL    HW217403   0.387   1.522  10.737  0.3731 -0.0332 -1.1276
 1982SOL     OW17404   3.375   0.610   5.939  0.5731  1.4571 -0.0345
 1982SOL    HW117405   3.370   0.518   5.965  0.1784  1.6938  0.7270
 1982SOL    HW217406   3.292   0.621   5.893  0.1215  0.6771  0.5906
 1983SOL     OW17407   0.305   1.364   2.767 -0.1609  0.0048  0.2300
 1983SOL    HW117408   0.362   1.298   2.728 -1.6263 -1.0872 -0.0686
 1983SOL    HW217409   0.265   1.406   2.691 -1.6244 -0.2198  0.8700
 1984SOL     OW17410   2.434   1.012   3.850 -0.1583 -0.0739  0.1805
 1984SOL    HW117411   2.453   1.084   3.912  1.3304  0.9462 -1.4651
 1984SOL    HW217412   2.506   1.025   3.788  0.1023  0.4573  0.5878
 1985SOL     OW17413   2.738   0.090  16.877  0.1352 -0.1196 -0.0347
 1985SOL    HW117414   2.814   0.131  16.918  0.8468 -0.3740 -1.0865
 1985SOL    HW217415   2.741   0.006  16.924 -0.8162 -0.6920 -0.9891
 1986SOL     OW17416   4.203   0.346   0.591  0.4791  0.2954 -0.1104
 1986SOL    HW117417   4.126   0.387   0.550 -0.1524 -1.4376 -0.6957
 1986SOL    HW217418   4.161   0.293   0.659  0.1264  2.0468  1.0298
 1987SOL     OW17419   0.004   2.298   7.552 -0.1214 -0.0995 -0.5819
 1987SOL    HW117420   0.020   2.341   7.469  0.0675 -0.5190 -0.7604
 1987SOL    HW217421   4.653   2.243   7.526 -0.5247  0.0140  0.3232
 1988SOL     OW17422   3.528   0.136   2.220 -0.1496  0.4118  0.1716
 1988SOL    HW117423   3.596   0.123   2.154  1.1775 -1.4743  1.9089
 1988SOL    HW217424   3.499   0.216   2.177 -0.6111 -0.8917 -1.9576
 1989SOL     OW17425   0.752   3.011   1.348 -0.5452 -0.0849  0.0924
 1989SOL    HW117426   0.722   2.997   1.438  1.9131 -1.5034  0.7012
 1989SOL    HW217427   0.842   3.039   1.366 -0.5528  0.5440 -0.8882
 1990SOL     OW17428   4.684   3.792   1.210 -0.4317  0.4032  0.1362
 1990SOL    HW117429   4.648   3.760   1.293 -0.3508 -0.4560 -0.1610
 1990SOL    HW217430   4.689   3.884   1.238 -1.2172  0.2676  0.7502
 1991SOL     OW17431   2.593   1.249   8.111 -0.3542 -0.0131 -0.2756
 1991SOL    HW117432   2.611   1.216   8.023 -0.8589 -1.1338  0.0420
 1991SOL    HW217433   2.657   1.199   8.161 -0.0376 -0.1341 -0.8024
 1992SOL     OW17434   1.271   1.618   1.598 -0.2447 -0.5173 -0.6127
 1992SOL    HW117435   1.315   1.537   1.573 -1.9399 -1.2132 -1.3777
 1992SOL    HW217436   1.345   1.662   1.638  0.0176 -1.2209 -0.3227
 1993SOL     OW17437   2.503   2.170   5.706 -0.2312 -0.0036 -0.6673
 1993SOL    HW117438   2.590   2.132   5.720 -0.1071 -0.1251 -1.8068
 1993SOL    HW217439   2.461   2.119   5.637 -2.7210  0.2841  0.6218
 1994SOL     OW17440   4.696   1.676   5.960 -0.1007  0.1898 -0.4930
 1994SOL    HW117441   4.652   1.621   6.025  0.1279 -0.1835 -0.6570
 1994SOL    HW217442   4.622   1.727   5.926 -0.4731 -0.0737 -0.0874
 1995SOL     OW17443   4.285   0.503  11.644  0.5264 -0.3383 -0.0930
 1995SOL    HW117444   4.317   0.438  11.708 -0.6907 -1.5234 -0.6921
 1995SOL    HW217445   4.252   0.565  11.710 -1.8221  0.2319 -1.8313
 1996SOL     OW17446   1.011   3.709   7.997  0.8417 -0.0528  0.5995
 1996SOL    HW117447   0.985   3.707   7.905  0.9708 -0.4569  0.5736
 1996SOL    HW217448   0.994   3.617   8.016 -0.3762  0.2657  1.0554
 1997SOL     OW17449   0.672   2.587   7.637  0.4523 -0.7741  0.3760
 1997SOL    HW117450   0.716   2.520   7.690  2.7526 -0.6771 -1.3895
 1997SOL    HW217451   0.701   2.571   7.547 -2.0730 -0.4883 -0.4752
 1998SOL     OW17452   3.642   2.194   1.399 -0.9194 -0.2137  0.0880
 1998SOL    HW117453   3.580   2.200   1.326  1.1080 -0.3411 -1.6436
 1998SOL    HW217454   3.595   2.143   1.465 -0.9619 -1.5103 -0.9439
 1999SOL     OW17455   1.219   2.112  15.471 -0.6209 -0.6633  0.3675
 1999SOL    HW117456   1.217   2.032  15.420  2.2173 -0.6037  0.1934
 1999SOL    HW217457   1.136   2.112  15.520 -0.5115  0.0786  0.5583
 2000SOL     OW17458   1.009   2.702   0.902  0.2871 -0.2627 -0.0026
 2000SOL    HW117459   0.973   2.777   0.949  0.6481  0.6526 -1.1912
 2000SOL    HW217460   0.937   2.639   0.910 -1.3679  1.4178 -1.5868
 2001SOL     OW17461   1.318   3.135  15.149  0.2332  0.3972 -0.1568
 2001SOL    HW117462   1.350   3.215  15.106  3.1822  0.7712  2.7078
 2001SOL    HW217463   1.404   3.096  15.160  0.4286  0.6208 -0.8961
 2002SOL     OW17464   2.840   3.783  15.767  0.0349 -0.3245  0.1858
 2002SOL    HW117465   2.777   3.841  15.809  0.3337  0.2124 -0.0962
 2002SOL    HW217466   2.828   3.702  15.817  2.2630 -0.8687 -0.1671
 2003SOL     OW17467   2.817   0.474   2.761  0.0972  0.0123 -0.2523
 2003SOL    HW117468   2.848   0.405   2.818 -1.0452 -0.8769 -0.7034
 2003SOL    HW217469   2.897   0.522   2.741 -0.3790  0.3700 -1.3621
 2004SOL     OW17470   2.652   2.413  14.886  0.4060 -0.3404  0.0586
 2004SOL    HW117471   2.691   2.438  14.802 -1.7970 -0.8952 -1.1282
 2004SOL    HW217472   2.716   2.454  14.944 -3.8558  1.7853  3.2668
 2005SOL     OW17473   2.092   1.055   0.643 -0.2038 -0.0516 -0.2608
 2005SOL    HW117474   2.053   0.975   0.677 -1.3567  0.3951 -0.5339
 2005SOL    HW217475   2.011   1.097   0.614 -1.2346  0.1010  2.7588
 2006SOL     OW17476   0.471   0.763  10.089  0.3760 -0.2424  0.3645
 2006SOL    HW117477   0.382   0.736  10.114 -0.2666  0.5852 -0.9686
 2006SOL    HW217478   0.493   0.833  10.151 -0.0751 -0.7379  1.0849
 2007SOL     OW17479   4.160   3.973  13.730 -0.3001 -0.3487  0.4106
 2007SOL    HW117480   4.200   3.958  13.644  0.0313  2.3594  0.0875
 2007SOL    HW217481   4.092   4.040  13.718 -0.6295 -0.5523  1.1319
 2008SOL     OW17482   2.243   0.502   4.890 -0.1356 -0.2006 -0.5159
 2008SOL    HW117483   2.225   0.575   4.832 -0.8949  1.1365  1.4135
 2008SOL    HW217484   2.328   0.479   4.853 -0.5003 -0.5757 -1.1322
 2009SOL     OW17485   0.903   1.291  13.439 -0.2375 -0.0454 -0.1156
 2009SOL    HW117486   0.879   1.289  13.346 -1.4243  0.6361  0.1885
 2009SOL    HW217487   0.903   1.385  13.454 -0.7975 -0.5223  2.9314
 2010SOL     OW17488   2.122   3.540   0.294 -0.2368 -0.4387  0.1480
 2010SOL    HW117489   2.034   3.519   0.262 -0.8106  3.5765 -0.9537
 2010SOL    HW217490   2.107   3.611   0.356  1.9427  1.2811 -1.3173
 2011SOL     OW17491   0.717   2.098  13.603 -0.6551  0.5456  0.2509
 2011SOL    HW117492   0.702   2.165  13.670 -0.4361  2.8699 -2.0371
 2011SOL    HW217493   0.753   2.144  13.527  2.1503 -0.2225  1.1176
 2012SOL     OW17494   1.013   3.914   2.672  0.1511  0.0836 -0.1536
 2012SOL    HW117495   1.026   3.935   2.580 -2.5069  0.9771 -0.3162
 2012SOL    HW217496   1.101   3.884   2.696 -0.5966 -2.4305 -0.5159
 2013SOL     OW17497   3.675   2.749   1.956 -0.2380  0.3978  0.1387
 2013SOL    HW117498   3.603   2.809   1.937  1.0261  1.5040 -1.1468
 2013SOL    HW217499   3.740   2.785   1.895 -0.3932  0.2273 -0.1261
 2014SOL     OW17500   0.790   3.777   8.132 -0.0839  0.2144 -0.3685
 2014SOL    HW117501   0.813   3.817   8.215 -0.5023 -0.7711  0.2230
 2014SOL    HW217502   0.874   3.771   8.086 -0.2442  3.9058 -1.0652
 2015SOL     OW17503   0.065   3.864  13.947 -0.3543 -0.6144 -0.0955
 2015SOL    HW117504   0.119   3.937  13.978 -2.0431  0.3894  0.4945
 2015SOL    HW217505   0.111   3.833  13.869 -0.1580  2.7870 -1.3612
 2016SOL     OW17506   1.306   0.974   6.314 -0.2381  0.0527  0.0213
 2016SOL    HW117507   1.300   1.008   6.224  3.1827 -1.1206 -0.6513
 2016SOL    HW217508   1.215   0.949   6.326  0.0216 -2.0422 -2.3007
 2017SOL     OW17509   3.830   4.191   8.383  0.0049 -0.4592  0.5958
 2017SOL    HW117510   3.876   4.215   8.463  0.8567 -2.8891  0.8336
 2017SOL    HW217511   3.782   4.272   8.366 -1.7627 -1.3674  1.2113
 2018SOL     OW17512   3.200   3.885  13.330  0.2296  0.3202 -0.3045
 2018SOL    HW117513   3.153   3.968  13.333 -1.1883 -0.4556 -0.6128
 2018SOL    HW217514   3.145   3.841  13.264  1.0986 -0.5783 -0.4271
 2019SOL     OW17515   1.634   2.156  15.426  0.2041 -0.2724 -0.2612
 2019SOL    HW117516   1.674   2.154  15.513  1.8798  0.6864 -1.0122
 2019SOL    HW217517   1.549   2.193  15.449  0.7703  1.1719 -0.4537
 2020SOL     OW17518   2.064   2.772   4.184  0.4588 -0.0568  0.0525
 2020SOL    HW117519   2.049   2.718   4.106 -1.2596 -0.7867  0.8985
 2020SOL    HW217520   2.079   2.859   4.148  2.7080 -0.0310  1.0318
 2021SOL     OW17521   3.652   1.293   3.951 -0.5930 -0.6495 -0.0498
 2021SOL    HW117522   3.566   1.319   3.918 -1.5649 -1.0994  2.1385
 2021SOL    HW217523   3.634   1.247   4.033  1.6554 -3.4762 -1.1537
 2022SOL     OW17524   0.693   4.263  17.551 -0.0121  0.2002  0.6675
 2022SOL    HW117525   0.655   4.309  17.626 -0.1639  1.9009 -0.4615
 2022SOL    HW217526   0.649   4.314  17.482 -0.3850  0.8284  1.3690
 2023SOL     OW17527   0.600   1.999  12.617 -0.2151 -0.2151  0.2622
 2023SOL    HW117528   0.578   2.081  12.573 -0.8374 -0.4368  0.1674
 2023SOL    HW217529   0.696   2.005  12.625 -0.1189 -0.8398 -0.4256
 2024SOL     OW17530   1.408   3.533   4.307  0.4302  0.0107 -0.7146
 2024SOL    HW117531   1.486   3.524   4.361 -0.6704 -0.3774  0.7872
 2024SOL    HW217532   1.423   3.480   4.227  0.5981  0.9750 -1.3197
 2025SOL     OW17533   4.274   0.011   8.118 -0.0765  0.3855  0.5630
 2025SOL    HW117534   4.293   4.707   8.029  1.6951 -1.2491  1.4535
 2025SOL    HW217535   4.346   0.074   8.125 -0.2293  0.6748 -0.5057
 2026SOL     OW17536   0.450   1.173  12.560 -0.6234  0.0359  0.1637
 2026SOL    HW117537   0.491   1.259  12.575  1.1181 -0.6028 -0.9514
 2026SOL    HW217538   0.437   1.146  12.651 -2.2477 -2.3581 -0.7829
 2027SOL     OW17539   1.154   0.560   2.712  0.0330  0.2452  0.1373
 2027SOL    HW117540   1.072   0.582   2.666  0.5083  3.3079  0.7335
 2027SOL    HW217541   1.177   0.648   2.744 -3.4128  0.8869  0.8690
 2028SOL     OW17542   0.595   0.329  12.916 -0.0319 -0.3723  0.2680
 2028SOL    HW117543   0.518   0.372  12.954 -1.4459 -3.4572  0.9536
 2028SOL    HW217544   0.606   0.382  12.837  0.5812  1.3849  1.5368
 2029SOL     OW17545   2.494   4.146   3.905 -0.8098  0.4318 -0.3592
 2029SOL    HW117546   2.558   4.154   3.976 -1.2164 -1.0617  0.1800
 2029SOL    HW217547   2.476   4.237   3.883  4.0958  1.8601  1.5007
 2030SOL     OW17548   3.962   4.035   8.936  0.2471  0.6381  0.1196
 2030SOL    HW117549   4.044   4.064   8.896  0.1767 -0.2490 -0.6648
 2030SOL    HW217550   3.922   4.122   8.946 -2.5637 -0.8491  1.8410
 2031SOL     OW17551   2.638   2.759   4.910 -0.0383  0.0323  0.2529
 2031SOL    HW117552   2.555   2.726   4.944 -0.2626 -0.1909 -0.5253
 2031SOL    HW217553   2.676   2.790   4.992 -0.5683 -1.1653  0.9501
 2032SOL     OW17554   0.207   2.195  16.386  0.5227  0.2445 -0.0226
 2032SOL    HW117555   0.219   2.239  16.471  0.8668  2.4868 -1.2284
 2032SOL    HW217556   0.210   2.267  16.323 -0.7982  2.5688  2.5471
 2033SOL     OW17557   2.319   0.964   6.388 -0.1720  0.2967 -0.5486
 2033SOL    HW117558   2.327   1.050   6.429 -0.5322  1.1448 -2.2613
 2033SOL    HW217559   2.407   0.942   6.358 -0.5652  1.0572 -2.2747
 2034SOL     OW17560   2.977   0.703   1.363 -0.2210 -0.1723 -0.1500
 2034SOL    HW117561   2.944   0.793   1.365  1.0342  0.2756  0.7423
 2034SOL    HW217562   3.048   0.708   1.428 -1.3127  0.0467  1.0224
 2035SOL     OW17563   1.319   1.501  13.496  0.1111  0.2083 -0.4905
 2035SOL    HW117564   1.286   1.529  13.582 -0.9882 -0.1018 -0.8067
 2035SOL    HW217565   1.241   1.502  13.440 -0.7530 -0.7536  0.6805
 2036SOL     OW17566   1.702   2.903   5.484 -0.7690  0.0971  0.1843
 2036SOL    HW117567   1.644   2.932   5.555 -2.3188  0.4454 -1.2318
 2036SOL    HW217568   1.721   2.984   5.437 -3.3300 -0.7428 -2.3273
 2037SOL     OW17569   3.338   3.589   4.181 -0.1750 -0.2723 -0.1459
 2037SOL    HW117570   3.342   3.594   4.276  0.8419 -1.0928 -0.1464
 2037SOL    HW217571   3.348   3.494   4.172 -0.7921 -0.5134  1.7629
 2038SOL     OW17572   2.070   1.987   5.047 -0.5941 -0.1357 -0.3774
 2038SOL    HW117573   2.029   1.940   5.119 -2.3736  0.9649 -0.6652
 2038SOL    HW217574   2.140   1.924   5.030  0.5344  1.1511 -0.4821
 2039SOL     OW17575   2.715   0.939   1.110  0.2187 -0.1900  0.1934
 2039SOL    HW117576   2.755   1.026   1.110 -3.1724  1.3348  1.3854
 2039SOL    HW217577   2.784   0.896   1.059  0.0112  0.6729 -0.8067
 2040SOL     OW17578   3.353   3.128  13.401 -0.5375 -0.7287  0.1018
 2040SOL    HW117579   3.309   3.138  13.316 -0.6592 -1.4099  0.0886
 2040SOL    HW217580   3.402   3.048  13.382  0.0490 -0.6772  1.4161
 2041SOL     OW17581   0.183   4.459   5.843  0.3342 -0.1515 -0.3200
 2041SOL    HW117582   0.238   4.533   5.869  0.8408  0.1363 -2.1962
 2041SOL    HW217583   0.100   4.493   5.878  1.2379  0.2217  1.4346
 2042SOL     OW17584   1.589   0.587   9.638  0.7028  0.5801 -0.3220
 2042SOL    HW117585   1.533   0.661   9.661 -0.5288 -0.0322 -1.4137
 2042SOL    HW217586   1.552   0.511   9.682 -0.7447  2.2456  1.3544
 2043SOL     OW17587   2.447   1.829   5.963 -0.8080 -0.3505 -0.5113
 2043SOL    HW117588   2.541   1.816   5.974 -0.7256  0.2654 -0.4797
 2043SOL    HW217589   2.423   1.783   5.882 -3.3385  0.9508 -0.5202
 2044SOL     OW17590   2.793   3.422   4.421 -0.1384  0.2468  1.1139
 2044SOL    HW117591   2.812   3.372   4.500 -0.6039 -1.2652  0.2611
 2044SOL    HW217592   2.848   3.500   4.433  0.5794 -0.1363  0.2170
 2045SOL     OW17593   2.222   2.688   5.703  0.1356  0.4882  0.5873
 2045SOL    HW117594   2.174   2.614   5.665  0.0766  0.3914  0.8543
 2045SOL    HW217595   2.293   2.702   5.640  1.6309 -1.3653  1.8790
 2046SOL     OW17596   1.458   1.372   5.201  0.0451  0.2044  0.0756
 2046SOL    HW117597   1.446   1.466   5.216 -0.7453  0.8356 -4.3699
 2046SOL    HW217598   1.374   1.327   5.202  0.0260  0.2528  0.7872
 2047SOL     OW17599   3.966   4.456  12.176  0.5282 -0.4022  0.0576
 2047SOL    HW117600   4.044   4.511  12.182 -0.0403  0.4177 -0.0301
 2047SOL    HW217601   4.007   4.392  12.117  0.4307 -1.1078  0.7586
 2048SOL     OW17602   0.752   3.784   6.698 -0.0865 -0.0164  0.2245
 2048SOL    HW117603   0.794   3.700   6.711 -0.3817 -0.5196 -1.9431
 2048SOL    HW217604   0.674   3.770   6.752 -0.8505  2.3658 -0.2289
 2049SOL     OW17605   1.754   0.078   3.251 -0.3019  0.0006  0.6764
 2049SOL    HW117606   1.751   0.160   3.300  0.7326 -1.4299  3.1188
 2049SOL    HW217607   1.802   0.020   3.310  0.8804  1.0716  0.7627
 2050SOL     OW17608   2.035   1.855   7.341  0.0819  0.1833  0.5477
 2050SOL    HW117609   2.042   1.864   7.436 -0.6935 -0.8218  0.6941
 2050SOL    HW217610   2.035   1.761   7.326  1.6855  0.2440  0.1896
 2051SOL     OW17611   3.871   3.289   9.925  0.7169  0.2548 -0.1927
 2051SOL    HW117612   3.898   3.379   9.945  0.0721  0.5963 -0.8726
 2051SOL    HW217613   3.784   3.312   9.893  0.8531 -0.9639 -1.4374
 2052SOL     OW17614   1.164   4.375   7.112 -0.1599 -0.0224  0.1348
 2052SOL    HW117615   1.255   4.346   7.105  0.5770  2.0756  0.9607
 2052SOL    HW217616   1.170   4.470   7.103 -0.3010 -0.0337 -0.0805
 2053SOL     OW17617   3.297   2.891   7.488 -0.0235  0.0917 -0.3471
 2053SOL    HW117618   3.206   2.913   7.511  0.0235 -0.6417  0.5187
 2053SOL    HW217619   3.299   2.796   7.481  3.5161  0.0319  1.6395
 2054SOL     OW17620   4.666   3.212  10.438  0.0130  0.0245 -0.0169
 2054SOL    HW117621   4.605   3.281  10.411 -0.1350 -0.0846  0.0394
 2054SOL    HW217622   4.687   3.168  10.356 -0.1717 -0.1860  0.0499
 2055SOL     OW17623   2.634   1.643  12.290  0.5045 -0.4042  0.1787
 2055SOL    HW117624   2.612   1.643  12.197  3.8358  0.9935 -0.6020
 2055SOL    HW217625   2.706   1.580  12.297  1.1311  0.3541  0.5377
 2056SOL     OW17626   0.364   3.353   2.087 -0.3577 -0.4627 -0.4395
 2056SOL    HW117627   0.417   3.394   2.018 -2.3425  1.2907 -0.9258
 2056SOL    HW217628   0.322   3.284   2.035 -2.0557  1.7566 -2.0439
 2057SOL     OW17629   1.619   1.513   5.021 -0.3447 -0.3435  0.9086
 2057SOL    HW117630   1.592   1.497   4.931  1.2928  0.2409  0.3271
 2057SOL    HW217631   1.558   1.460   5.073  0.1866 -1.2712  0.5751
 2058SOL     OW17632   0.686   1.070   5.015 -0.7521  0.0619  0.1767
 2058SOL    HW117633   0.656   1.006   4.951  0.7818 -1.8256  1.3337
 2058SOL    HW217634   0.687   1.028   5.101  0.5966  1.2717  0.7591
 2059SOL     OW17635   3.138   1.651   3.095 -0.0585 -0.3305  0.1288
 2059SOL    HW117636   3.181   1.604   3.024 -1.5795 -0.6480 -0.5833
 2059SOL    HW217637   3.088   1.580   3.136 -0.0675 -0.7714 -0.6387
 2060SOL     OW17638   0.413   1.678   2.265  0.0675 -0.1613 -0.5264
 2060SOL    HW117639   0.380   1.676   2.175  3.3734 -0.9752 -1.7412
 2060SOL    HW217640   0.498   1.720   2.254 -0.7797  2.0758  1.5582
 2061SOL     OW17641   4.332   2.720  11.814 -0.2173 -0.3548 -0.1064
 2061SOL    HW117642   4.347   2.815  11.818  1.1993 -0.5053 -1.7194
 2061SOL    HW217643   4.265   2.709  11.881  1.4585 -0.4154  1.5495
 2062SOL     OW17644   0.997   4.282  16.663  0.4780  0.7340 -0.0238
 2062SOL    HW117645   1.052   4.238  16.597  0.3311  1.2530 -0.4892
 2062SOL    HW217646   1.059   4.352  16.684 -0.2738  1.1044  0.9308
 2063SOL     OW17647   1.015   2.453   3.741 -0.6038  0.2245  0.6002
 2063SOL    HW117648   0.975   2.529   3.783  0.2202  2.0657 -1.9461
 2063SOL    HW217649   0.936   2.403   3.721  0.5098 -1.4789  0.4154
 2064SOL     OW17650   0.412   4.696   6.922  0.2581 -0.2883 -0.2832
 2064SOL    HW117651   0.467   4.688   6.844  0.0497 -1.9635 -0.2536
 2064SOL    HW217652   0.332   0.007   6.883  1.5024  3.0308  0.1474
 2065SOL     OW17653   0.868   0.054   6.962  0.2463  0.0527 -0.0726
 2065SOL    HW117654   0.775   0.076   6.964  0.3572  0.4835  0.5294
 2065SOL    HW217655   0.907   0.141   6.971  0.9285 -0.2468 -0.1639
 2066SOL     OW17656   3.630   1.005  12.776  0.2719 -0.0876 -0.3718
 2066SOL    HW117657   3.596   0.916  12.773 -4.1930  1.6584 -1.1019
 2066SOL    HW217658   3.722   0.990  12.751  0.7041  0.6403  0.7954
 2067SOL     OW17659   0.093   4.479   6.330 -0.0309 -0.0581 -0.2800
 2067SOL    HW117660   0.048   4.563   6.318  2.1233  1.5500  2.6550
 2067SOL    HW217661   0.165   4.479   6.267 -0.1261 -0.5594 -0.3889
 2068SOL     OW17662   3.016   3.322   6.813 -0.3342  0.0494 -0.7873
 2068SOL    HW117663   2.922   3.305   6.814 -0.1147 -1.1721 -0.4506
 2068SOL    HW217664   3.032   3.414   6.796 -0.6362  0.2717  0.1245
 2069SOL     OW17665   1.406   0.343   3.310  0.5424  0.2346  0.5315
 2069SOL    HW117666   1.425   0.346   3.216 -1.0473  1.0497  0.2388
 2069SOL    HW217667   1.490   0.365   3.351 -0.2525  5.0534 -0.4167
 2070SOL     OW17668   4.430   2.819   8.767 -0.1398  0.1128 -0.4391
 2070SOL    HW117669   4.428   2.817   8.863 -2.1950 -1.4856 -0.5064
 2070SOL    HW217670   4.380   2.899   8.753  0.1210  0.2242 -0.7348
 2071SOL     OW17671   1.104   3.819  12.896 -0.5487 -0.1414 -0.5531
 2071SOL    HW117672   1.188   3.862  12.881 -1.0477 -0.2850 -3.7252
 2071SOL    HW217673   1.083   3.786  12.808 -0.4472  0.2108 -0.7103
 2072SOL     OW17674   1.561   4.599   8.678  0.1680  0.0201  0.0333
 2072SOL    HW117675   1.568   4.511   8.642 -1.1352  1.0420 -2.6939
 2072SOL    HW217676   1.610   4.598   8.760  0.1306 -0.5153  0.0443
 2073SOL     OW17677   2.032   3.343   4.568 -0.4004  0.3359  0.6216
 2073SOL    HW117678   2.028   3.437   4.584 -2.2183  0.8673 -2.8216
 2073SOL    HW217679   2.048   3.305   4.654 -1.2125  1.4523  1.2607
 2074SOL     OW17680   0.197   0.819   2.729 -0.3513  0.3890  0.2248
 2074SOL    HW117681   0.231   0.731   2.715 -3.5495 -0.7352 -0.4511
 2074SOL    HW217682   0.205   0.860   2.643  0.5608 -0.5503 -0.1401
 2075SOL     OW17683   0.573   0.906  10.328  0.2026  0.0785  0.1086
 2075SOL    HW117684   0.644   0.952  10.374  1.7619 -2.6768  0.4262
 2075SOL    HW217685   0.604   0.816  10.327  1.1009  0.3542  2.1462
 2076SOL     OW17686   1.841   2.306   9.630  1.0191 -0.5319 -0.7810
 2076SOL    HW117687   1.793   2.233   9.591 -0.9718 -0.5533  1.7217
 2076SOL    HW217688   1.909   2.267   9.685  0.0807  0.0643  0.7882
 2077SOL     OW17689   3.881   0.221  16.569 -0.1580 -0.1134  0.6145
 2077SOL    HW117690   3.917   0.132  16.563 -0.5566 -0.3463  1.7451
 2077SOL    HW217691   3.878   0.237  16.663  0.8696  0.0331  0.6295
 2078SOL     OW17692   1.813   0.307  16.540 -0.0383 -0.2366  0.2811
 2078SOL    HW117693   1.871   0.232  16.531  0.5935  0.0828  1.7836
 2078SOL    HW217694   1.864   0.381  16.573  0.4685 -0.5231  0.1322
 2079SOL     OW17695   4.340   3.969   7.567 -0.4215  0.3019  0.4310
 2079SOL    HW117696   4.434   3.956   7.576 -0.1590  0.7090 -1.8835
 2079SOL    HW217697   4.331   3.939   7.477 -0.7185  0.6880  0.3340
 2080SOL     OW17698   1.775   2.785  11.182 -0.0876 -0.3981 -0.4532
 2080SOL    HW117699   1.870   2.787  11.176  0.0267 -3.1424  0.0453
 2080SOL    HW217700   1.747   2.875  11.169  1.1508 -0.3829 -2.9389
 2081SOL     OW17701   3.151   1.882   5.768 -0.5681  1.1096 -0.3214
 2081SOL    HW117702   3.240   1.850   5.754  0.4807  3.0912  1.7017
 2081SOL    HW217703   3.170   1.952   5.832 -0.8853 -0.8671  1.9306
 2082SOL     OW17704   1.523   2.284   5.621  0.1999  0.4265  0.0329
 2082SOL    HW117705   1.598   2.335   5.650  1.1638 -1.9202  1.6476
 2082SOL    HW217706   1.547   2.262   5.531 -0.0936  0.4542 -0.0520
 2083SOL     OW17707   4.232   3.409   9.628 -0.0532  0.6059 -0.1959
 2083SOL    HW117708   4.316   3.446   9.602  0.4712 -1.2046 -1.0112
 2083SOL    HW217709   4.224   3.342   9.561  1.3825 -0.2587  0.4985
 2084SOL     OW17710   2.404   0.636   2.851 -0.0630  0.4644  0.0467
 2084SOL    HW117711   2.336   0.579   2.815 -0.9037  0.6127  1.4152
 2084SOL    HW217712   2.454   0.645   2.770 -0.8450  0.7894 -0.4000
 2085SOL     OW17713   1.057   3.602   9.235  0.3070  0.7861 -0.7789
 2085SOL    HW117714   1.141   3.560   9.218 -0.2973 -0.9502  0.4473
 2085SOL    HW217715   1.006   3.589   9.155  1.2155 -3.3987 -0.6940
 2086SOL     OW17716   0.193   4.062  16.290  0.4845 -0.1610 -0.5656
 2086SOL    HW117717   0.170   4.132  16.228  0.9768 -0.1095 -0.6895
 2086SOL    HW217718   0.285   4.042  16.272  0.1423 -1.1129 -1.3008
 2087SOL     OW17719   1.101   1.715   8.049 -0.3714 -0.3547  0.3334
 2087SOL    HW117720   1.160   1.641   8.063  0.8097  0.3676 -0.8154
 2087SOL    HW217721   1.079   1.741   8.138  1.9654 -1.2046  1.1565
 2088SOL     OW17722   1.382   2.290   7.169 -0.4961 -0.2062  0.5750
 2088SOL    HW117723   1.418   2.202   7.164 -0.0578 -0.1371  2.2354
 2088SOL    HW217724   1.348   2.303   7.081 -1.2116  0.4639  0.9499
 2089SOL     OW17725   3.370   4.269   7.951 -0.1666  0.2091  0.1435
 2089SOL    HW117726   3.358   4.188   8.000  1.0593  1.2181  2.1244
 2089SOL    HW217727   3.289   4.266   7.900 -1.7532  1.4164  2.5662
 2090SOL     OW17728   3.075   2.135   3.561  0.2595  0.2432 -0.2131
 2090SOL    HW117729   3.041   2.224   3.553  0.9428  0.5037 -0.1740
 2090SOL    HW217730   3.087   2.138   3.656  1.7442 -1.4607 -0.3417
 2091SOL     OW17731   1.340   2.305   4.945  0.3708 -0.0403 -0.0346
 2091SOL    HW117732   1.327   2.277   4.854 -1.2280 -0.5151  0.3491
 2091SOL    HW217733   1.395   2.383   4.937  0.6104 -0.2620 -0.5929
 2092SOL     OW17734   4.476   1.693   6.614 -0.0226  0.5115  0.0249
 2092SOL    HW117735   4.462   1.787   6.601 -0.1423  0.6007  0.8143
 2092SOL    HW217736   4.402   1.680   6.673 -1.2291 -0.1645 -1.6073
 2093SOL     OW17737   2.840   1.911   6.901  0.0007 -0.5846 -0.6299
 2093SOL    HW117738   2.745   1.911   6.890  0.0319  1.1245 -0.7959
 2093SOL    HW217739   2.868   2.002   6.890  1.0937 -0.8118  0.2299
 2094SOL     OW17740   0.788   4.151   8.717  0.0309 -0.2531  0.3665
 2094SOL    HW117741   0.843   4.190   8.649  0.7574 -1.1366  0.4506
 2094SOL    HW217742   0.788   4.221   8.782 -2.7940  0.4545 -0.3882
 2095SOL     OW17743   4.033   0.676  14.091 -0.3121  0.4646  0.1719
 2095SOL    HW117744   4.049   0.638  14.004  1.2988  0.4393  0.4753
 2095SOL    HW217745   3.974   0.749  14.073 -1.3571 -0.9818 -2.1894
 2096SOL     OW17746   2.857   3.355   6.064 -0.5654 -1.1721  0.3521
 2096SOL    HW117747   2.927   3.291   6.050  1.3893  1.1610 -0.5671
 2096SOL    HW217748   2.789   3.303   6.022 -1.6513 -1.0988  2.0175
 2097SOL     OW17749   2.209   1.383  10.516  0.5340  0.2192  0.3745
 2097SOL    HW117750   2.287   1.363  10.569  1.3568  0.7761 -0.6219
 2097SOL    HW217751   2.239   1.336  10.438  0.1619  0.3533  0.1525
 2098SOL     OW17752   4.702   2.401   1.373  0.0883  0.4771  0.0816
 2098SOL    HW117753   4.698   2.440   1.460 -0.0937 -0.8915  0.6856
 2098SOL    HW217754   0.065   2.435   1.349  0.5530 -0.2739  0.7099
 2099SOL     OW17755   3.756   4.591   5.123 -0.2961 -0.2156  0.1891
 2099SOL    HW117756   3.797   4.663   5.171  1.7050 -0.5814 -0.9952
 2099SOL    HW217757   3.838   4.542   5.117  0.2445  0.8113 -0.7772
 2100SOL     OW17758   3.365   4.397   8.817  0.3219  0.3529  0.8249
 2100SOL    HW117759   3.276   4.363   8.826  0.3932 -0.2638 -0.9692
 2100SOL    HW217760   3.392   4.331   8.754 -1.1743  0.9992 -0.5099
 2101SOL     OW17761   3.237   3.821   7.244 -0.0919  0.2027  0.5353
 2101SOL    HW117762   3.175   3.874   7.194 -1.7055 -1.0689  1.1931
 2101SOL    HW217763   3.316   3.811   7.191 -0.1371  0.9481  0.3307
 2102SOL     OW17764   0.375   0.451  11.779 -0.1722 -0.1227 -0.5718
 2102SOL    HW117765   0.409   0.443  11.690  0.8420 -0.9492 -0.1067
 2102SOL    HW217766   0.442   0.396  11.820  0.7021  0.0442 -1.7872
 2103SOL     OW17767   1.393   2.063   0.770 -0.1262  0.2656 -0.5253
 2103SOL    HW117768   1.448   2.021   0.704 -0.9115 -0.5712 -0.6447
 2103SOL    HW217769   1.426   2.153   0.772  1.1365 -0.2075  0.2022
 2104SOL     OW17770   3.777   0.427  16.423  0.7101 -0.1767 -0.1095
 2104SOL    HW117771   3.810   0.357  16.479  0.2290 -1.0579 -0.9335
 2104SOL    HW217772   3.704   0.382  16.381 -1.8996  1.3094  2.8407
 2105SOL     OW17773   2.368   3.630   6.540 -0.0492  0.1121  0.2468
 2105SOL    HW117774   2.417   3.556   6.504  1.6915 -0.1815  3.2130
 2105SOL    HW217775   2.394   3.702   6.483 -1.6718  0.4851 -0.0272
 2106SOL     OW17776   1.500   2.594  10.204  0.2910 -0.1157 -0.1945
 2106SOL    HW117777   1.421   2.626  10.160  0.5653  0.8923  0.0455
 2106SOL    HW217778   1.526   2.524  10.144 -1.0328 -1.8290  1.2350
 2107SOL     OW17779   4.327   1.162   4.258 -0.2279 -0.1247 -0.1116
 2107SOL    HW117780   4.264   1.221   4.301  1.5523  0.2512  1.9701
 2107SOL    HW217781   4.392   1.150   4.327  0.5598 -3.3132 -1.3923
 2108SOL     OW17782   3.496   0.123   8.456  0.8718  0.5745  0.0391
 2108SOL    HW117783   3.562   0.184   8.424  0.5861 -0.3061 -2.2279
 2108SOL    HW217784   3.518   0.136   8.548 -0.3826  1.3336  0.2362
 2109SOL     OW17785   3.383   4.180   5.742 -0.4831  0.1425 -0.1125
 2109SOL    HW117786   3.348   4.147   5.825 -1.9973 -2.2740 -1.7198
 2109SOL    HW217787   3.338   4.265   5.738 -1.0780 -0.2656 -2.1880
 2110SOL     OW17788   0.915   2.507   5.181 -0.2138  0.3031  0.1940
 2110SOL    HW117789   0.981   2.494   5.114  0.9584 -0.7311  1.5620
 2110SOL    HW217790   0.964   2.469   5.254 -0.9549 -1.4244 -0.2252
 2111SOL     OW17791   1.545   4.419   4.105 -0.5248 -0.2042  0.4998
 2111SOL    HW117792   1.509   4.414   4.017 -0.6840 -0.5246  0.5847
 2111SOL    HW217793   1.594   4.501   4.113 -0.9843 -0.1380  2.7507
 2112SOL     OW17794   4.491   0.975   5.878 -0.6707 -0.4398 -0.0012
 2112SOL    HW117795   4.465   0.899   5.930  0.0116 -0.6824 -0.0107
 2112SOL    HW217796   4.549   0.939   5.811 -1.2702  1.2211 -1.4161
 2113SOL     OW17797   2.399   1.041   7.864 -0.1452  0.6566 -0.2729
 2113SOL    HW117798   2.491   1.051   7.890 -0.7780  0.6530  1.9058
 2113SOL    HW217799   2.392   1.094   7.784 -1.5531  0.4860 -0.2602
 2114SOL     OW17800   3.387   2.348   9.169 -0.4646  0.0888 -0.7378
 2114SOL    HW117801   3.421   2.260   9.181 -1.4479 -0.0731  0.9521
 2114SOL    HW217802   3.358   2.350   9.078  2.2184  0.8830 -1.5871
 2115SOL     OW17803   1.820   1.057   3.341  0.2620  0.4994 -0.1502
 2115SOL    HW117804   1.899   1.047   3.287  0.3550 -2.0007  0.4423
 2115SOL    HW217805   1.750   1.063   3.276  1.0156  0.2501 -0.9827
 2116SOL     OW17806   1.194   1.611   2.816  0.1823 -0.3663  0.0809
 2116SOL    HW117807   1.178   1.517   2.819 -0.9284 -0.2360 -1.4833
 2116SOL    HW217808   1.287   1.616   2.798 -0.2563  1.7089 -1.5684
 2117SOL     OW17809   1.953   2.992   2.544 -0.0811 -0.0614 -0.0835
 2117SOL    HW117810   1.951   3.049   2.621  0.1499 -2.0248  1.3928
 2117SOL    HW217811   2.038   2.954   2.563 -1.0743 -3.2073 -1.9608
 2118SOL     OW17812   2.478   4.158   5.639  0.0245 -0.2548  0.1499
 2118SOL    HW117813   2.539   4.197   5.702  1.3369  0.1523 -1.3439
 2118SOL    HW217814   2.415   4.105   5.687  1.8624 -3.1158 -0.6147
 2119SOL     OW17815   1.055   3.627   4.350 -0.7154 -0.2298 -0.2315
 2119SOL    HW117816   1.063   3.722   4.343  0.5036 -0.2760  0.5386
 2119SOL    HW217817   1.044   3.616   4.255 -1.4714 -3.0104  0.1607
 2120SOL     OW17818   3.431   1.927  14.387 -0.5833 -0.1728 -0.0918
 2120SOL    HW117819   3.469   1.839  14.376 -2.9048 -1.2651  0.6569
 2120SOL    HW217820   3.458   1.949  14.476  2.4387 -0.9640 -0.8142
 2121SOL     OW17821   0.277   3.375   4.492 -0.2068  0.0712 -0.5033
 2121SOL    HW117822   0.203   3.431   4.516 -0.7801 -1.1274  0.5636
 2121SOL    HW217823   0.326   3.436   4.436 -0.0041  2.5689  2.3854
 2122SOL     OW17824   4.508   3.146   5.258 -0.8509 -0.4579 -0.3996
 2122SOL    HW117825   4.414   3.146   5.272 -0.5830 -1.2773  1.3907
 2122SOL    HW217826   4.525   3.079   5.193 -1.8592 -1.4304  0.3536
 2123SOL     OW17827   3.481   2.177   1.176  0.1504  0.3724 -0.5177
 2123SOL    HW117828   3.488   2.085   1.150  0.8665  0.6176 -1.1999
 2123SOL    HW217829   3.398   2.200   1.134 -2.4534  0.0203  4.4880
 2124SOL     OW17830   4.117   1.781   9.352  0.3327 -0.3650 -0.3996
 2124SOL    HW117831   4.068   1.853   9.392  0.6695 -1.0551  1.2386
 2124SOL    HW217832   4.105   1.720   9.425  1.7108 -1.0509 -0.7382
 2125SOL     OW17833   1.036   3.676   4.628  0.2990 -0.3127  0.3782
 2125SOL    HW117834   1.100   3.746   4.634 -0.3839  0.2516  1.0782
 2125SOL    HW217835   1.032   3.659   4.534 -0.1653 -0.5948  0.4460
 2126SOL     OW17836   1.106   0.418   5.217 -0.3073 -0.1738 -0.6058
 2126SOL    HW117837   1.194   0.385   5.235 -0.4601  0.2651  0.8999
 2126SOL    HW217838   1.086   0.382   5.130  0.5793 -1.5057 -0.2649
 2127SOL     OW17839   1.138   3.921   2.071  0.1831 -0.0837 -0.4559
 2127SOL    HW117840   1.065   3.876   2.114 -0.1582  1.5503  0.6830
 2127SOL    HW217841   1.110   4.012   2.080  1.5093  0.1595  1.0157
 2128SOL     OW17842   2.912   0.346   6.317  0.0801 -0.8760 -0.1251
 2128SOL    HW117843   2.818   0.341   6.302 -0.3086 -0.0421  2.1336
 2128SOL    HW217844   2.922   0.272   6.377  1.0018  0.5355  1.4442
 2129SOL     OW17845   4.292   2.801   5.457  0.8202 -1.1528  0.0625
 2129SOL    HW117846   4.303   2.757   5.542 -1.5449  0.2400  1.0686
 2129SOL    HW217847   4.372   2.854   5.453 -0.2492  0.4920  0.7182
 2130SOL     OW17848   4.254   3.352  13.386 -0.0937 -0.1218  0.1032
 2130SOL    HW117849   4.192   3.368  13.315 -2.1653 -2.3180  1.4201
 2130SOL    HW217850   4.275   3.438  13.423 -1.5952 -0.8895  2.7221
 2131SOL     OW17851   1.841   1.602  14.032  0.3562  0.1893  0.3707
 2131SOL    HW117852   1.816   1.531  13.973 -2.3101  0.3400  1.3215
 2131SOL    HW217853   1.927   1.628  13.999 -0.2217 -1.0872 -2.1592
 2132SOL     OW17854   2.266   1.804   9.058 -0.2611  0.2397 -0.1703
 2132SOL    HW117855   2.286   1.849   8.976 -1.8365 -1.0184 -1.2303
 2132SOL    HW217856   2.232   1.873   9.115  0.4071 -0.6484  1.3124
 2133SOL     OW17857   1.060   4.536  10.331  0.1208 -0.7496 -0.2442
 2133SOL    HW117858   0.997   4.606  10.346  1.7045  0.2228  1.8211
 2133SOL    HW217859   1.141   4.581  10.355 -0.1561 -0.7647  0.6945
 2134SOL     OW17860   3.443   4.314   0.811 -0.0529  0.2512 -0.4707
 2134SOL    HW117861   3.520   4.333   0.865 -1.2583 -0.8268  1.6242
 2134SOL    HW217862   3.467   4.231   0.771 -2.4665 -1.1808  1.0488
 2135SOL     OW17863   2.655   4.182  16.222  0.7289  0.5000  0.4687
 2135SOL    HW117864   2.636   4.219  16.136  0.5020  1.3078  0.8632
 2135SOL    HW217865   2.734   4.131  16.204 -0.0328 -0.3142 -0.5454
 2136SOL     OW17866   3.517   3.890  10.077 -0.2055 -0.4866  0.5510
 2136SOL    HW117867   3.593   3.833  10.065 -1.1352 -2.1404  2.3947
 2136SOL    HW217868   3.543   3.956  10.013  1.1984  0.3024  1.9384
 2137SOL     OW17869   4.695   0.360   3.397  0.0739 -0.3134  0.1121
 2137SOL    HW117870   4.712   0.290   3.334 -1.9420 -0.1026 -0.6918
 2137SOL    HW217871   0.037   0.425   3.374  0.6411 -0.1947  2.0877
 2138SOL     OW17872   1.415   3.208   2.168  0.4097 -0.6102  0.0784
 2138SOL    HW117873   1.492   3.154   2.189 -1.1897 -2.5554  0.9120
 2138SOL    HW217874   1.455   3.295   2.172  0.3037 -0.4061 -3.5946
 2139SOL     OW17875   3.476   3.072  14.164 -0.5780 -0.1132 -0.6312
 2139SOL    HW117876   3.417   3.107  14.097 -1.5446  0.9587  0.7897
 2139SOL    HW217877   3.528   3.146  14.193  1.1456 -1.3724 -0.4888
 2140SOL     OW17878   2.773   3.125   6.920 -0.2290  0.9057  0.4458
 2140SOL    HW117879   2.689   3.127   6.874 -0.0438  1.1064  0.1191
 2140SOL    HW217880   2.779   3.209   6.967  0.5511  1.7864 -1.2402
 2141SOL     OW17881   2.245   0.049   3.432  0.0592 -0.1741 -0.1798
 2141SOL    HW117882   2.253   0.041   3.337  0.5735  0.0172 -0.1561
 2141SOL    HW217883   2.214   4.684   3.450 -1.0400  0.6030  1.6866
 2142SOL     OW17884   4.211   1.401  16.787  0.0873  0.2028  0.4174
 2142SOL    HW117885   4.116   1.412  16.792 -0.1335  0.3845 -4.4344
 2142SOL    HW217886   4.220   1.330  16.850  0.7970  0.5109  0.6655
 2143SOL     OW17887   4.365   2.169   5.724  0.3226  0.0991 -0.3905
 2143SOL    HW117888   4.318   2.248   5.701  3.0211  1.7122 -0.3546
 2143SOL    HW217889   4.453   2.206   5.717 -0.1904  1.6280  1.3271
 2144SOL     OW17890   4.232   2.652   0.956  0.4753 -0.1048 -0.6081
 2144SOL    HW117891   4.175   2.716   0.998  1.8373  0.6549  0.0838
 2144SOL    HW217892   4.213   2.674   0.865  0.6649  0.1480 -0.5855
 2145SOL     OW17893   1.031   4.067   9.521  0.2861  0.0103  0.0311
 2145SOL    HW117894   0.971   4.000   9.488  0.2346 -1.2876  2.7048
 2145SOL    HW217895   1.030   4.041   9.613  0.2560  0.9711  0.3077
 2146SOL     OW17896   3.825   2.646   9.133  0.0600  0.8099  0.1115
 2146SOL    HW117897   3.753   2.697   9.097 -0.1845 -0.3714 -1.0963
 2146SOL    HW217898   3.889   2.703   9.175 -0.3572 -0.5655  2.6117
 2147SOL     OW17899   1.533   0.378   3.583 -0.1595 -0.2353  0.6154
 2147SOL    HW117900   1.461   0.316   3.596  0.5559 -0.4266  3.5094
 2147SOL    HW217901   1.494   0.461   3.610 -0.9485  0.9826 -4.2238
 2148SOL     OW17902   3.740   0.668  14.240  0.0879  0.1791  0.0100
 2148SOL    HW117903   3.821   0.716  14.225  0.9197 -0.9679  0.7987
 2148SOL    HW217904   3.674   0.738  14.243  0.2334  0.2667  1.4948
 2149SOL     OW17905   1.120   1.406   4.098 -0.4115  0.6712 -0.1595
 2149SOL    HW117906   1.055   1.477   4.097 -1.5106 -0.3575 -1.8333
 2149SOL    HW217907   1.147   1.396   4.007  1.5390 -0.8120  0.6009
 2150SOL     OW17908   0.038   1.408   5.154  0.3216  0.7772 -1.2859
 2150SOL    HW117909   0.108   1.369   5.102  0.3842  0.5732 -1.0519
 2150SOL    HW217910   0.081   1.469   5.214 -0.8369 -0.6483  1.0241
 2151SOL     OW17911   0.773   1.788   0.542 -0.5588 -0.1858 -0.0679
 2151SOL    HW117912   0.720   1.854   0.588  0.8284 -1.3816  3.2564
 2151SOL    HW217913   0.860   1.790   0.581 -0.1591 -1.4380 -0.8894
 2152SOL     OW17914   1.408   2.602   5.144 -0.1635  0.0042  0.6868
 2152SOL    HW117915   1.456   2.629   5.065  0.3669 -0.9060  0.6866
 2152SOL    HW217916   1.461   2.656   5.202 -0.6354  0.3164  0.8228
 2153SOL     OW17917   2.095   1.421  14.260  0.1556 -0.4715  0.6301
 2153SOL    HW117918   2.063   1.498  14.306  2.2891 -0.9735  2.9859
 2153SOL    HW217919   2.180   1.460  14.239  0.2246 -1.0360 -0.1644
 2154SOL     OW17920   2.567   1.362  11.591 -0.6689 -0.4367 -0.0901
 2154SOL    HW117921   2.652   1.390  11.558  0.6338 -2.9232  1.1776
 2154SOL    HW217922   2.541   1.435  11.646 -0.1373  0.4003 -0.9495
 2155SOL     OW17923   3.809   1.214  10.855 -0.3603  0.5211  0.0836
 2155SOL    HW117924   3.887   1.217  10.911  0.1838 -1.4803 -0.5625
 2155SOL    HW217925   3.747   1.249  10.919 -0.6259  0.4814 -0.1565
 2156SOL     OW17926   1.090   2.439   2.903 -0.2801 -0.3215  0.6540
 2156SOL    HW117927   1.183   2.432   2.881 -0.6514  0.3399 -1.0764
 2156SOL    HW217928   1.072   2.533   2.902  0.2239 -0.1776  3.6058
 2157SOL     OW17929   2.059   3.044   4.128  0.2190  0.3314 -0.3502
 2157SOL    HW117930   2.037   3.063   4.219  2.8101  0.0416  0.3386
 2157SOL    HW217931   2.001   3.102   4.079  1.6467 -0.0697 -2.5197
 2158SOL     OW17932   3.090   3.903   8.671 -0.4560  0.1555  0.6194
 2158SOL    HW117933   3.155   3.861   8.614 -1.9553 -0.2535 -0.7742
 2158SOL    HW217934   3.011   3.907   8.617  0.6687 -0.8128 -1.1040
 2159SOL     OW17935   1.686   2.801   2.963  0.6098  0.0104  0.0458
 2159SOL    HW117936   1.679   2.759   2.877  1.0194 -1.0479  0.5220
 2159SOL    HW217937   1.746   2.873   2.944  1.3798 -0.9805 -1.2731
 2160SOL     OW17938   4.498   1.427   4.806 -0.1163  0.3733  0.0397
 2160SOL    HW117939   4.523   1.336   4.820  1.9253  0.4998 -2.7060
 2160SOL    HW217940   4.465   1.428   4.716  1.8648 -1.3686 -0.6948
 2161SOL     OW17941   0.758   0.173   5.930 -0.5370 -0.5056  0.0890
 2161SOL    HW117942   0.852   0.154   5.931 -0.6461 -0.9492  1.5610
 2161SOL    HW217943   0.729   0.092   5.886 -1.3071  0.2770 -0.8379
 2162SOL     OW17944   0.419   2.328   8.462 -0.2134  0.1168 -0.6712
 2162SOL    HW117945   0.363   2.333   8.540  0.6903  2.7400 -0.1888
 2162SOL    HW217946   0.505   2.358   8.490 -0.3005  0.3184 -0.6152
 2163SOL     OW17947   0.080   2.839   8.371 -0.0504 -0.3538  0.0416
 2163SOL    HW117948   0.140   2.775   8.410 -1.3888 -2.3214 -1.0863
 2163SOL    HW217949   0.007   2.823   8.431 -1.7910  1.5554 -1.5565
 2164SOL     OW17950   0.922   0.681  14.847 -0.1579 -0.1599 -0.3667
 2164SOL    HW117951   0.924   0.589  14.820  0.4232 -0.4362  0.6246
 2164SOL    HW217952   1.005   0.711  14.811  0.1866 -2.9820 -1.9060
 2165SOL     OW17953   2.958   4.120   3.676 -0.0331  0.1397  0.2067
 2165SOL    HW117954   2.978   4.098   3.767  0.3109  0.4831  0.2089
 2165SOL    HW217955   2.995   4.045   3.629  2.4437  0.9344  0.9320
 2166SOL     OW17956   0.265   4.422   4.053  0.4529  0.1904 -0.1203
 2166SOL    HW117957   0.177   4.444   4.021  0.4426  0.3188 -0.0002
 2166SOL    HW217958   0.267   4.330   4.026 -2.2877  0.1723 -0.3011
 2167SOL     OW17959   1.402   2.939   6.683 -0.2888 -0.2170 -0.7710
 2167SOL    HW117960   1.431   2.922   6.772 -0.9859 -1.0169 -0.6943
 2167SOL    HW217961   1.307   2.942   6.695 -0.3095  3.5090 -1.7901
 2168SOL     OW17962   3.922   3.393  15.804 -0.3388  0.1429  1.1012
 2168SOL    HW117963   3.829   3.397  15.783 -0.4649 -1.2485  1.4354
 2168SOL    HW217964   3.945   3.307  15.838  0.6654  0.4037  1.0929
 2169SOL     OW17965   3.029   3.353   2.121  0.3351 -0.0110  0.0493
 2169SOL    HW117966   3.011   3.398   2.038 -1.3796 -0.5502  0.1297
 2169SOL    HW217967   3.104   3.395   2.163 -0.5591 -0.7993  2.4392
 2170SOL     OW17968   2.422   2.549   3.199  0.0838  0.3966 -0.0934
 2170SOL    HW117969   2.463   2.532   3.114  0.2365  0.8408 -0.1127
 2170SOL    HW217970   2.331   2.551   3.169 -0.9643 -0.6763  3.0823
 2171SOL     OW17971   1.639   3.514  14.234 -0.6220 -0.0040  0.4858
 2171SOL    HW117972   1.658   3.459  14.157 -0.2432 -0.4127  0.8726
 2171SOL    HW217973   1.546   3.531  14.226 -0.5476  0.2323  0.0987
 2172SOL     OW17974   0.703   3.402   3.429 -0.7310 -0.5294  0.1348
 2172SOL    HW117975   0.742   3.332   3.377  0.0860 -1.0267  1.4379
 2172SOL    HW217976   0.756   3.398   3.509 -0.9067 -0.8206  0.2351
 2173SOL     OW17977   4.470   2.819   9.038  0.1175  0.4322  0.2986
 2173SOL    HW117978   4.555   2.784   9.009 -0.0803 -0.7154  1.1164
 2173SOL    HW217979   4.496   2.821   9.130 -1.8250 -2.6240  0.8942
 2174SOL     OW17980   3.749   3.379   2.718 -0.2717 -0.1127 -0.3439
 2174SOL    HW117981   3.778   3.358   2.807 -1.0618  2.2874  0.4806
 2174SOL    HW217982   3.790   3.465   2.709  0.5980 -0.3814  1.0408
 2175SOL     OW17983   3.048   1.966  14.100  0.1344  0.5365  0.0304
 2175SOL    HW117984   3.029   1.994  14.010 -2.3747 -0.9959  0.1054
 2175SOL    HW217985   2.961   1.942  14.132  1.0514 -0.1572  1.9932
 2176SOL     OW17986   2.883   4.301   6.606  0.1899  0.1859 -0.0032
 2176SOL    HW117987   2.854   4.331   6.692 -0.4582 -1.7143  0.4334
 2176SOL    HW217988   2.975   4.327   6.610  0.3413 -0.3916  0.2474
 2177SOL     OW17989   1.552   2.844   2.296 -0.0546  0.2670 -0.0781
 2177SOL    HW117990   1.608   2.868   2.370  1.5470  0.5316 -1.3763
 2177SOL    HW217991   1.526   2.933   2.272  1.1121  1.2285  2.1933
 2178SOL     OW17992   3.381   1.331  15.121  0.2317  0.5003 -0.3273
 2178SOL    HW117993   3.295   1.353  15.085 -0.4764 -1.3039  0.2474
 2178SOL    HW217994   3.430   1.312  15.041 -0.0897  1.2602 -0.7034
 2179SOL     OW17995   0.561   1.336   4.897  0.2935  0.2260 -0.0192
 2179SOL    HW117996   0.584   1.375   4.813  0.5348 -1.3753 -0.6981
 2179SOL    HW217997   0.645   1.307   4.932  0.3388 -0.1631 -0.4459
 2180SOL     OW17998   1.612   1.770   1.057  0.2648  0.2302 -0.6490
 2180SOL    HW117999   1.629   1.678   1.079 -2.5727  0.3600  2.1159
 2180SOL    HW218000   1.517   1.771   1.053  0.2403  2.4824  0.2279
 2181SOL     OW18001   2.459   0.870  12.525  0.0725  0.0937  0.6557
 2181SOL    HW118002   2.488   0.860  12.434  1.8363 -1.8669  1.4185
 2181SOL    HW218003   2.478   0.783  12.562 -1.7144  0.2107  1.8301
 2182SOL     OW18004   0.682   1.279   7.544  0.5564  0.5649 -0.1494
 2182SOL    HW118005   0.641   1.311   7.464 -0.7627 -0.6916  0.0246
 2182SOL    HW218006   0.651   1.341   7.609  1.2483  1.3419 -0.5571
 2183SOL     OW18007   3.910   3.799   9.051  0.4850 -0.0409  0.6340
 2183SOL    HW118008   3.904   3.889   9.019  0.2518 -1.3302 -2.9485
 2183SOL    HW218009   4.004   3.788   9.037  0.4200 -0.5265  0.5782
 2184SOL     OW18010   1.083   2.245   7.696  0.1900  0.6036 -0.2476
 2184SOL    HW118011   1.135   2.165   7.699 -2.8689 -1.3739 -0.4247
 2184SOL    HW218012   1.008   2.224   7.641  0.7375 -2.1442  0.0628
 2185SOL     OW18013   2.386   2.263   9.589 -0.6513  0.6895 -0.5011
 2185SOL    HW118014   2.481   2.261   9.603 -0.7242 -1.3144 -0.3331
 2185SOL    HW218015   2.349   2.265   9.678  1.1066 -2.3391  0.2974
 2186SOL     OW18016   4.540   3.848  14.931 -0.0942 -0.6031  0.0346
 2186SOL    HW118017   4.488   3.799  14.868 -0.6751  0.1833 -0.0878
 2186SOL    HW218018   4.609   3.892  14.881 -0.4583 -0.5156 -0.3891
 2187SOL     OW18019   3.453   2.762   1.296 -0.4093 -0.5617  0.4775
 2187SOL    HW118020   3.458   2.741   1.390 -0.8994  2.8638  1.2789
 2187SOL    HW218021   3.365   2.800   1.303 -0.4487 -0.5273 -0.2417
 2188SOL     OW18022   4.479   4.253   0.305  0.1448 -0.3882  0.2996
 2188SOL    HW118023   4.396   4.299   0.321  0.0951 -0.0572 -0.8716
 2188SOL    HW218024   4.463   4.217   0.218 -0.4668  0.5948  0.0069
 2189SOL     OW18025   4.648   1.786   5.007 -0.3177  0.4921 -0.1800
 2189SOL    HW118026   4.677   1.697   4.987  1.7288  1.0273  0.4162
 2189SOL    HW218027   4.640   1.823   4.919  0.3237  1.7307  0.2822
 2190SOL     OW18028   2.601   2.107   2.231 -0.2527 -0.1102  0.0755
 2190SOL    HW118029   2.696   2.108   2.240 -0.0255  1.3684 -2.6455
 2190SOL    HW218030   2.591   2.202   2.232 -1.6304 -0.2345 -0.9464
 2191SOL     OW18031   3.622   3.370   4.615  0.5054 -0.2124  0.2877
 2191SOL    HW118032   3.704   3.321   4.621  1.2077  0.7513 -1.1836
 2191SOL    HW218033   3.643   3.429   4.688 -1.2626  0.7269  0.0318
 2192SOL     OW18034   0.446   0.408   1.906 -0.3513 -0.8375 -0.6216
 2192SOL    HW118035   0.407   0.367   1.829 -0.8671 -0.7454 -0.4098
 2192SOL    HW218036   0.367   0.399   1.959  0.6993  2.6263  1.5528
 2193SOL     OW18037   3.145   4.683   7.667  0.6095 -0.0881  0.1432
 2193SOL    HW118038   3.063   4.647   7.702 -0.1714  0.1581 -1.4172
 2193SOL    HW218039   3.106   0.017   7.602  2.2246 -0.6113 -1.2909
 2194SOL     OW18040   0.612   0.078   9.093 -0.5895  0.0604 -0.2178
 2194SOL    HW118041   0.638   4.714   9.122  0.2069  0.7857  1.2855
 2194SOL    HW218042   0.694   0.116   9.126 -1.6311  1.1464  1.1016
 2195SOL     OW18043   0.817   0.025   8.371 -0.9082  0.6131  0.5054
 2195SOL    HW118044   0.836   0.118   8.378 -0.2269  0.3965  1.5423
 2195SOL    HW218045   0.728   0.019   8.338 -1.7588 -0.2788  3.0161
 2196SOL     OW18046   3.543   2.767   2.753  0.6905 -0.1104  0.1914
 2196SOL    HW118047   3.539   2.798   2.662  1.0239  0.3444  0.3300
 2196SOL    HW218048   3.542   2.857   2.785  1.5732 -0.2658  0.6737
 2197SOL     OW18049   2.730   1.510   2.524 -0.2599  0.7439 -0.2808
 2197SOL    HW118050   2.782   1.430   2.526 -0.8299  0.4092  1.3151
 2197SOL    HW218051   2.789   1.581   2.549  2.6521 -2.3095  1.4776
 2198SOL     OW18052   0.213   2.359   4.739 -0.3472 -0.4132  0.4050
 2198SOL    HW118053   0.303   2.360   4.706 -0.7362 -2.3856 -0.6931
 2198SOL    HW218054   0.225   2.412   4.817  1.2387  0.8929 -0.7065
 2199SOL     OW18055   2.924   0.208   0.037 -0.1842  0.6356  0.1366
 2199SOL    HW118056   2.899   0.258   0.115  1.8538 -0.5551  1.5320
 2199SOL    HW218057   3.019   0.213   0.047 -0.4546  3.7112  1.2004
 2200SOL     OW18058   2.766   1.814   5.940  0.2727 -0.0962 -0.1199
 2200SOL    HW118059   2.765   1.862   5.858 -0.9390 -2.4284 -1.4586
 2200SOL    HW218060   2.761   1.725   5.905  0.2714 -0.0515 -0.2324
 2201SOL     OW18061   1.479   1.045  12.623  0.6501  0.8751  0.1099
 2201SOL    HW118062   1.420   0.984  12.667 -1.6946  2.0432 -1.3428
 2201SOL    HW218063   1.552   1.046  12.684  0.9764  0.1998 -0.2715
 2202SOL     OW18064   0.128   4.347   4.360  0.0692  0.0053  0.3246
 2202SOL    HW118065   0.124   4.279   4.294 -0.0333  1.2222 -0.9284
 2202SOL    HW218066   0.170   4.299   4.432  1.7063 -0.4863 -0.9533
 2203SOL     OW18067   1.127   0.520   3.739  0.0804 -0.1797 -0.3168
 2203SOL    HW118068   1.178   0.570   3.676 -0.5467 -2.0496 -2.2837
 2203SOL    HW218069   1.059   0.480   3.685 -1.0025 -0.9835  1.5993
 2204SOL     OW18070   1.709   3.645   0.363  0.3124  0.0213 -0.3015
 2204SOL    HW118071   1.659   3.649   0.445  1.2486 -0.2102  0.2685
 2204SOL    HW218072   1.650   3.693   0.304  1.1451  0.3632 -0.8446
 2205SOL     OW18073   3.960   2.875   1.376 -0.6393  0.0568 -0.1535
 2205SOL    HW118074   3.975   2.854   1.468  0.8983 -0.0894 -0.4472
 2205SOL    HW218075   3.867   2.850   1.373 -0.9194  0.9210  1.3851
 2206SOL     OW18076   3.346   3.500  14.564 -0.8072 -0.0826  0.1779
 2206SOL    HW118077   3.330   3.485  14.657  0.5658 -1.1130  0.2478
 2206SOL    HW218078   3.319   3.592  14.560  1.6477  0.5051 -2.5444
 2207SOL     OW18079   1.197   1.361   3.846  0.3756 -0.8321 -0.3031
 2207SOL    HW118080   1.190   1.380   3.753 -1.0431 -0.7557 -0.1748
 2207SOL    HW218081   1.179   1.267   3.837 -0.1281 -0.9931  2.2477
 2208SOL     OW18082   0.411   3.961  15.379  0.1829  0.1575 -0.4852
 2208SOL    HW118083   0.499   3.929  15.360 -0.2400 -0.3646 -1.5460
 2208SOL    HW218084   0.429   4.038  15.433  1.5246 -0.2096 -0.4291
 2209SOL     OW18085   0.377   4.168   5.235 -0.3560 -0.0119  0.4354
 2209SOL    HW118086   0.320   4.109   5.186 -1.7125  0.6326  1.2581
 2209SOL    HW218087   0.338   4.160   5.322  0.5094 -3.2946  0.5445
 2210SOL     OW18088   2.688   0.911   7.200 -0.3827  0.2589  0.4129
 2210SOL    HW118089   2.741   0.840   7.235  0.5199  1.1039  0.7819
 2210SOL    HW218090   2.603   0.876   7.226  0.1511 -1.2548  0.1234
 2211SOL     OW18091   1.269   3.567   1.144 -0.4307  0.2549 -0.0161
 2211SOL    HW118092   1.193   3.593   1.195  0.1403  0.4816  0.7109
 2211SOL    HW218093   1.317   3.649   1.133  0.4210  0.1293  2.8388
 2212SOL     OW18094   4.549   1.250  14.901 -0.2687 -0.2008 -0.8519
 2212SOL    HW118095   4.537   1.325  14.843  0.0761  0.7691  0.3322
 2212SOL    HW218096   4.470   1.197  14.888 -0.3724 -0.3538  0.3946
 2213SOL     OW18097   3.389   2.806   5.922  0.0931  0.4486  0.0693
 2213SOL    HW118098   3.324   2.833   5.988 -0.2495 -0.7196  0.2081
 2213SOL    HW218099   3.469   2.803   5.975  0.5828  0.6002 -0.6691
 2214SOL     OW18100   0.149   1.338   6.264 -0.3006  0.2120 -1.1027
 2214SOL    HW118101   0.118   1.417   6.309 -0.6840  0.7962 -2.3960
 2214SOL    HW218102   0.115   1.342   6.175 -1.4744 -1.3207 -0.7093
 2215SOL     OW18103   2.399   2.943   1.737 -0.3449 -0.4714  0.1453
 2215SOL    HW118104   2.309   2.963   1.710 -0.8527 -1.1910  1.2830
 2215SOL    HW218105   2.443   2.923   1.655 -1.4522  1.3808 -0.9012
 2216SOL     OW18106   4.186   0.777  12.382  0.0462 -0.3717  0.4960
 2216SOL    HW118107   4.265   0.728  12.358 -1.2473 -0.6864 -3.1397
 2216SOL    HW218108   4.150   0.706  12.437  0.9068 -0.9971  0.2482
 2217SOL     OW18109   2.860   2.239   4.881 -0.1377 -0.2961 -0.4668
 2217SOL    HW118110   2.943   2.231   4.835  1.2963 -0.5714  2.1572
 2217SOL    HW218111   2.810   2.289   4.817 -0.7984 -0.8249 -0.3600
 2218SOL     OW18112   0.323   3.060  14.945  0.0666  0.0436  0.5153
 2218SOL    HW118113   0.302   2.967  14.957 -2.9667  0.6943  0.1222
 2218SOL    HW218114   0.377   3.060  14.866 -0.7303 -1.4373 -0.0340
 2219SOL     OW18115   1.743   2.100   6.503  0.0366  0.1036  0.4824
 2219SOL    HW118116   1.791   2.181   6.485  0.9961 -0.6267 -0.2021
 2219SOL    HW218117   1.801   2.040   6.456  0.4113  0.1232  0.9332
 2220SOL     OW18118   1.769   3.605   6.319 -0.2058 -0.3653  0.3814
 2220SOL    HW118119   1.818   3.605   6.401  0.3491 -0.7595  0.0515
 2220SOL    HW218120   1.789   3.519   6.283  1.7131 -0.2212  1.0843
 2221SOL     OW18121   2.708   1.045  14.473  0.9197  0.0239  0.4258
 2221SOL    HW118122   2.689   0.994  14.551 -0.3022  0.3049  0.3124
 2221SOL    HW218123   2.711   0.985  14.398 -1.9260  1.7379 -1.0938
 2222SOL     OW18124   4.688   3.672  12.331  0.0307  0.4218 -0.5785
 2222SOL    HW118125   4.643   3.672  12.415  0.6698 -0.1054 -0.2356
 2222SOL    HW218126   0.011   3.755  12.331  1.4319 -0.3741  1.1125
 2223SOL     OW18127   0.749   4.591   9.177  0.2709  0.4751  0.0647
 2223SOL    HW118128   0.826   4.598   9.234  0.1475 -1.4762  0.4718
 2223SOL    HW218129   0.729   4.498   9.185 -3.6486  1.3873  0.6221
 2224SOL     OW18130   1.240   2.617   6.376  0.2987 -0.6473 -0.1754
 2224SOL    HW118131   1.186   2.691   6.403  1.0385  0.4363 -1.6777
 2224SOL    HW218132   1.183   2.592   6.304  1.6938  2.2657 -2.2600
 2225SOL     OW18133   0.387   4.473   8.340  0.1688  0.6670 -0.0065
 2225SOL    HW118134   0.382   4.397   8.397  1.9578 -1.2183 -2.3464
 2225SOL    HW218135   0.394   4.423   8.258  1.4832  0.4203  0.2729
 2226SOL     OW18136   0.793   3.764   1.668  0.4137  0.0105 -0.1113
 2226SOL    HW118137   0.814   3.768   1.574 -2.3819  2.0284 -0.6466
 2226SOL    HW218138   0.757   3.852   1.682  0.5203  0.0755 -0.2452
 2227SOL     OW18139   3.624   2.225   9.894  0.4620  0.8454  0.3278
 2227SOL    HW118140   3.583   2.140   9.911 -1.4069  1.4602 -1.1068
 2227SOL    HW218141   3.555   2.282   9.860 -1.1646 -0.9084  0.7022
 2228SOL     OW18142   4.290   1.459   7.666 -0.4151  0.2625 -0.5977
 2228SOL    HW118143   4.223   1.525   7.686 -0.7225 -0.1081 -0.4063
 2228SOL    HW218144   4.244   1.377   7.646  0.7265 -0.8240  1.2925
 2229SOL     OW18145   0.834   0.851   6.045 -0.0180  0.5541  0.3308
 2229SOL    HW118146   0.850   0.930   5.994 -2.8706  1.5273  0.9964
 2229SOL    HW218147   0.740   0.861   6.055 -0.0423  1.1423 -0.5221
 2230SOL     OW18148   4.238   0.904  15.654  0.1451 -0.5716  0.3981
 2230SOL    HW118149   4.247   0.892  15.559 -0.1978 -1.4085  0.4712
 2230SOL    HW218150   4.300   0.838  15.683 -4.0465 -3.4764  2.8136
 2231SOL     OW18151   0.970   1.902   9.367  0.2229  0.1477  0.2119
 2231SOL    HW118152   0.881   1.880   9.338  1.2539 -1.0212 -1.9699
 2231SOL    HW218153   0.937   1.964   9.433 -1.5777 -0.0263 -0.5024
 2232SOL     OW18154   2.388   4.489  14.668 -0.0812 -0.1625 -0.1626
 2232SOL    HW118155   2.431   4.503  14.584 -1.5471 -1.7443 -1.1742
 2232SOL    HW218156   2.318   4.426  14.649  0.1332 -1.0058  1.8029
 2233SOL     OW18157   0.962   0.132   5.158  0.4381 -0.1289 -0.6666
 2233SOL    HW118158   0.885   0.114   5.212  2.1043  0.6868  1.9779
 2233SOL    HW218159   0.919   0.158   5.076 -0.5131  0.8955  0.1581
 2234SOL     OW18160   0.278   1.383   1.269  0.7706  0.1876  0.1623
 2234SOL    HW118161   0.265   1.478   1.276  0.2407  0.1772 -0.5991
 2234SOL    HW218162   0.329   1.369   1.348  1.1257  0.5867  0.0018
 2235SOL     OW18163   3.379   1.902  11.539  0.2680 -0.3390  0.0163
 2235SOL    HW118164   3.430   1.842  11.594  0.7271  0.0084 -0.0306
 2235SOL    HW218165   3.430   1.983  11.547 -0.7347  0.2189  0.6526
 2236SOL     OW18166   4.001   1.335   2.111 -0.4240  0.3058 -0.3243
 2236SOL    HW118167   3.969   1.421   2.138 -1.1638  0.7395 -2.5259
 2236SOL    HW218168   3.995   1.278   2.188 -0.4259  0.8499  0.0743
 2237SOL     OW18169   2.154   1.987  14.881 -0.1107 -0.2996  0.6281
 2237SOL    HW118170   2.113   1.945  14.805  2.4040  2.2776 -2.1702
 2237SOL    HW218171   2.125   2.076  14.859  2.7641  0.4833  0.0300
 2238SOL     OW18172   3.000   2.969   4.917 -0.1366  0.3142 -0.2715
 2238SOL    HW118173   3.014   2.883   4.957  3.5297  0.4349 -1.3604
 2238SOL    HW218174   2.954   2.946   4.836 -0.3937  0.6961 -0.2354
 2239SOL     OW18175   3.591   1.911   9.885 -0.4282  0.2357  0.0534
 2239SOL    HW118176   3.625   1.874   9.804  1.5798  0.4203  0.8203
 2239SOL    HW218177   3.540   1.835   9.912  1.0474 -0.7555  0.0425
 2240SOL     OW18178   1.129   3.905   1.049 -0.0130 -0.4664 -0.5019
 2240SOL    HW118179   1.106   3.935   1.137 -1.9530 -2.2109 -0.4024
 2240SOL    HW218180   1.051   3.856   1.023  0.1247 -1.0527  0.1874
 2241SOL     OW18181   3.313   0.209  16.733  0.0208  0.0260 -0.2100
 2241SOL    HW118182   3.273   0.136  16.684  0.5667  0.2248 -0.9627
 2241SOL    HW218183   3.304   0.276  16.665 -2.0521 -2.3277 -2.2819
 2242SOL     OW18184   2.495   3.383   1.532  0.3992  0.2540 -0.8501
 2242SOL    HW118185   2.482   3.297   1.491 -0.6263  0.9155 -1.9473
 2242SOL    HW218186   2.557   3.360   1.601  0.6845  0.3306 -1.0831
 2243SOL     OW18187   0.886   0.365   7.272  0.5057 -0.0584 -0.6607
 2243SOL    HW118188   0.807   0.320   7.242 -1.7292  3.4871 -0.0316
 2243SOL    HW218189   0.875   0.450   7.230 -0.0651  0.7845  1.2082
 2244SOL     OW18190   3.475   4.342   2.339 -0.1287  0.4833  0.3248
 2244SOL    HW118191   3.542   4.294   2.389  0.7332  0.2409 -1.0654
 2244SOL    HW218192   3.490   4.435   2.355  1.6368  0.1669  0.5842
 2245SOL     OW18193   4.651   2.752   2.161 -1.0369 -0.2047 -0.3799
 2245SOL    HW118194   4.563   2.743   2.198  0.5721 -0.3897  3.3754
 2245SOL    HW218195   4.657   2.676   2.104 -1.5234  1.0596 -2.1224
 2246SOL     OW18196   3.667   1.027   1.154 -0.1532 -0.1595  0.4024
 2246SOL    HW118197   3.650   1.113   1.193 -1.2470 -1.0464  1.8911
 2246SOL    HW218198   3.663   1.043   1.060 -1.1691  0.6613  0.5876
 2247SOL     OW18199   3.351   1.041   3.828 -0.5423  0.4507 -0.7067
 2247SOL    HW118200   3.291   1.064   3.899  1.0940 -1.9273  1.4303
 2247SOL    HW218201   3.364   0.946   3.833  2.8170  0.9078 -0.9128
 2248SOL     OW18202   2.913   2.338  11.893  0.2385  0.2670  0.0500
 2248SOL    HW118203   2.983   2.290  11.849  0.3300 -0.9277  1.5056
 2248SOL    HW218204   2.906   2.413  11.833 -0.6374  0.3156  0.2212
 2249SOL     OW18205   0.607   3.299  12.687 -0.4689  0.4352 -0.0720
 2249SOL    HW118206   0.647   3.332  12.606  0.4351  2.2912  1.1359
 2249SOL    HW218207   0.522   3.343  12.678 -0.3605  0.6237 -0.1723
 2250SOL     OW18208   1.420   0.343  11.001 -0.0740  0.1902 -0.1143
 2250SOL    HW118209   1.354   0.285  11.037 -0.3194 -0.7885 -2.1142
 2250SOL    HW218210   1.444   0.409  11.066 -0.8890  0.7089 -0.3451
 2251SOL     OW18211   2.095   2.475   9.824 -0.6473 -0.9004  0.8410
 2251SOL    HW118212   2.102   2.380   9.813 -2.1092 -0.5866 -2.6900
 2251SOL    HW218213   2.182   2.491   9.787 -0.8163  0.4556  1.0177
 2252SOL     OW18214   4.195   2.362  17.669  0.1771  0.4125  0.1149
 2252SOL    HW118215   4.185   2.267  17.673 -0.5672  0.3679 -3.0051
 2252SOL    HW218216   4.143   2.380  17.591 -0.7885 -3.0670 -0.0749
 2253SOL     OW18217   3.230   4.199   2.307  0.0494 -0.0818  0.7494
 2253SOL    HW118218   3.268   4.118   2.274  1.8128  0.8757  0.3957
 2253SOL    HW218219   3.310   4.251   2.306  0.5365 -0.8548 -0.9134
 2254SOL     OW18220   4.368   1.538   5.913  0.3389  0.0075  0.1562
 2254SOL    HW118221   4.310   1.488   5.970 -1.1339 -1.0734 -2.2452
 2254SOL    HW218222   4.353   1.509   5.823  0.0032  1.3216 -0.2099
 2255SOL     OW18223   2.455   1.873  13.515 -0.1756 -0.5588 -0.6558
 2255SOL    HW118224   2.368   1.884  13.551 -0.0182 -1.7312  0.0813
 2255SOL    HW218225   2.474   1.940  13.449 -2.6886  1.4712  0.7202
 2256SOL     OW18226   2.049   2.074   3.400  0.0110  0.0806 -0.5974
 2256SOL    HW118227   1.993   2.140   3.441  1.9378 -0.1357  2.4032
 2256SOL    HW218228   2.113   2.062   3.471 -0.4886 -0.6245 -0.2687
 2257SOL     OW18229   0.843   0.041  12.890 -0.3994 -0.2445  0.2176
 2257SOL    HW118230   0.919   4.711  12.914  0.1826  0.5954  0.2602
 2257SOL    HW218231   0.786   0.020  12.964  0.1687 -1.1456  0.4145
 2258SOL     OW18232   2.130   0.361  15.397 -0.1459  0.4118 -0.0077
 2258SOL    HW118233   2.163   0.408  15.320 -0.3975  0.0337 -0.3453
 2258SOL    HW218234   2.036   0.372  15.385 -0.4198  0.2476  2.1009
 2259SOL     OW18235   0.899   3.678   3.794 -0.3928 -0.0792 -0.7810
 2259SOL    HW118236   0.899   3.767   3.759  1.6093  0.1860 -0.1721
 2259SOL    HW218237   0.975   3.686   3.853 -1.1552 -1.6712  0.3942
 2260SOL     OW18238   1.079   3.402   0.990 -0.3577  0.0304 -0.5360
 2260SOL    HW118239   1.125   3.484   1.007  0.0446 -0.3539  0.1835
 2260SOL    HW218240   1.113   3.383   0.903 -2.8101 -1.2416 -1.2199
 2261SOL     OW18241   2.053   3.784   2.395 -0.1827  0.2467  0.3993
 2261SOL    HW118242   2.135   3.802   2.351  0.4089 -3.0261  0.2137
 2261SOL    HW218243   2.035   3.868   2.438 -1.4343 -0.0479  0.4519
 2262SOL     OW18244   0.801   0.793   6.539 -0.3560 -0.0047 -0.5428
 2262SOL    HW118245   0.767   0.822   6.454 -2.8349 -1.5942 -0.0780
 2262SOL    HW218246   0.871   0.859   6.539  0.7779 -1.2174 -0.8149
 2263SOL     OW18247   3.088   4.050  11.259  0.4760  0.5758  0.2351
 2263SOL    HW118248   3.080   4.055  11.354 -0.9158  0.3179  0.1278
 2263SOL    HW218249   3.159   3.990  11.238  0.4900  0.7586 -0.2548
 2264SOL     OW18250   4.274   2.747   2.455 -0.4222 -0.3583  0.0295
 2264SOL    HW118251   4.270   2.664   2.503 -1.4461 -0.3661 -0.0691
 2264SOL    HW218252   4.319   2.731   2.372 -0.2523  2.1767 -0.3691
 2265SOL     OW18253   1.530   2.498   6.327 -0.3929  0.0898  0.0333
 2265SOL    HW118254   1.435   2.509   6.340 -0.7497 -1.3029 -1.3743
 2265SOL    HW218255   1.532   2.408   6.293  0.6087 -0.1696  0.7964
 2266SOL     OW18256   0.120   1.515   4.901  0.0209 -0.0299  0.3400
 2266SOL    HW118257   0.113   1.421   4.917 -0.3256  0.0744  0.8038
 2266SOL    HW218258   0.196   1.532   4.957 -0.9947  1.5779  1.2296
 2267SOL     OW18259   1.432   4.068   1.083 -0.4789 -0.3706  0.5652
 2267SOL    HW118260   1.434   4.163   1.097 -0.8131 -0.4061  0.8482
 2267SOL    HW218261   1.451   4.079   0.989  2.0176 -0.6733  1.0298
 2268SOL     OW18262   4.612   1.589   4.506  0.2672  0.2017 -0.4295
 2268SOL    HW118263   4.629   1.645   4.431  0.4312  0.5708 -0.1203
 2268SOL    HW218264   4.539   1.533   4.479  0.3696  0.4041 -1.1266
 2269SOL     OW18265   0.373   2.955   8.578  0.9009  0.6468  0.3648
 2269SOL    HW118266   0.279   2.943   8.595  0.7915  1.2523  0.1768
 2269SOL    HW218267   0.391   3.009   8.655 -1.6025  0.5956  0.9825
 2270SOL     OW18268   2.977   3.699   5.275  0.4290 -0.2770 -0.0548
 2270SOL    HW118269   3.059   3.732   5.236 -2.0816  4.3971 -1.3726
 2270SOL    HW218270   2.968   3.767   5.341 -2.1979  0.9305 -1.6448
 2271SOL     OW18271   2.721   1.474   3.287 -0.0126  0.1178 -0.6856
 2271SOL    HW118272   2.767   1.438   3.211  2.1487  0.6709  0.3440
 2271SOL    HW218273   2.683   1.394   3.321  0.4770  0.7843  1.4492
 2272SOL     OW18274   2.660   2.793   4.576 -0.1084  0.5407 -0.1229
 2272SOL    HW118275   2.664   2.835   4.662 -0.0520  1.9160 -0.7857
 2272SOL    HW218276   2.754   2.784   4.558 -0.2325 -0.8335 -0.1055
 2273SOL     OW18277   0.160   4.300   3.165 -0.0377  0.3430 -0.1493
 2273SOL    HW118278   0.252   4.275   3.158 -0.3452 -1.2196  1.3878
 2273SOL    HW218279   0.121   4.213   3.178 -0.4688  0.8400  1.7619
 2274SOL     OW18280   3.191   2.803   6.870  0.4541  0.3002 -0.3993
 2274SOL    HW118281   3.098   2.822   6.863  0.0188 -1.7168 -0.0514
 2274SOL    HW218282   3.215   2.852   6.792 -2.3860  0.4055 -1.1871
 2275SOL     OW18283   0.041   0.567   7.573 -0.1327  0.2069 -0.1354
 2275SOL    HW118284   0.051   0.509   7.648  0.4857 -0.0917 -0.4467
 2275SOL    HW218285   0.127   0.563   7.531 -1.0851 -0.3285 -2.0867
 2276SOL     OW18286   4.609   1.865   7.700 -0.3694  0.0058  0.2867
 2276SOL    HW118287   4.580   1.777   7.677 -0.3652 -0.5707  2.5599
 2276SOL    HW218288   4.704   1.861   7.705 -0.2544  1.3805 -0.6850
 2277SOL     OW18289   1.001   3.942  17.555 -0.5152 -0.1622  0.3203
 2277SOL    HW118290   1.076   3.903  17.511 -0.3807  2.1031 -1.5019
 2277SOL    HW218291   0.963   3.874  17.611 -1.5995  0.3352  0.1964
 2278SOL     OW18292   3.214   3.539   1.899  0.4536  0.3566  0.4223
 2278SOL    HW118293   3.304   3.546   1.930  0.5298  1.6785 -0.0978
 2278SOL    HW218294   3.217   3.452   1.859  0.9703  1.0295 -1.0070
 2279SOL     OW18295   2.762   1.910   5.410  0.6275  0.1371  0.3838
 2279SOL    HW118296   2.803   1.980   5.359 -1.7174 -0.8075 -2.7924
 2279SOL    HW218297   2.691   1.881   5.353 -0.4901  0.5757  1.5568
 2280SOL     OW18298   2.878   2.305  14.110 -0.2146  0.2236 -0.1720
 2280SOL    HW118299   2.846   2.222  14.073 -0.6581  0.1304  0.4116
 2280SOL    HW218300   2.916   2.347  14.033  1.0227  0.5357  0.6033
 2281SOL     OW18301   1.405   0.470   4.148 -0.1593 -0.3005  0.0467
 2281SOL    HW118302   1.339   0.432   4.206  0.0170 -0.9790 -0.1905
 2281SOL    HW218303   1.381   0.450   4.058  1.0272 -1.8868  0.0770
 2282SOL     OW18304   0.625   2.937  16.020  0.2726  0.1984 -0.3651
 2282SOL    HW118305   0.654   2.919  15.931 -0.3236 -0.6216 -0.3943
 2282SOL    HW218306   0.570   2.860  16.038  1.4780 -0.4584  0.5219
 2283SOL     OW18307   2.266   0.206   1.210 -0.6798  0.1740  0.1304
 2283SOL    HW118308   2.260   0.295   1.244 -1.3138  0.5835 -1.0593
 2283SOL    HW218309   2.334   0.171   1.268 -0.2146 -1.1720 -1.2369
 2284SOL     OW18310   1.405   4.056   7.025 -0.8162 -0.5255  0.5970
 2284SOL    HW118311   1.466   4.129   7.035 -0.2171 -0.8904 -0.2829
 2284SOL    HW218312   1.453   4.004   6.960 -1.9780  1.3553 -1.8058
 2285SOL     OW18313   0.210   1.275   4.422 -0.0674  0.4098 -0.6909
 2285SOL    HW118314   0.302   1.279   4.395 -0.7858 -0.1224 -3.2628
 2285SOL    HW218315   0.177   1.244   4.337  2.6304 -1.4679 -1.0613
 2286SOL     OW18316   0.820   2.879   9.052  0.8641  0.1007  0.0067
 2286SOL    HW118317   0.763   2.860   8.978 -0.9511  1.5363  1.0472
 2286SOL    HW218318   0.910   2.859   9.027  0.0016 -2.3140 -1.1501
 2287SOL     OW18319   2.705   2.933  17.436  0.1484  0.2785 -0.0862
 2287SOL    HW118320   2.692   2.883  17.517  0.8783  0.6393  0.2541
 2287SOL    HW218321   2.676   2.863  17.377 -0.8815  1.4173 -0.9280
 2288SOL     OW18322   0.825   0.727   7.332  0.5955 -0.0205 -0.1336
 2288SOL    HW118323   0.798   0.661   7.395  0.2563  2.2095  2.0521
 2288SOL    HW218324   0.891   0.775   7.383  0.0968  1.3967 -0.8156
 2289SOL     OW18325   2.302   4.220  11.138  0.7381  0.0730  0.2402
 2289SOL    HW118326   2.315   4.314  11.122  3.1807  0.0526  2.1925
 2289SOL    HW218327   2.383   4.178  11.111 -0.7178 -1.9120 -1.0569
 2290SOL     OW18328   4.275   4.245   6.827  0.1661  0.4229  0.3137
 2290SOL    HW118329   4.360   4.217   6.860  0.6992 -0.5949 -1.9603
 2290SOL    HW218330   4.301   4.245   6.735  0.2889 -0.5542  0.3470
 2291SOL     OW18331   2.830   2.747   8.792 -0.2050  0.3503  0.1972
 2291SOL    HW118332   2.752   2.778   8.748  0.6488  1.6161 -0.4311
 2291SOL    HW218333   2.863   2.829   8.829  3.0700 -0.2099 -1.4952
 2292SOL     OW18334   0.981   1.429  12.725  0.1161  0.1406 -0.1187
 2292SOL    HW118335   1.041   1.370  12.679 -0.3310  0.3220 -0.9433
 2292SOL    HW218336   1.041   1.488  12.769  1.0942  0.0213 -1.2995
 2293SOL     OW18337   4.086   3.009   1.758  0.3079 -0.2708  0.4472
 2293SOL    HW118338   4.031   2.951   1.706  0.2534  0.3076 -0.1445
 2293SOL    HW218339   4.164   2.953   1.757  0.4594 -0.0433 -0.4448
 2294SOL     OW18340   1.524   2.804   4.628  0.2579  0.3764 -0.3770
 2294SOL    HW118341   1.593   2.745   4.601 -1.2366 -1.1404 -0.9114
 2294SOL    HW218342   1.523   2.868   4.557 -2.2418  0.6059 -0.1465
 2295SOL     OW18343   3.640   4.267   5.862 -0.2735  0.4554 -0.0207
 2295SOL    HW118344   3.666   4.341   5.916 -2.1951  2.8229 -2.3625
 2295SOL    HW218345   3.570   4.220   5.908 -1.2063  0.4151 -1.4725
 2296SOL     OW18346   3.363   3.450  16.869  0.4680 -0.2949 -0.0515
 2296SOL    HW118347   3.411   3.492  16.798  0.2220 -1.4271 -0.8815
 2296SOL    HW218348   3.361   3.520  16.935 -1.0793 -0.3226 -0.0728
 2297SOL     OW18349   4.638   1.013  11.390  0.8202  0.3847 -0.1445
 2297SOL    HW118350   4.709   1.026  11.327  1.3690 -0.7735  0.2244
 2297SOL    HW218351   4.646   1.096  11.438 -0.2963 -1.1751  2.7389
 2298SOL     OW18352   0.012   3.123  15.134 -0.0951 -0.1713 -0.6271
 2298SOL    HW118353   4.717   3.033  15.108  0.4310 -0.0773 -1.3249
 2298SOL    HW218354   4.655   3.164  15.103  1.1704  3.5483  1.0468
 2299SOL     OW18355   0.476   3.759   2.581  0.2870 -0.1999 -0.1271
 2299SOL    HW118356   0.416   3.771   2.506 -1.5689 -1.0233  1.2214
 2299SOL    HW218357   0.505   3.668   2.574  0.9591  0.1667 -2.0209
 2300SOL     OW18358   1.599   0.975   4.173  0.1524  0.4982  0.1780
 2300SOL    HW118359   1.559   0.990   4.087  0.0983  0.0338  0.1226
 2300SOL    HW218360   1.520   0.950   4.221  0.4692 -2.0047 -0.6138
 2301SOL     OW18361   0.526   4.447   2.724  0.0580 -0.0983  0.7369
 2301SOL    HW118362   0.509   4.538   2.699 -1.7011 -0.2714  1.3696
 2301SOL    HW218363   0.495   4.399   2.648  2.5103 -0.0202 -0.3443
 2302SOL     OW18364   1.714   2.895   3.774  0.2316 -0.0633 -0.3506
 2302SOL    HW118365   1.693   2.878   3.866 -2.1693 -0.1268 -0.9199
 2302SOL    HW218366   1.679   2.825   3.719  0.7819 -0.1947 -0.5357
 2303SOL     OW18367   3.376   2.230   8.622  0.2564 -0.1649 -0.4118
 2303SOL    HW118368   3.366   2.169   8.695  0.1753  1.2698  0.7799
 2303SOL    HW218369   3.287   2.263   8.633  0.6768  0.9162 -0.2583
 2304SOL     OW18370   0.890   0.596   8.306  0.1711 -0.0853  0.2562
 2304SOL    HW118371   0.835   0.567   8.378  0.5896 -0.1232  0.5575
 2304SOL    HW218372   0.931   0.665   8.357  0.7639  0.6323 -1.1893
 2305SOL     OW18373   4.059   1.846   7.332  0.4827  0.5730  0.3531
 2305SOL    HW118374   4.151   1.872   7.323  1.1286 -1.4531  1.0362
 2305SOL    HW218375   4.051   1.865   7.426 -0.0932 -0.7676  0.5749
 2306SOL     OW18376   2.721   2.247  15.534  0.2215  0.8191  0.5753
 2306SOL    HW118377   2.812   2.217  15.530 -0.7159 -2.0011  0.6472
 2306SOL    HW218378   2.687   2.193  15.463  1.5706 -1.8802  1.9538
 2307SOL     OW18379   2.839   3.720   4.542 -0.4056  0.2322  0.3574
 2307SOL    HW118380   2.773   3.758   4.484  2.4703  2.3030 -1.5342
 2307SOL    HW218381   2.782   3.681   4.609 -0.6237  0.9149  0.5727
 2308SOL     OW18382   4.521   0.425   6.662  0.1907 -0.2879  0.4415
 2308SOL    HW118383   4.510   0.477   6.583 -0.7812 -1.9587 -0.5344
 2308SOL    HW218384   4.437   0.448   6.702 -0.9200  0.3591 -2.2522
 2309SOL     OW18385   0.390   0.391   0.469 -0.3374  0.1206 -1.2854
 2309SOL    HW118386   0.385   0.476   0.513 -1.6124 -0.3638 -0.4861
 2309SOL    HW218387   0.390   0.407   0.375  1.5702  2.5490 -0.8644
 2310SOL     OW18388   2.444   4.403  15.666  0.0376  0.0692  0.1515
 2310SOL    HW118389   2.350   4.384  15.657 -0.2344 -0.2332  3.5536
 2310SOL    HW218390   2.471   4.442  15.583  1.8936 -2.7536 -0.5719
 2311SOL     OW18391   1.051   0.010   4.046 -0.4846 -0.1871 -0.0715
 2311SOL    HW118392   1.007   0.064   3.980 -0.9414  2.1136  2.1287
 2311SOL    HW218393   1.118   4.692   3.992 -1.0837  0.8979 -1.6704
 2312SOL     OW18394   2.539   3.210  14.218  0.7139  0.5262  0.2828
 2312SOL    HW118395   2.519   3.156  14.294  2.7390  1.2225  1.3302
 2312SOL    HW218396   2.635   3.203  14.227  0.5391 -0.6678  1.1239
 2313SOL     OW18397   4.347   3.637  12.427  0.0799 -0.3555  0.8599
 2313SOL    HW118398   4.301   3.564  12.467  1.5937 -1.4101  0.6828
 2313SOL    HW218399   4.431   3.639  12.472 -0.0872  0.6656  1.1239
 2314SOL     OW18400   4.505   1.581   3.827  0.1804  0.5180  0.2219
 2314SOL    HW118401   4.498   1.672   3.854 -0.9305  0.3715  0.4636
 2314SOL    HW218402   4.423   1.538   3.852 -1.2828  1.6380 -2.6772
 2315SOL     OW18403   2.149   3.967   1.859  0.0117 -0.5279  0.1298
 2315SOL    HW118404   2.093   3.895   1.829 -3.2568  1.6175  1.0900
 2315SOL    HW218405   2.108   4.047   1.828  0.7493 -0.5201 -0.8253
 2316SOL     OW18406   4.126   3.801  11.849  0.4153  0.4242  0.3119
 2316SOL    HW118407   4.145   3.790  11.756 -0.6538  0.8145  0.0434
 2316SOL    HW218408   4.208   3.828  11.888  0.8465 -0.1182 -0.2216
 2317SOL     OW18409   4.100   3.893   8.706 -0.0163 -0.4827  0.2711
 2317SOL    HW118410   4.135   3.952   8.639  1.4313 -0.9411  0.6191
 2317SOL    HW218411   4.162   3.908   8.777  0.6043  0.8440 -0.5591
 2318SOL     OW18412   2.278   1.528   2.264  0.3052  0.0136 -0.2802
 2318SOL    HW118413   2.368   1.561   2.259 -0.3826  1.4247 -3.4693
 2318SOL    HW218414   2.230   1.599   2.221 -0.5000 -1.0458 -1.1155
 2319SOL     OW18415   0.080   1.716  10.517  0.3499  0.2743 -0.5394
 2319SOL    HW118416   0.066   1.628  10.553 -0.0557  0.8444  0.6907
 2319SOL    HW218417   0.003   1.762  10.550  0.0025 -0.6587 -0.0441
 2320SOL     OW18418   3.207   4.640  16.906  0.0268 -0.0768 -0.0495
 2320SOL    HW118419   3.225   4.697  16.981  1.3729 -0.0398 -0.3841
 2320SOL    HW218420   3.199   4.554  16.947 -0.0643 -1.0298 -2.0906
 2321SOL     OW18421   1.329   3.166   4.438 -0.3065  0.0973  0.4483
 2321SOL    HW118422   1.395   3.160   4.507 -0.4122 -3.2422  0.2481
 2321SOL    HW218423   1.279   3.246   4.456 -0.1457  0.5675 -1.2166
 2322SOL     OW18424   2.546   1.950   4.064 -0.0061  0.6511 -0.3986
 2322SOL    HW118425   2.635   1.928   4.037 -0.4648 -1.0240 -0.5938
 2322SOL    HW218426   2.536   2.020   4.000  2.5860  0.0859 -1.4056
 2323SOL     OW18427   4.377   2.367   7.186  0.0735 -0.4386 -0.6704
 2323SOL    HW118428   4.345   2.364   7.096 -0.7030 -0.0538 -0.4073
 2323SOL    HW218429   4.367   2.272   7.192 -1.8095 -0.0889  1.5548
 2324SOL     OW18430   0.752   0.900   2.231 -0.2054  0.0319 -0.1058
 2324SOL    HW118431   0.814   0.832   2.205 -0.2709  0.0294 -0.2546
 2324SOL    HW218432   0.735   0.872   2.321  2.6939  0.4633  0.5539
 2325SOL     OW18433   1.911   3.932   9.873  0.4005  0.2092  0.5196
 2325SOL    HW118434   1.918   4.023   9.900 -1.0083  0.6722 -0.6797
 2325SOL    HW218435   2.001   3.899   9.873  0.2297 -0.2996  2.7869
 2326SOL     OW18436   1.047   2.994   3.199  0.4705 -0.1373  0.0600
 2326SOL    HW118437   1.065   2.901   3.187  0.9199 -0.1390  0.7353
 2326SOL    HW218438   1.116   3.040   3.151 -1.5808  1.2394 -1.5608
 2327SOL     OW18439   3.548   3.204   8.176 -0.3009 -0.3380 -0.3912
 2327SOL    HW118440   3.582   3.208   8.266 -1.4919 -0.2256  0.0469
 2327SOL    HW218441   3.526   3.111   8.176  1.1432 -0.6821 -2.1723
 2328SOL     OW18442   2.413   2.650  16.433  0.2436 -0.5469 -0.3896
 2328SOL    HW118443   2.416   2.557  16.412  1.2871 -0.6406  0.1452
 2328SOL    HW218444   2.463   2.649  16.515  2.7620 -0.5486 -1.9159
 2329SOL     OW18445   1.527   0.568  16.260 -0.2561  0.4886 -0.4751
 2329SOL    HW118446   1.559   0.479  16.276 -0.0248  0.3462 -1.7493
 2329SOL    HW218447   1.552   0.599  16.173 -2.4230 -0.3045 -1.3987
 2330SOL     OW18448   2.471   4.447   7.562  0.2032 -0.1013 -0.1445
 2330SOL    HW118449   2.408   4.461   7.492  0.7837  1.3727 -0.3712
 2330SOL    HW218450   2.539   4.403   7.511  0.5205 -1.0905  1.1254
 2331SOL     OW18451   0.149   0.346   0.698 -0.4336  0.1525 -0.3232
 2331SOL    HW118452   0.075   0.321   0.753 -0.3419 -0.0168 -0.2762
 2331SOL    HW218453   0.160   0.436   0.728 -1.2799 -0.0019  0.4478
 2332SOL     OW18454   2.071   4.307   7.942 -0.5835  0.1235 -0.0402
 2332SOL    HW118455   1.998   4.359   7.910  0.3937  2.1954  1.0597
 2332SOL    HW218456   2.070   4.240   7.874  2.5105 -1.0178  1.0374
 2333SOL     OW18457   0.842   4.603  15.412  0.4887 -0.3473 -0.1332
 2333SOL    HW118458   0.877   4.640  15.331 -0.8622  3.6895  1.1537
 2333SOL    HW218459   0.767   4.658  15.431  0.6606 -0.4069  0.7016
 2334SOL     OW18460   0.786   0.358   2.057 -0.6970 -0.2907  0.5890
 2334SOL    HW118461   0.809   0.269   2.030 -0.0866  0.2214 -0.5988
 2334SOL    HW218462   0.847   0.381   2.127  0.9764  1.8515 -1.5421
 2335SOL     OW18463   0.747   3.260  13.149  0.2290 -0.3498  0.4342
 2335SOL    HW118464   0.809   3.195  13.115  1.0945 -0.2463  1.8299
 2335SOL    HW218465   0.800   3.316  13.206 -0.8753  1.3082 -0.1728
 2336SOL     OW18466   2.625   0.959  13.848 -0.0206 -0.6831  0.3068
 2336SOL    HW118467   2.589   0.958  13.759 -1.5424  3.4376  0.8964
 2336SOL    HW218468   2.548   0.991  13.894 -1.0077 -0.9636 -1.1646
 2337SOL     OW18469   1.796   4.224   4.280 -0.1166  0.7031  0.1179
 2337SOL    HW118470   1.784   4.305   4.229  3.7704  0.4738 -1.1664
 2337SOL    HW218471   1.824   4.260   4.363 -0.9774 -1.9467  1.5491
 2338SOL     OW18472   0.391   3.238   4.170  0.0182 -0.2543 -0.0046
 2338SOL    HW118473   0.424   3.321   4.204 -1.0156 -0.4974  1.5959
 2338SOL    HW218474   0.458   3.224   4.104  0.8434 -0.5160  0.8851
 2339SOL     OW18475   0.040   2.958   5.080 -0.4302  0.0461 -0.0095
 2339SOL    HW118476   0.021   2.931   5.170 -1.4394  0.1667 -0.1824
 2339SOL    HW218477   0.126   2.916   5.074 -0.3578  0.0551  0.9315
 2340SOL     OW18478   0.109   4.436   4.731 -0.3546  0.7813  0.3221
 2340SOL    HW118479   0.147   4.378   4.665  0.2042  1.2545  0.2267
 2340SOL    HW218480   0.162   4.410   4.807 -1.6455  1.8359  1.5939
 2341SOL     OW18481   1.113   1.424   9.560  0.0570 -0.5406  0.0382
 2341SOL    HW118482   1.045   1.374   9.515  0.5552 -0.0812 -1.2325
 2341SOL    HW218483   1.087   1.516   9.555 -0.3232 -0.7062 -1.0783
 2342SOL     OW18484   1.127   2.019  15.209  0.5679 -0.3776 -0.2285
 2342SOL    HW118485   1.099   2.100  15.167  1.4392  0.9176  1.6586
 2342SOL    HW218486   1.222   2.019  15.199  0.5325 -0.1287 -0.5244
 2343SOL     OW18487   2.328   2.028   7.455 -0.2214 -0.3806 -0.3740
 2343SOL    HW118488   2.353   1.969   7.384 -0.9239 -0.0146 -0.9294
 2343SOL    HW218489   2.249   1.983   7.484  0.0623 -1.4607 -1.2721
 2344SOL     OW18490   3.557   4.387   9.011  0.4024  0.2720  0.2659
 2344SOL    HW118491   3.500   4.330   9.063 -0.3633  0.9274  0.1453
 2344SOL    HW218492   3.495   4.401   8.940  1.2038  4.1151  0.3099
 2345SOL     OW18493   3.823   1.837   4.758 -0.3806 -0.8757  0.1994
 2345SOL    HW118494   3.836   1.874   4.846  2.8835  0.3427 -0.7985
 2345SOL    HW218495   3.847   1.909   4.700  2.5456 -1.0155  1.2581
 2346SOL     OW18496   3.215   1.445  10.272 -0.3192 -0.2016 -0.3196
 2346SOL    HW118497   3.223   1.538  10.253 -0.8601 -0.5053 -2.0381
 2346SOL    HW218498   3.204   1.401  10.187  2.5438 -0.4677 -0.5603
 2347SOL     OW18499   3.669   0.690  10.062 -0.2318  0.0962 -0.5715
 2347SOL    HW118500   3.722   0.620  10.024 -0.6449 -1.0260  0.9157
 2347SOL    HW218501   3.626   0.641  10.133  0.1870  0.0745 -0.3347
 2348SOL     OW18502   3.886   0.385   7.094  0.7700 -0.3485  0.1583
 2348SOL    HW118503   3.849   0.346   7.173  0.7159 -0.5044  0.0557
 2348SOL    HW218504   3.931   0.307   7.061  2.1143  0.6980 -0.4857
 2349SOL     OW18505   2.472   3.152   3.804  0.1449 -0.2471  0.6381
 2349SOL    HW118506   2.539   3.133   3.870  1.5987  2.4832 -0.0753
 2349SOL    HW218507   2.390   3.119   3.841 -0.2791  0.0345 -0.0614
 2350SOL     OW18508   2.597   0.921   0.081  0.5599  0.7994  0.0191
 2350SOL    HW118509   2.689   0.933   0.106  1.1890 -3.5542 -0.1243
 2350SOL    HW218510   2.568   1.004   0.044  0.4676  0.9504  0.4217
 2351SOL     OW18511   0.996   3.982  16.664  0.8222  0.6477 -0.2290
 2351SOL    HW118512   0.908   3.993  16.627  0.8711  0.8429 -0.2850
 2351SOL    HW218513   0.989   4.061  16.718  0.8623  0.3330  0.2416
 2352SOL     OW18514   3.756   2.283   8.340  0.8997 -0.3185  0.4912
 2352SOL    HW118515   3.758   2.211   8.402 -0.0756 -2.3023 -1.7957
 2352SOL    HW218516   3.681   2.334   8.372  1.3667  0.2809  0.6338
 2353SOL     OW18517   0.765   0.861   3.234 -0.1224  0.1003 -0.3295
 2353SOL    HW118518   0.848   0.813   3.234  0.0582  0.4172 -0.1131
 2353SOL    HW218519   0.728   0.824   3.154 -0.5624 -1.8488  0.7473
 2354SOL     OW18520   0.436   0.918   2.341 -0.4192 -0.5930 -0.3849
 2354SOL    HW118521   0.504   0.985   2.343  0.5875 -1.6264  0.4454
 2354SOL    HW218522   0.475   0.836   2.371  0.6518  0.3858  0.8943
 2355SOL     OW18523   3.045   4.716   4.245 -0.3667 -0.1105  0.0655
 2355SOL    HW118524   2.969   0.014   4.300 -1.1648 -3.6286  0.3707
 2355SOL    HW218525   3.115   0.003   4.309  0.4404 -0.4845 -0.7605
 2356SOL     OW18526   1.816   4.083   4.815 -0.0639 -0.0286  0.1020
 2356SOL    HW118527   1.883   4.111   4.877 -0.4535 -0.2278  0.6159
 2356SOL    HW218528   1.758   4.045   4.881  1.2703 -2.1355  0.0582
 2357SOL     OW18529   0.575   1.853  12.032  0.1445 -0.4757  0.0450
 2357SOL    HW118530   0.596   1.905  12.109 -0.5613 -0.8488  0.4914
 2357SOL    HW218531   0.638   1.881  11.966 -0.4016 -0.1767 -0.3482
 2358SOL     OW18532   1.713   2.645   4.535  0.4831 -0.4696  0.5566
 2358SOL    HW118533   1.800   2.649   4.573 -0.1095  1.9875  1.6804
 2358SOL    HW218534   1.740   2.644   4.443  2.2131  0.3241  1.0700
 2359SOL     OW18535   1.136   3.130   1.694 -0.2131  0.6007 -0.5672
 2359SOL    HW118536   1.076   3.199   1.666 -0.4397  0.2088 -1.0585
 2359SOL    HW218537   1.084   3.049   1.699  1.8078 -0.7131 -1.0535
 2360SOL     OW18538   3.035   2.861  15.995  0.0287 -0.4049 -0.5304
 2360SOL    HW118539   3.129   2.878  16.001  0.1702 -1.7509  1.1289
 2360SOL    HW218540   2.994   2.942  16.023  1.2843 -0.1364  0.5073
 2361SOL     OW18541   2.502   1.486   1.897 -0.0793 -0.5688 -0.5025
 2361SOL    HW118542   2.581   1.473   1.949 -0.0045 -3.4715 -1.3259
 2361SOL    HW218543   2.457   1.554   1.948 -0.2276 -0.8322 -0.2809
 2362SOL     OW18544   3.040   0.553   3.089  0.3133 -0.0025 -0.1045
 2362SOL    HW118545   2.981   0.484   3.061 -0.9274  1.3470 -0.8165
 2362SOL    HW218546   3.022   0.560   3.183  2.4910  0.4222  0.2733
 2363SOL     OW18547   3.277   4.675   8.911  0.3638  0.0143  0.5858
 2363SOL    HW118548   3.325   4.669   8.994  0.4191  0.8909  0.6240
 2363SOL    HW218549   3.336   4.623   8.857  0.1493  1.6901 -1.2536
 2364SOL     OW18550   1.049   2.886   5.864 -0.4502 -0.0626 -0.0913
 2364SOL    HW118551   1.013   2.802   5.892 -0.3137  0.0516  0.4301
 2364SOL    HW218552   0.978   2.921   5.811 -0.1700  0.2343 -0.2763
 2365SOL     OW18553   0.570   1.575   8.720 -0.5650 -0.3552  0.2871
 2365SOL    HW118554   0.657   1.548   8.750  0.0844  1.0703 -0.3325
 2365SOL    HW218555   0.551   1.645   8.782  0.6374  1.3200 -1.2236
 2366SOL     OW18556   3.742   4.571  10.893 -0.0188  0.2006  0.3304
 2366SOL    HW118557   3.656   4.570  10.851  0.2423  1.7959 -0.2510
 2366SOL    HW218558   3.739   4.493  10.948 -1.3083 -0.4480 -0.6686
 2367SOL     OW18559   1.135   0.313  15.449  0.0410 -0.0139  0.5645
 2367SOL    HW118560   1.067   0.254  15.480 -1.4712  0.1256 -2.3948
 2367SOL    HW218561   1.092   0.398  15.449  0.1671  0.0530  0.1053
 2368SOL     OW18562   2.097   2.220   7.536  0.1226  0.3547  0.4268
 2368SOL    HW118563   2.128   2.208   7.626  2.1417 -0.9152 -0.4321
 2368SOL    HW218564   2.170   2.175   7.493 -1.3042 -1.0520 -0.5653
 2369SOL     OW18565   3.969   1.183  13.739  0.2671 -0.2382 -1.1991
 2369SOL    HW118566   4.027   1.236  13.684  1.0325  0.2165  0.0494
 2369SOL    HW218567   3.891   1.234  13.759 -0.7163 -1.7627 -1.1830
 2370SOL     OW18568   4.133   0.895   3.150  0.3905 -0.0686  0.1744
 2370SOL    HW118569   4.142   0.949   3.071  1.3883  1.2992  1.2176
 2370SOL    HW218570   4.075   0.829   3.111 -1.3281  1.6369 -0.1727
 2371SOL     OW18571   2.897   3.310  12.395 -0.3395 -0.2005 -0.5677
 2371SOL    HW118572   2.954   3.338  12.467 -1.0296  1.0069 -0.4995
 2371SOL    HW218573   2.964   3.270  12.339  1.9454  3.0663 -0.2296
 2372SOL     OW18574   3.347   0.755   7.596  0.1415  0.5496  0.1218
 2372SOL    HW118575   3.350   0.675   7.544 -0.1877  2.1183 -2.3142
 2372SOL    HW218576   3.319   0.719   7.680  1.4022  0.9131  0.6979
 2373SOL     OW18577   4.402   1.515   9.336 -0.1600  0.0585 -0.3426
 2373SOL    HW118578   4.481   1.464   9.319 -0.8879 -1.9461  2.2574
 2373SOL    HW218579   4.410   1.582   9.269 -1.1649  0.6098  0.0924
 2374SOL     OW18580   4.670   0.158  13.120  0.3022  0.0022  0.8191
 2374SOL    HW118581   4.647   0.148  13.212 -0.9124 -1.9769  0.3012
 2374SOL    HW218582   0.041   0.172  13.126  0.3117 -1.6402  4.1452
 2375SOL     OW18583   0.058   3.989   8.554  0.3884  0.1827  0.1886
 2375SOL    HW118584   0.048   4.005   8.460  1.3097 -2.1446 -0.2881
 2375SOL    HW218585   0.111   4.060   8.588  1.4889 -1.0919  1.1187
 2376SOL     OW18586   3.492   3.351   2.424 -0.4464 -0.2223  0.3163
 2376SOL    HW118587   3.572   3.297   2.427 -0.6824 -0.6377 -0.9058
 2376SOL    HW218588   3.453   3.322   2.506 -0.5106  1.9435  1.0633
 2377SOL     OW18589   0.532   1.861   0.748 -0.4978 -0.6728 -0.4653
 2377SOL    HW118590   0.476   1.875   0.672  0.2397 -3.3868 -1.5042
 2377SOL    HW218591   0.472   1.858   0.822 -0.9211 -2.1458 -0.8728
 2378SOL     OW18592   0.587   2.804   6.528  0.6313 -0.1899 -0.2224
 2378SOL    HW118593   0.663   2.787   6.473  0.9253  2.8476 -0.7502
 2378SOL    HW218594   0.592   2.747   6.604  0.3932  1.3573  0.9593
 2379SOL     OW18595   1.290   0.588  16.402 -0.6152 -0.6947  0.0372
 2379SOL    HW118596   1.370   0.556  16.360  0.6669  1.2886  0.9662
 2379SOL    HW218597   1.244   0.631  16.330  0.5348 -1.5449 -1.2090
 2380SOL     OW18598   2.284   1.600   3.172  0.3693  0.2572  0.2750
 2380SOL    HW118599   2.212   1.662   3.161 -1.0302 -1.2282  1.1927
 2380SOL    HW218600   2.249   1.518   3.205  2.5558 -1.2847 -1.2108
 2381SOL     OW18601   1.316   0.728   1.113 -0.8756 -0.8255  0.4214
 2381SOL    HW118602   1.250   0.674   1.156 -0.5079 -2.1374 -0.6656
 2381SOL    HW218603   1.348   0.784   1.185  1.2380  0.0441 -1.1861
 2382SOL     OW18604   2.203   4.199   4.147  0.3823  0.0259  0.5548
 2382SOL    HW118605   2.266   4.193   4.218  0.2963  0.2009  0.6439
 2382SOL    HW218606   2.144   4.264   4.185  1.5801  1.8656 -0.7699
 2383SOL     OW18607   3.846   2.509  17.314  0.3261 -0.9396 -0.0229
 2383SOL    HW118608   3.834   2.424  17.356 -0.9235 -1.1497 -0.8082
 2383SOL    HW218609   3.923   2.546  17.356  0.7653 -0.0441 -1.5947
 2384SOL     OW18610   1.175   4.478   3.351 -0.5215 -0.1221  0.2233
 2384SOL    HW118611   1.167   4.573   3.341  0.7992 -0.0027  0.4084
 2384SOL    HW218612   1.104   4.444   3.296 -0.8109 -1.0211  1.1623
 2385SOL     OW18613   0.878   1.021  16.335  0.1971  0.4199  0.1802
 2385SOL    HW118614   0.893   1.083  16.407  1.5329  0.5674 -0.2126
 2385SOL    HW218615   0.973   1.008  16.328  0.0104 -0.5134 -0.5966
 2386SOL     OW18616   1.500   3.436  15.018  0.3392 -0.2639 -0.3091
 2386SOL    HW118617   1.504   3.345  15.049  0.9457  0.0509  0.5543
 2386SOL    HW218618   1.589   3.465  15.037  0.7414 -1.4589 -0.3349
 2387SOL     OW18619   2.657   2.760  13.890 -0.1087 -0.0476  0.2994
 2387SOL    HW118620   2.680   2.753  13.797  0.8380 -0.9183  0.5949
 2387SOL    HW218621   2.724   2.711  13.937 -0.3910  0.3699  1.1350
 2388SOL     OW18622   0.016   3.202   2.924  0.2972  0.3619  0.7096
 2388SOL    HW118623   4.699   3.278   2.883  0.6756  0.1617 -0.0482
 2388SOL    HW218624   0.087   3.244   2.971  0.6699  1.4459 -0.8148
 2389SOL     OW18625   0.154   0.395   1.046 -0.1101  0.6488  0.1465
 2389SOL    HW118626   0.247   0.377   1.063 -0.6061 -1.8139  0.3775
 2389SOL    HW218627   0.158   0.451   0.969  3.0299 -1.5670 -1.3106
 2390SOL     OW18628   0.926   1.882   7.389 -0.5948 -0.5168  0.5666
 2390SOL    HW118629   0.886   1.795   7.393 -2.3698  0.2761  0.0320
 2390SOL    HW218630   1.015   1.862   7.360 -0.9178 -1.6590  0.3677
 2391SOL     OW18631   1.424   1.899   7.519 -0.5463 -0.6845  0.3560
 2391SOL    HW118632   1.466   1.853   7.591 -2.0709 -2.2118  0.2703
 2391SOL    HW218633   1.502   1.937   7.477 -2.1355 -1.9812 -3.8083
 2392SOL     OW18634   3.092   0.775   5.987 -0.1419  0.5795 -0.0178
 2392SOL    HW118635   3.045   0.766   6.071 -0.2980  0.9431 -0.0632
 2392SOL    HW218636   3.035   0.730   5.924  0.3752  0.6060 -0.4960
 2393SOL     OW18637   0.032   3.724   4.000  0.6052  1.0565  0.2438
 2393SOL    HW118638   0.092   3.687   3.934 -0.2035  0.4450 -0.1562
 2393SOL    HW218639   0.062   3.692   4.085  0.0960  1.4393  0.5673
 2394SOL     OW18640   2.925   3.548   3.835  0.3744  0.3039 -0.3062
 2394SOL    HW118641   2.867   3.497   3.778  0.5479  0.1122 -0.3102
 2394SOL    HW218642   2.943   3.630   3.789 -1.9274  0.0797 -1.5958
 2395SOL     OW18643   3.380   1.470   9.848 -0.3468  0.0325 -0.3177
 2395SOL    HW118644   3.302   1.436   9.891 -0.2098  2.1761  1.6303
 2395SOL    HW218645   3.418   1.386   9.826  0.1110  0.8651 -2.7664
 2396SOL     OW18646   2.085   2.588   6.456 -0.3917  0.2325  0.0441
 2396SOL    HW118647   2.093   2.530   6.380 -0.7475  0.0781  0.1283
 2396SOL    HW218648   2.139   2.539   6.519 -0.8953 -1.8136 -1.0900
 2397SOL     OW18649   1.189   3.796  16.670 -0.2884  0.2352 -0.5507
 2397SOL    HW118650   1.109   3.848  16.680  0.3263  1.0157  0.2384
 2397SOL    HW218651   1.201   3.796  16.575 -0.1446  1.4435 -0.5329
 2398SOL     OW18652   2.976   3.919   2.929  0.2398  0.0353  0.0927
 2398SOL    HW118653   2.960   3.827   2.950  2.2950  0.2657  2.7337
 2398SOL    HW218654   3.071   3.920   2.937  0.3530 -2.5566 -1.3327
 2399SOL     OW18655   2.570   4.708   5.533  0.5906  0.2418 -0.1092
 2399SOL    HW118656   2.502   0.002   5.467  0.7775  1.4455  0.0143
 2399SOL    HW218657   2.519   4.652   5.591  0.6763 -0.3473 -0.6039
 2400SOL     OW18658   3.753   0.993   2.796  0.0451 -0.4308  0.2734
 2400SOL    HW118659   3.786   1.005   2.886 -0.5752  1.3473  0.2502
 2400SOL    HW218660   3.791   1.066   2.749 -0.8678  0.1010  0.3665
 2401SOL     OW18661   3.624   2.225   7.611 -0.3982  0.7556  0.2501
 2401SOL    HW118662   3.714   2.202   7.586 -0.5455 -1.1363  1.4720
 2401SOL    HW218663   3.612   2.306   7.562  1.6888  0.1825 -1.2260
 2402SOL     OW18664   4.396   2.696   1.774 -0.0302 -0.0457 -0.5340
 2402SOL    HW118665   4.344   2.708   1.694  0.1500  0.0704 -0.6350
 2402SOL    HW218666   4.329   2.676   1.838  0.5224 -2.1209 -0.6154
 2403SOL     OW18667   0.011   2.275   4.028  0.2979 -0.2096 -0.1835
 2403SOL    HW118668   0.054   2.321   4.099  0.7220  2.3473 -2.1012
 2403SOL    HW218669   0.077   2.282   3.959  2.2707 -1.2870  1.5804
 2404SOL     OW18670   1.336   0.934   5.277 -0.0980 -0.3994  0.3217
 2404SOL    HW118671   1.421   0.911   5.314 -0.5156 -1.4985  0.5920
 2404SOL    HW218672   1.337   0.878   5.199 -0.7700 -0.2581  0.2105
 2405SOL     OW18673   2.232   3.739   1.216 -0.1127 -0.1756 -0.4500
 2405SOL    HW118674   2.276   3.743   1.131 -0.0492  0.6802 -0.3788
 2405SOL    HW218675   2.251   3.650   1.244 -0.7242 -0.0632  0.3327
 2406SOL     OW18676   1.596   3.527   5.945  0.2085 -0.0200  0.3691
 2406SOL    HW118677   1.570   3.556   6.033 -2.1768 -1.5938  0.1698
 2406SOL    HW218678   1.561   3.590   5.883  3.3165  1.3447  0.0057
 2407SOL     OW18679   3.572   3.278   7.912 -0.3288 -0.4802 -0.3095
 2407SOL    HW118680   3.482   3.263   7.885 -0.3961 -0.2441 -0.2162
 2407SOL    HW218681   3.574   3.261   8.006 -0.8419  2.0950  0.1645
 2408SOL     OW18682   4.095   3.011   8.548  0.2143 -0.0588 -0.2976
 2408SOL    HW118683   4.021   2.981   8.495 -1.9024  2.0649  1.4335
 2408SOL    HW218684   4.161   3.027   8.481  1.1246  0.7172  0.8016
 2409SOL     OW18685   3.877   2.931   7.359 -0.4852  0.3440 -0.2592
 2409SOL    HW118686   3.884   2.882   7.277  0.7060  2.4729 -1.4242
 2409SOL    HW218687   3.922   3.012   7.335  0.5246 -0.1561 -0.0751
 2410SOL     OW18688   2.150   3.697   5.246 -0.3575  0.4875 -0.4808
 2410SOL    HW118689   2.199   3.615   5.251 -1.3568 -0.0092  1.3148
 2410SOL    HW218690   2.193   3.747   5.315 -0.1854 -0.4465  0.1021
 2411SOL     OW18691   3.924   4.139   1.297 -0.1223  0.0782  0.3481
 2411SOL    HW118692   3.886   4.121   1.211 -0.1882 -0.3205  0.4637
 2411SOL    HW218693   3.897   4.071   1.359  0.1233 -0.3836 -0.0552
 2412SOL     OW18694   1.913   2.134  10.740 -0.1600  0.4365 -0.1537
 2412SOL    HW118695   1.927   2.166  10.829 -1.7819  0.2620  0.1795
 2412SOL    HW218696   1.839   2.073  10.750  1.2898 -1.2859 -0.0373
 2413SOL     OW18697   0.137   1.332  14.888  0.6116 -0.7270 -0.7135
 2413SOL    HW118698   0.101   1.265  14.945 -0.3228  0.8503  0.5418
 2413SOL    HW218699   0.083   1.326  14.810 -0.6808  2.9865 -0.0771
 2414SOL     OW18700   0.541   0.854   6.071 -0.2150 -0.1844  0.5472
 2414SOL    HW118701   0.556   0.839   5.977  0.6102 -0.1400  0.6663
 2414SOL    HW218702   0.446   0.856   6.076 -0.0964 -0.7623  2.6785
 2415SOL     OW18703   0.428   3.727   7.751  0.2122  0.4984  0.4284
 2415SOL    HW118704   0.487   3.774   7.693 -0.5585  0.1907 -0.5949
 2415SOL    HW218705   0.478   3.701   7.829  0.3155  2.2076  0.9372
 2416SOL     OW18706   0.855   2.952   3.866  0.0540  0.1079  0.1401
 2416SOL    HW118707   0.823   2.991   3.784 -1.7632 -2.8759 -0.5556
 2416SOL    HW218708   0.936   3.004   3.872  1.4239 -2.4745  3.6426
 2417SOL     OW18709   0.874   0.161  15.311  0.6705 -0.4210 -0.0673
 2417SOL    HW118710   0.883   0.163  15.406  0.4259 -0.8110 -0.0358
 2417SOL    HW218711   0.898   0.250  15.286 -2.2337  0.1435 -0.9057
 2418SOL     OW18712   1.584   4.472   2.412 -0.2372 -0.3175  0.2594
 2418SOL    HW118713   1.614   4.399   2.357 -1.3421 -0.7602  0.2485
 2418SOL    HW218714   1.569   4.430   2.496  0.5330 -0.3554  0.3817
 2419SOL     OW18715   4.170   0.958   4.889  0.0738  0.0068 -0.0359
 2419SOL    HW118716   4.261   0.981   4.870 -0.0812 -0.8124 -1.7193
 2419SOL    HW218717   4.145   1.020   4.958  1.3147 -0.8872  1.2310
 2420SOL     OW18718   1.727   3.632   1.614 -0.8297  0.8819  0.1673
 2420SOL    HW118719   1.680   3.612   1.695  3.3649 -0.8812  2.1835
 2420SOL    HW218720   1.671   3.580   1.556  1.6086 -0.2299 -1.1973
 2421SOL     OW18721   3.474   2.508  14.558 -0.3666  0.1369 -0.3926
 2421SOL    HW118722   3.529   2.430  14.566  2.3735  2.1282  0.5366
 2421SOL    HW218723   3.404   2.476  14.614  0.4220  0.7717  0.9453
 2422SOL     OW18724   2.978   1.971   4.488 -0.0952 -0.4578 -0.0981
 2422SOL    HW118725   2.916   1.923   4.543  1.2278 -0.1731  1.6372
 2422SOL    HW218726   3.033   2.015   4.553 -2.5796 -1.7294  2.8728
 2423SOL     OW18727   2.777   3.365   7.036  0.5383  0.0412 -0.1010
 2423SOL    HW118728   2.693   3.408   7.049 -0.3665 -1.7652  0.0364
 2423SOL    HW218729   2.832   3.441   7.016 -0.6219  1.2192  1.2275
 2424SOL     OW18730   3.670   3.496   6.430  0.3543 -0.1177  0.5820
 2424SOL    HW118731   3.648   3.515   6.521 -0.4913  2.6642 -0.2140
 2424SOL    HW218732   3.625   3.411   6.424  1.3597 -0.5592 -0.5698
 2425SOL     OW18733   3.036   3.126  13.855 -0.6721 -0.1026  0.3669
 2425SOL    HW118734   2.949   3.088  13.868 -0.7927  0.2364  0.5558
 2425SOL    HW218735   3.016   3.212  13.891 -2.3825  0.4345 -1.8437
 2426SOL     OW18736   2.195   2.842  11.498  0.2089  0.5433  0.6160
 2426SOL    HW118737   2.167   2.876  11.413 -1.7122 -1.0492  0.6222
 2426SOL    HW218738   2.288   2.865  11.499 -0.5378  3.6093 -0.9430
 2427SOL     OW18739   3.804   1.793   2.865 -0.1411 -0.4350 -0.1774
 2427SOL    HW118740   3.865   1.728   2.830  0.5448  0.5956 -0.8949
 2427SOL    HW218741   3.866   1.860   2.895  0.8952 -1.4173 -0.1277
 2428SOL     OW18742   1.969   3.622   7.398 -0.1861 -0.3437  0.5421
 2428SOL    HW118743   2.059   3.588   7.399 -0.2519 -0.5190  0.4632
 2428SOL    HW218744   1.989   3.665   7.481  0.2631  2.5385 -1.0267
 2429SOL     OW18745   2.252   1.327  17.334  0.3576  0.0562  0.1659
 2429SOL    HW118746   2.212   1.280  17.407 -1.1422 -1.5242 -1.6634
 2429SOL    HW218747   2.309   1.261  17.295 -1.9005 -2.1343  0.5634
 2430SOL     OW18748   0.127   4.712   3.617  0.3728 -0.5732  0.1669
 2430SOL    HW118749   0.149   0.081   3.605  0.0174 -0.2119  2.4553
 2430SOL    HW218750   0.103   4.695   3.525  0.3171  0.4346 -0.0074
 2431SOL     OW18751   1.546   1.931   0.576 -0.1995 -0.1165 -0.7365
 2431SOL    HW118752   1.553   1.862   0.509 -2.6133  0.0014 -1.1223
 2431SOL    HW218753   1.619   1.903   0.631  0.3798 -1.2984 -2.1028
 2432SOL     OW18754   2.137   0.078   4.462 -0.2250 -0.2813  0.1218
 2432SOL    HW118755   2.121   0.157   4.513 -2.3102  0.0097 -0.9608
 2432SOL    HW218756   2.223   0.089   4.423 -0.2243  0.3963  0.3113
 2433SOL     OW18757   2.119   3.938  10.309  0.6584 -0.0569 -0.0579
 2433SOL    HW118758   2.098   3.984  10.390 -2.1141 -1.6237  0.1245
 2433SOL    HW218759   2.048   3.974  10.255 -0.7092 -0.9777  1.1274
 2434SOL     OW18760   2.336   4.154  15.423 -0.4569 -0.6888 -0.4332
 2434SOL    HW118761   2.311   4.195  15.340 -0.6819 -0.5738 -0.3080
 2434SOL    HW218762   2.429   4.134  15.412 -0.4275 -0.2071 -1.1207
 2435SOL     OW18763   2.381   4.491   9.958 -0.2371 -0.4689 -0.2080
 2435SOL    HW118764   2.458   4.516  10.009 -0.7038  0.8788 -0.1732
 2435SOL    HW218765   2.417   4.424   9.900  2.8842  1.2312 -0.2430
 2436SOL     OW18766   2.326   3.044  17.436  0.1783 -0.5609  0.2459
 2436SOL    HW118767   2.419   3.065  17.446  0.2084 -0.6689  0.1960
 2436SOL    HW218768   2.321   3.021  17.343  2.1783 -1.5136  0.3614
 2437SOL     OW18769   2.131   3.668   5.893  0.1871 -0.1683  0.2401
 2437SOL    HW118770   2.097   3.580   5.913 -0.3356 -0.3607 -1.4907
 2437SOL    HW218771   2.203   3.650   5.832  0.8248 -2.1866  1.5861
 2438SOL     OW18772   3.847   3.132  15.054  0.3628 -0.0466 -0.1848
 2438SOL    HW118773   3.926   3.123  15.107  0.1172 -1.1501 -0.0203
 2438SOL    HW218774   3.846   3.045  15.015  2.1569  1.2234 -3.1391
 2439SOL     OW18775   3.351   2.808   5.313 -0.0439 -0.9508  0.0066
 2439SOL    HW118776   3.403   2.850   5.381  0.7682  0.6035 -1.5701
 2439SOL    HW218777   3.262   2.828   5.343  0.9786 -1.9663  3.6172
 2440SOL     OW18778   0.375   0.005  10.896 -0.2633 -0.0276 -0.1607
 2440SOL    HW118779   0.454   0.012  10.949  0.4964 -2.3576 -0.9875
 2440SOL    HW218780   0.310   4.711  10.965  0.8775  1.1196  1.2208
 2441SOL     OW18781   0.988   2.941   8.677 -0.0062  0.2492  0.2044
 2441SOL    HW118782   0.952   2.857   8.647  1.1914 -0.6824  1.3333
 2441SOL    HW218783   1.079   2.910   8.685  0.2459  0.8688 -0.2421
 2442SOL     OW18784   0.218   3.479   1.081  0.2195 -0.3683 -0.3587
 2442SOL    HW118785   0.204   3.385   1.089  1.7324 -0.4644  1.3402
 2442SOL    HW218786   0.296   3.489   1.137 -0.4276 -2.2510  0.8513
 2443SOL     OW18787   3.592   1.199   7.992 -0.8347 -0.3722  0.1200
 2443SOL    HW118788   3.618   1.280   7.948 -0.1379 -0.8776 -0.3876
 2443SOL    HW218789   3.505   1.227   8.021 -0.2817  2.5116 -0.9514
 2444SOL     OW18790   4.413   2.961   6.760  0.2090  0.2274  0.2148
 2444SOL    HW118791   4.491   3.008   6.732 -0.4826  0.9207 -0.5569
 2444SOL    HW218792   4.455   2.876   6.772  2.1852  0.9356 -1.7418
 2445SOL     OW18793   2.601   2.937   8.738 -0.2410  0.3235 -0.5021
 2445SOL    HW118794   2.536   2.870   8.717  0.0979 -0.1703  0.0080
 2445SOL    HW218795   2.555   2.996   8.798 -0.5980  0.7359 -1.1855
 2446SOL     OW18796   2.789   2.405   1.650  0.5547 -0.2052 -0.1323
 2446SOL    HW118797   2.741   2.324   1.633 -3.4474  1.9135  1.0310
 2446SOL    HW218798   2.864   2.367   1.696  1.3256  2.0508  0.5103
 2447SOL     OW18799   3.884   3.309   1.863 -0.0060 -0.2879 -0.1922
 2447SOL    HW118800   3.871   3.227   1.912  2.9703 -1.5625 -1.5248
 2447SOL    HW218801   3.797   3.321   1.826 -0.4907  0.8980  1.2961
 2448SOL     OW18802   0.623   2.865   5.393 -0.3048  0.3450  0.0952
 2448SOL    HW118803   0.683   2.818   5.336  0.0721  0.3771  0.4617
 2448SOL    HW218804   0.614   2.936   5.330 -0.6150 -1.8032 -2.2726
 2449SOL     OW18805   3.687   2.842  14.714  0.3514 -0.8396  0.1506
 2449SOL    HW118806   3.628   2.831  14.640 -1.1498  2.1527  0.8985
 2449SOL    HW218807   3.618   2.857  14.778  1.3939 -0.6319  1.2230
 2450SOL     OW18808   3.422   0.820   6.132  0.5254  1.0722  0.5886
 2450SOL    HW118809   3.420   0.879   6.056  0.7674 -1.3718 -1.2871
 2450SOL    HW218810   3.398   0.736   6.095 -2.5270  1.9478  0.5251
 2451SOL     OW18811   0.191   0.299   4.151 -0.2027  0.0826  0.1597
 2451SOL    HW118812   0.202   0.211   4.184 -2.2289 -0.4159 -0.4854
 2451SOL    HW218813   0.104   0.288   4.112 -0.7842 -0.1318  1.5335
 2452SOL     OW18814   2.412   4.163  10.503 -0.2155  0.0080 -0.6949
 2452SOL    HW118815   2.351   4.210  10.446  1.6880  0.6958 -2.1522
 2452SOL    HW218816   2.361   4.149  10.584 -0.5313 -0.5925 -0.9968
 2453SOL     OW18817   4.439   4.367   6.068 -1.2856 -0.6332  0.1987
 2453SOL    HW118818   4.425   4.281   6.029  0.8027 -0.8383 -0.0885
 2453SOL    HW218819   4.488   4.333   6.143  0.3422  0.5488 -0.3169
 2454SOL     OW18820   4.366   4.379   9.673 -0.2547  0.7851  0.1101
 2454SOL    HW118821   4.385   4.311   9.737  1.3264  1.6929  0.5961
 2454SOL    HW218822   4.310   4.433   9.729 -0.6664  0.5481 -0.0713
 2455SOL     OW18823   1.122   0.415  12.058 -0.6223  0.0731 -0.6965
 2455SOL    HW118824   1.137   0.362  11.980 -0.9989 -1.6112  0.3924
 2455SOL    HW218825   1.191   0.481  12.055  0.7498 -1.3511 -0.2634
 2456SOL     OW18826   0.269   0.885  15.428 -0.4655 -0.3192  0.1134
 2456SOL    HW118827   0.226   0.948  15.369  0.1713  1.0588  1.1180
 2456SOL    HW218828   0.337   0.942  15.462  1.5634 -2.4620 -0.3893
 2457SOL     OW18829   2.419   2.478   3.928 -0.4424 -0.1649  0.4330
 2457SOL    HW118830   2.361   2.448   3.857  1.2051  0.1325 -1.0283
 2457SOL    HW218831   2.360   2.466   4.002  0.2915  1.4705  1.2721
 2458SOL     OW18832   3.767   2.841   3.615  0.0645 -0.7772  0.0135
 2458SOL    HW118833   3.755   2.797   3.530  0.2117 -1.8482  0.5518
 2458SOL    HW218834   3.756   2.934   3.594  3.2246  0.1327  2.5473
 2459SOL     OW18835   0.992   2.281  10.426 -0.0839  0.4070 -0.0504
 2459SOL    HW118836   0.951   2.200  10.396  1.9749 -0.1452 -1.4304
 2459SOL    HW218837   0.916   2.338  10.439  0.2333  1.0232 -0.8408
 2460SOL     OW18838   4.709   2.041   8.935  0.5797 -0.2277 -0.2521
 2460SOL    HW118839   0.002   2.132   8.960  0.5247  0.1220 -1.5007
 2460SOL    HW218840   4.621   2.027   8.970 -0.1805  2.1522 -1.1787
 2461SOL     OW18841   2.364   1.149   0.741 -0.5027  0.7335 -0.1492
 2461SOL    HW118842   2.435   1.099   0.701  2.3104  1.0675  4.4107
 2461SOL    HW218843   2.289   1.097   0.711 -0.2295 -0.8428  1.8399
 2462SOL     OW18844   4.243   2.688   8.397 -0.0919  0.0113  0.3007
 2462SOL    HW118845   4.148   2.697   8.389 -0.1298 -0.6216  0.0597
 2462SOL    HW218846   4.254   2.630   8.473 -1.7112  1.3109  1.5176
 2463SOL     OW18847   1.442   4.116   5.988  0.0417  0.2130 -0.3848
 2463SOL    HW118848   1.477   4.043   6.039 -0.2487 -0.5395 -1.2692
 2463SOL    HW218849   1.456   4.091   5.897  2.1075  0.5129 -0.1333
 2464SOL     OW18850   0.816   4.473   2.870  0.2430  0.0056  0.1366
 2464SOL    HW118851   0.721   4.487   2.873 -0.1513 -2.6263  0.6306
 2464SOL    HW218852   0.815   4.435   2.782  0.1971  3.0457 -1.1409
 2465SOL     OW18853   0.141   4.477   6.912 -1.4195 -0.5585 -0.1459
 2465SOL    HW118854   0.148   4.383   6.929 -0.4853 -0.1705  1.5440
 2465SOL    HW218855   0.115   4.507   6.999 -0.3748 -1.7680  0.5801
 2466SOL     OW18856   1.369   0.262  16.447 -0.1018 -0.5257 -0.0250
 2466SOL    HW118857   1.452   0.309  16.437 -0.4610 -0.3015 -1.9881
 2466SOL    HW218858   1.392   0.202  16.376  1.0309 -0.7843  0.5678
 2467SOL     OW18859   3.963   3.492   8.499 -0.1823 -0.3682 -0.3664
 2467SOL    HW118860   3.928   3.581   8.504  1.2201  0.1887 -0.2759
 2467SOL    HW218861   4.041   3.502   8.554 -1.5108 -2.1482  1.8478
 2468SOL     OW18862   1.038   0.137   3.637  0.1328 -0.4417 -0.1222
 2468SOL    HW118863   0.963   0.152   3.578 -2.0098  0.9268  2.9378
 2468SOL    HW218864   1.098   0.198   3.595 -0.1057  0.0651  0.2718
 2469SOL     OW18865   3.834   3.942   8.681  0.1793 -0.6324 -0.0818
 2469SOL    HW118866   3.837   3.992   8.763 -1.4331  0.2600 -0.5690
 2469SOL    HW218867   3.925   3.914   8.676  0.4223 -0.1701  1.5359
 2470SOL     OW18868   4.214   3.011   0.387 -0.4883 -0.8126 -0.2971
 2470SOL    HW118869   4.289   2.957   0.361 -0.0751 -0.8185  0.9305
 2470SOL    HW218870   4.253   3.098   0.378  0.2099 -1.1929 -1.0129
 2471SOL     OW18871   1.112   1.441   5.043  0.1284  0.2688  0.6104
 2471SOL    HW118872   1.103   1.367   5.104 -0.4800  0.0142  0.2046
 2471SOL    HW218873   1.078   1.512   5.097  1.9988  0.6023  1.3533
 2472SOL     OW18874   1.395   0.265   6.527 -0.2233 -0.1567  0.2234
 2472SOL    HW118875   1.445   0.199   6.478 -0.5801  1.2986 -2.1281
 2472SOL    HW218876   1.401   0.339   6.466 -1.3068 -0.5762 -0.3768
 2473SOL     OW18877   4.545   3.150   3.657 -0.4398  0.6854  0.2486
 2473SOL    HW118878   4.589   3.096   3.723 -0.2473  0.8324  0.2389
 2473SOL    HW218879   4.497   3.080   3.613  4.4478 -1.9659 -0.9212
 2474SOL     OW18880   3.208   0.797   6.883  0.0853 -0.2150 -0.4219
 2474SOL    HW118881   3.150   0.868   6.856  0.4687  1.0443  2.0974
 2474SOL    HW218882   3.156   0.718   6.867  0.5250 -0.6661  0.4278
 2475SOL     OW18883   1.353   4.124   8.612 -0.2528 -0.4375  0.2690
 2475SOL    HW118884   1.321   4.123   8.702  0.8572 -0.3897  0.6633
 2475SOL    HW218885   1.332   4.216   8.593 -1.9757 -1.1905 -1.4657
 2476SOL     OW18886   4.200   0.172  13.451  0.2060  0.5760  0.1526
 2476SOL    HW118887   4.135   0.240  13.433 -0.5726 -0.5373 -1.2293
 2476SOL    HW218888   4.192   0.176  13.546  0.6764 -0.9964  0.2520
 2477SOL     OW18889   2.600   2.496  15.591 -0.2895  0.1677 -0.3092
 2477SOL    HW118890   2.522   2.454  15.630  1.3544 -0.6179  2.1245
 2477SOL    HW218891   2.623   2.417  15.542 -1.5420  0.1479 -0.8831
 2478SOL     OW18892   4.197   0.371  12.694 -0.1645  0.2920  0.2221
 2478SOL    HW118893   4.246   0.344  12.772  1.0098  0.1388 -0.5696
 2478SOL    HW218894   4.207   0.293  12.640 -2.2691 -1.4546  2.3238
 2479SOL     OW18895   2.989   0.695   7.088 -0.1787 -0.3578  0.1198
 2479SOL    HW118896   3.031   0.781   7.093 -2.2291  0.7041 -0.7605
 2479SOL    HW218897   2.935   0.693   7.167 -0.7881 -1.8094 -0.3403
 2480SOL     OW18898   2.567   0.817   3.442 -0.0176 -0.0711 -0.1500
 2480SOL    HW118899   2.653   0.843   3.410  0.6275 -0.2820  1.3977
 2480SOL    HW218900   2.523   0.770   3.371 -0.1339 -1.7838  1.0498
 2481SOL     OW18901   0.212   0.765   7.312 -0.3288 -0.0800  0.2462
 2481SOL    HW118902   0.227   0.678   7.348  1.1850  0.1335  0.1473
 2481SOL    HW218903   0.229   0.810   7.394 -0.9378  0.2628  0.1848
 2482SOL     OW18904   3.608   1.351   0.492  1.1358  0.0658 -0.0725
 2482SOL    HW118905   3.655   1.434   0.505 -0.5657  1.2289 -1.3589
 2482SOL    HW218906   3.518   1.381   0.479  1.2280  0.0859 -0.6652
 2483SOL     OW18907   0.362   3.254   6.914  0.1583  0.1989 -1.4864
 2483SOL    HW118908   0.435   3.192   6.908 -0.0364 -0.0467 -1.3197
 2483SOL    HW218909   0.319   3.220   6.993 -2.6743 -1.3746 -3.7230
 2484SOL     OW18910   0.237   4.420   5.196  0.2258 -0.4999  0.4126
 2484SOL    HW118911   0.239   4.325   5.207  0.8616 -0.8569 -2.7258
 2484SOL    HW218912   0.261   4.426   5.103  4.1081  1.9638  1.5636
 2485SOL     OW18913   2.598   1.336   6.980 -0.3110 -0.2438 -0.9759
 2485SOL    HW118914   2.677   1.345   7.033 -0.6724 -1.0121 -0.3131
 2485SOL    HW218915   2.617   1.263   6.920 -1.3667  0.4170 -2.1174
 2486SOL     OW18916   4.479   0.281   2.549  0.0061  0.0070  0.4076
 2486SOL    HW118917   4.401   0.235   2.580 -0.3826 -0.4912 -1.3027
 2486SOL    HW218918   4.454   0.284   2.456  0.4031 -0.6728  0.2773
 2487SOL     OW18919   1.660   1.615   6.871 -0.2872 -0.0477  0.1513
 2487SOL    HW118920   1.726   1.654   6.815  0.6624 -2.5907 -0.5248
 2487SOL    HW218921   1.704   1.592   6.953 -1.5054 -2.9074  0.0422
 2488SOL     OW18922   2.224   2.495   4.672  0.1800 -0.3369 -0.6720
 2488SOL    HW118923   2.130   2.513   4.665  0.3862  0.8673 -0.3039
 2488SOL    HW218924   2.269   2.573   4.638  1.3704 -0.8738 -0.2973
 2489SOL     OW18925   2.060   1.328   2.794 -0.4844 -0.4363 -0.0559
 2489SOL    HW118926   2.093   1.238   2.796 -2.5577 -1.2182 -0.5563
 2489SOL    HW218927   1.989   1.308   2.732 -1.2009 -0.6803  0.8467
 2490SOL     OW18928   2.986   3.098  16.414 -0.0983 -0.2499  0.3494
 2490SOL    HW118929   3.028   3.019  16.380  0.0891  0.2692 -0.6275
 2490SOL    HW218930   2.896   3.067  16.428  0.2150 -1.4632 -0.2678
 2491SOL     OW18931   1.253   3.678   3.056  0.0405  0.1727 -0.5664
 2491SOL    HW118932   1.174   3.672   3.004 -0.5726 -0.0366  0.3959
 2491SOL    HW218933   1.218   3.707   3.140 -0.8005  1.2179 -1.2677
 2492SOL     OW18934   1.290   4.065   4.823  0.1562  0.0519  0.1025
 2492SOL    HW118935   1.344   4.130   4.779 -0.2792 -0.2574 -0.8960
 2492SOL    HW218936   1.209   4.112   4.839 -0.2556 -0.1235 -1.5367
 2493SOL     OW18937   0.743   3.539   2.441 -0.5707 -0.3231 -0.0533
 2493SOL    HW118938   0.655   3.511   2.467 -1.3422  2.2418  0.0874
 2493SOL    HW218939   0.761   3.488   2.362  2.5969  1.5088 -0.4843
 2494SOL     OW18940   2.334   0.156   5.642 -0.1210 -0.2364 -0.0538
 2494SOL    HW118941   2.354   0.130   5.732  0.2283 -0.2553 -0.1389
 2494SOL    HW218942   2.295   0.076   5.605 -0.4160 -1.4510  2.8660
 2495SOL     OW18943   1.296   0.184   9.318  0.1556 -0.2207  0.1683
 2495SOL    HW118944   1.282   0.259   9.376  1.9387 -1.5078  2.2785
 2495SOL    HW218945   1.375   0.154   9.364  0.3059  0.0691  0.0984
 2496SOL     OW18946   4.626   4.546   1.056 -0.3736 -0.0541 -0.5956
 2496SOL    HW118947   4.568   4.615   1.088 -0.9647  0.4820 -2.8769
 2496SOL    HW218948   4.570   4.470   1.043 -0.9170  0.2859 -0.2334
 2497SOL     OW18949   0.352   1.653   5.759 -0.1714  0.0356 -0.1054
 2497SOL    HW118950   0.385   1.738   5.730 -1.4754  2.0750  4.4259
 2497SOL    HW218951   0.426   1.625   5.812  0.5178  1.6412 -0.2156
 2498SOL     OW18952   2.343   3.424  17.372 -0.6460 -0.2160  0.3491
 2498SOL    HW118953   2.370   3.332  17.371  1.8558  0.5203  1.0816
 2498SOL    HW218954   2.410   3.455  17.311 -1.5758 -3.2368 -2.2113
 2499SOL     OW18955   0.932   1.188   7.553  0.0646 -0.0420 -0.5587
 2499SOL    HW118956   0.934   1.096   7.580  1.4360  0.9204  2.5910
 2499SOL    HW218957   0.841   1.208   7.531 -0.2093 -0.1958  0.4313
 2500SOL     OW18958   2.549   4.081   5.264 -0.3243  0.2355 -0.4597
 2500SOL    HW118959   2.565   4.173   5.243 -1.4051  0.8901  1.5846
 2500SOL    HW218960   2.459   4.065   5.236 -0.2696  0.0152 -0.5027
 2501SOL     OW18961   3.511   2.586   3.180  0.4786  0.0666 -0.6166
 2501SOL    HW118962   3.435   2.643   3.195 -1.2379 -2.1363 -0.9727
 2501SOL    HW218963   3.572   2.658   3.160 -1.2252  1.3156 -1.3548
 2502SOL     OW18964   2.091   2.440  11.779  0.2210 -0.0127 -0.7694
 2502SOL    HW118965   2.064   2.523  11.740  2.6537  0.2839 -1.8730
 2502SOL    HW218966   2.140   2.398  11.708  1.9008 -1.8967  1.5398
 2503SOL     OW18967   1.067   2.396   5.374  0.2476 -0.3019  0.2271
 2503SOL    HW118968   1.161   2.381   5.365 -0.1945 -2.7691 -0.4526
 2503SOL    HW218969   1.033   2.321   5.325 -1.6615  0.5272  0.2576
 2504SOL     OW18970   0.670   0.715  14.970  0.0528  0.3213  0.2696
 2504SOL    HW118971   0.605   0.740  14.905  0.4706  0.0052 -0.2699
 2504SOL    HW218972   0.752   0.712  14.921 -0.9275 -4.4388 -1.1484
 2505SOL     OW18973   3.895   2.326   9.622 -0.3481  0.1787  0.4435
 2505SOL    HW118974   3.907   2.300   9.713  0.8980  0.0439  0.2417
 2505SOL    HW218975   3.986   2.325   9.592  0.1022 -0.9222  1.8515
 2506SOL     OW18976   0.232   3.121   3.316  0.1213 -0.2420  0.7195
 2506SOL    HW118977   0.184   3.060   3.259 -2.7209  1.5332  1.2322
 2506SOL    HW218978   0.173   3.159   3.382 -1.2374  0.4942 -0.9186
 2507SOL     OW18979   2.772   2.761   5.725  0.3644  0.0139 -0.1942
 2507SOL    HW118980   2.804   2.671   5.732  0.8942  0.2437  0.3657
 2507SOL    HW218981   2.679   2.738   5.731  0.4808 -0.2851  0.5045
 2508SOL     OW18982   1.567   4.077  15.585 -0.0433 -0.0296 -0.3363
 2508SOL    HW118983   1.622   4.087  15.663  0.0483  1.4221 -0.5928
 2508SOL    HW218984   1.590   4.160  15.543  0.4954  0.1611  0.3355
 2509SOL     OW18985   0.484   0.019   2.718 -0.3039 -0.1811  0.1052
 2509SOL    HW118986   0.403   0.041   2.674  0.4642 -0.1542 -1.2889
 2509SOL    HW218987   0.448   4.712   2.801 -0.2839 -4.2569 -1.4024
 2510SOL     OW18988   1.000   1.720   4.359  0.6424  0.0421  0.3644
 2510SOL    HW118989   0.924   1.771   4.385  1.4450  1.5471 -0.1859
 2510SOL    HW218990   1.008   1.653   4.426  3.2744 -0.5661 -0.5546
 2511SOL     OW18991   2.129   4.332  10.458  0.7276  0.0221  0.0457
 2511SOL    HW118992   2.131   4.317  10.363 -1.5848  0.9833 -0.1606
 2511SOL    HW218993   2.093   4.420  10.460 -0.4201 -0.3774 -2.3690
 2512SOL     OW18994   0.789   4.666  13.893 -0.0165  0.4958 -0.2550
 2512SOL    HW118995   0.725   0.008  13.921 -1.3567 -1.4593  1.3399
 2512SOL    HW218996   0.797   4.677  13.799 -1.9638  0.0165 -0.4878
 2513SOL     OW18997   1.977   2.395  12.034  0.1500 -0.3632 -0.0856
 2513SOL    HW118998   1.934   2.312  12.053  0.3017  0.0136  1.8608
 2513SOL    HW218999   2.000   2.384  11.942  1.0931  0.0952  0.0931
 2514SOL     OW19000   0.294   3.434   5.683 -0.3964 -0.0064  0.0234
 2514SOL    HW119001   0.241   3.513   5.688 -0.7992 -0.2912  0.3107
 2514SOL    HW219002   0.221   3.372   5.688 -0.8278  0.7199  3.1802
 2515SOL     OW19003   1.527   2.517   3.480  0.4549  0.1942 -0.4679
 2515SOL    HW119004   1.569   2.432   3.493  0.1168 -0.2568 -2.3126
 2515SOL    HW219005   1.449   2.511   3.536  0.6770  0.6814 -0.1074
 2516SOL     OW19006   0.080   0.375   5.218 -0.2204 -0.0681 -0.4006
 2516SOL    HW119007   0.112   0.430   5.147 -0.4862 -1.3440 -1.4946
 2516SOL    HW219008   0.124   0.416   5.293  1.3569 -0.2504 -1.2233
 2517SOL     OW19009   4.491   0.603   3.238  0.4917  0.0384  0.1652
 2517SOL    HW119010   4.406   0.642   3.257 -0.5393 -1.9361 -0.4772
 2517SOL    HW219011   4.470   0.512   3.257  2.1527 -0.8674 -2.2981
 2518SOL     OW19012   2.190   2.849   2.377  0.1354  0.4018  0.7799
 2518SOL    HW119013   2.198   2.944   2.388  1.8113 -0.0153  2.9838
 2518SOL    HW219014   2.266   2.830   2.322 -0.2142  2.1414 -0.3153
 2519SOL     OW19015   1.232   2.032   2.183 -0.0818 -0.4814 -0.0874
 2519SOL    HW119016   1.153   2.027   2.131 -0.7903 -0.7546  1.0156
 2519SOL    HW219017   1.207   2.016   2.274  1.0064  0.7809  0.4506
 2520SOL     OW19018   0.461   3.585  16.687  0.6446  0.4612 -0.1758
 2520SOL    HW119019   0.441   3.673  16.654  2.7892  0.6293 -1.0206
 2520SOL    HW219020   0.455   3.528  16.611 -2.1064  0.7847 -0.2004
 2521SOL     OW19021   4.305   3.924   4.956 -0.1638  0.4764 -0.7603
 2521SOL    HW119022   4.276   4.012   4.981  1.1018  0.8026 -0.4737
 2521SOL    HW219023   4.275   3.877   5.034  2.3051 -0.9992 -0.7151
 2522SOL     OW19024   0.223   4.462   2.824  0.3635  0.4089 -0.8602
 2522SOL    HW119025   0.218   4.500   2.737 -1.1512 -1.0306 -1.3863
 2522SOL    HW219026   0.316   4.458   2.848  0.7832  2.0856 -2.2443
 2523SOL     OW19027   2.814   0.847   7.953  0.1654  0.4101  0.0087
 2523SOL    HW119028   2.780   0.788   8.020 -1.3458  0.1600 -0.9968
 2523SOL    HW219029   2.828   0.784   7.883 -1.5094 -1.5203  1.4194
 2524SOL     OW19030   0.408   4.440   4.480 -0.5160 -0.0953  0.4355
 2524SOL    HW119031   0.474   4.430   4.411 -0.1232  2.6178  0.4394
 2524SOL    HW219032   0.380   4.531   4.473 -2.2356 -0.5900  0.9646
 2525SOL     OW19033   2.974   3.369  13.259 -0.4287  0.5628  0.0909
 2525SOL    HW119034   3.054   3.421  13.265 -0.1152  0.1580 -0.6960
 2525SOL    HW219035   2.915   3.420  13.315  3.7067  0.4413  4.6437
 2526SOL     OW19036   0.450   1.377   4.342  0.1831  0.3329 -0.1453
 2526SOL    HW119037   0.541   1.405   4.357  0.6404 -1.2803  0.1337
 2526SOL    HW219038   0.453   1.368   4.247  1.0906 -0.5157 -0.0465
 2527SOL     OW19039   4.191   1.643   1.552  0.1662  0.8606 -0.2093
 2527SOL    HW119040   4.169   1.573   1.490 -1.0312 -1.1555  2.5319
 2527SOL    HW219041   4.104   1.684   1.560 -0.8127 -0.9098 -1.6088
 2528SOL     OW19042   3.864   4.630  12.714  0.3541 -0.4602  0.2659
 2528SOL    HW119043   3.959   4.622  12.706  0.1620 -0.2338 -2.1922
 2528SOL    HW219044   3.837   4.622  12.622  2.5016 -0.1454 -0.3977
 2529SOL     OW19045   1.749   3.813   7.433  0.1722  0.1895  0.2257
 2529SOL    HW119046   1.836   3.775   7.438  0.2546  0.8463  3.3885
 2529SOL    HW219047   1.746   3.863   7.350 -0.1328 -0.0792  0.0730
 2530SOL     OW19048   2.399   3.600   3.291 -0.2115  0.5193 -0.6662
 2530SOL    HW119049   2.394   3.586   3.386  1.0023 -0.4714 -0.7557
 2530SOL    HW219050   2.490   3.573   3.275 -0.3805 -1.4216  1.5603
 2531SOL     OW19051   4.205   0.107   2.015  0.4855 -0.4777 -0.6436
 2531SOL    HW119052   4.224   0.134   2.105  0.3065 -0.5493 -0.5830
 2531SOL    HW219053   4.159   0.025   2.032 -0.1819 -0.1389 -0.7976
 2532SOL     OW19054   0.060   2.933   3.201 -0.2191 -0.6036  0.2916
 2532SOL    HW119055   0.027   2.943   3.111 -0.4354  1.6652  0.6254
 2532SOL    HW219056   4.707   2.921   3.257  0.0066 -1.0243  0.5088
 2533SOL     OW19057   3.786   3.423  11.069  0.0155 -0.7090 -0.4049
 2533SOL    HW119058   3.773   3.333  11.039 -0.5230 -0.3988 -1.0782
 2533SOL    HW219059   3.813   3.472  10.992 -0.5933 -0.8358 -0.6944
 2534SOL     OW19060   4.182   2.366   8.428 -0.0172 -0.0046  0.1771
 2534SOL    HW119061   4.188   2.275   8.456 -0.5821 -0.1388 -0.1308
 2534SOL    HW219062   4.273   2.392   8.414  0.5587 -1.4534  1.1854
 2535SOL     OW19063   1.660   3.037  11.123  0.1039  0.3250 -0.4360
 2535SOL    HW119064   1.716   3.043  11.046  0.7671 -1.5945 -0.0973
 2535SOL    HW219065   1.638   3.130  11.130 -0.1620  0.1986  0.4712
 2536SOL     OW19066   3.981   3.763   4.326 -0.4360 -0.0817 -0.6782
 2536SOL    HW119067   4.049   3.816   4.367 -0.2736 -2.3840  2.0788
 2536SOL    HW219068   3.927   3.835   4.294 -1.2457  0.2804  1.4451
 2537SOL     OW19069   2.868   2.702  15.107 -0.4938 -0.0220  0.2458
 2537SOL    HW119070   2.827   2.765  15.048 -2.0382 -1.0989  0.1911
 2537SOL    HW219071   2.900   2.757  15.178  0.1029 -1.0147  0.7437
 2538SOL     OW19072   2.047   0.310   7.650 -0.1863  0.2035 -0.4579
 2538SOL    HW119073   1.982   0.241   7.640 -1.2709  1.0740  0.5947
 2538SOL    HW219074   1.997   0.390   7.638 -2.6940 -1.5859 -1.7810
 2539SOL     OW19075   3.326   4.579   6.698 -0.1408  0.2512  0.4908
 2539SOL    HW119076   3.418   4.554   6.702  0.0598  0.8267 -0.5241
 2539SOL    HW219077   3.319   4.641   6.771 -3.8803  2.0403 -1.3568
 2540SOL     OW19078   4.352   2.036  12.315  0.5209  0.0439  0.0385
 2540SOL    HW119079   4.288   2.063  12.381 -0.2152 -0.6839 -0.3726
 2540SOL    HW219080   4.317   2.064  12.231  3.4213 -0.6199 -1.3975
 2541SOL     OW19081   1.778   3.480  16.145 -0.0485  0.1257 -0.2077
 2541SOL    HW119082   1.802   3.571  16.164 -0.5050 -0.2718  2.3339
 2541SOL    HW219083   1.827   3.466  16.065 -0.1349  1.3732 -0.4866
 2542SOL     OW19084   4.316   1.166   8.537 -0.3593  0.8187  0.9496
 2542SOL    HW119085   4.278   1.251   8.561 -0.8360  0.5681  1.0832
 2542SOL    HW219086   4.309   1.178   8.442  3.1401 -2.3044  0.2930
 2543SOL     OW19087   1.439   2.364  16.471 -0.1292 -0.7309 -0.6748
 2543SOL    HW119088   1.433   2.286  16.527 -1.7892 -0.3431 -0.2880
 2543SOL    HW219089   1.365   2.345  16.413 -0.8620  1.5873 -0.5264
 2544SOL     OW19090   0.344   4.604  14.909  0.4455 -0.1004 -0.6926
 2544SOL    HW119091   0.429   4.578  14.946 -1.0939 -2.0707  1.4745
 2544SOL    HW219092   0.365   4.601  14.816 -0.3156 -0.5819 -0.8469
 2545SOL     OW19093   3.277   3.059   5.849  0.3558  0.4534 -0.6275
 2545SOL    HW119094   3.348   2.994   5.846  0.6935  0.8319 -0.9722
 2545SOL    HW219095   3.213   3.023   5.909  2.7174 -0.9532  1.0492
 2546SOL     OW19096   1.209   3.561  16.802 -0.0070  0.3723 -0.4013
 2546SOL    HW119097   1.208   3.657  16.792 -0.6148  0.4648  0.5628
 2546SOL    HW219098   1.123   3.538  16.765 -0.4828  2.2954 -0.5428
 2547SOL     OW19099   4.466   3.251   7.865  0.1573 -0.0825 -0.5293
 2547SOL    HW119100   4.533   3.203   7.817  0.6608 -1.2986  1.4282
 2547SOL    HW219101   4.403   3.181   7.882 -1.6607  1.5642 -0.4303
 2548SOL     OW19102   1.472   0.538  11.212 -0.0636  0.3272 -0.5545
 2548SOL    HW119103   1.500   0.574  11.296  0.0215  0.1155 -0.4946
 2548SOL    HW219104   1.422   0.613  11.178  0.3934  1.2387  0.7941
 2549SOL     OW19105   0.014   2.149   2.691 -0.4680 -0.1499  0.2438
 2549SOL    HW119106   4.648   2.118   2.704 -0.6039  0.5599  0.9277
 2549SOL    HW219107   0.023   2.171   2.598  0.3020 -1.2979  0.0374
 2550SOL     OW19108   2.435   1.702   5.513  0.3771 -0.3968  0.0613
 2550SOL    HW119109   2.406   1.701   5.604  1.3560  0.8871  0.3772
 2550SOL    HW219110   2.346   1.716   5.479  0.5042  0.4922  0.1123
 2551SOL     OW19111   4.375   2.104  11.034 -0.0976 -0.5008  0.3360
 2551SOL    HW119112   4.404   2.193  11.052 -1.8157  0.1462 -0.0928
 2551SOL    HW219113   4.282   2.116  11.050  0.0729  0.0457  0.9522
 2552SOL     OW19114   0.946   4.022  11.974 -0.0505  0.0070 -0.3001
 2552SOL    HW119115   0.946   3.949  12.036  1.0604  0.4815  0.2574
 2552SOL    HW219116   1.031   4.059  11.998 -0.9144  2.3269 -0.7390
 2553SOL     OW19117   4.710   0.094   5.566  0.4879  0.1863 -0.6775
 2553SOL    HW119118   0.078   0.121   5.558  0.2367  1.0156 -0.6753
 2553SOL    HW219119   4.701   0.033   5.492  0.9357 -0.2202 -0.3948
 2554SOL     OW19120   3.769   1.461   5.826 -0.2833 -0.2205 -0.1161
 2554SOL    HW119121   3.860   1.451   5.800 -0.6738  2.2396 -2.4138
 2554SOL    HW219122   3.776   1.449   5.921 -4.0685 -0.9369  0.0720
 2555SOL     OW19123   3.173   1.175  16.492  0.4362  0.2440 -0.1488
 2555SOL    HW119124   3.180   1.185  16.397 -1.2097 -2.3396 -0.5505
 2555SOL    HW219125   3.268   1.173  16.509  0.0744 -0.0774  1.8039
 2556SOL     OW19126   0.283   2.042  10.929 -0.2473 -0.0894 -0.3899
 2556SOL    HW119127   0.251   2.098  10.858 -0.8856  1.9280  1.5049
 2556SOL    HW219128   0.217   1.973  10.924 -2.1557  1.7048  0.1136
 2557SOL     OW19129   2.457   2.906   7.900 -1.0433 -0.4605  0.6924
 2557SOL    HW119130   2.550   2.915   7.921 -1.3856  2.5956  0.9615
 2557SOL    HW219131   2.409   2.965   7.958 -0.6876  0.7514 -0.2413
 2558SOL     OW19132   0.965   4.704   2.922 -0.0138 -0.4633 -0.2839
 2558SOL    HW119133   0.990   4.715   2.831  2.9671  0.7633  0.6777
 2558SOL    HW219134   0.914   4.623   2.924 -0.5602 -0.1207 -0.2640
 2559SOL     OW19135   1.151   4.283   6.730 -0.1841 -0.2265  0.2662
 2559SOL    HW119136   1.183   4.356   6.782  2.1145 -0.5612 -0.6712
 2559SOL    HW219137   1.124   4.322   6.647  2.4849 -2.1964 -1.5402
 2560SOL     OW19138   1.066   2.805   8.998 -0.3550  0.1219  0.1883
 2560SOL    HW119139   1.139   2.866   9.005 -1.0493  0.9032  0.6318
 2560SOL    HW219140   1.092   2.758   8.919  0.2311 -0.1667  0.5515
 2561SOL     OW19141   0.832   3.953   6.024  0.0184 -0.5968  0.2788
 2561SOL    HW119142   0.756   3.895   6.033 -1.3160  0.8714 -1.3528
 2561SOL    HW219143   0.903   3.893   6.047 -0.9024 -1.8983 -0.2736
 2562SOL     OW19144   2.954   4.063   4.591  0.1290  0.1320 -0.4444
 2562SOL    HW119145   2.974   4.069   4.684 -0.9642  0.9077 -0.2557
 2562SOL    HW219146   2.916   3.975   4.582  0.1833  0.2485 -1.8047
 2563SOL     OW19147   4.242   1.750  16.520 -0.5083 -0.5751 -0.0252
 2563SOL    HW119148   4.174   1.695  16.482  1.3408 -0.4045 -3.5692
 2563SOL    HW219149   4.296   1.693  16.574 -1.7833  1.3327  3.2371
 2564SOL     OW19150   0.433   0.217  11.290 -0.2022 -0.8163 -0.3972
 2564SOL    HW119151   0.341   0.197  11.274 -0.6941  1.3300 -0.2667
 2564SOL    HW219152   0.460   0.286  11.228 -0.0648  1.3460  2.0985
 2565SOL     OW19153   4.414   3.168  13.522  0.1286 -0.0945  0.5065
 2565SOL    HW119154   4.356   3.153  13.597 -0.1638 -1.7667 -0.0705
 2565SOL    HW219155   4.366   3.228  13.464  0.5222  0.1180  0.3984
 2566SOL     OW19156   0.128   1.697   7.222 -0.3335 -0.4119  0.2560
 2566SOL    HW119157   0.170   1.639   7.286  0.5684 -0.2953 -0.2296
 2566SOL    HW219158   0.205   1.723   7.172 -0.7630  0.8669  0.2519
 2567SOL     OW19159   2.988   3.740  11.345 -0.4621  0.2269 -0.3000
 2567SOL    HW119160   2.949   3.720  11.260  0.1965  1.3364 -0.8678
 2567SOL    HW219161   2.960   3.831  11.334  2.6534  1.1467 -0.6407
 2568SOL     OW19162   4.289   3.909   4.674  0.5426  0.5674 -0.4887
 2568SOL    HW119163   4.292   3.982   4.736 -0.2075 -0.0167  0.2411
 2568SOL    HW219164   4.378   3.873   4.682  1.0559  1.5160 -1.9494
 2569SOL     OW19165   3.758   0.457  17.014 -0.3887 -0.0540  0.0576
 2569SOL    HW119166   3.688   0.406  17.056 -1.6200  1.8193  0.2490
 2569SOL    HW219167   3.831   0.406  17.049  0.6946  1.2052 -0.3806
 2570SOL     OW19168   1.630   1.194   9.430 -1.0766  0.2814  0.0447
 2570SOL    HW119169   1.538   1.169   9.418 -0.8822 -0.5318  0.2236
 2570SOL    HW219170   1.645   1.242   9.349 -0.3740 -0.7649 -0.4393
 2571SOL     OW19171   0.024   0.876  16.237 -0.0006 -0.2406  0.7140
 2571SOL    HW119172   0.022   0.937  16.163  0.6812 -0.9512  0.0974
 2571SOL    HW219173   4.705   0.796  16.207  1.2050 -1.1052  1.2742
 2572SOL     OW19174   1.862   1.144   5.264 -0.2772  0.0960  0.4000
 2572SOL    HW119175   1.954   1.118   5.274 -1.1785 -3.2826 -0.1848
 2572SOL    HW219176   1.868   1.239   5.256 -0.7179  0.3262  3.0732
 2573SOL     OW19177   3.235   0.864   8.502 -0.1481 -0.0648  0.2373
 2573SOL    HW119178   3.145   0.846   8.529 -0.9252  1.1327 -1.5550
 2573SOL    HW219179   3.222   0.957   8.482  2.2609  0.0429 -0.8219
 2574SOL     OW19180   1.234   0.062   4.415  0.4936  0.0093 -0.2486
 2574SOL    HW119181   1.201   0.012   4.490 -0.1569 -0.4068 -0.8094
 2574SOL    HW219182   1.322   0.083   4.448  1.7771 -0.8189 -3.1694
 2575SOL     OW19183   1.212   0.227   1.523  0.7040  0.8757  0.0810
 2575SOL    HW119184   1.235   0.318   1.505 -0.9687  1.2595 -0.1816
 2575SOL    HW219185   1.132   0.242   1.574 -0.3964 -1.1357 -1.0507
 2576SOL     OW19186   4.657   3.076  13.540  0.1878 -0.5760 -0.1757
 2576SOL    HW119187   4.702   3.146  13.586  0.0803 -0.7256  0.1607
 2576SOL    HW219188   4.574   3.122  13.533  0.2532 -0.9501 -3.5568
 2577SOL     OW19189   3.603   0.533   0.141 -1.0377  0.2008 -0.4752
 2577SOL    HW119190   3.600   0.531   0.237  1.2972  1.6301 -0.3777
 2577SOL    HW219191   3.648   0.616   0.126  1.0269 -0.6360  1.1410
 2578SOL     OW19192   2.977   1.207   4.535  0.1531 -0.5008 -0.6391
 2578SOL    HW119193   2.913   1.138   4.553  2.0808 -2.2961 -0.7003
 2578SOL    HW219194   3.001   1.231   4.624 -1.6495 -0.0225 -0.2778
 2579SOL     OW19195   4.602   4.346   3.529 -0.0256  0.2336 -0.7776
 2579SOL    HW119196   4.687   4.329   3.488  0.0709 -0.5333 -0.2602
 2579SOL    HW219197   4.567   4.257   3.538  0.2081  0.3074  0.8657
 2580SOL     OW19198   0.169   3.715   3.713  0.3219  0.0784 -0.7186
 2580SOL    HW119199   0.207   3.747   3.632 -1.1634  0.2526 -1.3517
 2580SOL    HW219200   0.108   3.656   3.669  1.3256 -1.8984  0.5337
 2581SOL     OW19201   2.304   1.080   4.684 -0.4892  0.2309  0.0188
 2581SOL    HW119202   2.238   1.086   4.753 -0.7323 -0.2380 -0.1704
 2581SOL    HW219203   2.260   1.035   4.611  0.6515  1.7278 -1.6050
 2582SOL     OW19204   0.144   1.239   4.959 -0.7180 -0.0763  0.0660
 2582SOL    HW119205   0.227   1.210   4.996 -0.8864  1.6062  1.7797
 2582SOL    HW219206   0.166   1.237   4.866  1.4662 -2.3757  0.6390
 2583SOL     OW19207   0.014   0.881   6.242 -0.2930 -0.4514 -0.5784
 2583SOL    HW119208   0.005   0.822   6.317 -0.2681  0.6767  0.3140
 2583SOL    HW219209   0.105   0.877   6.215 -0.2238  0.9558 -0.5080
 2584SOL     OW19210   2.620   0.048   5.158 -0.4883 -0.6732 -0.1076
 2584SOL    HW119211   2.534   0.009   5.177 -0.0016 -2.6481 -2.0023
 2584SOL    HW219212   2.616   0.117   5.224 -0.1717 -1.1450  0.4015
 2585SOL     OW19213   3.835   0.951   3.842 -0.1372 -0.2960 -0.1212
 2585SOL    HW119214   3.845   1.043   3.818  1.5973 -0.5916 -0.5307
 2585SOL    HW219215   3.848   0.905   3.759  0.6837  1.9653 -1.2396
 2586SOL     OW19216   0.877   2.163   7.487 -0.1767  0.0023  0.3492
 2586SOL    HW119217   0.876   2.071   7.461  3.1332 -0.8415  3.1519
 2586SOL    HW219218   0.793   2.186   7.448 -0.9827  1.0367  2.6935
 2587SOL     OW19219   1.732   3.106   4.780 -0.5619  0.3448 -0.0620
 2587SOL    HW119220   1.755   3.139   4.866  0.5774  0.3486 -0.3728
 2587SOL    HW219221   1.801   3.144   4.725  0.7792 -0.7801  0.8691
 2588SOL     OW19222   0.709   4.368   4.658 -0.8165 -0.1535 -0.0037
 2588SOL    HW119223   0.666   4.325   4.584 -2.2701 -0.2186  0.8613
 2588SOL    HW219224   0.668   4.321   4.731  0.6005 -0.8342  0.3498
 2589SOL     OW19225   0.806   2.463   9.085 -0.4645 -0.1754  0.3122
 2589SOL    HW119226   0.785   2.377   9.121  0.2488 -0.6059 -0.3066
 2589SOL    HW219227   0.901   2.467   9.097 -0.3364  0.1010 -0.8396
 2590SOL     OW19228   1.525   1.025   9.159  0.2702  0.0878  0.2144
 2590SOL    HW119229   1.482   1.094   9.210  0.3216 -0.5504  1.1211
 2590SOL    HW219230   1.449   0.991   9.113 -1.0555 -0.5052  2.8803
 2591SOL     OW19231   0.165   4.650   2.353  0.1031 -0.3514  1.2801
 2591SOL    HW119232   0.183   0.019   2.343 -0.9138 -0.4144 -1.1610
 2591SOL    HW219233   0.077   4.637   2.318  1.6731  1.7293 -3.5102
 2592SOL     OW19234   2.013   1.093  17.366  0.3669 -0.7815 -0.3853
 2592SOL    HW119235   2.075   1.111  17.295  0.7643 -3.4576 -0.7391
 2592SOL    HW219236   2.007   0.997  17.366 -0.1652 -0.7316  1.8337
 2593SOL     OW19237   1.212   1.746  13.137  0.2541 -0.3718  0.1135
 2593SOL    HW119238   1.258   1.786  13.063  1.6477 -2.3687 -0.1271
 2593SOL    HW219239   1.277   1.685  13.173  0.1655 -0.8095 -0.4617
 2594SOL     OW19240   2.118   1.705  10.518  0.3986  0.1654 -0.5532
 2594SOL    HW119241   2.078   1.676  10.599  1.5561  3.0200  1.0681
 2594SOL    HW219242   2.148   1.789  10.552 -0.4702 -0.9939  3.0443
 2595SOL     OW19243   0.078   2.019   3.274  0.6956 -0.1265 -0.4446
 2595SOL    HW119244   0.094   2.111   3.296 -0.8971 -0.0475  0.3900
 2595SOL    HW219245   0.045   2.001   3.361  1.1023  1.4256  0.0369
 2596SOL     OW19246   0.893   4.341   5.834 -0.4417  0.3254 -0.0456
 2596SOL    HW119247   0.844   4.261   5.813  3.2948 -2.2114  0.8759
 2596SOL    HW219248   0.977   4.306   5.864 -0.8803  0.2345  1.0471
 2597SOL     OW19249   3.070   4.431  13.334  0.3031 -0.4824  0.1315
 2597SOL    HW119250   3.153   4.465  13.301  0.6549 -3.3454 -1.9920
 2597SOL    HW219251   3.010   4.443  13.260  0.5976 -0.7450 -0.1503
 2598SOL     OW19252   4.569   1.903   0.366 -0.0936  0.5286 -0.2515
 2598SOL    HW119253   4.658   1.870   0.381 -0.9621 -1.7671 -0.0522
 2598SOL    HW219254   4.563   1.987   0.411  2.6772 -0.1689  1.4584
 2599SOL     OW19255   4.572   0.004   6.536  0.0309  1.0160 -0.0975
 2599SOL    HW119256   4.643   0.053   6.576  1.4213  0.7574 -2.2597
 2599SOL    HW219257   4.598   0.008   6.444  1.1491  1.3433  0.2328
 2600SOL     OW19258   0.731   2.847  15.765 -0.3851  0.9174 -0.3508
 2600SOL    HW119259   0.821   2.820  15.782 -0.3436  0.1657 -1.7732
 2600SOL    HW219260   0.746   2.903  15.690  1.2055 -2.1019 -2.2751
 2601SOL     OW19261   0.288   2.377  11.752 -0.1841 -0.0100  0.1104
 2601SOL    HW119262   0.304   2.423  11.670 -0.8311 -1.0048 -0.5855
 2601SOL    HW219263   0.230   2.308  11.719 -1.7380 -0.6684  4.1749
 2602SOL     OW19264   4.441   3.364   4.420 -0.2487 -0.0210  0.1912
 2602SOL    HW119265   4.406   3.398   4.502  0.4512 -2.5524  1.5513
 2602SOL    HW219266   4.389   3.409   4.354 -0.8105 -1.1681 -0.1500
 2603SOL     OW19267   3.108   1.741   1.064  0.2841 -0.0262 -0.2623
 2603SOL    HW119268   3.165   1.664   1.062  1.5056  0.9348 -2.7101
 2603SOL    HW219269   3.031   1.699   1.026  0.2373 -1.1258  1.0640
 2604SOL     OW19270   3.941   2.569   3.707 -0.0825 -1.1915 -0.4730
 2604SOL    HW119271   3.854   2.536   3.728 -1.0087  2.6723  1.7827
 2604SOL    HW219272   3.921   2.660   3.686  0.4858 -0.0759  3.6990
 2605SOL     OW19273   4.489   0.049   4.543  0.0449  0.1955 -0.6256
 2605SOL    HW119274   4.483   0.038   4.448 -1.5811  2.2871 -0.7603
 2605SOL    HW219275   4.490   4.680   4.566 -1.8161  0.7253  1.6475
 2606SOL     OW19276   3.916   2.148  14.362 -0.2797  0.2757  0.6060
 2606SOL    HW119277   3.843   2.114  14.413  1.0746 -2.5708  0.6706
 2606SOL    HW219278   3.875   2.191  14.287  0.3968  0.6202  0.4329
 2607SOL     OW19279   3.307   3.373   8.238 -0.0664 -0.4072 -0.4499
 2607SOL    HW119280   3.388   3.328   8.213 -0.0568  0.5500 -2.1466
 2607SOL    HW219281   3.296   3.420   8.155  2.6297 -0.9528 -1.0893
 2608SOL     OW19282   1.315   2.247   5.902 -0.0746 -0.0490  0.2468
 2608SOL    HW119283   1.267   2.256   5.820  0.8192 -1.3076 -0.4190
 2608SOL    HW219284   1.382   2.184   5.875 -0.1756  0.6495 -1.6783
 2609SOL     OW19285   4.458   2.277   4.124  0.0910  0.3717 -0.4529
 2609SOL    HW119286   4.482   2.334   4.197 -2.2263  1.5135 -0.5573
 2609SOL    HW219287   4.540   2.242   4.090  0.1608 -0.4138  0.5242
 2610SOL     OW19288   2.286   3.108   2.731  0.0816  0.2847 -0.1653
 2610SOL    HW119289   2.366   3.160   2.724  1.1519 -1.3016  0.1158
 2610SOL    HW219290   2.253   3.109   2.642 -0.6511 -0.9026  0.0964
 2611SOL     OW19291   3.300   2.071  13.390  0.2856  0.3294  0.4996
 2611SOL    HW119292   3.380   2.058  13.441  1.3918 -1.4129 -1.6993
 2611SOL    HW219293   3.329   2.147  13.340  2.9191 -0.4432  0.8687
 2612SOL     OW19294   2.582   1.184   4.033  1.2020 -0.8023 -0.2260
 2612SOL    HW119295   2.583   1.133   4.114 -0.3869 -0.1077  0.2300
 2612SOL    HW219296   2.674   1.179   4.008  1.4397 -0.5204  0.5858
 2613SOL     OW19297   2.765   3.753  13.225  0.4931  0.4263  0.3818
 2613SOL    HW119298   2.827   3.719  13.290  0.5111  1.6608  0.9966
 2613SOL    HW219299   2.794   3.694  13.155  1.7656 -0.1880  1.4115
 2614SOL     OW19300   4.252   1.091   2.979 -0.1740 -0.2560 -0.3778
 2614SOL    HW119301   4.290   1.096   2.892  0.0128  0.5379 -0.2508
 2614SOL    HW219302   4.216   1.178   2.996  0.1155 -0.4722  1.4170
 2615SOL     OW19303   1.837   0.603   5.868  0.2732  0.0849 -0.5854
 2615SOL    HW119304   1.884   0.675   5.911  2.5438 -0.9355 -1.3898
 2615SOL    HW219305   1.806   0.645   5.789 -1.4393 -1.5763 -0.8100
 2616SOL     OW19306   3.523   0.548   7.415  0.6182  0.1568  0.1690
 2616SOL    HW119307   3.520   0.472   7.474  1.0842  0.4750  0.6005
 2616SOL    HW219308   3.611   0.582   7.428 -0.2161  1.5364  2.1811
 2617SOL     OW19309   2.176   2.369  10.121  0.2857  0.6088 -0.7637
 2617SOL    HW119310   2.172   2.320  10.203 -0.0196  0.3340 -0.9410
 2617SOL    HW219311   2.129   2.308  10.063 -0.3424 -0.8697  1.3040
 2618SOL     OW19312   0.668   4.224   0.642  0.1141  0.9008  0.2009
 2618SOL    HW119313   0.584   4.178   0.643 -0.5207  2.1143  1.3414
 2618SOL    HW219314   0.688   4.234   0.549  2.8241  0.9692  0.8089
 2619SOL     OW19315   1.633   3.575   6.650  0.0792 -0.3065  0.5420
 2619SOL    HW119316   1.660   3.497   6.601  1.3124 -0.4660  1.4828
 2619SOL    HW219317   1.701   3.581   6.718  1.4942  0.3486 -0.9228
 2620SOL     OW19318   2.116   0.326   5.289 -0.3048  0.8814 -0.4943
 2620SOL    HW119319   2.185   0.384   5.322  0.1204 -0.0030  0.1622
 2620SOL    HW219320   2.145   0.305   5.201  2.2605 -0.4898  0.6655
 2621SOL     OW19321   1.428   0.516   6.383 -0.4221 -0.1342 -0.3221
 2621SOL    HW119322   1.409   0.605   6.413  0.6058  0.8584 -2.6831
 2621SOL    HW219323   1.500   0.535   6.324 -1.1927  0.7005 -0.9918
 2622SOL     OW19324   1.929   4.313   8.548 -0.4631 -0.7631  0.3393
 2622SOL    HW119325   1.840   4.339   8.523 -0.2317 -1.1147 -0.8502
 2622SOL    HW219326   1.941   4.350   8.636 -3.4611 -0.9825  0.8409
 2623SOL     OW19327   3.764   2.176   6.923  0.0671  0.0208 -0.2330
 2623SOL    HW119328   3.811   2.109   6.874 -1.5192  0.1600 -1.9210
 2623SOL    HW219329   3.744   2.141   7.010 -1.2539  2.5734  0.4963
 2624SOL     OW19330   2.986   3.905   7.905 -0.5889 -0.6790  0.1342
 2624SOL    HW119331   2.938   3.827   7.931 -1.2591  0.2838  1.8193
 2624SOL    HW219332   2.944   3.910   7.819 -2.0633  0.4126  0.8988
 2625SOL     OW19333   0.847   3.151   5.034  0.1560  0.7447 -0.3752
 2625SOL    HW119334   0.882   3.229   4.992  1.2875 -0.4611 -1.7237
 2625SOL    HW219335   0.905   3.129   5.108 -0.6750  0.6884  0.2538
 2626SOL     OW19336   1.168   2.933  15.031  0.1189  0.5387 -0.0134
 2626SOL    HW119337   1.213   2.897  14.955  3.1287  1.2975  1.4197
 2626SOL    HW219338   1.236   2.976  15.083 -0.5783 -1.1394  2.2952
 2627SOL     OW19339   3.540   0.488   8.268 -0.1460 -0.8037 -0.1915
 2627SOL    HW119340   3.558   0.429   8.195  1.8146 -1.9311  1.2136
 2627SOL    HW219341   3.609   0.453   8.324  1.9844  2.5879 -0.6563
 2628SOL     OW19342   3.559   2.599  10.225 -0.5308 -0.4678 -0.2186
 2628SOL    HW119343   3.560   2.551  10.143 -0.3689  0.1255 -0.5595
 2628SOL    HW219344   3.584   2.685  10.193  0.0817 -0.6462 -0.2207
 2629SOL     OW19345   2.368   4.625  10.562 -0.0613 -0.0099  0.6477
 2629SOL    HW119346   2.415   4.637  10.645 -1.5602  0.6180  1.4031
 2629SOL    HW219347   2.274   4.623  10.580  0.0898  2.3183  1.7170
 2630SOL     OW19348   0.288   3.389   8.008  0.3781  0.0818 -0.3268
 2630SOL    HW119349   0.319   3.432   8.087 -1.0766 -0.0980  0.3394
 2630SOL    HW219350   0.220   3.334   8.047  2.4393 -1.6249  0.8615
 2631SOL     OW19351   2.268   1.758   4.258  0.1540 -0.7273  0.6122
 2631SOL    HW119352   2.282   1.743   4.165  0.7387  0.0724  0.5696
 2631SOL    HW219353   2.173   1.772   4.258 -0.0467 -2.1161  0.1408
 2632SOL     OW19354   3.217   3.026   6.581  0.1739  0.2997 -0.6721
 2632SOL    HW119355   3.223   3.120   6.599  0.4117 -0.3046  2.4005
 2632SOL    HW219356   3.123   3.011   6.574  0.2128 -0.1537 -0.2188
 2633SOL     OW19357   2.079   2.301   6.947 -0.2532  0.9979  0.3354
 2633SOL    HW119358   2.045   2.309   7.036  1.3688 -0.5890  1.0903
 2633SOL    HW219359   2.030   2.374   6.908 -0.8952  1.4079  1.9169
 2634SOL     OW19360   0.411   3.972   3.618 -0.0423  0.3446  0.0363
 2634SOL    HW119361   0.436   4.057   3.581  0.3505  0.3920  0.4167
 2634SOL    HW219362   0.455   3.966   3.702 -0.2354  0.8441  0.1734
 2635SOL     OW19363   1.070   3.414  10.671  0.5513  0.0867  0.5270
 2635SOL    HW119364   1.094   3.445  10.758  0.1902 -2.7512  1.6521
 2635SOL    HW219365   0.974   3.420  10.671  0.4532 -1.3253  1.8509
 2636SOL     OW19366   3.639   2.748  15.069  0.1398 -0.2602 -0.2947
 2636SOL    HW119367   3.728   2.750  15.104 -0.6598 -1.5803  1.8019
 2636SOL    HW219368   3.608   2.658  15.081  0.3017 -0.2374  0.3033
 2637SOL     OW19369   0.030   0.320   3.710  0.3533 -0.2381  0.3411
 2637SOL    HW119370   0.105   0.332   3.768  0.7871 -0.2759 -0.2105
 2637SOL    HW219371   0.067   0.341   3.624 -0.0674  1.8437  0.6637
 2638SOL     OW19372   3.386   2.417   3.643  0.2980  0.3648 -0.2605
 2638SOL    HW119373   3.309   2.467   3.669 -1.3908 -3.6196  2.2519
 2638SOL    HW219374   3.397   2.440   3.551 -0.9362 -1.6605 -0.9076
 2639SOL     OW19375   0.129   3.198   4.350  0.4375 -0.2431  0.4908
 2639SOL    HW119376   0.204   3.240   4.391 -0.2148 -0.4851  1.9527
 2639SOL    HW219377   0.159   3.189   4.260 -0.9672 -0.5319  0.0493
 2640SOL     OW19378   4.597   1.998   4.578  0.0867 -0.5469 -0.4111
 2640SOL    HW119379   4.604   2.078   4.630 -0.0188 -0.1011 -1.0862
 2640SOL    HW219380   4.625   2.034   4.494 -0.2412 -3.4315 -1.7665
 2641SOL     OW19381   4.307   4.665   4.811  0.1044 -0.3810  0.2706
 2641SOL    HW119382   4.253   4.693   4.885  0.2540  0.2755  0.1324
 2641SOL    HW219383   4.390   4.709   4.830 -0.7727  1.4840 -0.3002
 2642SOL     OW19384   1.843   3.664   3.263 -0.0835  0.1048 -0.0318
 2642SOL    HW119385   1.810   3.584   3.223  1.8617 -1.0538  0.6538
 2642SOL    HW219386   1.771   3.709   3.307  0.3137  0.0036  0.7279
 2643SOL     OW19387   2.720   1.140   6.202 -0.2780  0.1412  0.1272
 2643SOL    HW119388   2.671   1.222   6.198 -0.7107 -0.0042  2.4444
 2643SOL    HW219389   2.739   1.132   6.108  0.4914 -2.2890  0.4998
 2644SOL     OW19390   1.511   3.866   3.788 -0.0581 -0.3224  0.3040
 2644SOL    HW119391   1.535   3.898   3.875 -1.4006 -1.4721  1.1184
 2644SOL    HW219392   1.569   3.916   3.732  0.5955 -0.6799  0.6535
 2645SOL     OW19393   1.358   1.987  15.948 -0.0511  0.1542 -0.0698
 2645SOL    HW119394   1.431   1.926  15.961  0.7942  1.0904 -0.4732
 2645SOL    HW219395   1.304   1.970  16.026  2.8353  0.0764  1.8842
 2646SOL     OW19396   0.466   3.450  16.381  0.5134 -0.2536 -0.5094
 2646SOL    HW119397   0.529   3.389  16.417  0.4182 -0.6634 -1.0464
 2646SOL    HW219398   0.470   3.428  16.288 -0.5883  1.2749 -0.9192
 2647SOL     OW19399   1.215   3.863  17.406 -0.6209  0.2734 -0.3006
 2647SOL    HW119400   1.310   3.861  17.402 -0.6030 -0.9256  0.7768
 2647SOL    HW219401   1.199   3.924  17.334 -3.4811 -1.0572 -0.8360
 2648SOL     OW19402   4.621   1.733   8.959 -0.1013  0.4495 -0.4156
 2648SOL    HW119403   4.673   1.706   8.883  0.8851  0.8208  0.1435
 2648SOL    HW219404   4.695   1.753   9.015  0.5935 -2.7489 -0.1975
 2649SOL     OW19405   1.868   1.247   2.589  0.3198 -0.3529 -0.2313
 2649SOL    HW119406   1.912   1.254   2.504 -2.7028 -2.4091 -1.9604
 2649SOL    HW219407   1.782   1.281   2.563  0.1934 -0.5149 -0.0149
 2650SOL     OW19408   4.083   3.226   7.675 -0.2044  0.5085 -0.3637
 2650SOL    HW119409   4.066   3.295   7.739  1.5322 -1.0816  1.8003
 2650SOL    HW219410   4.170   3.244   7.640  0.6708 -0.9674  1.0366
 2651SOL     OW19411   4.298   3.747   5.645  0.1542  0.1713 -0.5635
 2651SOL    HW119412   4.279   3.672   5.587  0.6508  0.3634 -0.9781
 2651SOL    HW219413   4.213   3.790   5.647  0.2137  0.2773 -0.3502
 2652SOL     OW19414   1.813   1.033   0.536  0.1116 -0.6836 -0.3419
 2652SOL    HW119415   1.757   0.968   0.493 -0.9796  1.1257 -1.6766
 2652SOL    HW219416   1.777   1.034   0.624  2.7843 -1.6977  0.7747
 2653SOL     OW19417   2.404   2.748   8.761 -0.5415 -0.7439 -0.4035
 2653SOL    HW119418   2.414   2.665   8.715 -1.0784 -0.7521 -0.4975
 2653SOL    HW219419   2.309   2.758   8.758 -0.4801 -0.1665 -0.3418
 2654SOL     OW19420   1.241   4.397   4.737  0.0030 -0.0712  0.2651
 2654SOL    HW119421   1.191   4.363   4.812  0.1493  0.9583  0.8285
 2654SOL    HW219422   1.216   4.343   4.662  0.0991 -1.5796  1.3032
 2655SOL     OW19423   3.451   2.807   4.787  0.0131 -0.1559  0.0797
 2655SOL    HW119424   3.457   2.902   4.799 -0.4312 -0.3528  1.8886
 2655SOL    HW219425   3.396   2.779   4.861 -0.3911  0.8129  0.1398
 2656SOL     OW19426   2.637   2.099   5.213  0.2104 -0.0939  0.5992
 2656SOL    HW119427   2.727   2.072   5.194  0.4943  2.5966 -1.8137
 2656SOL    HW219428   2.596   2.013   5.223 -0.0360 -0.3440 -2.7338
 2657SOL     OW19429   3.718   2.501   2.513 -0.0494 -0.4640 -1.0356
 2657SOL    HW119430   3.803   2.462   2.534 -0.5688 -0.6885  0.6926
 2657SOL    HW219431   3.728   2.589   2.549  0.6445 -0.0975 -2.1137
 2658SOL     OW19432   1.207   2.954   2.581  0.0757 -0.2186 -0.4861
 2658SOL    HW119433   1.130   2.988   2.535 -0.1179 -0.9912 -0.7317
 2658SOL    HW219434   1.173   2.959   2.670 -1.0655 -1.6685 -0.8516
 2659SOL     OW19435   4.326   4.294  15.432 -0.3002 -0.8209  0.0340
 2659SOL    HW119436   4.414   4.326  15.413 -1.0786  3.5498  3.7748
 2659SOL    HW219437   4.342   4.200  15.441 -0.2697 -0.5827  2.3351
 2660SOL     OW19438   0.070   1.026   5.971  0.4693 -0.3807 -0.0635
 2660SOL    HW119439   0.035   1.114   5.981  0.7138 -0.3315  0.3703
 2660SOL    HW219440   0.034   0.998   6.055 -0.9950 -0.6031 -0.7727
 2661SOL     OW19441   2.771   0.042  11.731 -0.5477 -0.3509  0.0227
 2661SOL    HW119442   2.761   0.111  11.797  0.2500 -0.2153  0.0110
 2661SOL    HW219443   2.728   4.692  11.772 -1.2243  0.2349  0.3594
 2662SOL     OW19444   0.922   2.149   0.768 -0.2679 -0.0479 -0.5039
 2662SOL    HW119445   0.977   2.073   0.789 -0.8768 -0.5712 -0.7973
 2662SOL    HW219446   0.982   2.224   0.769 -0.5693  0.2195 -2.6684
 2663SOL     OW19447   3.296   4.257   2.649  0.5045 -0.7407 -0.5104
 2663SOL    HW119448   3.372   4.226   2.600  1.4339  1.5579 -0.5290
 2663SOL    HW219449   3.313   4.351   2.645  0.5451 -0.7019  0.7584
 2664SOL     OW19450   3.850   3.139   7.564  0.0977 -0.5338 -0.0186
 2664SOL    HW119451   3.847   3.074   7.494 -1.8159  1.0012 -1.3666
 2664SOL    HW219452   3.943   3.143   7.588 -0.0765 -3.1978  1.1103
 2665SOL     OW19453   1.284   0.962   9.024  0.3715 -0.1675  0.1359
 2665SOL    HW119454   1.204   0.985   9.073  0.7472 -1.3080  1.2833
 2665SOL    HW219455   1.278   0.873   8.990  0.0853 -0.5788  1.2360
 2666SOL     OW19456   1.420   0.851   0.609 -0.4017 -0.1805  0.0531
 2666SOL    HW119457   1.373   0.857   0.526 -1.0391 -0.5220  0.3884
 2666SOL    HW219458   1.494   0.802   0.573 -2.2127 -1.8864 -1.3190
 2667SOL     OW19459   2.921   3.996  17.637 -0.2437 -0.3710  0.0549
 2667SOL    HW119460   2.987   4.020   0.005  0.0350  1.8385 -1.0434
 2667SOL    HW219461   2.930   3.901  17.645 -0.3500 -0.3527  0.3829
 2668SOL     OW19462   2.804   2.863   7.739  0.3707  0.4253  0.7835
 2668SOL    HW119463   2.851   2.904   7.812  1.8901 -0.0703  0.0726
 2668SOL    HW219464   2.751   2.939   7.712 -0.3323 -0.4646 -0.3039
 2669SOL     OW19465   4.464   3.639  17.634  0.0408 -0.6214 -0.0068
 2669SOL    HW119466   4.522   3.711  17.608 -1.4070  0.3342 -0.6272
 2669SOL    HW219467   4.439   3.606  17.548  2.3782 -2.3216 -0.0440
 2670SOL     OW19468   4.288   0.928  16.854  0.8741 -0.6392  0.5422
 2670SOL    HW119469   4.252   0.966  16.774  1.9671 -1.7370 -0.4775
 2670SOL    HW219470   4.270   0.998  16.918 -1.2767 -0.4579 -0.2731
 2671SOL     OW19471   3.120   4.411   6.612  0.0216  0.0860 -0.0722
 2671SOL    HW119472   3.167   4.484   6.650 -0.3904 -0.1403  0.8686
 2671SOL    HW219473   3.199   4.358   6.601  1.9830  2.9434  0.4505
 2672SOL     OW19474   0.179   2.996  16.006  0.2995 -0.7447 -0.4711
 2672SOL    HW119475   0.217   2.913  16.036  0.5991 -0.8194 -1.0761
 2672SOL    HW219476   0.120   2.954  15.944 -4.0189  3.4690  0.8178
 2673SOL     OW19477   3.015   2.532   2.801  0.2585  0.4323 -0.5195
 2673SOL    HW119478   3.106   2.530   2.829  0.6625  0.7347 -1.8183
 2673SOL    HW219479   3.008   2.439   2.779 -1.9748 -0.1875  2.6724
 2674SOL     OW19480   3.573   2.010   5.582  0.0343 -0.1619 -0.0512
 2674SOL    HW119481   3.605   1.997   5.671 -0.2884 -0.8741 -0.0410
 2674SOL    HW219482   3.570   2.105   5.584 -2.9571 -0.2640  0.4392
 2675SOL     OW19483   1.742   2.577  17.360  0.0675 -0.1841 -0.2068
 2675SOL    HW119484   1.816   2.579  17.300  0.6673 -0.4547  0.5151
 2675SOL    HW219485   1.672   2.620  17.311  0.0334  1.0030  0.8828
 2676SOL     OW19486   0.876   1.747  11.769 -0.2538 -0.0183 -0.3762
 2676SOL    HW119487   0.931   1.676  11.736  1.0750  0.7731  0.1472
 2676SOL    HW219488   0.896   1.742  11.862 -0.9890  1.3245 -0.1497
 2677SOL     OW19489   3.472   4.182   7.212  0.0323 -0.2190  0.5781
 2677SOL    HW119490   3.436   4.258   7.166 -1.4728 -0.3263  1.5780
 2677SOL    HW219491   3.455   4.203   7.304  0.4540  0.3517  0.5281
 2678SOL     OW19492   1.718   0.523  10.179 -0.0575  0.5283 -0.2156
 2678SOL    HW119493   1.682   0.460  10.241 -2.2522  0.5372 -1.4667
 2678SOL    HW219494   1.751   0.597  10.230  0.3192  0.4819 -0.3906
 2679SOL     OW19495   0.722   1.256   8.617 -0.0772  0.3141 -0.2508
 2679SOL    HW119496   0.683   1.169   8.629  1.0274 -0.1340  0.0384
 2679SOL    HW219497   0.778   1.229   8.544 -0.8811  1.3620 -1.2701
 2680SOL     OW19498   1.393   1.666   7.106  0.4351 -0.1056 -0.5026
 2680SOL    HW119499   1.457   1.708   7.164  0.1017 -0.6969  0.2842
 2680SOL    HW219500   1.351   1.604   7.166  3.1643 -2.7701 -1.3547
 2681SOL     OW19501   3.788   4.146   5.680 -0.0344 -0.1556 -0.4495
 2681SOL    HW119502   3.739   4.194   5.747  1.4366  0.0574  0.4669
 2681SOL    HW219503   3.823   4.077   5.737 -0.1198 -1.7440 -2.3035
 2682SOL     OW19504   3.456   2.125   9.529 -0.1774  0.6045  0.0496
 2682SOL    HW119505   3.388   2.187   9.557  0.8058  1.5817  0.2830
 2682SOL    HW219506   3.443   2.061   9.599 -0.4763 -0.4016 -0.9270
 2683SOL     OW19507   0.041   0.527   6.915 -0.3379 -0.1154  0.3609
 2683SOL    HW119508   4.686   0.532   6.862 -0.4896  0.2642  0.6295
 2683SOL    HW219509   0.052   0.618   6.942  0.0513  0.3290 -1.2867
 2684SOL     OW19510   4.026   3.579   4.135 -0.6868  0.4691 -0.0818
 2684SOL    HW119511   3.942   3.534   4.132 -1.0669  1.1796 -0.2359
 2684SOL    HW219512   4.011   3.651   4.196  0.4174  1.6219 -1.1744
 2685SOL     OW19513   4.641   2.455  11.682 -0.1654 -0.4070  0.4645
 2685SOL    HW119514   4.666   2.545  11.664 -1.5806 -0.0636  0.2736
 2685SOL    HW219515   4.638   2.429  11.589  1.9726 -0.6279  0.4550
 2686SOL     OW19516   2.988   2.338   4.034  0.4643  0.1052 -0.1150
 2686SOL    HW119517   2.972   2.300   4.121  2.8489  1.8656  1.1159
 2686SOL    HW219518   2.906   2.386   4.028  1.2494  1.5645  0.5988
 2687SOL     OW19519   2.395   2.074   1.980  0.5328 -0.5010  0.7822
 2687SOL    HW119520   2.449   2.076   2.058 -1.2881  1.2119  1.9854
 2687SOL    HW219521   2.471   2.062   1.924 -0.2271 -1.0489 -0.1401
 2688SOL     OW19522   1.349   2.576   0.166  0.0469  0.0978 -0.4236
 2688SOL    HW119523   1.296   2.647   0.129 -1.0958 -1.0112 -0.9314
 2688SOL    HW219524   1.373   2.532   0.084  0.3575 -0.7009  0.1045
 2689SOL     OW19525   0.953   4.652  11.646 -0.4856 -0.2706 -0.5458
 2689SOL    HW119526   0.894   4.580  11.668  1.0716 -1.4189 -0.1512
 2689SOL    HW219527   0.890   4.723  11.649  2.0281  2.0067 -1.5926
 2690SOL     OW19528   1.196   4.225   4.060  0.6590 -0.2146  0.0798
 2690SOL    HW119529   1.261   4.165   4.098  1.7625  0.6756 -0.4218
 2690SOL    HW219530   1.197   4.299   4.121 -0.1433  0.1815 -0.3936
 2691SOL     OW19531   1.457   3.799  17.469  0.7598 -0.2226 -0.7348
 2691SOL    HW119532   1.495   3.720  17.429 -0.2359 -0.6925 -0.7396
 2691SOL    HW219533   1.523   3.820  17.535 -1.0637 -0.2513  1.0880
 2692SOL     OW19534   2.661   3.580   3.137  0.3338  0.3798 -0.8334
 2692SOL    HW119535   2.736   3.596   3.194  0.4820  0.9496 -1.1939
 2692SOL    HW219536   2.664   3.661   3.086 -0.0281  1.2144  0.4652
 2693SOL     OW19537   3.824   2.926   4.698 -0.5558  0.0432 -0.2579
 2693SOL    HW119538   3.751   2.866   4.683 -1.7971  1.4954 -0.0754
 2693SOL    HW219539   3.885   2.883   4.757 -0.9941  1.5822  1.3481
 2694SOL     OW19540   4.279   2.859  16.545  0.1894 -0.0971  0.2032
 2694SOL    HW119541   4.374   2.847  16.542  0.0090 -1.1147 -1.4055
 2694SOL    HW219542   4.262   2.881  16.637 -0.6176 -0.3335  0.1055
 2695SOL     OW19543   3.278   3.408   2.269  0.0758  0.0515 -0.1693
 2695SOL    HW119544   3.226   3.445   2.341 -0.5503  1.4017 -1.3222
 2695SOL    HW219545   3.351   3.379   2.323  0.0189 -0.4366 -0.3556
 2696SOL     OW19546   0.668   2.741   4.498 -0.7104 -0.1247 -0.1457
 2696SOL    HW119547   0.672   2.668   4.560  0.2161 -2.2824 -2.7539
 2696SOL    HW219548   0.738   2.796   4.531 -1.9234  1.4003 -0.1118
 2697SOL     OW19549   1.380   1.169  15.924 -0.3634  0.4672  0.1039
 2697SOL    HW119550   1.460   1.218  15.904  0.3875 -0.5004  0.7093
 2697SOL    HW219551   1.390   1.166  16.019 -2.2168  0.6240  0.2943
 2698SOL     OW19552   3.738   0.035  11.187  0.2042  0.2011 -0.2560
 2698SOL    HW119553   3.752   0.029  11.092  2.2455  0.8673 -0.0005
 2698SOL    HW219554   3.814   4.709  11.217  0.6736  0.4470 -1.0445
 2699SOL     OW19555   2.974   3.322  16.203 -0.1404 -0.2125 -0.0843
 2699SOL    HW119556   2.909   3.387  16.229 -0.6819 -0.0067 -1.9843
 2699SOL    HW219557   2.946   3.253  16.263  2.8554 -1.7991 -0.4942
 2700SOL     OW19558   3.241   3.730   4.861  0.4749  0.0537  0.0964
 2700SOL    HW119559   3.301   3.736   4.787  0.3293  1.6977  0.1089
 2700SOL    HW219560   3.178   3.667   4.827 -1.7356  2.8633 -1.0031
 2701SOL     OW19561   2.859   2.563  16.017  0.6085 -0.3710  0.0103
 2701SOL    HW119562   2.916   2.628  15.976  0.0934 -0.6893 -1.2004
 2701SOL    HW219563   2.778   2.568  15.965  1.0429 -0.4510 -0.6627
 2702SOL     OW19564   1.330   2.579   3.724 -0.0798  0.0986  0.1991
 2702SOL    HW119565   1.251   2.629   3.704  0.3380  1.5328  2.0723
 2702SOL    HW219566   1.323   2.543   3.813 -1.1684 -1.1028 -0.3673
 2703SOL     OW19567   4.005   3.487   5.494  0.2404  0.1486 -0.1286
 2703SOL    HW119568   3.981   3.579   5.478  0.1052 -0.1017 -1.3770
 2703SOL    HW219569   4.100   3.500   5.493  0.6967 -3.3190 -1.3687
 2704SOL     OW19570   0.583   2.231   7.245  1.0865  0.0908 -0.1891
 2704SOL    HW119571   0.673   2.226   7.213  1.3113  1.0657  0.3045
 2704SOL    HW219572   0.568   2.138   7.260  0.0496  0.1971 -0.5813
 2705SOL     OW19573   4.578   4.537  16.259  0.0497  0.2029 -0.1129
 2705SOL    HW119574   4.487   4.517  16.282  0.6991 -1.1048  1.3741
 2705SOL    HW219575   4.606   4.447  16.242 -1.9529 -0.8645  2.2070
 2706SOL     OW19576   2.151   4.485   3.719 -0.0726 -0.1950 -0.1436
 2706SOL    HW119577   2.150   4.410   3.778 -1.6066 -0.4934 -0.5462
 2706SOL    HW219578   2.111   4.556   3.768 -1.3534  0.6399 -2.4103
 2707SOL     OW19579   3.508   1.749  13.519 -0.2572  0.0436 -0.0154
 2707SOL    HW119580   3.465   1.715  13.441 -2.2833  2.3459  0.0907
 2707SOL    HW219581   3.602   1.740  13.505 -0.6119 -2.4411 -0.7294
 2708SOL     OW19582   2.437   1.530  17.339  0.1877 -0.2721  0.0382
 2708SOL    HW119583   2.424   1.549  17.246  1.8330  0.9546  0.0467
 2708SOL    HW219584   2.361   1.472  17.347  0.4522 -0.2354  2.6459
 2709SOL     OW19585   0.307   1.422  15.511  0.4443 -0.7475 -0.0542
 2709SOL    HW119586   0.312   1.518  15.513 -5.7732 -0.4539 -0.3293
 2709SOL    HW219587   0.236   1.414  15.575  0.9991  0.5286  0.7238
 2710SOL     OW19588   0.702   0.954   7.227  0.3030 -0.0843  0.0143
 2710SOL    HW119589   0.753   1.015   7.174 -1.3771 -0.4362 -1.9531
 2710SOL    HW219590   0.762   0.883   7.250 -1.1386  0.0652  4.3747
 2711SOL     OW19591   3.423   4.609   2.087  0.4524 -0.1656  0.0166
 2711SOL    HW119592   3.384   4.547   2.024  1.0187  0.5921 -1.0768
 2711SOL    HW219593   3.372   4.688   2.067 -1.5225 -1.9001 -1.7921
 2712SOL     OW19594   1.515   0.075  10.171 -0.2619  0.0503  0.6876
 2712SOL    HW119595   1.578   0.015  10.129 -1.0185  0.2049 -0.6835
 2712SOL    HW219596   1.432   0.037  10.141 -0.5226  0.5608  0.7715
 2713SOL     OW19597   2.324   4.687   9.782  0.1690  0.1043  0.0141
 2713SOL    HW119598   2.344   4.619   9.846 -1.0275 -0.1925  0.0750
 2713SOL    HW219599   2.235   4.660   9.762  0.5850 -1.0868 -0.2657
 2714SOL     OW19600   2.844   3.841   1.717 -0.5622 -0.0457 -0.0662
 2714SOL    HW119601   2.889   3.785   1.781  0.9463  1.1275 -0.1109
 2714SOL    HW219602   2.907   3.828   1.647  0.7051 -1.2230  1.2733
 2715SOL     OW19603   0.741   0.612   8.077  0.4923 -0.1969 -0.0239
 2715SOL    HW119604   0.822   0.577   8.115  1.9831 -0.5443 -3.5380
 2715SOL    HW219605   0.728   0.696   8.121  2.3872  0.2831 -0.3763
 2716SOL     OW19606   0.066   2.405   2.080 -0.4137 -0.2117  0.6620
 2716SOL    HW119607   0.026   2.466   2.018 -2.7757 -1.8162  0.6179
 2716SOL    HW219608   0.068   2.323   2.031  1.2012  0.9499 -1.2408
 2717SOL     OW19609   1.964   2.539   4.592 -0.6019 -0.0648 -0.4987
 2717SOL    HW119610   2.029   2.566   4.528 -1.7232 -3.2117 -2.9347
 2717SOL    HW219611   1.945   2.447   4.579  2.2901 -0.7039 -0.1517
 2718SOL     OW19612   0.721   3.966   1.476 -0.4933 -0.1018  0.6282
 2718SOL    HW119613   0.675   3.989   1.396 -1.7054  2.0921  1.9498
 2718SOL    HW219614   0.679   4.033   1.531  0.9512  2.4556 -1.3716
 2719SOL     OW19615   3.504   4.584  12.341 -0.2523  0.6010 -0.0659
 2719SOL    HW119616   3.540   4.600  12.254 -2.1749  0.6497 -0.8614
 2719SOL    HW219617   3.439   4.655  12.341 -3.3400 -2.2212 -0.6458
 2720SOL     OW19618   4.290   2.462   2.368 -0.1152  1.1716  0.5517
 2720SOL    HW119619   4.356   2.503   2.311  1.7252 -2.3294  0.1944
 2720SOL    HW219620   4.347   2.405   2.418  0.0210 -0.9528 -2.0303
 2721SOL     OW19621   2.152   3.515   3.167  0.0448  0.2045  0.3423
 2721SOL    HW119622   2.180   3.503   3.076 -1.3824 -0.4818 -0.0129
 2721SOL    HW219623   2.236   3.522   3.211  1.5849  3.2345 -3.1279
 2722SOL     OW19624   1.344   3.737   3.469 -0.1311  0.0567  0.1476
 2722SOL    HW119625   1.434   3.765   3.451 -0.0348 -1.2787 -1.4159
 2722SOL    HW219626   1.348   3.645   3.495  1.2316  0.1233  0.1595
 2723SOL     OW19627   2.258   3.776   0.926  0.4534  0.8107  0.2691
 2723SOL    HW119628   2.240   3.869   0.942 -1.3707  0.2448  1.5183
 2723SOL    HW219629   2.171   3.751   0.895  1.2241  0.5905 -1.7375
 2724SOL     OW19630   4.535   4.419   2.958  0.8433 -0.0571 -0.0347
 2724SOL    HW119631   4.603   4.353   2.949 -0.2071 -1.1924  0.2711
 2724SOL    HW219632   4.529   4.430   3.053 -0.1913 -0.0301 -0.1023
 2725SOL     OW19633   2.727   2.016  10.334  0.2596 -0.2202  0.0642
 2725SOL    HW119634   2.780   2.000  10.413  1.1618 -1.0881 -0.7168
 2725SOL    HW219635   2.731   1.936  10.282  3.1659  0.3578 -0.6236
 2726SOL     OW19636   0.012   3.187   9.012  0.0291 -0.4460  0.1232
 2726SOL    HW119637   0.016   3.232   9.096 -0.1016  0.1608 -0.1999
 2726SOL    HW219638   0.064   3.250   8.963 -0.3274  0.2339  0.6252
 2727SOL     OW19639   1.783   0.349   4.417  0.7406  0.6445 -0.4099
 2727SOL    HW119640   1.788   0.353   4.321  0.4510  0.2893 -0.4408
 2727SOL    HW219641   1.790   0.443   4.428 -0.9781  0.7078  0.2699
 2728SOL     OW19642   1.668   3.560   7.799  0.0990  0.2965 -0.2314
 2728SOL    HW119643   1.744   3.615   7.818 -0.9089  1.6275 -0.0889
 2728SOL    HW219644   1.685   3.535   7.708  0.4294  0.5620 -0.2443
 2729SOL     OW19645   2.434   3.563   0.878 -0.7878 -0.3665 -0.5813
 2729SOL    HW119646   2.386   3.641   0.906  1.1266  0.9622 -0.9857
 2729SOL    HW219647   2.407   3.553   0.787  0.4335  0.3686 -1.0262
 2730SOL     OW19648   1.292   2.048   3.945  0.2011  0.3064  0.9484
 2730SOL    HW119649   1.240   2.110   3.893 -1.7057 -0.1999  2.2456
 2730SOL    HW219650   1.363   2.029   3.884 -0.0770  2.3061 -0.0168
 2731SOL     OW19651   3.823   0.805  15.874 -0.2219  0.2643  0.2692
 2731SOL    HW119652   3.879   0.772  15.945  1.3356  1.8305 -0.2200
 2731SOL    HW219653   3.827   0.737  15.806  2.6390  0.2937  0.3681
 2732SOL     OW19654   4.333   4.005   8.888 -0.7250  0.1250 -0.1141
 2732SOL    HW119655   4.280   4.048   8.955 -1.9471 -0.3300 -0.8088
 2732SOL    HW219656   4.398   4.070   8.859 -0.0439 -0.4376  0.1377
 2733SOL     OW19657   1.163   0.436   8.824 -0.3368  0.5264 -0.1599
 2733SOL    HW119658   1.217   0.414   8.899  0.9798  0.0248 -1.2519
 2733SOL    HW219659   1.084   0.470   8.868  0.5975  1.3967  0.8447
 2734SOL     OW19660   4.664   2.794   7.545 -0.0857 -0.9313 -0.0608
 2734SOL    HW119661   4.698   2.710   7.577 -0.5232 -1.0339  0.1383
 2734SOL    HW219662   4.572   2.790   7.569  0.6217 -2.0798  2.4823
 2735SOL     OW19663   1.309   3.964   1.824 -0.0566  0.5089 -0.4259
 2735SOL    HW119664   1.380   4.003   1.874 -1.6393  2.6554  0.1279
 2735SOL    HW219665   1.251   3.936   1.894  0.0380  2.1010  0.2860
 2736SOL     OW19666   3.685   0.194   3.336 -0.7145 -0.2247  0.1056
 2736SOL    HW119667   3.639   0.156   3.411 -2.8346  2.1127  0.0002
 2736SOL    HW219668   3.615   0.194   3.270 -0.7675 -0.5557  0.1593
 2737SOL     OW19669   0.788   4.503   1.713 -0.5757  0.0473  0.1521
 2737SOL    HW119670   0.833   4.467   1.637 -0.3263  0.8497 -0.0805
 2737SOL    HW219671   0.739   4.426   1.744 -0.9870  0.6423  0.9788
 2738SOL     OW19672   0.905   1.094   7.116  0.0077  0.8087 -0.4299
 2738SOL    HW119673   0.972   1.134   7.170 -0.8816 -0.1976  1.4285
 2738SOL    HW219674   0.957   1.047   7.051 -0.5343  1.4268 -1.3184
 2739SOL     OW19675   0.078   0.386   6.485 -0.3217 -1.1882  0.0554
 2739SOL    HW119676   0.029   0.323   6.538 -0.5845 -0.6538  0.4456
 2739SOL    HW219677   0.020   0.462   6.477  1.4807 -0.0088 -2.0072
 2740SOL     OW19678   3.174   0.267   0.018 -0.1015  0.0125 -0.6712
 2740SOL    HW119679   3.215   0.181   0.028  1.5865  0.8135 -0.6617
 2740SOL    HW219680   3.246   0.328   0.002  0.6890 -1.3134 -2.0974
 2741SOL     OW19681   4.461   4.282   8.883 -0.6803  0.6772  0.1491
 2741SOL    HW119682   4.530   4.289   8.817  1.9830  2.6196  3.1951
 2741SOL    HW219683   4.476   4.364   8.929 -1.9547  1.5605 -0.9821
 2742SOL     OW19684   3.554   2.489   9.988 -0.1937  0.4924  0.0835
 2742SOL    HW119685   3.618   2.483   9.917 -2.0105  2.6583 -1.7629
 2742SOL    HW219686   3.505   2.407   9.991 -1.0289  1.0797  1.9745
 2743SOL     OW19687   1.432   2.194   8.977  0.0448 -0.0171  0.0007
 2743SOL    HW119688   1.420   2.289   8.976  1.4913  0.1875  2.2589
 2743SOL    HW219689   1.401   2.172   8.889 -0.0796 -0.6582  0.2058
 2744SOL     OW19690   2.656   4.607   6.770  0.3320 -0.0733 -0.1701
 2744SOL    HW119691   2.684   4.523   6.806 -1.5439 -0.1600  1.1302
 2744SOL    HW219692   2.733   4.664   6.768  1.3470 -1.4020  1.1728
 2745SOL     OW19693   1.182   1.667   8.865 -0.2273 -0.3729  0.2705
 2745SOL    HW119694   1.248   1.642   8.930 -1.3116 -1.2183  1.0450
 2745SOL    HW219695   1.127   1.721   8.922 -0.0222  1.3351 -1.1733
 2746SOL     OW19696   3.973   0.505   7.964 -0.0597  0.1454 -0.0411
 2746SOL    HW119697   4.028   0.544   8.032 -0.2659  2.5273 -1.2396
 2746SOL    HW219698   3.902   0.568   7.949  0.2029  0.2706 -0.7407
 2747SOL     OW19699   3.612   2.420   8.813  0.5987  0.5327  0.3404
 2747SOL    HW119700   3.581   2.384   8.730 -0.8326 -1.4330  1.7470
 2747SOL    HW219701   3.699   2.380   8.808  1.8652  3.4172 -0.6166
 2748SOL     OW19702   0.848   0.220   9.123 -0.2312 -0.2104  0.1022
 2748SOL    HW119703   0.930   0.171   9.127  0.8957  1.7672  1.1418
 2748SOL    HW219704   0.880   0.309   9.136  0.9631 -0.9576  2.2774
 2749SOL     OW19705   0.631   3.401   4.104 -0.2419 -0.1976  0.2654
 2749SOL    HW119706   0.590   3.331   4.054 -0.3843  1.9157 -2.6055
 2749SOL    HW219707   0.655   3.455   4.029  0.3528 -2.4221 -1.1350
 2750SOL     OW19708   1.472   4.023   2.022  0.0748  0.1362  0.3214
 2750SOL    HW119709   1.440   4.113   2.016  0.7287  0.2840 -0.7912
 2750SOL    HW219710   1.562   4.040   2.048  0.9632 -1.2087 -1.9014
 2751SOL     OW19711   0.674   1.706   4.638  0.4835  0.1937 -0.5260
 2751SOL    HW119712   0.704   1.658   4.561 -1.4487 -1.5352 -0.1928
 2751SOL    HW219713   0.580   1.690   4.640  0.2854  1.3248 -0.5679
 2752SOL     OW19714   4.030   1.511   5.761 -0.0993 -0.0555  0.2877
 2752SOL    HW119715   4.116   1.505   5.802  0.3185 -0.4845 -0.6678
 2752SOL    HW219716   4.045   1.576   5.693 -2.1502  0.1992  0.0543
 2753SOL     OW19717   1.488   1.613   2.742  0.0975  0.0364  0.3521
 2753SOL    HW119718   1.568   1.573   2.776 -0.5745 -1.7963 -0.2474
 2753SOL    HW219719   1.459   1.559   2.668 -2.0033  2.1337 -0.3559
 2754SOL     OW19720   3.060   3.419   5.524 -0.3327 -0.3907 -0.1310
 2754SOL    HW119721   3.092   3.329   5.519  0.8666 -0.0459  1.2118
 2754SOL    HW219722   2.990   3.399   5.462 -1.1556 -0.7409  0.9186
 2755SOL     OW19723   4.712   4.070   5.722  0.9004  0.8766 -0.2379
 2755SOL    HW119724   4.626   4.106   5.697 -1.0593 -2.4190  1.7130
 2755SOL    HW219725   4.698   3.977   5.738 -2.4904  1.1901 -1.2131
 2756SOL     OW19726   3.674   3.428  16.054  0.2921  0.6622  0.1518
 2756SOL    HW119727   3.609   3.497  16.063  0.1949  0.3573  1.6945
 2756SOL    HW219728   3.647   3.387  15.972  1.3095  0.5142 -0.1177
 2757SOL     OW19729   2.349   1.744   3.995  0.5761 -0.4115  0.0782
 2757SOL    HW119730   2.405   1.819   4.017  1.5242 -0.5296 -2.0036
 2757SOL    HW219731   2.371   1.739   3.902  0.6281  0.2528  0.0529
 2758SOL     OW19732   0.141   2.428   4.251  0.3877 -0.1332 -0.5110
 2758SOL    HW119733   0.193   2.362   4.296  1.5470  1.1381  0.0028
 2758SOL    HW219734   0.108   2.473   4.328  0.5318 -1.2284  0.1982
 2759SOL     OW19735   3.861   0.983   0.802  0.1610 -0.2785 -0.2873
 2759SOL    HW119736   3.835   1.034   0.725  0.0367  0.4673  0.2483
 2759SOL    HW219737   3.795   1.012   0.865  1.0753  1.4166 -0.1270
 2760SOL     OW19738   4.003   2.254   3.666  0.2762 -0.3816  0.5825
 2760SOL    HW119739   4.038   2.343   3.659 -1.4972  0.1354 -1.8596
 2760SOL    HW219740   4.004   2.222   3.576  0.8403  1.8264 -0.2035
 2761SOL     OW19741   3.403   1.745   5.678 -0.1315  0.4782 -0.4300
 2761SOL    HW119742   3.384   1.657   5.647  1.2619  0.3260 -0.8474
 2761SOL    HW219743   3.498   1.748   5.685 -0.1302 -0.2061 -0.1409
 2762SOL     OW19744   4.382   3.750   8.790 -0.3817  0.3507 -0.4992
 2762SOL    HW119745   4.470   3.728   8.758  0.9875 -0.0435  3.5133
 2762SOL    HW219746   4.394   3.844   8.804 -1.1336  0.1995  1.1285
 2763SOL     OW19747   3.520   1.160   8.987 -0.4216 -0.0838  0.2556
 2763SOL    HW119748   3.521   1.255   8.974  0.0923 -0.1751 -0.3838
 2763SOL    HW219749   3.609   1.156   9.021 -0.5713 -2.0505  0.4012
 2764SOL     OW19750   1.756   1.051   2.296 -0.0112  0.3606 -0.4694
 2764SOL    HW119751   1.680   1.103   2.321 -0.4115 -0.4680  0.0509
 2764SOL    HW219752   1.811   1.084   2.367  0.9339  0.4853 -1.2561
 2765SOL     OW19753   1.039   3.973   2.388  0.2688 -0.2476 -0.1762
 2765SOL    HW119754   1.087   4.006   2.312 -2.5427 -0.1414 -1.9074
 2765SOL    HW219755   0.962   4.029   2.384  1.0086  0.7128 -1.2278
 2766SOL     OW19756   2.968   3.304   2.920  0.6219  0.6799  0.3026
 2766SOL    HW119757   2.985   3.299   3.014 -0.8362 -3.0422  0.3535
 2766SOL    HW219758   3.036   3.251   2.879 -1.2200 -2.5096  1.3902
 2767SOL     OW19759   3.895   0.055   6.787 -0.1242  0.3446  0.0835
 2767SOL    HW119760   3.816   0.042   6.839 -0.5592 -0.2013 -0.7236
 2767SOL    HW219761   3.860   0.135   6.747 -0.0639  0.1450 -0.3591
 2768SOL     OW19762   1.654   1.828   2.538 -0.0388  0.5357 -0.4458
 2768SOL    HW119763   1.615   1.743   2.519  0.0483  0.0992  1.3403
 2768SOL    HW219764   1.579   1.883   2.520 -0.4784  0.9882  2.8210
 2769SOL     OW19765   1.011   1.796  11.315 -0.4716 -0.2441  0.1454
 2769SOL    HW119766   1.076   1.866  11.314 -0.8861  0.0856 -3.0947
 2769SOL    HW219767   1.066   1.717  11.317  1.3844  1.1111  2.9130
 2770SOL     OW19768   1.985   4.710   8.724  0.1161 -0.0541  0.0883
 2770SOL    HW119769   2.000   0.075   8.692  0.9542 -0.2672 -0.1170
 2770SOL    HW219770   1.895   4.705   8.690 -0.0008 -2.0163  0.6728
 2771SOL     OW19771   0.855   2.999   7.522  0.3499  0.0410  0.4884
 2771SOL    HW119772   0.853   2.935   7.594 -0.6366 -0.6300 -0.1322
 2771SOL    HW219773   0.914   2.942   7.473  0.1118 -1.1017  1.5371
 2772SOL     OW19774   1.673   1.147   2.760  0.2413 -0.0469  0.0556
 2772SOL    HW119775   1.747   1.091   2.785 -0.2810 -0.1540  1.3774
 2772SOL    HW219776   1.647   1.113   2.674  0.4253 -3.3646  1.2923
 2773SOL     OW19777   3.567   1.261   6.149 -0.4518 -0.0165 -0.1104
 2773SOL    HW119778   3.496   1.303   6.102 -1.2720 -0.4141  0.7796
 2773SOL    HW219779   3.516   1.204   6.206  1.0181 -0.3442  0.8988
 2774SOL     OW19780   2.170   3.246   0.044  0.5836 -0.3819 -0.1373
 2774SOL    HW119781   2.198   3.169  17.692  1.7129  0.5858 -1.0377
 2774SOL    HW219782   2.229   3.319   0.026  0.3046  0.2984  1.7453
 2775SOL     OW19783   2.238   2.609  10.027  0.3773  0.3509 -0.1446
 2775SOL    HW119784   2.192   2.552  10.088 -0.4127  2.1600  0.9757
 2775SOL    HW219785   2.181   2.588   9.953  0.6118  0.6623 -0.4180
 2776SOL     OW19786   4.508   3.133   6.517 -0.4085  0.3476  0.5829
 2776SOL    HW119787   4.527   3.105   6.428 -0.3660 -0.0952  0.7303
 2776SOL    HW219788   4.561   3.065   6.558  0.6549  1.3283  0.8657
 2777SOL     OW19789   0.892   4.570   6.431 -0.3802 -0.2823 -0.0059
 2777SOL    HW119790   0.830   4.498   6.444  2.8663 -3.1397 -0.3829
 2777SOL    HW219791   0.892   4.614   6.516  0.7568 -0.8593  0.2824
 2778SOL     OW19792   2.358   1.053   6.960  0.4865  0.5346  0.0163
 2778SOL    HW119793   2.371   1.057   7.055  1.7789  3.2395 -0.2825
 2778SOL    HW219794   2.274   1.007   6.951  0.6757  0.6910 -2.4086
 2779SOL     OW19795   1.325   0.066   3.003  0.4357  0.4145  0.1608
 2779SOL    HW119796   1.320   4.706   2.956 -0.0332 -0.1392  1.2094
 2779SOL    HW219797   1.314   0.131   2.933  0.8886 -0.2139 -0.5004
 2780SOL     OW19798   2.843   4.541  12.048  0.3477  0.0413  0.3196
 2780SOL    HW119799   2.766   4.547  11.991 -2.6200 -2.2888  4.1294
 2780SOL    HW219800   2.917   4.544  11.986 -0.5859 -2.5461 -0.9001
 2781SOL     OW19801   0.634   4.641   1.216  0.2095 -0.6626 -0.3552
 2781SOL    HW119802   0.663   0.004   1.185 -0.7722 -0.2857 -0.2244
 2781SOL    HW219803   0.687   4.633   1.295  1.3527  0.5905 -0.9895
 2782SOL     OW19804   1.066   3.594   4.076  0.2536  0.0932  0.0366
 2782SOL    HW119805   1.126   3.526   4.044 -0.0032  0.2288 -0.7315
 2782SOL    HW219806   1.086   3.671   4.022 -0.2629  1.4126  1.7204
 2783SOL     OW19807   1.343   3.421   6.326  0.3420  0.6868  0.6393
 2783SOL    HW119808   1.365   3.330   6.348  1.5017  0.4796 -1.4629
 2783SOL    HW219809   1.275   3.410   6.260  0.4526  2.4405  0.2405
 2784SOL     OW19810   3.872   1.750  14.769 -0.6698  0.2089 -0.2309
 2784SOL    HW119811   3.881   1.798  14.851 -2.4728  0.8085 -0.3844
 2784SOL    HW219812   3.952   1.697  14.770 -0.9477 -0.1910  0.6028
 2785SOL     OW19813   1.494   2.083   8.543  0.0753 -0.5753  0.3818
 2785SOL    HW119814   1.547   2.004   8.533  1.0285  0.2766 -1.2722
 2785SOL    HW219815   1.530   2.132   8.469 -0.5583 -0.5653  0.0747
 2786SOL     OW19816   1.105   4.681   8.454 -0.4223  0.3385  0.3727
 2786SOL    HW119817   1.061   0.034   8.491  0.6557  0.9868  0.2972
 2786SOL    HW219818   1.061   4.675   8.369  1.2783  0.2836 -0.5005
 2787SOL     OW19819   0.519   4.582  12.434  0.4149  0.3316  0.7769
 2787SOL    HW119820   0.570   4.591  12.514 -0.5702 -0.8877  1.5351
 2787SOL    HW219821   0.510   4.675  12.414 -0.1760 -0.2161 -1.5241
 2788SOL     OW19822   2.179   1.601   8.809 -0.2555 -0.3326  0.6079
 2788SOL    HW119823   2.232   1.526   8.837  0.6512 -0.3463 -1.1255
 2788SOL    HW219824   2.183   1.643   8.895  0.0628 -0.3038  0.5790
 2789SOL     OW19825   0.986   0.766  11.110 -0.8275 -0.2081  0.1053
 2789SOL    HW119826   0.897   0.752  11.079 -0.4847 -1.7709 -0.1734
 2789SOL    HW219827   0.970   0.857  11.134 -1.9554 -0.8271  1.7434
 2790SOL     OW19828   0.844   3.299   6.864  0.1786 -0.6243 -0.3694
 2790SOL    HW119829   0.804   3.351   6.934 -0.7631 -1.5413 -0.2201
 2790SOL    HW219830   0.874   3.368   6.806  0.7835 -1.3089 -0.8763
 2791SOL     OW19831   3.126   2.306  14.252  0.2369  0.3429 -0.2938
 2791SOL    HW119832   3.202   2.279  14.200  1.0514 -2.3050  2.3013
 2791SOL    HW219833   3.050   2.293  14.195  0.6916  0.3426 -0.8968
 2792SOL     OW19834   1.627   4.246   8.364 -0.3658  0.0687 -0.0125
 2792SOL    HW119835   1.589   4.170   8.320  2.4846 -0.7062 -1.1553
 2792SOL    HW219836   1.658   4.202   8.444  0.6686 -3.6487 -2.4536
 2793SOL     OW19837   1.082   4.359   2.906  0.5814 -0.3796 -0.1331
 2793SOL    HW119838   1.005   4.405   2.872  0.2086 -0.6282  0.3848
 2793SOL    HW219839   1.094   4.296   2.835  0.2429 -0.5455 -0.0439
 2794SOL     OW19840   3.452   3.129  15.514 -0.0624 -0.1905  0.1851
 2794SOL    HW119841   3.429   3.104  15.603 -0.7462  1.2660  0.4072
 2794SOL    HW219842   3.476   3.221  15.520 -2.7227  0.5099  0.1262
 2795SOL     OW19843   1.412   0.736   2.247  0.2541  0.4481 -0.3287
 2795SOL    HW119844   1.385   0.810   2.301 -0.6513 -0.9626  1.1470
 2795SOL    HW219845   1.501   0.768   2.230  0.4864  0.8194  1.5746
 2796SOL     OW19846   1.821   0.723   7.299  0.0106 -0.1424  0.4468
 2796SOL    HW119847   1.731   0.733   7.331  0.1157  0.0031  0.6963
 2796SOL    HW219848   1.830   0.799   7.241 -2.4704  0.2340  0.5403
 2797SOL     OW19849   0.375   4.556  17.572 -0.2249 -0.0113 -0.1113
 2797SOL    HW119850   0.442   4.610  17.614  3.2142 -3.2565 -1.3529
 2797SOL    HW219851   0.417   4.471  17.590  0.7934  0.1321 -1.8782
 2798SOL     OW19852   1.791   0.505   0.664 -0.2230 -0.5979 -0.6136
 2798SOL    HW119853   1.774   0.415   0.638 -2.7379  0.1541 -1.5997
 2798SOL    HW219854   1.885   0.517   0.649  0.0815 -2.7076 -0.3595
 2799SOL     OW19855   1.272   2.839   2.892 -0.0638  0.1630  0.0417
 2799SOL    HW119856   1.196   2.782   2.886 -1.0202  1.6266 -1.7038
 2799SOL    HW219857   1.334   2.788   2.945 -0.9047 -1.0075 -0.1029
 2800SOL     OW19858   3.956   3.237   8.426 -0.7226  0.5385 -0.1380
 2800SOL    HW119859   3.938   3.324   8.463  1.5812  1.6262 -1.5373
 2800SOL    HW219860   4.032   3.208   8.477 -0.2139  1.6901 -0.2239
 2801SOL     OW19861   0.234   0.518   1.607  0.4861 -0.4211  0.0989
 2801SOL    HW119862   0.257   0.425   1.603 -0.1803 -0.6280  0.9334
 2801SOL    HW219863   0.170   0.513   1.536  0.5067  0.7299  0.0111
 2802SOL     OW19864   1.691   4.306  16.552 -0.2458  0.6062  0.0384
 2802SOL    HW119865   1.691   4.370  16.481 -2.0367 -1.5360 -1.9048
 2802SOL    HW219866   1.598   4.288  16.563  0.1647 -0.2174  2.1696
 2803SOL     OW19867   0.664   1.334   6.131 -0.5525  0.0010 -0.0174
 2803SOL    HW119868   0.697   1.265   6.073  0.3764  0.5335 -0.1042
 2803SOL    HW219869   0.693   1.292   6.213 -0.5167  1.6688  0.8231
 2804SOL     OW19870   1.296   1.800   5.100  0.5132 -0.2139  0.2796
 2804SOL    HW119871   1.371   1.803   5.041 -0.6275  2.5105 -0.9970
 2804SOL    HW219872   1.333   1.743   5.168 -1.3544 -0.9198  0.7084
 2805SOL     OW19873   1.371   3.039   8.467 -0.7132  0.2533  0.1844
 2805SOL    HW119874   1.351   3.046   8.373  1.5132 -1.3471 -0.4107
 2805SOL    HW219875   1.369   3.132   8.491 -0.8427  0.3106 -0.0446
 2806SOL     OW19876   2.242   0.981  15.126 -0.0368  0.2000 -0.4370
 2806SOL    HW119877   2.149   0.961  15.138 -0.1659 -1.0311 -3.7138
 2806SOL    HW219878   2.231   1.038  15.050 -1.4443 -0.3150 -0.6092
 2807SOL     OW19879   3.321   2.437   4.418 -0.3951  0.7874 -0.1080
 2807SOL    HW119880   3.394   2.453   4.478 -1.6852  0.5437  1.5301
 2807SOL    HW219881   3.289   2.350   4.442 -0.3026 -0.0579 -3.0167
 2808SOL     OW19882   3.710   1.419  12.949 -0.2588  0.4083  0.1280
 2808SOL    HW119883   3.711   1.478  12.874  1.0995 -0.6913 -0.7406
 2808SOL    HW219884   3.665   1.461  13.022 -1.2199 -1.3929  0.5819
 2809SOL     OW19885   4.362   2.502   3.720  0.6821  0.0735 -0.5168
 2809SOL    HW119886   4.289   2.483   3.780  0.5182  0.7256 -0.5080
 2809SOL    HW219887   4.424   2.434   3.746 -1.8244 -2.3608 -0.9420
 2810SOL     OW19888   1.297   0.456   1.438  0.6153 -0.2543 -0.0239
 2810SOL    HW119889   1.385   0.459   1.398  0.0922  0.7470 -1.1100
 2810SOL    HW219890   1.236   0.449   1.364  2.8809 -0.8071 -1.8533
 2811SOL     OW19891   2.519   2.395  14.082  0.1747  0.5501 -0.0764
 2811SOL    HW119892   2.431   2.368  14.054  0.3680 -1.2257  1.0168
 2811SOL    HW219893   2.554   2.401  13.993  1.7458  0.5280  0.5534
 2812SOL     OW19894   0.477   1.955   9.159  0.3836  0.0404 -0.1554
 2812SOL    HW119895   0.406   1.907   9.117 -0.7726  0.2136  1.5734
 2812SOL    HW219896   0.485   2.030   9.101 -4.9774  0.0031 -0.9154
 2813SOL     OW19897   1.542   3.826  10.718 -0.3584 -0.3807  0.3441
 2813SOL    HW119898   1.460   3.799  10.760 -1.9565  1.2174 -1.7400
 2813SOL    HW219899   1.557   3.909  10.762  3.0954 -0.2675 -1.0357
 2814SOL     OW19900   3.248   4.365  12.583 -0.4600 -0.1655  0.2277
 2814SOL    HW119901   3.305   4.357  12.506 -1.7903 -0.2458 -0.7381
 2814SOL    HW219902   3.206   4.279  12.585  0.3409 -0.5019  2.0598
 2815SOL     OW19903   4.438   1.324  13.112 -0.1146 -0.2764 -0.0763
 2815SOL    HW119904   4.378   1.389  13.076  0.0799 -0.8785 -1.5138
 2815SOL    HW219905   4.488   1.302  13.033 -3.0484 -0.3560 -1.8939
 2816SOL     OW19906   2.244   3.092   5.902  0.1877  0.0834 -0.0777
 2816SOL    HW119907   2.190   3.014   5.898  1.1968 -0.6135 -0.0675
 2816SOL    HW219908   2.331   3.056   5.885  0.2620  1.3756 -2.5127
 2817SOL     OW19909   0.989   4.535   5.296 -0.1958 -0.5111 -0.5409
 2817SOL    HW119910   0.932   4.610   5.311  4.1322  2.7455 -0.5109
 2817SOL    HW219911   0.949   4.490   5.221 -0.4878  2.0858 -1.9420
 2818SOL     OW19912   1.284   0.457   4.529  1.0205 -0.0856  0.1987
 2818SOL    HW119913   1.259   0.532   4.584  1.3527 -1.4011  2.1647
 2818SOL    HW219914   1.373   0.445   4.562  0.4805 -0.1438  1.6727
 2819SOL     OW19915   2.460   4.317   4.236  0.0174  0.2792 -0.0505
 2819SOL    HW119916   2.426   4.361   4.157 -1.6648 -0.8642  0.0427
 2819SOL    HW219917   2.501   4.391   4.282  1.6690 -0.5440 -0.1988
 2820SOL     OW19918   3.214   2.143   2.860 -0.3224 -0.3674  0.3012
 2820SOL    HW119919   3.263   2.156   2.778  1.2369 -0.1106  1.2802
 2820SOL    HW219920   3.246   2.064   2.903  0.6605  0.0925  0.4051
 2821SOL     OW19921   2.684   1.092   7.535 -0.0139  0.9118  0.4454
 2821SOL    HW119922   2.732   1.120   7.457  1.6875 -0.7463  0.8954
 2821SOL    HW219923   2.713   1.006   7.568 -1.6921  0.3220  0.3670
 2822SOL     OW19924   3.124   0.778  12.319 -0.2630  0.1830 -0.3372
 2822SOL    HW119925   3.095   0.805  12.231 -2.0607  0.9386  0.4716
 2822SOL    HW219926   3.111   0.683  12.319  1.7521 -0.1089 -3.1948
 2823SOL     OW19927   3.736   3.589  14.824  0.0288  0.5147 -0.1398
 2823SOL    HW119928   3.696   3.543  14.899  0.9550 -0.9492 -0.5501
 2823SOL    HW219929   3.807   3.526  14.819 -0.2267  0.5268 -3.9935
 2824SOL     OW19930   3.169   2.540  13.723 -0.5046  0.0261 -0.6077
 2824SOL    HW119931   3.226   2.505  13.792  0.4064 -2.1050 -2.4551
 2824SOL    HW219932   3.194   2.486  13.648  0.6606 -0.6440  0.2649
 2825SOL     OW19933   0.966   3.013   0.614  0.9783  0.1513  0.3395
 2825SOL    HW119934   1.005   2.941   0.663  0.7753  0.3939  0.8549
 2825SOL    HW219935   1.043   3.037   0.563  0.7796  3.7763  1.8041
 2826SOL     OW19936   2.736   2.797  17.669 -0.0043 -0.6567  0.2439
 2826SOL    HW119937   2.798   2.795   0.045  0.4093 -0.7788 -0.1128
 2826SOL    HW219938   2.673   2.727  17.691  1.2464 -1.6914  0.5241
 2827SOL     OW19939   2.338   0.128   4.784  0.4729 -0.0459  0.6912
 2827SOL    HW119940   2.373   0.169   4.704 -1.9637 -0.6016 -0.6765
 2827SOL    HW219941   2.421   0.132   4.831  0.8436 -0.6597  0.0975
 2828SOL     OW19942   1.738   4.343  10.980 -0.2945 -0.5738  0.3391
 2828SOL    HW119943   1.816   4.390  10.949 -2.3788  3.2090  0.8138
 2828SOL    HW219944   1.766   4.336  11.071  0.8295  1.7637  0.1657
 2829SOL     OW19945   2.246   1.587  10.277  0.7628  0.6489  0.2916
 2829SOL    HW119946   2.197   1.645  10.335 -0.7185  1.0906 -1.4210
 2829SOL    HW219947   2.312   1.567  10.343  3.5052  1.7468 -2.0994
 2830SOL     OW19948   1.603   1.829   5.735  0.4180  0.4128  0.3202
 2830SOL    HW119949   1.672   1.765   5.752  0.4258  0.2418 -0.3846
 2830SOL    HW219950   1.527   1.795   5.782  0.8702  0.1592  0.8624
 2831SOL     OW19951   1.913   4.056  10.134 -0.1866 -0.0613  0.1014
 2831SOL    HW119952   1.842   3.993  10.120 -2.7508  2.4368  2.0301
 2831SOL    HW219953   1.913   4.096  10.047  2.1282  0.7219  0.4554
 2832SOL     OW19954   2.186   2.630  14.514 -0.1232 -0.3738  1.0249
 2832SOL    HW119955   2.152   2.659  14.600  1.0828  0.1436  1.3329
 2832SOL    HW219956   2.218   2.546  14.546 -0.7612 -1.0060 -0.0022
 2833SOL     OW19957   2.453   3.815   2.467  0.0322  0.3013 -0.1698
 2833SOL    HW119958   2.535   3.864   2.462  0.9554 -1.3396 -1.1646
 2833SOL    HW219959   2.477   3.731   2.427 -1.1212 -1.2861  2.4880
 2834SOL     OW19960   2.612   0.040   6.200  0.1905  0.2205 -0.3052
 2834SOL    HW119961   2.664   0.120   6.190  1.0797 -0.3232 -0.0506
 2834SOL    HW219962   2.545   0.084   6.251  1.8543  1.3030  0.9379
 2835SOL     OW19963   3.522   1.792   8.183 -0.3340 -0.3707  0.5202
 2835SOL    HW119964   3.466   1.763   8.110  0.9113 -1.5702  0.0255
 2835SOL    HW219965   3.534   1.703   8.217 -1.1780  0.1610  2.2002
 2836SOL     OW19966   0.880   1.087  15.875  0.1779  0.4698 -0.5077
 2836SOL    HW119967   0.801   1.114  15.923  0.5858  0.9986 -0.1250
 2836SOL    HW219968   0.887   0.993  15.884  2.6093  0.8056  0.8392
 2837SOL     OW19969   0.829   3.684  15.858 -0.0966  0.0326 -0.9363
 2837SOL    HW119970   0.764   3.717  15.795 -0.5576  0.5627 -0.1897
 2837SOL    HW219971   0.876   3.612  15.818 -0.8547 -1.4985  0.9241
 2838SOL     OW19972   4.011   3.776   2.397  0.1536 -0.3591 -0.5980
 2838SOL    HW119973   3.947   3.747   2.332  3.3026 -2.4748 -2.7137
 2838SOL    HW219974   4.016   3.696   2.451 -2.1203  0.5003  0.8733
 2839SOL     OW19975   1.188   3.596   5.996  0.5681 -0.0300  0.1068
 2839SOL    HW119976   1.227   3.528   5.942 -2.7599  1.1340 -3.8190
 2839SOL    HW219977   1.184   3.562   6.085 -1.2029  0.4730  0.2276
 2840SOL     OW19978   0.624   2.742   2.955  0.3774  0.1173  0.2629
 2840SOL    HW119979   0.562   2.683   2.910  0.4029 -0.5214  1.0614
 2840SOL    HW219980   0.573   2.750   3.036 -1.2450  2.8377 -1.0171
 2841SOL     OW19981   1.238   3.902   3.739 -0.0487 -0.2071 -0.0519
 2841SOL    HW119982   1.332   3.891   3.746 -0.0584  0.1329  0.5924
 2841SOL    HW219983   1.238   3.948   3.655 -3.6682 -3.5743 -1.9052
 2842SOL     OW19984   0.467   3.194   1.365 -0.3516  0.1679  0.6285
 2842SOL    HW119985   0.536   3.205   1.430 -0.4979  2.4444  0.3966
 2842SOL    HW219986   0.505   3.244   1.293 -2.1294  0.8782  0.1954
 2843SOL     OW19987   3.956   1.520   2.997  0.1920  0.0833 -0.2244
 2843SOL    HW119988   3.984   1.561   2.916  0.1561 -0.6249 -0.5933
 2843SOL    HW219989   4.003   1.564   3.068  1.6031  1.1251 -1.8134
 2844SOL     OW19990   3.351   1.796  10.096 -0.1610  0.3209 -0.0441
 2844SOL    HW119991   3.316   1.796  10.185 -1.3820  0.2242 -0.5319
 2844SOL    HW219992   3.298   1.863  10.051 -0.9003  0.6345  1.2808
 2845SOL     OW19993   4.191   2.488   0.223  0.3928 -0.6075 -0.4833
 2845SOL    HW119994   4.218   2.438   0.145 -0.3331 -2.6347  0.5774
 2845SOL    HW219995   4.130   2.427   0.262  0.4061  2.4807  4.3178
 2846SOL     OW19996   3.955   0.450   0.441 -0.5147  0.3614  0.2811
 2846SOL    HW119997   3.955   0.411   0.354  0.1278  1.4998 -0.2261
 2846SOL    HW219998   3.967   0.543   0.419 -1.7114  1.2144  3.2320
 2847SOL     OW19999   3.243   2.663   0.701 -0.2351 -0.1307 -0.4708
 2847SOL    HW120000   3.302   2.588   0.689  0.2580 -0.3081  3.0100
 2847SOL    HW220001   3.166   2.637   0.650 -0.0475 -1.0716 -0.2805
 2848SOL     OW20002   0.613   3.726   0.600  0.1308  0.3450 -0.5077
 2848SOL    HW120003   0.554   3.802   0.598 -1.3280 -0.8244 -1.4795
 2848SOL    HW220004   0.569   3.672   0.535 -0.3638 -0.2128  0.2871
 2849SOL     OW20005   3.279   2.627   7.481  0.2895  0.6318  0.0064
 2849SOL    HW120006   3.356   2.573   7.465  1.3723  2.2140 -0.1452
 2849SOL    HW220007   3.214   2.560   7.461  1.8135 -0.1853 -2.1178
 2850SOL     OW20008   0.116   1.105   6.754  0.2522  0.3673  0.0811
 2850SOL    HW120009   0.027   1.079   6.731  0.7349  0.9130 -2.4264
 2850SOL    HW220010   0.101   1.094   6.847  0.9938  0.4668  0.2172
 2851SOL     OW20011   3.138   2.437   2.167 -0.0019 -0.2008  0.7750
 2851SOL    HW120012   3.203   2.489   2.215  1.0702 -0.6621 -0.1764
 2851SOL    HW220013   3.135   2.496   2.092 -2.2744 -1.3039  0.0044
 2852SOL     OW20014   2.977   2.802   2.999 -0.0429  0.3480 -0.0933
 2852SOL    HW120015   2.973   2.706   2.999 -0.8682  0.3685  2.9282
 2852SOL    HW220016   3.026   2.813   2.917 -0.0664  0.1182 -0.1383
 2853SOL     OW20017   1.579   3.972   8.240  0.0986  0.4042  0.4065
 2853SOL    HW120018   1.589   3.942   8.149 -2.0788 -3.3125  1.4107
 2853SOL    HW220019   1.669   3.956   8.269  0.6985 -0.2524 -1.8277
 2854SOL     OW20020   1.950   4.268   3.621  0.3830  0.7734 -1.1603
 2854SOL    HW120021   1.998   4.185   3.620 -0.3261  0.3348  0.7114
 2854SOL    HW220022   1.894   4.262   3.699  2.5821  2.7274  0.6032
 2855SOL     OW20023   0.065   2.046   5.031 -0.2991  0.1787 -0.0381
 2855SOL    HW120024   0.145   2.047   4.978 -0.0366  0.6534  0.3669
 2855SOL    HW220025   0.030   1.959   5.016 -0.4856  0.1003  0.8591
 2856SOL     OW20026   4.263   4.609  10.149  0.0786 -0.3446 -0.5769
 2856SOL    HW120027   4.295   4.526  10.186  0.5542  0.8085  1.5770
 2856SOL    HW220028   4.344   4.644  10.112  0.4134 -0.9447 -0.4148
 2857SOL     OW20029   1.649   2.877   1.347 -0.0691 -0.4261 -0.0343
 2857SOL    HW120030   1.700   2.914   1.275 -0.1123  1.3306  0.8326
 2857SOL    HW220031   1.684   2.788   1.357  1.4337 -0.1120 -2.7347
 2858SOL     OW20032   1.643   2.094   9.832  0.8020  0.0096 -0.0941
 2858SOL    HW120033   1.661   2.060   9.920 -2.3108 -0.7355  0.2573
 2858SOL    HW220034   1.641   2.187   9.855  2.4458  0.1594 -0.5710
 2859SOL     OW20035   0.274   0.409   6.110 -0.1075 -0.0851 -0.6946
 2859SOL    HW120036   0.315   0.402   6.196  0.4098 -0.4768 -0.9739
 2859SOL    HW220037   0.348   0.447   6.063  0.0103 -0.9620 -1.2165
 2860SOL     OW20038   4.147   2.509   3.884  0.1852  0.1277 -0.3277
 2860SOL    HW120039   4.087   2.515   3.809 -1.5194  3.0144  1.2850
 2860SOL    HW220040   4.108   2.569   3.947 -0.2763  0.8998 -1.3403
 2861SOL     OW20041   0.697   4.717   3.067 -0.1913  0.3172 -0.0111
 2861SOL    HW120042   0.729   0.031   2.986 -0.4616 -0.4338 -0.4647
 2861SOL    HW220043   0.780   4.696   3.109  0.2728  1.8539 -0.1683
 2862SOL     OW20044   1.757   2.705   7.590 -0.6177 -0.1210  0.6702
 2862SOL    HW120045   1.792   2.698   7.501  2.0427  5.1520  1.3412
 2862SOL    HW220046   1.838   2.713   7.640 -0.6203 -0.3777  0.7171
 2863SOL     OW20047   3.118   0.353  13.338 -0.8145 -0.1069 -0.0143
 2863SOL    HW120048   3.044   0.336  13.396  0.5932 -0.7370  1.5894
 2863SOL    HW220049   3.189   0.380  13.396  1.2557 -1.6061 -1.8375
 2864SOL     OW20050   0.055   3.162   7.836 -0.8219 -0.0524  0.2276
 2864SOL    HW120051   0.025   3.072   7.845 -1.5694  0.1106 -0.6570
 2864SOL    HW220052   0.056   3.181   7.930  1.2467 -0.9342  0.3853
 2865SOL     OW20053   3.738   2.592   5.276  0.0210  0.0070 -0.5282
 2865SOL    HW120054   3.797   2.628   5.209 -0.2899 -2.4212 -2.1014
 2865SOL    HW220055   3.738   2.673   5.327 -0.7125 -0.2475 -0.1269
 2866SOL     OW20056   1.347   1.319   9.573  0.4712 -0.3371 -0.3359
 2866SOL    HW120057   1.397   1.399   9.554  0.8998 -0.5092  0.0452
 2866SOL    HW220058   1.259   1.354   9.566  0.5594 -0.3419 -1.4443
 2867SOL     OW20059   0.426   3.191   3.067 -0.3999 -0.4703  0.2408
 2867SOL    HW120060   0.441   3.229   2.981 -0.6256 -0.8050  0.0567
 2867SOL    HW220061   0.506   3.139   3.072  0.0847  0.2949  0.4436
 2868SOL     OW20062   2.061   1.321   7.149 -0.0928 -0.0098 -0.1066
 2868SOL    HW120063   2.129   1.320   7.216 -0.4690  0.8825  0.2991
 2868SOL    HW220064   2.068   1.407   7.108 -2.6684 -0.2406 -1.0516
 2869SOL     OW20065   0.507   3.746   8.240  0.2159  0.3661 -0.1025
 2869SOL    HW120066   0.576   3.686   8.269 -0.1066  0.7738  1.5125
 2869SOL    HW220067   0.521   3.746   8.146  0.1865  0.1728 -0.1068
 2870SOL     OW20068   4.040   4.483  16.693 -0.8993  0.2681  0.3837
 2870SOL    HW120069   4.097   4.457  16.621 -1.6865  0.1605 -0.2091
 2870SOL    HW220070   4.052   4.577  16.679 -0.9788  0.2708  0.3346
 2871SOL     OW20071   2.285   3.065  10.991  0.3009 -0.0096  0.5672
 2871SOL    HW120072   2.269   3.150  11.032  1.3718 -0.0666  1.1108
 2871SOL    HW220073   2.363   3.089  10.941 -0.3664 -1.0797 -0.9725
 2872SOL     OW20074   0.419   0.466  13.082 -0.0553  0.3847  0.4567
 2872SOL    HW120075   0.478   0.516  13.138  1.0729  0.1954 -0.5491
 2872SOL    HW220076   0.340   0.456  13.134 -0.0002  2.0410  0.8527
 2873SOL     OW20077   2.203   3.210   7.540  0.0876 -0.5239  0.0271
 2873SOL    HW120078   2.276   3.168   7.494 -0.3515 -1.6704  0.3753
 2873SOL    HW220079   2.214   3.300   7.510  0.3660 -0.8094 -0.7369
 2874SOL     OW20080   4.266   1.451   0.247 -0.4884 -0.1157  0.0139
 2874SOL    HW120081   4.253   1.395   0.324 -0.0064 -0.5614 -0.2342
 2874SOL    HW220082   4.357   1.478   0.259 -0.4812 -0.3808  0.5810
 2875SOL     OW20083   2.776   0.961  12.537  0.6697 -0.0087  0.3568
 2875SOL    HW120084   2.698   0.934  12.489 -0.0731  0.1785  1.4607
 2875SOL    HW220085   2.738   1.037  12.582 -1.0075 -1.7357  1.8759
 2876SOL     OW20086   2.253   2.669   6.851  0.4073  0.0251 -0.7060
 2876SOL    HW120087   2.188   2.599   6.839 -0.5187  0.4239  1.9026
 2876SOL    HW220088   2.232   2.725   6.776 -1.8917  1.9926  1.3905
 2877SOL     OW20089   0.046   4.068   4.294 -0.1598 -0.1656  0.4126
 2877SOL    HW120090   0.027   4.049   4.386 -0.0225 -0.1260  0.4489
 2877SOL    HW220091   0.137   4.040   4.299  1.1650  3.4935 -4.3230
 2878SOL     OW20092   1.273   4.686  10.093  0.5891  0.4932  0.1133
 2878SOL    HW120093   1.267   4.610  10.035 -1.9191  0.3540  0.5727
 2878SOL    HW220094   1.222   4.667  10.172 -0.9773 -2.3144 -1.6097
 2879SOL     OW20095   1.812   0.007  14.855 -0.0443  0.1708 -0.1426
 2879SOL    HW120096   1.754   0.022  14.780  2.2786  1.1025 -1.7493
 2879SOL    HW220097   1.752   0.026  14.927 -0.4037 -0.8432 -0.1702
 2880SOL     OW20098   2.370   0.597  17.668 -0.4988  0.3822 -0.3828
 2880SOL    HW120099   2.351   0.690  17.674  2.2956  0.9440 -0.1216
 2880SOL    HW220100   2.313   0.564   0.041  1.0605 -2.4302 -0.4436
 2881SOL     OW20101   0.544   2.829   8.394 -0.2764 -0.1954  0.0373
 2881SOL    HW120102   0.534   2.912   8.347  1.9386  0.9352  1.5598
 2881SOL    HW220103   0.459   2.827   8.437 -0.1017 -1.5335  0.3355
 2882SOL     OW20104   2.019   2.746   8.328  0.5508 -0.8614 -0.3472
 2882SOL    HW120105   2.109   2.778   8.331 -0.2703  1.4596 -0.4313
 2882SOL    HW220106   2.014   2.706   8.415  0.6239  2.9179  1.3997
 2883SOL     OW20107   1.418   1.164  15.548  0.0170  0.4563 -0.6131
 2883SOL    HW120108   1.375   1.181  15.464 -0.2765  1.0154 -0.3499
 2883SOL    HW220109   1.401   1.247  15.592  0.1802 -0.4353  1.1042
 2884SOL     OW20110   2.845   4.705   7.771  0.1463  0.4618 -0.0909
 2884SOL    HW120111   2.783   0.044   7.734 -0.4362 -0.4780 -0.7176
 2884SOL    HW220112   2.850   0.024   7.856  0.5590 -1.2094  0.7325
 2885SOL     OW20113   3.195   3.107   2.841 -0.1117  0.3054 -0.5346
 2885SOL    HW120114   3.243   3.126   2.922 -0.3190 -0.8578 -0.1337
 2885SOL    HW220115   3.188   3.012   2.853  1.6322  0.1200 -0.9981
 2886SOL     OW20116   2.454   2.398   5.069 -0.0451  0.0371  0.1341
 2886SOL    HW120117   2.542   2.371   5.094 -0.1812  0.0580  0.6258
 2886SOL    HW220118   2.456   2.494   5.077 -0.6937  0.1878 -1.3916
 2887SOL     OW20119   0.455   0.609   8.406  0.1488 -0.3718 -0.3397
 2887SOL    HW120120   0.495   0.628   8.491 -1.4858  0.5320  0.2234
 2887SOL    HW220121   0.514   0.549   8.360  0.9985 -0.9961  1.5629
 2888SOL     OW20122   3.313   0.908  14.630  0.6075  0.4467 -0.6506
 2888SOL    HW120123   3.281   0.952  14.552  0.8760 -1.1819 -1.6751
 2888SOL    HW220124   3.350   0.827  14.596 -1.1967 -0.2012 -1.0956
 2889SOL     OW20125   1.930   3.275  13.959  0.0519  0.4351 -0.4762
 2889SOL    HW120126   1.999   3.341  13.961 -0.4186  0.9612 -1.4180
 2889SOL    HW220127   1.960   3.216  13.889 -3.3247 -1.7742 -0.0637
 2890SOL     OW20128   0.813   3.432   3.016 -0.3940  0.2434  0.3017
 2890SOL    HW120129   0.729   3.476   3.029 -1.5776 -1.7080 -0.7923
 2890SOL    HW220130   0.803   3.407   2.925  1.8861 -0.2029  0.1769
 2891SOL     OW20131   4.625   2.196   6.002 -0.5936  0.2141  0.5569
 2891SOL    HW120132   4.714   2.231   5.998 -0.3538 -0.4456  0.0928
 2891SOL    HW220133   4.585   2.233   5.924 -1.4562  1.0455  1.4055
 2892SOL     OW20134   1.843   0.921   8.676  0.0592  0.3688  0.2186
 2892SOL    HW120135   1.836   0.854   8.744 -0.8671 -1.3574 -1.5853
 2892SOL    HW220136   1.833   0.998   8.733 -0.2545  2.0758 -2.1542
 2893SOL     OW20137   2.781   4.317   0.625  0.4152 -0.0311  0.0880
 2893SOL    HW120138   2.687   4.333   0.616  1.0975  2.2721 -3.0372
 2893SOL    HW220139   2.807   4.348   0.538  0.6301 -0.0427  0.1478
 2894SOL     OW20140   0.563   0.485   0.940 -0.5516  0.0807  0.3862
 2894SOL    HW120141   0.508   0.432   0.997  1.3069 -0.8747  1.2964
 2894SOL    HW220142   0.523   0.564   0.977  1.3649  2.1982 -2.0589
 2895SOL     OW20143   1.090   4.328   2.407  0.1371  0.0634 -0.3550
 2895SOL    HW120144   1.153   4.393   2.376 -0.4054  0.7969  0.1074
 2895SOL    HW220145   1.023   4.335   2.339  0.3109  1.0890 -0.4164
 2896SOL     OW20146   3.760   4.191   3.698 -0.1044 -0.2268 -0.3464
 2896SOL    HW120147   3.673   4.196   3.661  0.4838 -0.3631 -1.7554
 2896SOL    HW220148   3.779   4.284   3.708 -0.1910 -0.4168  1.6209
 2897SOL     OW20149   0.906   0.022   6.167 -0.1739  0.5310 -0.2223
 2897SOL    HW120150   0.894   4.674   6.229 -1.6221  0.9041 -0.0652
 2897SOL    HW220151   0.945   4.700   6.093 -0.3819  2.3741 -1.4902
 2898SOL     OW20152   2.851   1.448   8.514  0.4900 -0.1156  0.4802
 2898SOL    HW120153   2.914   1.394   8.562 -0.8112 -0.3204  1.9802
 2898SOL    HW220154   2.882   1.536   8.533 -0.2777 -0.3068  2.6069
 2899SOL     OW20155   3.439   0.433   8.872 -0.0962 -0.3115  0.2166
 2899SOL    HW120156   3.494   0.508   8.853  0.0478  0.0470  2.0776
 2899SOL    HW220157   3.360   0.480   8.899  1.1995  0.4543  2.6366
 2900SOL     OW20158   3.312   2.337   5.252  0.8850 -0.2105  0.4432
 2900SOL    HW120159   3.282   2.425   5.275 -1.9558 -0.4225 -2.5045
 2900SOL    HW220160   3.391   2.329   5.305  0.7943 -2.6844  0.2025
 2901SOL     OW20161   2.029   2.677   3.915  0.9697 -0.1763  0.4415
 2901SOL    HW120162   1.966   2.627   3.863  0.4365  1.4321 -0.4499
 2901SOL    HW220163   2.033   2.747   3.850  1.5103  0.6057  1.3199
 2902SOL     OW20164   4.176   0.216   9.719 -0.4810 -1.0307 -0.9815
 2902SOL    HW120165   4.242   0.148   9.735  0.8619  0.3929 -0.4879
 2902SOL    HW220166   4.215   0.286   9.667 -1.5653  0.1201 -0.2367
 2903SOL     OW20167   3.094   1.760   9.228  0.1963 -0.7173 -0.1648
 2903SOL    HW120168   3.039   1.820   9.177  1.7661 -0.3029 -1.3907
 2903SOL    HW220169   3.039   1.688   9.259  0.6379 -1.9787 -2.2799
 2904SOL     OW20170   3.955   3.421   2.493  0.4402  0.1851  0.0455
 2904SOL    HW120171   3.956   3.507   2.536  0.9919 -0.4044  1.1854
 2904SOL    HW220172   4.043   3.392   2.514  0.2522 -0.9772 -0.7810
 2905SOL     OW20173   0.705   3.602  15.485  0.2990  0.7006 -0.1755
 2905SOL    HW120174   0.774   3.572  15.425 -2.0050 -0.8043 -2.0504
 2905SOL    HW220175   0.632   3.623  15.426 -2.2169 -0.5400  2.5346
 2906SOL     OW20176   3.748   1.070  11.867 -0.0108 -0.2243  0.1448
 2906SOL    HW120177   3.794   0.986  11.871  0.7639  0.0548 -2.7375
 2906SOL    HW220178   3.823   1.124  11.844 -0.5852  0.3541 -0.3852
 2907SOL     OW20179   2.074   0.822   4.850 -0.3660 -0.7203 -0.5412
 2907SOL    HW120180   2.052   0.734   4.881  1.4638  0.3029  3.7049
 2907SOL    HW220181   1.984   0.852   4.839  0.5190  2.0830  0.0052
 2908SOL     OW20182   3.201   3.961   3.292  0.1698  0.1725 -0.2562
 2908SOL    HW120183   3.115   3.984   3.326  0.0576 -0.7862  0.0835
 2908SOL    HW220184   3.256   4.038   3.308  1.4655 -1.2789  2.1554
 2909SOL     OW20185   0.700   1.677  12.351  0.6796  0.7888  0.0749
 2909SOL    HW120186   0.759   1.627  12.295 -2.7216 -1.8761 -1.1704
 2909SOL    HW220187   0.746   1.672  12.435  0.4804 -4.1782 -0.0656
 2910SOL     OW20188   4.183   3.783   5.164 -0.6595  0.2888  0.1161
 2910SOL    HW120189   4.158   3.833   5.242  0.5792  2.6452 -1.0220
 2910SOL    HW220190   4.090   3.769   5.143 -0.7013  0.3830  0.2359
 2911SOL     OW20191   0.704   2.314   4.484  0.2817  0.3327 -0.2336
 2911SOL    HW120192   0.729   2.222   4.493 -4.0381 -0.9120 -0.8858
 2911SOL    HW220193   0.702   2.331   4.390  0.6937  1.3064 -0.0710
 2912SOL     OW20194   3.464   4.026   8.307  0.0885 -0.1790 -0.5585
 2912SOL    HW120195   3.377   4.060   8.291  0.2538 -0.3329 -1.8012
 2912SOL    HW220196   3.464   4.041   8.402  1.8982 -0.4498 -0.5041
 2913SOL     OW20197   2.970   1.224  16.762  0.0363 -0.3067  0.5614
 2913SOL    HW120198   2.931   1.138  16.769 -0.5345  0.0658  1.8107
 2913SOL    HW220199   2.936   1.261  16.843 -1.5104  0.5692 -0.4777
 2914SOL     OW20200   4.225   1.173  15.757 -0.6496 -0.1182  0.2744
 2914SOL    HW120201   4.222   1.155  15.851 -1.9081 -0.0411  0.2505
 2914SOL    HW220202   4.232   1.090  15.710  2.1501 -0.0955  0.6289
 2915SOL     OW20203   0.419   0.393   7.603  0.1878 -0.7866 -0.3857
 2915SOL    HW120204   0.404   0.342   7.682  0.8105 -0.9141 -0.3541
 2915SOL    HW220205   0.513   0.411   7.598  0.2840 -0.7565  1.6736
 2916SOL     OW20206   1.861   0.337   5.777 -0.6014 -0.1762 -0.0570
 2916SOL    HW120207   1.871   0.422   5.820 -1.3554 -1.0819  1.8851
 2916SOL    HW220208   1.944   0.296   5.802 -1.6933 -0.9509  2.2708
 2917SOL     OW20209   1.606   4.033   2.546  0.0543 -0.2543 -0.0023
 2917SOL    HW120210   1.542   4.074   2.605 -0.1685  1.8871 -1.7195
 2917SOL    HW220211   1.631   4.101   2.484 -1.0308 -0.8127 -1.0613
 2918SOL     OW20212   1.878   0.972  10.655 -0.1421  0.0633 -0.0262
 2918SOL    HW120213   1.936   1.048  10.664 -1.1971  0.7538  1.0594
 2918SOL    HW220214   1.898   0.947  10.565 -1.1651  3.1688 -1.0968
 2919SOL     OW20215   1.977   1.371   2.132 -0.1306  0.1143 -0.0722
 2919SOL    HW120216   1.934   1.312   2.071  0.2108  2.3072 -2.4637
 2919SOL    HW220217   2.065   1.382   2.095 -0.8087  1.2608 -1.3861
 2920SOL     OW20218   1.532   2.795   5.271  0.0350 -0.6884 -0.0391
 2920SOL    HW120219   1.602   2.826   5.328 -0.6791 -0.8848  0.9341
 2920SOL    HW220220   1.469   2.862   5.298 -0.0673 -0.9347  0.3316
 2921SOL     OW20221   1.978   2.233   4.359  0.4881 -0.0391  0.0879
 2921SOL    HW120222   1.900   2.231   4.304 -0.2592  1.3869  1.1059
 2921SOL    HW220223   1.926   2.239   4.439  0.1769  0.1226 -0.1274
 2922SOL     OW20224   3.474   3.219  16.209  0.4717  0.0852  0.2052
 2922SOL    HW120225   3.483   3.300  16.259  2.4423  0.3140 -0.5432
 2922SOL    HW220226   3.447   3.259  16.126 -0.2992  1.4734  1.1180
 2923SOL     OW20227   3.096   2.529   9.032 -0.2029  0.3130 -0.5115
 2923SOL    HW120228   3.120   2.436   9.030  0.9479  0.5681  2.9242
 2923SOL    HW220229   3.155   2.566   9.097  0.6760  1.3681 -1.9217
 2924SOL     OW20230   4.199   1.160   3.614 -0.1291 -0.2280 -0.5165
 2924SOL    HW120231   4.258   1.131   3.545  0.0500 -1.8171  0.3090
 2924SOL    HW220232   4.211   1.089   3.676  1.2604  0.2504 -0.2327
 2925SOL     OW20233   1.089   2.413  16.975  0.2269  0.3640 -0.3149
 2925SOL    HW120234   1.119   2.416  17.066 -1.5903  0.1751  0.3081
 2925SOL    HW220235   1.074   2.505  16.951 -0.2911  0.4511  0.3213
 2926SOL     OW20236   1.005   0.126   9.514 -0.2017 -0.5158  0.6661
 2926SOL    HW120237   1.071   0.097   9.577 -0.9490  0.0475  1.7209
 2926SOL    HW220238   0.979   0.203   9.565  2.6234  0.5644  0.4947
 2927SOL     OW20239   3.787   0.101   7.834  0.3365 -0.4052 -0.0511
 2927SOL    HW120240   3.858   0.038   7.848  1.0921  0.4274 -0.2121
 2927SOL    HW220241   3.713   0.071   7.887 -0.2940 -0.1300 -0.7747
 2928SOL     OW20242   1.518   2.781  14.519 -0.0399  0.0035  0.0237
 2928SOL    HW120243   1.435   2.753  14.556 -0.1780 -0.9998 -1.0514
 2928SOL    HW220244   1.519   2.877  14.523  2.3332  0.0166 -0.5223
 2929SOL     OW20245   0.530   0.614  13.376  0.1551 -0.2538  0.3538
 2929SOL    HW120246   0.526   0.523  13.405  1.9918 -0.3394  0.3586
 2929SOL    HW220247   0.570   0.648  13.456  0.2703  1.4727 -0.4361
 2930SOL     OW20248   3.047   0.841   4.027 -0.1095  0.3645  0.1406
 2930SOL    HW120249   2.968   0.791   4.008 -0.1157  0.5578 -0.3503
 2930SOL    HW220250   3.073   0.818   4.116  0.8989 -1.2648 -0.5599
 2931SOL     OW20251   4.320   0.609   3.804  0.3097  0.5269  0.9404
 2931SOL    HW120252   4.293   0.643   3.719  1.5756  1.4208  0.8961
 2931SOL    HW220253   4.393   0.554   3.776  1.0688  2.4678 -0.8317
 2932SOL     OW20254   4.419   1.810   4.333  0.7806  0.3577 -0.2898
 2932SOL    HW120255   4.450   1.866   4.404 -2.1743  1.4095  0.1592
 2932SOL    HW220256   4.408   1.729   4.382  1.0175  0.1014 -0.6608
 2933SOL     OW20257   4.412   2.047   3.602  0.4015 -0.2708 -0.5012
 2933SOL    HW120258   4.366   2.058   3.519  0.1802 -1.8828 -0.6004
 2933SOL    HW220259   4.342   2.014   3.658  1.1558  0.7091  1.0131
 2934SOL     OW20260   2.364   1.477   4.265  0.0568  0.1617  0.3570
 2934SOL    HW120261   2.376   1.482   4.359 -0.3299  2.1238  0.3038
 2934SOL    HW220262   2.306   1.551   4.246  1.1360  1.4491  2.1416
 2935SOL     OW20263   4.498   1.238   0.592  0.0174  0.6039 -0.5484
 2935SOL    HW120264   4.569   1.207   0.649 -1.7831 -1.2859  0.6836
 2935SOL    HW220265   4.450   1.295   0.652  0.6649  1.7427 -1.1154
 2936SOL     OW20266   1.049   3.688   1.770 -0.1624  0.3668 -0.6603
 2936SOL    HW120267   0.958   3.706   1.748 -0.1073  0.7831 -0.5480
 2936SOL    HW220268   1.046   3.651   1.859  1.7619 -0.9677 -1.1400
 2937SOL     OW20269   3.175   3.421  15.590 -0.2837 -0.5229 -0.4646
 2937SOL    HW120270   3.083   3.444  15.577 -0.5667 -2.3424 -1.6936
 2937SOL    HW220271   3.219   3.487  15.536 -1.6491  1.0268  0.3243
 2938SOL     OW20272   1.104   1.030   5.363 -0.7158  0.1694 -0.2306
 2938SOL    HW120273   1.066   0.944   5.381 -0.5337 -0.0493 -0.8764
 2938SOL    HW220274   1.195   1.012   5.338 -1.1119  0.3309 -1.7859
 2939SOL     OW20275   3.541   3.328   1.747 -0.4785 -0.2268 -0.3451
 2939SOL    HW120276   3.596   3.398   1.712 -1.4961  0.9403  0.4139
 2939SOL    HW220277   3.591   3.251   1.719 -0.5818 -0.5453  0.3323
 2940SOL     OW20278   2.994   0.288   9.215  0.2808 -0.3694  0.1878
 2940SOL    HW120279   2.923   0.352   9.204  1.1147  0.4346 -0.4528
 2940SOL    HW220280   3.037   0.327   9.291  2.0664  1.3292 -1.7441
 2941SOL     OW20281   0.707   0.033  15.136 -0.3636  0.0141 -0.2565
 2941SOL    HW120282   0.764   0.079  15.197  1.4207  0.0886 -1.9721
 2941SOL    HW220283   0.644   0.102  15.114 -2.1654 -1.8465 -0.9988
 2942SOL     OW20284   0.399   2.966   6.643  0.3690  0.4115 -0.3410
 2942SOL    HW120285   0.488   2.932   6.649 -0.2725 -1.1888  0.0484
 2942SOL    HW220286   0.355   2.887   6.611  0.9612  0.5803 -1.5835
 2943SOL     OW20287   3.698   1.841  13.973  0.6235 -0.8749 -0.3392
 2943SOL    HW120288   3.620   1.862  14.024 -1.7759 -0.9899 -3.9995
 2943SOL    HW220289   3.713   1.750  13.997 -0.0047 -0.4726  1.5926
 2944SOL     OW20290   3.670   4.072   4.923  0.8659 -0.3441  0.2099
 2944SOL    HW120291   3.645   4.127   4.998  1.9617 -1.8612  1.7006
 2944SOL    HW220292   3.759   4.105   4.906  1.1067 -0.9270  0.3133
 2945SOL     OW20293   1.372   2.907   5.751 -0.0216  0.0594  0.0367
 2945SOL    HW120294   1.374   2.876   5.841 -0.3871 -0.8885 -0.2787
 2945SOL    HW220295   1.296   2.864   5.711 -0.8421  0.0169  1.6673
 2946SOL     OW20296   1.223   0.253   2.769  0.5368 -0.3706 -0.1516
 2946SOL    HW120297   1.129   0.262   2.784  0.3968 -1.9083 -0.1204
 2946SOL    HW220298   1.224   0.235   2.675 -0.0752  0.0086 -0.2347
 2947SOL     OW20299   4.436   1.512   8.888  0.3525 -0.3003 -0.0490
 2947SOL    HW120300   4.498   1.570   8.933  1.3488 -1.6852  0.3444
 2947SOL    HW220301   4.494   1.480   8.819  0.4179 -0.5904  0.1417
 2948SOL     OW20302   1.994   2.914   6.381 -0.1096  0.3383 -0.3809
 2948SOL    HW120303   1.930   2.959   6.325 -1.9353  0.1325  1.5332
 2948SOL    HW220304   1.929   2.866   6.433 -0.0519 -0.5515 -1.1433
 2949SOL     OW20305   2.859   1.225   2.552  0.1079  0.3553  0.1966
 2949SOL    HW120306   2.880   1.178   2.472  2.2963 -0.1048  1.0396
 2949SOL    HW220307   2.772   1.187   2.567  0.1795  0.1927  0.1930
 2950SOL     OW20308   0.444   3.816  15.098 -0.6040 -0.7560  0.3710
 2950SOL    HW120309   0.503   3.890  15.104 -1.3442 -0.2761  1.7221
 2950SOL    HW220310   0.401   3.831  15.014 -1.3330  0.3093  0.9457
 2951SOL     OW20311   3.384   1.510   3.433 -0.4206 -0.0622  0.4688
 2951SOL    HW120312   3.301   1.558   3.433  0.6279  1.7852  0.8616
 2951SOL    HW220313   3.373   1.484   3.524 -1.9000  0.2577  0.3742
 2952SOL     OW20314   1.345   1.727  11.712 -0.2586 -0.3231 -0.3602
 2952SOL    HW120315   1.272   1.786  11.691  0.3169  0.7740  0.7559
 2952SOL    HW220316   1.413   1.782  11.751 -0.2698  0.4965 -1.4912
 2953SOL     OW20317   2.355   1.661  13.978 -0.2340 -0.3499 -0.0901
 2953SOL    HW120318   2.261   1.679  13.984  0.2049  1.0972  2.4974
 2953SOL    HW220319   2.350   1.591  13.913 -1.0246  0.6705 -1.1313
 2954SOL     OW20320   2.295   1.079   9.094 -0.4167  0.2478  0.6309
 2954SOL    HW120321   2.389   1.069   9.080 -0.4503  1.9527 -0.9057
 2954SOL    HW220322   2.278   1.091   9.188 -1.0018  0.9821  0.4365
 2955SOL     OW20323   3.692   0.677   6.699 -0.2635 -0.0314 -0.6960
 2955SOL    HW120324   3.731   0.682   6.611 -1.1598 -0.9583 -1.1483
 2955SOL    HW220325   3.601   0.690   6.669  0.1948  1.4758 -1.4701
 2956SOL     OW20326   1.503   2.702   8.736 -0.1539  0.3210 -0.3990
 2956SOL    HW120327   1.486   2.698   8.830  2.0843 -0.5467 -0.0302
 2956SOL    HW220328   1.567   2.631   8.728 -0.1087  0.1249  1.5590
 2957SOL     OW20329   0.169   2.104   3.714  0.1295  0.1852 -0.0598
 2957SOL    HW120330   0.205   2.051   3.785  0.9969 -1.0553 -1.4154
 2957SOL    HW220331   0.131   2.034   3.661 -1.2708  1.6068 -0.9326
 2958SOL     OW20332   4.564   1.954   6.851  0.1666 -0.1538 -0.2488
 2958SOL    HW120333   4.518   2.005   6.784 -1.5579  0.5791  1.4643
 2958SOL    HW220334   4.646   1.999   6.870 -0.9134  1.9263 -0.5150
 2959SOL     OW20335   0.888   2.027   9.921 -0.2311 -0.5743  0.4131
 2959SOL    HW120336   0.873   2.051   9.830  0.0362  0.2024  0.5731
 2959SOL    HW220337   0.945   1.951   9.905  1.6988  0.9889 -0.1632
 2960SOL     OW20338   4.584   4.031   2.478 -0.4282 -0.0171  0.0374
 2960SOL    HW120339   4.619   3.955   2.430  3.2660  0.5774  1.7183
 2960SOL    HW220340   4.661   4.088   2.471 -0.1335  0.0521  3.6456
 2961SOL     OW20341   3.368   0.865   4.201  0.3320 -0.3727  0.4055
 2961SOL    HW120342   3.295   0.834   4.255  0.7101  0.0689  1.1725
 2961SOL    HW220343   3.428   0.896   4.269 -1.1883 -0.6364  1.8907
 2962SOL     OW20344   2.742   2.224   1.944 -0.2649 -0.2228 -0.0499
 2962SOL    HW120345   2.794   2.254   1.870 -2.1143 -0.1531 -1.3063
 2962SOL    HW220346   2.702   2.140   1.924 -1.6134 -0.2129  2.5633
 2963SOL     OW20347   3.198   2.596   5.271  0.2523  0.1744  0.3106
 2963SOL    HW120348   3.258   2.670   5.272 -0.6180  0.8738  0.8117
 2963SOL    HW220349   3.128   2.629   5.327 -0.1933  1.3753 -0.9577
 2964SOL     OW20350   1.787   3.045  10.881  0.4736  0.0587  0.5035
 2964SOL    HW120351   1.862   3.098  10.856 -0.0566 -0.3647 -1.9573
 2964SOL    HW220352   1.815   2.960  10.846  0.6454  0.3104  0.0375
 2965SOL     OW20353   3.434   3.593  15.504  0.6059 -0.9259 -0.0239
 2965SOL    HW120354   3.526   3.618  15.506  0.2601  0.6206 -3.0277
 2965SOL    HW220355   3.397   3.677  15.530  1.3352 -0.9844  1.1701
 2966SOL     OW20356   3.937   2.525   3.373  0.3338  0.2543 -0.0015
 2966SOL    HW120357   3.879   2.528   3.449 -0.4655 -1.2150 -0.5626
 2966SOL    HW220358   3.928   2.433   3.347  3.6851  0.2508 -1.2211
 2967SOL     OW20359   3.959   2.075   2.665 -0.5277  0.2324 -0.2633
 2967SOL    HW120360   3.950   2.018   2.588  1.2937 -0.2736 -0.0853
 2967SOL    HW220361   3.869   2.076   2.697 -1.2304  1.3182 -2.2235
 2968SOL     OW20362   0.607   1.982   7.779  0.1202  0.4526  0.5000
 2968SOL    HW120363   0.535   2.044   7.770 -0.8174 -0.0862  4.1593
 2968SOL    HW220364   0.632   1.981   7.687  1.9309  3.2497  0.9660
 2969SOL     OW20365   0.319   0.255  15.287 -0.1820 -0.2726 -0.1841
 2969SOL    HW120366   0.408   0.288  15.271  0.2024  0.1812  2.8203
 2969SOL    HW220367   0.343   0.163  15.301 -0.4338 -0.3658 -0.3795
 2970SOL     OW20368   0.528   1.744  13.684 -0.1552 -0.3723 -0.2595
 2970SOL    HW120369   0.599   1.790  13.639  0.1471  0.1180  0.7140
 2970SOL    HW220370   0.486   1.809  13.741  1.8876 -1.3848  2.4154
 2971SOL     OW20371   2.326   2.817   2.044  0.2636 -0.4158 -0.3469
 2971SOL    HW120372   2.373   2.735   2.028 -1.6596 -1.1547 -2.1723
 2971SOL    HW220373   2.371   2.874   1.981  1.8459  0.7668  1.8309
 2972SOL     OW20374   0.512   0.501   6.058 -0.2386 -0.0122 -0.6767
 2972SOL    HW120375   0.594   0.473   6.019 -0.4143 -1.7763  0.2185
 2972SOL    HW220376   0.542   0.559   6.128  0.8811  1.9498 -2.7718
 2973SOL     OW20377   0.383   0.879   5.658  0.0239  0.0387  0.1769
 2973SOL    HW120378   0.398   0.804   5.601  0.7182  0.1659  0.1943
 2973SOL    HW220379   0.463   0.883   5.710 -0.1416 -1.1395  0.5266
 2974SOL     OW20380   0.394   0.357   8.920 -0.0983  0.0684 -0.7098
 2974SOL    HW120381   0.355   0.429   8.870  0.5070  1.6132  1.0439
 2974SOL    HW220382   0.479   0.389   8.951  0.1180 -1.4149  0.2267
 2975SOL     OW20383   0.470   4.528  12.862 -0.2191  0.4161 -0.6251
 2975SOL    HW120384   0.549   4.564  12.901 -1.7862  1.5613  1.4987
 2975SOL    HW220385   0.459   4.571  12.777 -1.0046  1.3730 -0.0358
 2976SOL     OW20386   4.322   0.688   7.550  0.0676 -0.7826  0.2620
 2976SOL    HW120387   4.254   0.675   7.616  0.9121  0.4440  1.3724
 2976SOL    HW220388   4.318   0.605   7.502  2.0805 -0.1695 -0.9737
 2977SOL     OW20389   2.662   3.773   7.788  0.3477  0.2535 -0.2033
 2977SOL    HW120390   2.625   3.859   7.807 -0.3744  0.0077 -0.4730
 2977SOL    HW220391   2.720   3.803   7.718 -0.7521 -0.1805 -1.2990
 2978SOL     OW20392   0.087   2.067   7.925  0.3765  0.2045 -0.3017
 2978SOL    HW120393   0.064   2.153   7.962 -0.8694 -0.9201  1.5257
 2978SOL    HW220394   0.175   2.060   7.961  1.0244  1.1544 -1.6783
 2979SOL     OW20395   2.865   1.097   2.976  0.0572  0.2762  0.9287
 2979SOL    HW120396   2.921   1.024   3.004 -0.7922 -0.9914 -0.6414
 2979SOL    HW220397   2.934   1.154   2.941 -0.4766 -1.0674 -2.3921
 2980SOL     OW20398   4.214   0.639   4.053 -0.1660 -0.0725 -0.6145
 2980SOL    HW120399   4.260   0.719   4.077 -1.9442  1.0122 -0.8345
 2980SOL    HW220400   4.255   0.630   3.967 -1.4148 -1.6682 -1.0423
 2981SOL     OW20401   1.263   1.540  16.746 -0.6179  0.0184 -0.5674
 2981SOL    HW120402   1.181   1.503  16.779 -2.2571  1.3748 -3.0625
 2981SOL    HW220403   1.244   1.629  16.778 -1.6638 -0.6226  0.6068
 2982SOL     OW20404   0.750   3.809   2.493 -0.6846 -0.6811 -0.1128
 2982SOL    HW120405   0.745   3.714   2.487  2.0266 -0.8182 -0.2372
 2982SOL    HW220406   0.671   3.837   2.446 -1.9400 -1.9578  1.2536
 2983SOL     OW20407   1.142   4.257   0.929 -0.0408  0.1648 -0.1494
 2983SOL    HW120408   1.107   4.249   1.018  1.9927  0.0871  0.6533
 2983SOL    HW220409   1.179   4.169   0.921 -1.6497 -0.2948 -2.5105
 2984SOL     OW20410   4.593   0.976  11.013 -0.4051 -0.0462 -0.0117
 2984SOL    HW120411   4.643   0.991  11.093 -0.5784  0.7939 -0.0688
 2984SOL    HW220412   4.532   1.049  11.018 -0.7752 -0.4167  0.9083
 2985SOL     OW20413   1.063   3.341   3.067 -0.0005 -0.1100  0.4461
 2985SOL    HW120414   1.072   3.305   2.979  0.6407 -1.8823  1.2452
 2985SOL    HW220415   0.972   3.373   3.065 -0.1637 -0.5664  0.6222
 2986SOL     OW20416   1.636   1.207   5.643  0.5867  0.3570 -0.0634
 2986SOL    HW120417   1.604   1.193   5.554  1.4386 -2.6717  0.0932
 2986SOL    HW220418   1.569   1.161   5.693  1.1381 -0.1760  0.1755
 2987SOL     OW20419   4.151   3.376   0.631  0.7347 -0.2034  0.3318
 2987SOL    HW120420   4.119   3.455   0.674  2.0069  0.1129  0.6836
 2987SOL    HW220421   4.095   3.369   0.554 -0.9647  1.4381  1.4371
 2988SOL     OW20422   0.299   2.572   6.761 -0.3061 -0.1858 -0.0738
 2988SOL    HW120423   0.331   2.627   6.832  2.2120  1.9506 -2.8905
 2988SOL    HW220424   0.289   2.486   6.801  0.1181  0.0374  0.5093
 2989SOL     OW20425   0.183   2.298   5.946  0.1978  0.4901 -0.0514
 2989SOL    HW120426   0.217   2.209   5.934 -1.4460  0.2027 -2.5931
 2989SOL    HW220427   0.234   2.333   6.019 -1.4894  0.1587  1.2896
 2990SOL     OW20428   0.868   1.829   8.689  0.0880 -0.0948 -0.2139
 2990SOL    HW120429   0.856   1.748   8.739 -1.3099 -0.5289 -1.2534
 2990SOL    HW220430   0.909   1.895   8.745 -1.8088  0.5944  0.3555
 2991SOL     OW20431   3.789   2.332   7.268  0.0849 -0.1511  0.1669
 2991SOL    HW120432   3.766   2.386   7.344  2.9742  2.6686 -0.9308
 2991SOL    HW220433   3.788   2.400   7.200 -3.1047  0.0083  0.3841
 2992SOL     OW20434   2.418   4.075   8.138 -0.6350  0.4195  0.3337
 2992SOL    HW120435   2.458   4.162   8.128 -0.5848  0.1839 -1.5367
 2992SOL    HW220436   2.350   4.085   8.204 -1.4147 -0.2896 -0.3714
 2993SOL     OW20437   0.745   3.012   4.824  0.5064 -0.3921 -0.0796
 2993SOL    HW120438   0.658   3.052   4.832 -0.4562 -2.4231 -0.5467
 2993SOL    HW220439   0.796   3.067   4.884 -0.2644  0.4670 -0.2152
 2994SOL     OW20440   1.349   1.631  15.807  0.1550  0.1533 -0.5787
 2994SOL    HW120441   1.296   1.698  15.765 -1.1577 -0.1433  0.5974
 2994SOL    HW220442   1.351   1.668  15.895  1.9595 -0.0192 -0.5607
 2995SOL     OW20443   0.437   0.233   7.858 -0.1407 -0.5045  0.0830
 2995SOL    HW120444   0.370   0.241   7.926 -2.2057  1.3913 -2.1635
 2995SOL    HW220445   0.505   0.283   7.903  1.6693 -0.1511 -3.0443
 2996SOL     OW20446   0.547   4.294   8.919  0.6486 -0.0163 -0.4276
 2996SOL    HW120447   0.640   4.319   8.925  1.1729 -2.5523  1.9786
 2996SOL    HW220448   0.523   4.298   9.012 -1.9278  0.1157 -1.1045
 2997SOL     OW20449   2.228   1.461   8.508 -0.4458 -0.0474  0.3087
 2997SOL    HW120450   2.286   1.461   8.432  0.9453 -0.2494  1.3735
 2997SOL    HW220451   2.290   1.497   8.571  0.8136 -0.2558 -0.8043
 2998SOL     OW20452   0.232   2.235   5.370 -0.1494 -0.5212  0.1682
 2998SOL    HW120453   0.285   2.217   5.292 -0.2506 -1.0451  0.2181
 2998SOL    HW220454   0.152   2.185   5.354 -0.6053  0.0843  0.5597
 2999SOL     OW20455   1.276   1.767   1.357  0.4786  0.0185  0.4824
 2999SOL    HW120456   1.367   1.750   1.382  0.6519  1.1027  0.6237
 2999SOL    HW220457   1.229   1.739   1.435  0.5616  2.3455  1.3699
 3000SOL     OW20458   3.740   4.636   7.153 -0.7098  0.0785  0.3681
 3000SOL    HW120459   3.833   4.634   7.178 -0.6802 -0.3036  0.2196
 3000SOL    HW220460   3.698   4.621   7.237 -0.7178  0.2233  0.3904
 3001SOL     OW20461   1.195   3.106   2.320  0.8245 -0.0466 -0.3454
 3001SOL    HW120462   1.248   3.128   2.243  2.0044  2.6979  1.2394
 3001SOL    HW220463   1.226   3.175   2.379  1.4061 -0.5660 -0.0429
 3002SOL     OW20464   2.755   1.723  12.941 -0.0758 -0.5406 -0.0959
 3002SOL    HW120465   2.776   1.637  12.976  0.2807 -0.6443 -0.5633
 3002SOL    HW220466   2.829   1.775  12.974  1.3427 -2.5797 -0.0984
 3003SOL     OW20467   2.795   3.889   5.421 -0.1890  0.0902  0.8059
 3003SOL    HW120468   2.718   3.917   5.469  0.8424  0.8398  2.0252
 3003SOL    HW220469   2.860   3.949   5.458 -1.0411  0.0293  2.3868
 3004SOL     OW20470   1.486   0.038   9.111 -0.2771  0.3408 -0.2453
 3004SOL    HW120471   1.428   4.685   9.103  1.1035 -0.7440  0.2166
 3004SOL    HW220472   1.464   0.071   9.199 -2.6085  2.3089 -1.5587
 3005SOL     OW20473   1.605   3.184   2.737 -1.0177  0.6406  0.4514
 3005SOL    HW120474   1.559   3.101   2.729 -0.9968  0.5761  1.0156
 3005SOL    HW220475   1.610   3.207   2.644  1.4584  0.7192  0.5900
 3006SOL     OW20476   1.652   0.858  12.458  0.7974 -0.8032  0.3097
 3006SOL    HW120477   1.620   0.856  12.548 -2.3851 -0.4087 -0.8370
 3006SOL    HW220478   1.590   0.921  12.422 -0.2426 -1.5178  0.8376
 3007SOL     OW20479   3.040   3.146  15.977  0.1917 -0.0353 -0.4465
 3007SOL    HW120480   2.996   3.207  16.037 -0.7173 -1.0895 -0.0526
 3007SOL    HW220481   3.034   3.190  15.892 -0.6925  0.6406 -0.0391
 3008SOL     OW20482   0.182   0.822   6.702  0.7095  0.2489 -0.1393
 3008SOL    HW120483   0.238   0.886   6.657  1.4483 -0.7536 -0.6565
 3008SOL    HW220484   0.254   0.772   6.739 -0.1434 -2.8665 -2.6473
 3009SOL     OW20485   1.273   2.960  10.009 -0.3877 -0.3031  0.6393
 3009SOL    HW120486   1.200   2.911   9.972  0.3226 -0.6906 -0.2561
 3009SOL    HW220487   1.231   3.015  10.075 -1.9415  0.1698 -0.7218
 3010SOL     OW20488   2.347   4.632  13.672 -0.5603  0.4381 -0.0176
 3010SOL    HW120489   2.398   4.633  13.753  1.8001 -2.9676 -1.4557
 3010SOL    HW220490   2.393   4.575  13.611  0.2924 -0.3047  1.3357
 3011SOL     OW20491   1.074   1.777   8.325  0.3427  0.0290  0.3153
 3011SOL    HW120492   1.041   1.866   8.311 -1.6387 -1.0225 -1.7450
 3011SOL    HW220493   1.161   1.801   8.357  1.1921 -0.4947 -1.5801
 3012SOL     OW20494   3.017   3.185   5.341 -0.1536  0.6210 -0.0255
 3012SOL    HW120495   3.043   3.216   5.254 -1.0258  0.7980 -0.2199
 3012SOL    HW220496   2.922   3.198   5.343  0.1091  2.6883 -0.9508
 3013SOL     OW20497   3.494   4.162   2.097 -0.1257 -0.1828  0.1431
 3013SOL    HW120498   3.498   4.230   2.165 -1.2152 -1.4163  1.4478
 3013SOL    HW220499   3.463   4.208   2.019  1.9218 -0.7425 -1.0167
 3014SOL     OW20500   1.153   2.324   4.286 -0.3230  0.1387 -0.4532
 3014SOL    HW120501   1.120   2.250   4.338  1.4369 -0.7925 -0.6405
 3014SOL    HW220502   1.227   2.285   4.239  0.6186  0.7450  0.5462
 3015SOL     OW20503   1.805   0.207   2.275 -0.3719 -0.1005  0.2178
 3015SOL    HW120504   1.771   0.252   2.353 -0.8556  0.9847 -0.6129
 3015SOL    HW220505   1.767   0.259   2.204 -2.2366  0.3397  1.5182
 3016SOL     OW20506   3.102   0.785   3.575 -0.1554 -0.0322  0.1911
 3016SOL    HW120507   3.120   0.735   3.655 -0.5323 -0.4131  0.0408
 3016SOL    HW220508   3.186   0.829   3.567 -0.1052 -0.2957 -0.6979
 3017SOL     OW20509   4.165   2.787   3.048 -0.2439 -0.0374 -0.5425
 3017SOL    HW120510   4.074   2.779   3.019 -0.4885  0.2023  0.1618
 3017SOL    HW220511   4.156   2.735   3.128  2.2845 -2.1850 -1.6411
 3018SOL     OW20512   4.424   4.662   3.787 -0.8852 -1.0059 -0.6224
 3018SOL    HW120513   4.416   4.591   3.724 -0.1464 -1.9476  0.3629
 3018SOL    HW220514   4.516   4.659   3.814 -1.4261  0.6203  1.4213
 3019SOL     OW20515   3.016   2.223   7.253  0.1818  0.5352  0.5311
 3019SOL    HW120516   3.045   2.134   7.232 -2.4707 -0.1171 -0.2498
 3019SOL    HW220517   3.102   2.266   7.246 -0.3290  1.4647 -0.0391
 3020SOL     OW20518   4.488   1.130   7.823  0.3132 -0.1430  0.1466
 3020SOL    HW120519   4.415   1.169   7.871 -0.9849 -2.7044  0.2986
 3020SOL    HW220520   4.538   1.198   7.779  0.5869 -0.0552  0.5967
 3021SOL     OW20521   3.286   0.676  17.559 -0.3191 -0.6659 -0.0413
 3021SOL    HW120522   3.267   0.727  17.481  3.1741  2.0062  0.8383
 3021SOL    HW220523   3.230   0.728  17.617  1.0116 -1.7178  2.1999
 3022SOL     OW20524   4.519   1.972   8.038  0.6135 -0.4434 -0.4608
 3022SOL    HW120525   4.480   2.046   7.992 -0.7462 -0.4643  0.6596
 3022SOL    HW220526   4.611   1.975   8.010  0.0975 -0.8558 -2.2204
 3023SOL     OW20527   2.518   1.436   7.595 -0.8070  0.0960 -0.2995
 3023SOL    HW120528   2.495   1.525   7.567  0.9878  0.4705 -0.6166
 3023SOL    HW220529   2.538   1.465   7.684  1.2962  0.3977 -0.8589
 3024SOL     OW20530   3.027   1.409   7.326 -0.1611  0.1636  0.1121
 3024SOL    HW120531   3.103   1.465   7.344  0.3835 -1.1123  1.6575
 3024SOL    HW220532   3.065   1.322   7.333 -0.7917 -0.2279 -1.3802
 3025SOL     OW20533   0.201   1.577  12.164 -0.0200 -0.5804  0.7031
 3025SOL    HW120534   0.285   1.531  12.164 -1.2747 -2.9346 -3.0363
 3025SOL    HW220535   0.219   1.633  12.239 -1.7792  2.2688 -1.0009
 3026SOL     OW20536   4.537   0.088   4.914  0.3169 -0.4628  0.3011
 3026SOL    HW120537   4.536   0.117   5.006  1.0538 -2.8491  1.0610
 3026SOL    HW220538   4.624   0.114   4.885 -0.1510  1.6817  0.8105
 3027SOL     OW20539   1.974   2.924   4.582  0.7227  0.1497  0.1829
 3027SOL    HW120540   2.012   2.939   4.668  0.4458  3.3450 -0.2499
 3027SOL    HW220541   2.024   2.851   4.544  1.4347  0.7839 -0.1078
 3028SOL     OW20542   2.326   3.306   6.908  0.3638  0.0205  0.1798
 3028SOL    HW120543   2.311   3.234   6.970  3.3007 -0.0547  0.7899
 3028SOL    HW220544   2.253   3.289   6.848  0.5367  0.6080 -0.1905
 3029SOL     OW20545   0.132   2.819   2.322 -0.0449 -0.5403  0.0568
 3029SOL    HW120546   0.059   2.798   2.264  0.4971 -2.4793  0.0933
 3029SOL    HW220547   0.095   2.900   2.359 -0.9339 -0.8465 -0.1691
 3030SOL     OW20548   2.493   0.090   4.059  0.5866  0.5109  0.4762
 3030SOL    HW120549   2.527   0.047   3.981 -0.8806  0.4780 -0.1452
 3030SOL    HW220550   2.568   0.083   4.118  1.0396  0.9316 -0.0461
 3031SOL     OW20551   3.397   2.579  12.999  0.2527 -0.2617 -0.0132
 3031SOL    HW120552   3.461   2.552  13.064 -1.5253 -0.3854  1.6753
 3031SOL    HW220553   3.428   2.668  12.981  0.9936 -0.3623  0.7737
 3032SOL     OW20554   1.448   2.631   8.998 -0.1212 -0.2412  0.5103
 3032SOL    HW120555   1.389   2.575   9.048 -1.3951  0.2417 -0.4552
 3032SOL    HW220556   1.501   2.676   9.064 -2.0840  0.8776  1.3515
 3033SOL     OW20557   0.745   4.684   4.339 -0.0936  0.0687  0.3687
 3033SOL    HW120558   0.721   4.683   4.246  2.7469 -2.8237 -0.3315
 3033SOL    HW220559   0.666   4.708   4.386  0.6739  1.6830  0.8270
 3034SOL     OW20560   1.340   1.989   6.912  0.6152 -0.2068  0.0699
 3034SOL    HW120561   1.336   1.978   6.817  2.5092  0.0898 -0.0258
 3034SOL    HW220562   1.259   1.942   6.936 -0.4347  1.0521 -1.0105
 3035SOL     OW20563   1.902   1.564   3.113  0.0732  0.2591 -0.2486
 3035SOL    HW120564   1.922   1.596   3.025 -1.3400 -1.4227 -1.1869
 3035SOL    HW220565   1.809   1.586   3.119  0.2115  0.9302 -0.5817
 3036SOL     OW20566   1.083   0.929   0.586  0.2995 -0.0971 -0.2989
 3036SOL    HW120567   1.135   0.852   0.562  1.3374  1.9014 -4.4139
 3036SOL    HW220568   1.137   0.979   0.647  1.3804 -0.4487 -0.9761
 3037SOL     OW20569   0.617   3.345   2.263 -0.4394 -0.1938 -0.3683
 3037SOL    HW120570   0.628   3.428   2.216  0.5092 -0.5072 -0.6957
 3037SOL    HW220571   0.528   3.313   2.249 -0.1783 -1.5255  0.9909
 3038SOL     OW20572   1.613   2.636   3.712  0.3290  0.1933  0.6423
 3038SOL    HW120573   1.536   2.646   3.768 -2.3907 -2.8391 -2.5892
 3038SOL    HW220574   1.571   2.623   3.627 -1.0531  1.5278  1.1152
 3039SOL     OW20575   2.691   1.195   3.200  0.4720 -0.1824 -0.2744
 3039SOL    HW120576   2.747   1.161   3.131  1.2131  2.1947 -0.8485
 3039SOL    HW220577   2.710   1.137   3.273  1.1752 -2.2070 -2.0848
 3040SOL     OW20578   2.363   2.632  11.666 -0.0871  0.1247  0.6457
 3040SOL    HW120579   2.388   2.545  11.696  1.0290  0.5469  0.9400
 3040SOL    HW220580   2.430   2.684  11.710 -0.3070  0.4200  0.6312
 3041SOL     OW20581   4.331   0.645   1.404  0.2025  0.1592  0.2600
 3041SOL    HW120582   4.260   0.628   1.342  0.1539  0.2800  0.2825
 3041SOL    HW220583   4.304   0.634   1.495  2.1580 -1.3087  0.6764
 3042SOL     OW20584   0.464   1.452   2.429 -0.3159  0.2050 -0.3740
 3042SOL    HW120585   0.397   1.399   2.387  0.5383 -0.6334 -0.6758
 3042SOL    HW220586   0.438   1.542   2.409 -3.7370 -0.8407 -0.5467
 3043SOL     OW20587   4.070   2.960   3.800  0.0356  0.0993  0.4366
 3043SOL    HW120588   4.133   2.893   3.825 -0.1877 -0.9637 -1.8462
 3043SOL    HW220589   3.989   2.908   3.806  0.1487  0.0863  1.8370
 3044SOL     OW20590   3.961   3.327  13.959  0.2022  0.2732  0.0804
 3044SOL    HW120591   3.969   3.418  13.987  0.7522 -0.1506  1.3209
 3044SOL    HW220592   4.024   3.275  14.010  1.1184 -0.0595 -1.3781
 3045SOL     OW20593   1.911   4.584   3.007  0.1830  0.4873  0.4260
 3045SOL    HW120594   1.851   4.614   2.939 -0.6723  1.5815  1.6522
 3045SOL    HW220595   1.842   4.539   3.056  1.7565 -2.6096 -0.1917
 3046SOL     OW20596   1.898   0.229   3.680 -0.2744  0.9954  0.1101
 3046SOL    HW120597   1.959   0.283   3.730  0.4314  1.7816 -1.6131
 3046SOL    HW220598   1.833   0.221   3.750 -1.0744 -2.1208 -0.9796
 3047SOL     OW20599   2.913   1.786   3.178 -0.5842 -0.2204 -0.0052
 3047SOL    HW120600   2.907   1.862   3.236 -1.4478 -0.4949  0.2634
 3047SOL    HW220601   3.004   1.763   3.199 -0.7089 -0.0031  0.7819
 3048SOL     OW20602   2.073   1.162  10.725 -0.1023  0.3534  0.5530
 3048SOL    HW120603   2.142   1.224  10.749  2.1041 -2.1602  0.6033
 3048SOL    HW220604   2.034   1.221  10.660  2.2803 -0.1468 -1.3068
 3049SOL     OW20605   1.428   4.068   5.366 -0.4515 -0.0109  0.1288
 3049SOL    HW120606   1.509   4.117   5.379  0.2859 -1.4885  1.1174
 3049SOL    HW220607   1.368   4.133   5.329  0.6177  0.9951  0.1314
 3050SOL     OW20608   4.379   3.696  14.775 -0.3326 -0.2680  0.5505
 3050SOL    HW120609   4.355   3.604  14.788 -0.7226  0.1190  2.4977
 3050SOL    HW220610   4.296   3.740  14.760  1.1756  2.1955 -0.5445
 3051SOL     OW20611   1.522   3.847  14.343 -0.2539  0.9081 -0.1005
 3051SOL    HW120612   1.485   3.775  14.395 -0.0511  0.7673 -0.1521
 3051SOL    HW220613   1.463   3.914  14.378  1.4378  0.8295  2.8201
 3052SOL     OW20614   3.423   3.724  10.274 -0.7361  0.7657 -0.5198
 3052SOL    HW120615   3.340   3.759  10.305 -0.1525  1.2044  0.5597
 3052SOL    HW220616   3.455   3.798  10.222 -1.9917  0.8530 -1.1494
 3053SOL     OW20617   1.111   0.136   9.102  0.4038  0.0880  0.0181
 3053SOL    HW120618   1.170   0.147   9.177  0.6878 -0.2289 -0.1580
 3053SOL    HW220619   1.174   0.181   9.045 -0.0405  2.0955  1.0968
 3054SOL     OW20620   2.137   0.528   7.091  0.2814  0.4600  0.1139
 3054SOL    HW120621   2.176   0.444   7.113 -2.5504 -1.3423 -1.7706
 3054SOL    HW220622   2.076   0.510   7.019 -0.8401 -2.5986  1.8587
 3055SOL     OW20623   3.913   1.760   8.866  0.6520  0.1052  0.5087
 3055SOL    HW120624   3.876   1.721   8.945  0.7492 -1.9235 -0.4313
 3055SOL    HW220625   3.998   1.775   8.907  0.3477  1.0457  0.7981
 3056SOL     OW20626   3.389   1.820   2.686  0.0960  0.1910  0.0455
 3056SOL    HW120627   3.322   1.875   2.645  0.6522  0.9856  0.1927
 3056SOL    HW220628   3.380   1.844   2.778 -2.4120 -1.5786  0.2366
 3057SOL     OW20629   2.296   4.127  17.034  0.3928 -0.0403 -0.2649
 3057SOL    HW120630   2.238   4.134  16.959 -1.3841  2.5393  1.3378
 3057SOL    HW220631   2.290   4.032  17.045 -3.7237  0.2531  0.0619
 3058SOL     OW20632   4.409   0.858   5.309  0.0351 -0.3082  0.0947
 3058SOL    HW120633   4.395   0.897   5.396 -0.1499 -0.7534  0.2662
 3058SOL    HW220634   4.319   0.851   5.277 -0.1463  4.3082 -0.3940
 3059SOL     OW20635   3.782   2.829   5.845 -0.2093 -0.3531 -0.0290
 3059SOL    HW120636   3.781   2.842   5.939 -0.9047 -0.4981 -0.0110
 3059SOL    HW220637   3.818   2.912   5.814  0.1318 -1.0690 -1.5536
 3060SOL     OW20638   4.487   3.347   2.769  0.1943  0.5024 -0.2663
 3060SOL    HW120639   4.492   3.370   2.677 -0.5637 -0.4992 -0.5615
 3060SOL    HW220640   4.456   3.256   2.773 -0.8487  0.8705 -0.0833
 3061SOL     OW20641   2.001   3.942   4.336 -0.0626  0.7372  0.1560
 3061SOL    HW120642   1.943   3.866   4.334  0.6094  0.1672  1.5600
 3061SOL    HW220643   1.981   3.957   4.429 -0.3117 -0.8836  0.3663
 3062SOL     OW20644   3.701   0.060  11.684 -0.0243  0.1393  0.8012
 3062SOL    HW120645   3.671   0.036  11.596 -0.0580 -0.4987  0.9806
 3062SOL    HW220646   3.772   0.122  11.667  1.9308 -2.4020 -0.3787
 3063SOL     OW20647   2.331   0.547   8.439 -0.0833 -0.3246 -0.0788
 3063SOL    HW120648   2.321   0.461   8.479 -0.8145  0.4856  1.4903
 3063SOL    HW220649   2.364   0.599   8.513 -2.1431  1.0418 -0.1075
 3064SOL     OW20650   3.794   1.665  10.077  0.2964  0.2461  0.4752
 3064SOL    HW120651   3.700   1.656  10.058  0.8560  0.0022 -2.1731
 3064SOL    HW220652   3.805   1.758  10.056 -1.7195  0.4732  0.4381
 3065SOL     OW20653   0.898   0.574   2.501  0.3200 -0.7232 -0.7074
 3065SOL    HW120654   0.813   0.550   2.539 -0.6512 -1.1306 -3.1469
 3065SOL    HW220655   0.904   0.670   2.508 -4.1893 -0.5154  0.8333
 3066SOL     OW20656   1.768   2.117   8.203  0.3172 -0.0100 -0.0479
 3066SOL    HW120657   1.806   2.135   8.118 -2.5617  2.1142 -0.8962
 3066SOL    HW220658   1.786   2.023   8.203 -2.7087 -0.6108  0.7619
 3067SOL     OW20659   2.267   3.337   1.116  0.2748  0.8993  0.1584
 3067SOL    HW120660   2.218   3.408   1.073  0.6117  0.0929 -1.5355
 3067SOL    HW220661   2.196   3.277   1.141 -0.7364  1.7413 -0.6933
 3068SOL     OW20662   2.437   1.231   3.096  0.3015  0.3745  0.4379
 3068SOL    HW120663   2.483   1.305   3.056 -0.8272 -0.5338 -2.5362
 3068SOL    HW220664   2.510   1.182   3.133 -0.0035 -1.4576 -1.4022
 3069SOL     OW20665   1.446   3.288   0.542 -0.3363  0.0882 -0.3234
 3069SOL    HW120666   1.426   3.375   0.575  0.9720  0.3348 -0.1801
 3069SOL    HW220667   1.465   3.242   0.624 -1.8121 -1.6542 -0.9683
 3070SOL     OW20668   3.790   2.563   2.254 -0.1829  0.3958  0.0331
 3070SOL    HW120669   3.716   2.623   2.243 -0.2288  0.3384  0.0297
 3070SOL    HW220670   3.785   2.524   2.341 -0.3268  2.3655  0.9155
 3071SOL     OW20671   3.613   2.483   2.795 -0.6938 -0.3044  0.0751
 3071SOL    HW120672   3.604   2.578   2.792  2.0213 -0.0957 -1.9806
 3071SOL    HW220673   3.624   2.465   2.701  2.4282  1.4989  0.1020
 3072SOL     OW20674   0.104   2.028   6.920  0.4893 -0.2385  0.6099
 3072SOL    HW120675   0.147   2.114   6.926  1.5935 -0.6224 -1.7266
 3072SOL    HW220676   0.161   1.978   6.861  0.4833 -2.5301  2.5758
 3073SOL     OW20677   4.387   4.016  15.355 -0.8942 -0.0429  0.1275
 3073SOL    HW120678   4.475   4.026  15.318  0.8806  0.0723  4.2643
 3073SOL    HW220679   4.344   3.975  15.281 -0.3012 -0.0225 -0.2282
 3074SOL     OW20680   0.303   0.233  10.714  0.3738 -0.5651  0.0410
 3074SOL    HW120681   0.278   0.211  10.804  2.1736 -0.2713  0.6260
 3074SOL    HW220682   0.335   0.143  10.703 -0.4416 -0.9993  1.1824
 3075SOL     OW20683   2.474   2.304   2.681 -0.2499  0.3712 -0.0944
 3075SOL    HW120684   2.442   2.231   2.734  0.0675 -0.1536 -0.6249
 3075SOL    HW220685   2.398   2.329   2.628  0.4388  1.6500 -0.4802
 3076SOL     OW20686   3.619   2.712   7.218 -0.6552  0.2978  0.3971
 3076SOL    HW120687   3.539   2.745   7.177 -2.0043 -1.2468  1.7580
 3076SOL    HW220688   3.637   2.782   7.282  2.3619 -2.3254  2.3611
 3077SOL     OW20689   1.289   1.619   9.333  0.2990 -0.1389  0.2123
 3077SOL    HW120690   1.268   1.644   9.423  0.5193 -2.1845  0.8437
 3077SOL    HW220691   1.209   1.641   9.286  0.9213 -1.1099 -1.2908
 3078SOL     OW20692   4.629   0.090   9.448  0.1603  0.4869  0.3471
 3078SOL    HW120693   4.640   0.181   9.420  0.9214 -0.1349 -1.4077
 3078SOL    HW220694   4.721   0.064   9.451  0.0975  0.4360  1.5784
 3079SOL     OW20695   3.346   2.275   8.248  0.4089 -0.0623  0.3012
 3079SOL    HW120696   3.407   2.334   8.291 -0.3448  1.3062 -0.5157
 3079SOL    HW220697   3.402   2.197   8.255  0.1061 -0.3191 -0.1217
 3080SOL     OW20698   1.334   3.824  10.877 -0.0163 -0.4472 -0.4422
 3080SOL    HW120699   1.328   3.902  10.932 -0.5648 -1.6660  1.2213
 3080SOL    HW220700   1.259   3.826  10.818 -0.8872 -1.2301  0.6303
 3081SOL     OW20701   2.058   1.567   7.037  0.8128  0.3452 -0.8809
 3081SOL    HW120702   2.016   1.652   7.052  0.5646  0.1265 -0.3366
 3081SOL    HW220703   2.138   1.599   7.078 -2.2781  1.6599  4.2128
 3082SOL     OW20704   3.199   3.800  16.213 -0.4292 -0.2031 -0.0584
 3082SOL    HW120705   3.152   3.871  16.168 -2.2706 -1.0310  0.5787
 3082SOL    HW220706   3.147   3.728  16.179  1.2473 -1.3260 -0.1999
 3083SOL     OW20707   0.476   2.089  10.004  0.2220  0.6370 -0.5114
 3083SOL    HW120708   0.532   2.069   9.929  0.2565  0.7945 -0.5268
 3083SOL    HW220709   0.541   2.139  10.054  1.8487 -2.2581  0.2786
 3084SOL     OW20710   1.826   2.378   9.050 -0.5913  0.1725  0.0111
 3084SOL    HW120711   1.802   2.287   9.034  2.4683 -0.6097 -0.2062
 3084SOL    HW220712   1.769   2.397   9.125  1.0573  1.5599  0.9430
 3085SOL     OW20713   3.586   3.555  14.157  0.2789  0.0233 -0.0433
 3085SOL    HW120714   3.590   3.648  14.132 -0.6889  0.4210  1.2864
 3085SOL    HW220715   3.634   3.513  14.085 -0.4291  3.0187 -2.2580
 3086SOL     OW20716   1.380   2.939   3.998 -0.5273 -0.4109  0.1353
 3086SOL    HW120717   1.316   2.892   4.052 -1.1243 -2.9310 -2.8276
 3086SOL    HW220718   1.457   2.884   4.010  0.4282  1.1452  1.2922
 3087SOL     OW20719   1.230   4.596   9.467  0.3506  0.2270 -0.1025
 3087SOL    HW120720   1.238   4.504   9.491 -1.3927 -0.7377 -3.3142
 3087SOL    HW220721   1.230   4.646   9.549  0.6133  0.4286 -0.2259
 3088SOL     OW20722   1.792   3.821   5.829  0.2821 -0.1234 -0.2808
 3088SOL    HW120723   1.884   3.838   5.809  0.1199  0.3548 -0.6310
 3088SOL    HW220724   1.796   3.812   5.925 -0.1498  1.6922 -0.0846
 3089SOL     OW20725   2.717   2.595   8.110  0.6075 -0.8600 -0.0682
 3089SOL    HW120726   2.759   2.600   8.024 -0.6850 -1.6325 -0.7463
 3089SOL    HW220727   2.750   2.671   8.157  2.5356 -2.4037  1.0955
 3090SOL     OW20728   0.933   3.916   3.678  0.1987  0.3222  0.3079
 3090SOL    HW120729   1.024   3.919   3.709 -0.7004 -3.1990  3.3454
 3090SOL    HW220730   0.919   3.985   3.614 -0.2459  0.0049  0.0679
 3091SOL     OW20731   2.002   0.042   6.627 -0.2751  0.2892  0.2530
 3091SOL    HW120732   1.962   4.686   6.660  1.4633 -0.3109  0.9384
 3091SOL    HW220733   2.069   0.057   6.693 -2.2031 -0.4250  2.3618
 3092SOL     OW20734   3.223   0.559   6.501  0.2910 -0.1438 -0.3873
 3092SOL    HW120735   3.272   0.632   6.464 -0.4981  0.7384  0.3096
 3092SOL    HW220736   3.193   0.515   6.421 -1.1625  0.3837 -0.1409
 3093SOL     OW20737   3.647   2.425  10.626 -0.2033  0.0348 -0.1475
 3093SOL    HW120738   3.685   2.423  10.538  0.6310 -0.2737  0.2179
 3093SOL    HW220739   3.718   2.410  10.689 -1.8441 -2.8694  1.0090
 3094SOL     OW20740   3.514   4.358   9.503 -0.4671  0.2935  0.2156
 3094SOL    HW120741   3.461   4.342   9.426 -2.0167  0.4733  1.2362
 3094SOL    HW220742   3.545   4.449   9.497  1.9566 -0.4783  1.1073
 3095SOL     OW20743   2.947   1.926   9.051  0.5551 -0.0530  0.6193
 3095SOL    HW120744   2.966   2.002   8.997  3.1299 -0.4719  0.9504
 3095SOL    HW220745   2.871   1.888   9.006  0.7759  0.6647 -0.3660
 3096SOL     OW20746   1.906   1.202   6.956  0.4506  0.0378  0.3721
 3096SOL    HW120747   1.968   1.235   7.021  0.9333  1.3053 -0.7168
 3096SOL    HW220748   1.938   1.222   6.867  0.1315 -1.0122  0.0267
 3097SOL     OW20749   2.325   1.569  14.274  0.2507  0.1028 -0.5668
 3097SOL    HW120750   2.372   1.552  14.356  0.1951 -2.0928 -1.0108
 3097SOL    HW220751   2.375   1.636  14.227  1.0245  0.3374  0.5954
 3098SOL     OW20752   2.669   0.003   4.240 -0.6392  0.2195  0.5809
 3098SOL    HW120753   2.731   4.699   4.307  0.9845  0.2889 -0.8671
 3098SOL    HW220754   2.639   4.640   4.212  0.9056 -0.3709  0.7098
 3099SOL     OW20755   1.507   2.277   9.444  0.2138  0.3697 -0.0101
 3099SOL    HW120756   1.490   2.259   9.536  2.9238  0.9295  0.6131
 3099SOL    HW220757   1.582   2.220   9.426  0.0012 -0.5023  1.8547
 3100SOL     OW20758   4.077   2.768   1.159 -0.7036  0.8078 -0.4954
 3100SOL    HW120759   4.019   2.827   1.208 -2.1555 -3.0165  2.4196
 3100SOL    HW220760   4.064   2.680   1.194 -0.2316  1.0878  0.4000
 3101SOL     OW20761   2.129   0.074   6.068  0.3349 -0.2772 -0.1992
 3101SOL    HW120762   2.129   0.108   6.158 -1.0267  3.4471 -1.6001
 3101SOL    HW220763   2.129   4.705   6.089 -1.1510 -0.3184 -0.4428
 3102SOL     OW20764   1.018   0.350   7.507 -0.0832  0.5451  0.2997
 3102SOL    HW120765   0.954   0.419   7.524  3.0577  3.4482  0.3163
 3102SOL    HW220766   1.000   0.335   7.415 -1.1958  1.8231  0.3096
 3103SOL     OW20767   4.718   0.263   7.358  0.5129 -0.1922  0.2453
 3103SOL    HW120768   0.031   0.318   7.288 -1.7079  0.5547 -0.3544
 3103SOL    HW220769   0.055   0.288   7.427  0.1386 -1.8866  1.1834
 3104SOL     OW20770   4.416   1.702   9.143  0.4902 -0.1351  0.3322
 3104SOL    HW120771   4.348   1.768   9.158  0.0109 -0.4459 -0.4709
 3104SOL    HW220772   4.487   1.755   9.106  0.1492 -0.8472 -1.3398
 3105SOL     OW20773   3.845   0.570   6.221 -0.3185  0.3008 -0.4917
 3105SOL    HW120774   3.867   0.654   6.261 -0.8507 -0.0599  0.5780
 3105SOL    HW220775   3.899   0.565   6.143  0.5112 -1.3034  0.1741
 3106SOL     OW20776   4.280   0.915   4.140  0.3834 -0.0427 -0.4976
 3106SOL    HW120777   4.187   0.926   4.119  0.4992  3.3508  0.7396
 3106SOL    HW220778   4.289   0.995   4.193  0.6637 -0.6474  0.3694
 3107SOL     OW20779   1.153   1.737   1.826  0.4197 -0.5521  0.7519
 3107SOL    HW120780   1.205   1.678   1.880  0.5961 -2.1936 -1.2393
 3107SOL    HW220781   1.175   1.728   1.733 -0.7018  0.9038  0.3516
 3108SOL     OW20782   0.385   3.210   2.625  0.1765 -0.3804 -0.1069
 3108SOL    HW120783   0.412   3.136   2.571 -1.3727  0.2907 -1.8108
 3108SOL    HW220784   0.293   3.185   2.636 -0.6848  1.9569 -1.9765
 3109SOL     OW20785   2.645   3.399   0.484 -0.0459  0.1221 -0.1766
 3109SOL    HW120786   2.600   3.475   0.449 -0.0117 -0.2401 -1.0177
 3109SOL    HW220787   2.621   3.326   0.428  2.8201 -1.7306  0.9896
 3110SOL     OW20788   0.195   1.699   3.541  0.0813 -0.1425 -0.2706
 3110SOL    HW120789   0.181   1.612   3.504 -1.6161 -0.6570  1.6305
 3110SOL    HW220790   0.130   1.690   3.611  1.9254 -0.1911  1.4472
 3111SOL     OW20791   1.674   1.987  13.094  0.2597 -0.1539 -0.0730
 3111SOL    HW120792   1.644   1.900  13.119 -1.8876  0.7824  0.5703
 3111SOL    HW220793   1.593   2.029  13.067  0.3047  0.2806  0.4747
 3112SOL     OW20794   0.760   4.698  17.484  0.4882  0.1236 -0.0649
 3112SOL    HW120795   0.678   4.702  17.434  0.5124 -0.9532 -0.1879
 3112SOL    HW220796   0.739   4.645  17.561  1.1365 -0.6737 -0.4374
 3113SOL     OW20797   3.750   0.442   3.822  0.1603 -0.0886  0.1102
 3113SOL    HW120798   3.683   0.403   3.879  0.5266 -0.6589  0.1435
 3113SOL    HW220799   3.811   0.482   3.885  1.4972 -1.4373 -0.3403
 3114SOL     OW20800   1.883   4.500   1.417 -0.9212 -0.4065  1.0681
 3114SOL    HW120801   1.851   4.556   1.346  1.3649 -0.3370  0.1028
 3114SOL    HW220802   1.850   4.412   1.398  0.9189 -0.9455  0.3420
 3115SOL     OW20803   1.948   4.623   5.897  0.0828 -0.0487  0.7418
 3115SOL    HW120804   1.862   4.651   5.926  0.5490  1.6784  0.4890
 3115SOL    HW220805   1.983   4.572   5.970 -0.1753 -0.3345  0.6659
 3116SOL     OW20806   2.122   3.874   1.445  0.1685  0.4824 -0.2999
 3116SOL    HW120807   2.078   3.802   1.489  0.0379  0.4067 -0.5566
 3116SOL    HW220808   2.158   3.837   1.365  3.2340  2.1401  0.3209
 3117SOL     OW20809   3.329   0.176  15.713 -0.2466 -0.1643  0.0519
 3117SOL    HW120810   3.311   0.226  15.793  0.1389  1.6011 -0.9608
 3117SOL    HW220811   3.398   0.233  15.680 -0.3079 -1.8886 -3.0663
 3118SOL     OW20812   2.664   4.249   8.276  0.0085  0.3291  0.1645
 3118SOL    HW120813   2.666   4.305   8.198 -0.6594 -0.1598 -0.2076
 3118SOL    HW220814   2.692   4.309   8.345  0.1725  0.0179  0.3650
 3119SOL     OW20815   4.586   2.809   2.808  0.6923 -0.0303 -0.4791
 3119SOL    HW120816   4.594   2.878   2.874 -0.1693 -0.8791  0.5044
 3119SOL    HW220817   4.502   2.772   2.837  0.0459  1.5729 -0.3091
 3120SOL     OW20818   0.474   4.673   7.538 -0.1718 -0.8222  0.1659
 3120SOL    HW120819   0.512   4.698   7.623  0.9287 -1.2001 -0.2210
 3120SOL    HW220820   0.551   4.679   7.482 -0.5741  2.1024 -0.0661
 3121SOL     OW20821   4.005   0.139   4.172 -0.4972 -0.0783 -0.3539
 3121SOL    HW120822   4.096   0.163   4.192 -0.4448 -0.6576  0.1059
 3121SOL    HW220823   3.991   0.062   4.227 -1.9388 -0.0808 -0.7471
 3122SOL     OW20824   1.433   1.956   9.548 -0.2366 -0.0975 -0.3341
 3122SOL    HW120825   1.464   1.869   9.570  1.9296  0.1391 -2.5165
 3122SOL    HW220826   1.387   1.946   9.465 -1.2815 -0.4282  0.2812
 3123SOL     OW20827   4.053   3.046   4.962  0.4032  0.5038  0.1407
 3123SOL    HW120828   4.043   2.957   4.928  1.0185  0.9220 -1.1220
 3123SOL    HW220829   3.981   3.085   4.913  1.6323  2.0924 -0.3766
 3124SOL     OW20830   2.556   2.123  11.346 -0.1051  0.6714  0.2166
 3124SOL    HW120831   2.488   2.058  11.364 -1.4075  1.6479 -1.1088
 3124SOL    HW220832   2.523   2.202  11.389 -1.1448  1.3543 -1.8129
 3125SOL     OW20833   1.458   2.497   6.625  0.4529 -0.4984 -0.2901
 3125SOL    HW120834   1.370   2.487   6.588  0.0422 -2.2028  1.1308
 3125SOL    HW220835   1.514   2.516   6.550 -1.3968  2.0033 -1.0341
 3126SOL     OW20836   2.504   2.441   8.819 -0.4372  0.1492 -0.1998
 3126SOL    HW120837   2.518   2.500   8.892  0.1482 -0.5795  0.2720
 3126SOL    HW220838   2.587   2.431   8.773 -1.2446  0.2439 -1.6967
 3127SOL     OW20839   4.233   1.508   6.564  0.3676  0.3006 -0.1679
 3127SOL    HW120840   4.226   1.565   6.640 -1.1077 -0.6026  0.3823
 3127SOL    HW220841   4.211   1.420   6.595 -1.6939  0.0913 -2.1593
 3128SOL     OW20842   2.249   1.013   2.209 -0.4231 -0.6875  0.3236
 3128SOL    HW120843   2.250   1.107   2.190 -2.3118 -0.4848  1.2793
 3128SOL    HW220844   2.156   0.999   2.193 -0.4739  0.0845 -0.0564
 3129SOL     OW20845   2.422   3.489  17.090 -0.2331 -0.2302  0.0861
 3129SOL    HW120846   2.408   3.417  17.029 -1.2527  0.0389  0.0016
 3129SOL    HW220847   2.436   3.565  17.034 -1.8426  0.4151  0.5623
 3130SOL     OW20848   0.723   1.979   5.281 -0.7520 -0.4562  0.0782
 3130SOL    HW120849   0.647   2.030   5.251  0.8158  0.2048 -2.7608
 3130SOL    HW220850   0.766   1.964   5.197  0.9708  0.6841  0.7628
 3131SOL     OW20851   3.752   3.187   6.896 -0.2469  0.5808 -0.5028
 3131SOL    HW120852   3.757   3.227   6.983 -3.0394  1.4485 -0.7579
 3131SOL    HW220853   3.811   3.246   6.848  1.4386 -1.0003 -0.3795
 3132SOL     OW20854   1.843   0.938   1.694 -0.0318 -0.2546  0.1336
 3132SOL    HW120855   1.750   0.958   1.710 -0.1953 -0.8486 -0.0895
 3132SOL    HW220856   1.842   0.843   1.698 -1.4671 -0.1923  1.4639
 3133SOL     OW20857   2.900   1.373   2.792  0.5140  0.4257 -0.1183
 3133SOL    HW120858   2.896   1.326   2.709 -0.2183  0.8134 -0.3018
 3133SOL    HW220859   2.964   1.440   2.769 -0.3926  1.0683 -0.7962
 3134SOL     OW20860   3.933   3.944   8.329 -0.1311 -0.0983  0.2949
 3134SOL    HW120861   3.887   4.027   8.345 -0.7363 -0.2623 -0.5866
 3134SOL    HW220862   3.903   3.926   8.240 -2.0289  0.7030  0.7615
 3135SOL     OW20863   0.659   4.172  10.457 -0.7745 -0.3673 -0.1859
 3135SOL    HW120864   0.609   4.208  10.531  0.0272 -1.3246  0.8187
 3135SOL    HW220865   0.609   4.195  10.379 -0.6066 -0.1620 -0.2326
 3136SOL     OW20866   4.523   4.454   9.470  0.7834 -0.2810 -0.0152
 3136SOL    HW120867   4.461   4.513   9.428  2.3846  2.0865  0.9831
 3136SOL    HW220868   4.469   4.413   9.537  0.2961 -0.8991 -0.7863
 3137SOL     OW20869   2.045   1.268   8.587 -0.4506  0.1704  0.0459
 3137SOL    HW120870   2.115   1.203   8.593  0.6122  1.3570  0.5448
 3137SOL    HW220871   2.107   1.337   8.563  0.8553 -1.2370 -0.6490
 3138SOL     OW20872   2.254   2.092  13.384  0.5193  0.2697  0.2958
 3138SOL    HW120873   2.349   2.088  13.382  0.4530 -0.1034 -1.9844
 3138SOL    HW220874   2.242   2.157  13.453  1.7944  1.4525 -0.6048
 3139SOL     OW20875   1.931   0.663  17.020  0.1688 -0.7855  0.0557
 3139SOL    HW120876   1.913   0.740  17.074 -0.0036 -1.2997  0.7259
 3139SOL    HW220877   2.011   0.627  17.057  0.4233 -0.2267  0.0447
 3140SOL     OW20878   4.483   3.793   5.238 -0.4189 -0.9872 -0.4563
 3140SOL    HW120879   4.388   3.801   5.238 -0.0810  3.4002 -0.4721
 3140SOL    HW220880   4.505   3.816   5.328 -3.6344 -0.6269  0.2184
 3141SOL     OW20881   4.626   1.199  13.988  0.5227  0.0960 -0.0858
 3141SOL    HW120882   4.547   1.212  13.935  0.5414  0.6341  0.0140
 3141SOL    HW220883   4.622   1.103  13.986  2.0638  0.0535 -0.8105
 3142SOL     OW20884   0.538   4.445   5.609  0.0341 -0.0569  0.2449
 3142SOL    HW120885   0.531   4.381   5.680  3.7338 -0.5244  0.2112
 3142SOL    HW220886   0.468   4.508   5.625  0.2375  0.2346 -0.0311
 3143SOL     OW20887   4.350   4.174   2.797  0.2923  0.2332  0.0408
 3143SOL    HW120888   4.361   4.244   2.861  0.9778  0.0205  0.1516
 3143SOL    HW220889   4.388   4.212   2.718 -0.9940  0.3952 -0.4961
 3144SOL     OW20890   4.563   1.179   8.443 -0.3750 -0.2126  0.2206
 3144SOL    HW120891   4.518   1.222   8.515 -1.1482 -1.1895  0.3156
 3144SOL    HW220892   4.510   1.201   8.367  0.2473  0.7217  0.0538
 3145SOL     OW20893   3.585   0.080   4.299  0.1999  0.4586  0.1714
 3145SOL    HW120894   3.650   0.133   4.253 -0.9328  0.7265 -1.1111
 3145SOL    HW220895   3.541   0.149   4.349 -2.4202 -1.1711  0.1650
 3146SOL     OW20896   0.723   2.364  12.393 -0.5102  0.0702  0.2404
 3146SOL    HW120897   0.710   2.448  12.349  3.5975  1.1969  1.1996
 3146SOL    HW220898   0.759   2.404  12.472 -0.2374  1.0085 -0.3614
 3147SOL     OW20899   2.314   1.909   5.106 -0.4151 -0.1111  0.0699
 3147SOL    HW120900   2.313   1.981   5.169 -0.0922 -0.4124  0.4128
 3147SOL    HW220901   2.397   1.868   5.130 -2.5005 -3.0827  2.1155
 3148SOL     OW20902   1.951   0.584   9.410 -0.3928 -0.0498  0.3027
 3148SOL    HW120903   1.984   0.527   9.479 -2.5469 -0.8602  0.6790
 3148SOL    HW220904   1.961   0.671   9.447 -0.3852  0.3576 -0.6385
 3149SOL     OW20905   1.244   0.284   3.509  0.4985  0.8765 -0.1158
 3149SOL    HW120906   1.227   0.373   3.540 -1.4703  0.5168 -0.1947
 3149SOL    HW220907   1.300   0.299   3.432  1.3571 -0.1511  0.3112
 3150SOL     OW20908   2.758   1.943   8.328  0.4890  0.0822 -0.0763
 3150SOL    HW120909   2.704   2.017   8.300 -0.7150 -0.8192 -0.1198
 3150SOL    HW220910   2.846   1.970   8.299  0.1492 -1.0788 -2.1846
 3151SOL     OW20911   3.089   4.125  10.592  0.0856  0.2944  0.5816
 3151SOL    HW120912   3.142   4.050  10.619 -3.1591 -1.9810  0.6484
 3151SOL    HW220913   3.092   4.180  10.670  1.0258  1.4246 -0.2558
 3152SOL     OW20914   3.890   0.117   0.702 -0.0525 -0.7864  0.2731
 3152SOL    HW120915   3.974   0.075   0.723  1.0782  1.0090 -0.6391
 3152SOL    HW220916   3.873   0.146   0.792  0.3496  0.5069 -0.0731
 3153SOL     OW20917   0.425   3.517   6.837  0.3176 -0.1319  0.1225
 3153SOL    HW120918   0.400   3.425   6.826  0.6828 -0.0544 -1.4521
 3153SOL    HW220919   0.344   3.542   6.880  1.2830  1.1989  1.1756
 3154SOL     OW20920   4.052   2.129   6.802 -0.1978 -0.6914 -0.2676
 3154SOL    HW120921   4.020   2.156   6.716  0.3586 -0.6792 -0.4675
 3154SOL    HW220922   3.998   2.050   6.808 -1.0864  0.1884  3.1118
 3155SOL     OW20923   4.604   0.301   0.175  0.1183  0.6417  0.8554
 3155SOL    HW120924   4.637   0.380   0.133 -0.8989 -0.0106 -1.1904
 3155SOL    HW220925   4.649   0.312   0.259 -0.8343  1.1351  1.3020
 3156SOL     OW20926   4.706   1.703  12.585  0.1566 -0.3247  0.4753
 3156SOL    HW120927   4.689   1.620  12.540  1.6601 -0.6913  0.6048
 3156SOL    HW220928   4.630   1.758  12.563 -0.7359 -2.0860 -0.8171
 3157SOL     OW20929   1.345   0.914   1.618  0.2081  0.2054 -0.6651
 3157SOL    HW120930   1.286   0.987   1.634 -0.9060 -1.0922  1.0940
 3157SOL    HW220931   1.318   0.883   1.531 -0.7749 -0.6335 -0.0605
 3158SOL     OW20932   1.587   2.767   4.027 -0.1406 -0.5385  0.3387
 3158SOL    HW120933   1.616   2.677   4.039 -1.3235 -1.2951 -2.6055
 3158SOL    HW220934   1.653   2.811   4.081 -2.8778 -0.0724  3.3126
 3159SOL     OW20935   2.906   3.393   2.661 -0.4815  0.3043 -0.5574
 3159SOL    HW120936   2.943   3.373   2.747 -2.6012 -0.8347  0.0954
 3159SOL    HW220937   2.829   3.443   2.687  0.0766  0.5550  0.5820
 3160SOL     OW20938   0.631   2.995   4.316 -0.0051 -0.6156 -0.0341
 3160SOL    HW120939   0.689   3.070   4.305 -0.1567 -0.3074  1.3097
 3160SOL    HW220940   0.634   2.965   4.225  0.0488  0.5293 -0.4153
 3161SOL     OW20941   2.565   2.067   3.031 -0.3085  0.4820 -0.2161
 3161SOL    HW120942   2.617   1.989   3.009 -0.6355 -0.4166  2.1942
 3161SOL    HW220943   2.516   2.065   2.949 -0.6034  0.2920 -0.0354
 3162SOL     OW20944   0.716   3.966  17.632 -0.6732 -0.3797 -0.8494
 3162SOL    HW120945   0.723   4.061  17.624  0.8779 -0.2328  2.4727
 3162SOL    HW220946   0.736   3.948  17.540  1.6935  1.2889 -0.6510
 3163SOL     OW20947   0.260   2.686   2.084  0.4059  0.2375 -0.1121
 3163SOL    HW120948   0.208   2.743   2.141 -0.5849 -0.5022 -0.2816
 3163SOL    HW220949   0.347   2.686   2.124  1.4735  1.0201 -2.4646
 3164SOL     OW20950   2.835   1.388   7.106 -0.4941 -0.4196 -0.0639
 3164SOL    HW120951   2.872   1.377   7.193  1.0596 -0.3726 -0.7149
 3164SOL    HW220952   2.891   1.461   7.079 -1.8726  0.8941  0.6326
 3165SOL     OW20953   2.061   4.398  17.258 -0.1862  0.4002 -0.1979
 3165SOL    HW120954   2.152   4.396  17.286  0.0747 -0.5082 -1.1167
 3165SOL    HW220955   2.065   4.447  17.176 -1.9651  0.5024 -0.2259
 3166SOL     OW20956   1.100   3.918   8.683  0.3350  0.2018  0.3140
 3166SOL    HW120957   1.028   3.918   8.746 -0.3352  0.2387 -0.4514
 3166SOL    HW220958   1.171   3.952   8.738 -1.1506  1.1162  1.6823
 3167SOL     OW20959   0.956   0.972  10.674 -0.2587  0.3271 -0.4776
 3167SOL    HW120960   1.004   1.000  10.752  2.3691 -1.3249 -1.5070
 3167SOL    HW220961   1.022   0.970  10.605 -1.3889 -0.2180 -1.5388
 3168SOL     OW20962   1.300   2.766   7.162  0.2087  0.0415  0.2986
 3168SOL    HW120963   1.311   2.854   7.196  3.1868 -0.5465  0.7933
 3168SOL    HW220964   1.248   2.720   7.228 -0.8879  1.2873  0.3026
 3169SOL     OW20965   2.480   3.185   1.345  0.1977 -0.4950 -1.2865
 3169SOL    HW120966   2.405   3.137   1.381 -0.0183  0.0134 -1.0656
 3169SOL    HW220967   2.479   3.154   1.255 -1.8292  1.5364 -1.9340
 3170SOL     OW20968   3.220   3.699   8.556  0.0391 -0.4010 -0.3865
 3170SOL    HW120969   3.308   3.705   8.519  0.5593 -2.4552  0.5208
 3170SOL    HW220970   3.205   3.604   8.560  1.4154 -0.5019  2.5602
 3171SOL     OW20971   4.634   2.569   1.138  0.2742 -0.4776 -0.3446
 3171SOL    HW120972   4.680   2.542   1.218 -0.5812  2.6836  1.1852
 3171SOL    HW220973   4.696   2.627   1.094  0.3891 -0.8210 -0.6368
 3172SOL     OW20974   2.290   1.887   6.818 -0.7195  0.0569 -0.1431
 3172SOL    HW120975   2.317   1.954   6.880 -0.7023  0.2255 -0.3334
 3172SOL    HW220976   2.329   1.811   6.860 -0.8118  0.4815  0.7016
 3173SOL     OW20977   0.644   2.218   8.145  0.3705 -0.1938 -0.6274
 3173SOL    HW120978   0.711   2.274   8.184 -0.9789 -0.1283  1.6046
 3173SOL    HW220979   0.679   2.203   8.057 -2.1117 -2.7225 -1.1602
 3174SOL     OW20980   2.494   2.887   6.309 -0.2384 -0.5364  0.1146
 3174SOL    HW120981   2.402   2.878   6.284 -0.1074 -0.0916 -0.5457
 3174SOL    HW220982   2.533   2.888   6.221 -0.2258 -0.9444  0.1155
 3175SOL     OW20983   0.759   4.189   4.055  0.0401  0.0224 -0.0949
 3175SOL    HW120984   0.731   4.278   4.035  2.8996  1.0305  0.4024
 3175SOL    HW220985   0.677   4.149   4.028 -1.3560  0.8914  2.8924
 3176SOL     OW20986   4.444   0.783   7.025 -0.1015  0.0240  1.0155
 3176SOL    HW120987   4.446   0.696   6.986 -0.0299 -0.2126  1.5536
 3176SOL    HW220988   4.534   0.812   7.010 -0.0451 -0.7375 -0.1169
 3177SOL     OW20989   1.960   0.070   9.542 -0.4422  0.2796  0.6332
 3177SOL    HW120990   2.044   0.026   9.558 -0.1528  0.2626 -0.9137
 3177SOL    HW220991   1.953   0.124   9.621 -0.2888  0.1108  0.7617
 3178SOL     OW20992   1.164   4.328  14.610 -0.6833 -0.2598 -0.2550
 3178SOL    HW120993   1.202   4.408  14.646 -0.2383 -0.6764  0.2059
 3178SOL    HW220994   1.146   4.364  14.523 -0.9033 -1.2932 -0.6425
 3179SOL     OW20995   4.629   0.173  16.711  0.4863  0.0499 -0.1353
 3179SOL    HW120996   4.699   0.231  16.740  0.7516 -1.3114  1.9212
 3179SOL    HW220997   4.575   0.219  16.645  1.7113  1.2004 -0.3296
 3180SOL     OW20998   1.309   2.736   2.449  0.3251 -0.0896  0.9665
 3180SOL    HW120999   1.381   2.757   2.390 -0.0031 -1.1438  0.2008
 3180SOL    HW221000   1.268   2.816   2.482  0.6753  0.3709  0.2909
 3181SOL     OW21001   1.228   1.544   7.336 -0.0780  0.6015  0.1302
 3181SOL    HW121002   1.158   1.492   7.375  2.0058 -1.0577  1.6712
 3181SOL    HW221003   1.292   1.542   7.407  1.2042  0.4969 -1.0337
 3182SOL     OW21004   0.794   3.391  17.455 -0.2196  0.3247 -0.3230
 3182SOL    HW121005   0.831   3.307  17.429 -0.9201 -1.1120  3.3185
 3182SOL    HW221006   0.760   3.385  17.544  2.7307 -0.1816  0.7490
 3183SOL     OW21007   2.270   4.715   7.700  0.1773  0.3570  0.5918
 3183SOL    HW121008   2.338   0.046   7.739 -0.2642  0.3335  1.3954
 3183SOL    HW221009   2.194   0.020   7.750 -1.1016  1.2366 -1.8591
 3184SOL     OW21010   3.336   4.628   8.363  0.3495  0.1436  0.3050
 3184SOL    HW121011   3.385   4.705   8.394 -0.2848  0.5661  0.2522
 3184SOL    HW221012   3.388   4.558   8.404 -0.6888 -0.9736 -0.2891
 3185SOL     OW21013   2.546   1.574  12.000 -0.6001  0.4577 -0.1196
 3185SOL    HW121014   2.556   1.483  11.974 -0.3802  1.0057 -1.9200
 3185SOL    HW221015   2.450   1.574  12.004 -0.5370 -1.2890  1.3485
 3186SOL     OW21016   2.490   3.442   7.314 -0.1449  0.2111 -0.5672
 3186SOL    HW121017   2.560   3.507   7.310 -1.3309  1.3956 -1.8107
 3186SOL    HW221018   2.489   3.410   7.224 -0.8608  0.3118 -0.5937
 3187SOL     OW21019   3.575   3.960   7.497 -0.0705  0.0807  0.3512
 3187SOL    HW121020   3.624   3.909   7.432 -0.2508  1.6897 -1.0511
 3187SOL    HW221021   3.592   4.048   7.465 -1.8692 -0.1213 -1.1988
 3188SOL     OW21022   2.578   0.873   1.796  0.1805  0.6124  0.4100
 3188SOL    HW121023   2.652   0.835   1.748  0.0848 -0.6567  1.2637
 3188SOL    HW221024   2.533   0.936   1.741  1.5743  1.4795  0.2468
 3189SOL     OW21025   2.732   1.184   9.251 -0.2988 -0.7534  0.0829
 3189SOL    HW121026   2.678   1.106   9.240 -0.1195 -0.8199 -0.3376
 3189SOL    HW221027   2.663   1.250   9.242  1.8901  1.8248  2.0400
 3190SOL     OW21028   0.275   2.733   7.004  0.2061 -0.8877  0.2257
 3190SOL    HW121029   0.230   2.669   7.059  0.9498 -0.7568  0.9891
 3190SOL    HW221030   0.198   2.769   6.962  0.8551  2.2920  1.6950
 3191SOL     OW21031   2.313   2.464  17.279 -0.3252  0.0576 -0.4278
 3191SOL    HW121032   2.271   2.404  17.217  0.2176  0.4876 -1.2008
 3191SOL    HW221033   2.262   2.545  17.271 -0.0254  0.2365 -0.4990
 3192SOL     OW21034   2.706   3.123   0.697 -0.1819 -0.5414 -0.1147
 3192SOL    HW121035   2.654   3.100   0.620 -0.3411  0.6052 -0.3507
 3192SOL    HW221036   2.688   3.052   0.758 -1.3590  0.3571  0.5829
 3193SOL     OW21037   3.203   2.681  14.698 -0.4460 -0.3088 -0.2248
 3193SOL    HW121038   3.147   2.721  14.765 -0.2033  3.1051 -2.0786
 3193SOL    HW221039   3.200   2.754  14.637  0.0381  0.1187  0.2722
 3194SOL     OW21040   1.195   2.580   7.326 -0.2115 -0.1441  0.5329
 3194SOL    HW121041   1.124   2.520   7.349  0.5733 -1.1275  0.3844
 3194SOL    HW221042   1.243   2.584   7.409  2.5576 -0.7984 -1.0350
 3195SOL     OW21043   3.590   3.714   3.532 -0.7901 -0.1403 -0.5333
 3195SOL    HW121044   3.581   3.632   3.581 -2.6783  0.2256 -0.2770
 3195SOL    HW221045   3.505   3.758   3.538 -0.3075  0.6591  0.3677
 3196SOL     OW21046   2.401   2.208   8.071  0.4613  0.0071 -0.6423
 3196SOL    HW121047   2.486   2.206   8.115 -0.4863  0.9338  1.2171
 3196SOL    HW221048   2.443   2.204   7.985  0.3139  1.0785 -0.7575
 3197SOL     OW21049   1.258   1.730   4.736  0.2027 -0.1148 -0.8012
 3197SOL    HW121050   1.309   1.763   4.810 -1.0597 -0.7544  0.3351
 3197SOL    HW221051   1.318   1.662   4.704  2.0293  1.2037 -0.1872
 3198SOL     OW21052   1.942   1.999  11.394 -0.3769  0.2731  0.0697
 3198SOL    HW121053   1.904   2.041  11.317  3.4773  3.1994 -0.2620
 3198SOL    HW221054   1.869   1.998  11.456 -0.3544 -0.2684  0.0916
 3199SOL     OW21055   1.604   1.084  11.370  0.3701  0.4767 -0.4350
 3199SOL    HW121056   1.512   1.097  11.348  0.3386 -2.0296 -1.7981
 3199SOL    HW221057   1.638   1.168  11.340 -0.2947  1.0869  0.5096
 3200SOL     OW21058   2.276   4.194   8.384 -0.2353 -0.1670 -0.4573
 3200SOL    HW121059   2.251   4.277   8.343  2.1141  0.1496 -1.2656
 3200SOL    HW221060   2.232   4.185   8.469 -0.5965 -0.8162 -0.7138
 3201SOL     OW21061   3.275   0.622   5.684  0.2344 -0.4080  0.1224
 3201SOL    HW121062   3.279   0.680   5.608 -1.2422 -0.6933 -0.1846
 3201SOL    HW221063   3.350   0.568   5.659  0.3179 -0.7364  1.0847
 3202SOL     OW21064   3.219   3.973   2.135  0.0615 -0.6560 -0.4332
 3202SOL    HW121065   3.125   3.993   2.139  0.1755  0.0278 -1.4418
 3202SOL    HW221066   3.236   3.999   2.045 -0.4918  1.0449 -0.0488
 3203SOL     OW21067   4.320   3.629  13.459  0.1947  0.3681  0.0534
 3203SOL    HW121068   4.351   3.717  13.477  1.8826  0.0163 -1.1114
 3203SOL    HW221069   4.225   3.626  13.467  0.1597  1.6848  0.0523
 3204SOL     OW21070   1.945   4.298   3.355 -0.0421  0.2953  0.6250
 3204SOL    HW121071   1.899   4.377   3.326  1.1142 -0.1250 -2.3273
 3204SOL    HW221072   1.950   4.311   3.450  1.3717  0.2926  0.5510
 3205SOL     OW21073   0.000   3.606   4.313 -0.7871 -0.9501  0.7177
 3205SOL    HW121074   0.053   3.559   4.249 -1.6457 -0.6729 -0.1887
 3205SOL    HW221075   0.015   3.557   4.394  1.5777 -0.1822  0.7613
 3206SOL     OW21076   3.295   3.841  13.928  0.5194  0.5211 -0.4886
 3206SOL    HW121077   3.226   3.781  13.900 -0.6549  1.8148 -0.4015
 3206SOL    HW221078   3.363   3.839  13.861 -0.7113 -0.5209 -1.7107
 3207SOL     OW21079   2.930   1.987   3.359  0.3969 -0.1595 -0.0704
 3207SOL    HW121080   2.872   2.055   3.325 -0.3990 -0.7885  0.0516
 3207SOL    HW221081   2.985   2.027   3.427 -0.6889  1.4660 -0.1434
 3208SOL     OW21082   2.268   0.216   2.805 -0.0698  0.5042 -0.2557
 3208SOL    HW121083   2.186   0.246   2.766 -1.7504  0.4942  3.2678
 3208SOL    HW221084   2.228   0.161   2.872 -0.0015  0.3423 -0.3473
 3209SOL     OW21085   4.105   2.404   4.847  0.1825  0.7006 -0.2645
 3209SOL    HW121086   4.066   2.348   4.780  0.8433  1.9715 -1.7308
 3209SOL    HW221087   4.195   2.392   4.817 -0.6743 -0.8749 -2.2221
 3210SOL     OW21088   1.611   4.197  13.191 -0.2512 -0.7412 -0.2489
 3210SOL    HW121089   1.602   4.280  13.239 -0.6468 -0.0860 -1.4658
 3210SOL    HW221090   1.627   4.132  13.260 -0.9318 -0.2978  0.3303
 3211SOL     OW21091   2.212   2.361   9.411  1.0590  0.0318  0.3937
 3211SOL    HW121092   2.289   2.326   9.457  1.2354 -0.7472 -0.5088
 3211SOL    HW221093   2.158   2.380   9.488 -2.6019 -2.7020 -1.5030
 3212SOL     OW21094   2.031   4.296  16.343  0.0856 -0.7213  0.5232
 3212SOL    HW121095   2.005   4.231  16.409 -1.8418 -0.0960  0.3692
 3212SOL    HW221096   2.027   4.369  16.405  1.3275 -0.5746  0.4317
 3213SOL     OW21097   4.220   2.418   9.502  0.1438  0.0090 -0.0055
 3213SOL    HW121098   4.148   2.453   9.450  0.9242  0.9181 -0.4691
 3213SOL    HW221099   4.209   2.324   9.516 -0.8116 -0.0313 -1.0754
 3214SOL     OW21100   3.161   3.219  13.159 -0.2332  0.3981  0.0309
 3214SOL    HW121101   3.200   3.306  13.157 -0.9921  0.7654  1.3877
 3214SOL    HW221102   3.078   3.245  13.198  0.8910  2.0385  1.3593
 3215SOL     OW21103   2.975   0.659   3.340 -0.1051 -0.3540  0.6683
 3215SOL    HW121104   2.881   0.651   3.354 -0.0828 -1.3526  0.2313
 3215SOL    HW221105   3.005   0.695   3.423 -0.2195 -0.4026  0.7309
 3216SOL     OW21106   3.095   2.605   0.139 -0.2198  0.9768 -0.3746
 3216SOL    HW121107   3.048   2.526   0.165  0.3072  0.4669 -0.9865
 3216SOL    HW221108   3.171   2.570   0.092  0.4320 -0.5306  1.8108
 3217SOL     OW21109   3.647   1.638  14.645 -0.1830 -0.2886  0.6521
 3217SOL    HW121110   3.727   1.678  14.680  1.4758 -0.3395 -3.1400
 3217SOL    HW221111   3.666   1.544  14.646 -1.1359 -0.5164 -1.3691
 3218SOL     OW21112   4.149   3.617   2.592 -0.2650 -0.0850  0.2468
 3218SOL    HW121113   4.229   3.655   2.556 -1.0938  1.4175  0.0060
 3218SOL    HW221114   4.143   3.668   2.672 -0.1487  0.0887  0.1457
 3219SOL     OW21115   2.801   3.324   1.531  0.1215 -0.3288 -0.2160
 3219SOL    HW121116   2.828   3.385   1.463  2.6268 -0.6976  0.4651
 3219SOL    HW221117   2.780   3.386   1.601 -1.0443 -0.9137 -0.0413
 3220SOL     OW21118   2.996   1.843   2.380 -0.3902  0.5821 -0.4117
 3220SOL    HW121119   2.984   1.937   2.364  0.8140  0.3882 -2.4527
 3220SOL    HW221120   3.089   1.833   2.358  0.1340 -0.9640  2.4899
 3221SOL     OW21121   4.382   0.353   3.303 -0.6147  0.1601  0.3876
 3221SOL    HW121122   4.324   0.340   3.378 -2.1912  2.2937 -0.4453
 3221SOL    HW221123   4.458   0.306   3.337  0.8610  1.9417 -0.4330
 3222SOL     OW21124   4.324   0.312   1.182 -0.2809  0.2489  0.0636
 3222SOL    HW121125   4.327   0.345   1.093 -0.6658 -1.2571 -0.5066
 3222SOL    HW221126   4.233   0.285   1.189  0.0831 -0.6319  1.3587
 3223SOL     OW21127   1.904   1.436   3.397  0.2048  0.3209 -0.4285
 3223SOL    HW121128   1.954   1.448   3.316 -2.4771 -0.0326 -2.1509
 3223SOL    HW221129   1.906   1.526   3.429  0.2836  0.1614  0.0137
 3224SOL     OW21130   1.278   0.244   6.973 -0.3951 -0.3782 -0.1712
 3224SOL    HW121131   1.325   0.197   6.904 -0.1213  0.4487 -0.5457
 3224SOL    HW221132   1.187   0.237   6.943 -0.0640 -0.4092 -1.1553
 3225SOL     OW21133   2.306   0.779  14.572  0.1254 -0.2447 -0.0627
 3225SOL    HW121134   2.370   0.709  14.559 -0.2547 -0.8837  1.4898
 3225SOL    HW221135   2.335   0.848  14.513 -0.0619  0.7690  1.0270
 3226SOL     OW21136   4.257   3.471   8.138  0.3175 -0.3785 -0.2265
 3226SOL    HW121137   4.276   3.508   8.224 -0.5081  0.2709 -0.3217
 3226SOL    HW221138   4.347   3.466   8.105  0.1064  2.7516 -1.2796
 3227SOL     OW21139   1.559   1.516   9.853  0.1936  0.1331 -0.3147
 3227SOL    HW121140   1.512   1.440   9.885  2.8115  0.4259  4.2701
 3227SOL    HW221141   1.620   1.472   9.793  0.5618 -0.0966  0.2316
 3228SOL     OW21142   3.404   0.798   8.961  0.2386  0.5225  0.1717
 3228SOL    HW121143   3.332   0.739   8.938  1.8787 -2.5800  3.0140
 3228SOL    HW221144   3.474   0.768   8.903  0.2304  0.5039  0.1713
 3229SOL     OW21145   4.264   0.093   2.581  0.3534 -0.2495 -0.2306
 3229SOL    HW121146   4.175   0.064   2.564  0.5376 -1.4360  0.8610
 3229SOL    HW221147   4.304   0.011   2.608  2.0099  1.0481  1.3256
 3230SOL     OW21148   3.598   3.406   7.195 -0.9989  0.2651  0.4078
 3230SOL    HW121149   3.532   3.428   7.261 -0.2717 -0.1055  1.2599
 3230SOL    HW221150   3.616   3.312   7.204 -0.9791  0.2618  0.3306
 3231SOL     OW21151   1.081   0.115   8.023  0.1743 -0.0808  0.2773
 3231SOL    HW121152   1.036   0.189   8.062  0.4293 -0.5825  1.5181
 3231SOL    HW221153   1.171   0.146   8.022 -0.6603  2.2937 -2.8587
 3232SOL     OW21154   0.378   0.862   7.521 -0.0452  0.4610 -0.3668
 3232SOL    HW121155   0.456   0.895   7.566  0.1411 -1.1712  0.4836
 3232SOL    HW221156   0.312   0.911   7.569 -0.5949 -0.6820  0.0295
 3233SOL     OW21157   2.588   0.101   4.886  0.8878 -0.7963  0.4550
 3233SOL    HW121158   2.608   0.085   4.979 -0.5549 -1.0705  0.7326
 3233SOL    HW221159   2.667   0.141   4.850  0.6551 -1.7693 -1.1067
 3234SOL     OW21160   2.369   2.433  14.588  0.1674 -0.1658  0.0431
 3234SOL    HW121161   2.458   2.438  14.554  1.0643 -0.2804  2.3831
 3234SOL    HW221162   2.355   2.340  14.568  0.6385 -0.5244  1.3945
 3235SOL     OW21163   4.246   0.014   8.791 -0.1589 -0.2260 -0.1517
 3235SOL    HW121164   4.179   0.040   8.855 -0.7024 -1.3682 -0.2510
 3235SOL    HW221165   4.267   0.102   8.760  0.3371  0.1450  1.2268
 3236SOL     OW21166   0.960   4.165   7.459 -1.0285  0.1597  0.2557
 3236SOL    HW121167   1.038   4.180   7.513 -0.2920 -1.3604 -0.3910
 3236SOL    HW221168   0.901   4.138   7.529  0.5866  0.1118  1.5997
 3237SOL     OW21169   0.839   1.747   9.818  0.0300 -0.3369  0.1927
 3237SOL    HW121170   0.761   1.766   9.869  0.6424  1.0140  0.6420
 3237SOL    HW221171   0.867   1.665   9.860 -2.2785  0.1277  2.5999
 3238SOL     OW21172   4.663   3.020   6.325  0.5184  0.0572 -0.7755
 3238SOL    HW121173   4.627   2.931   6.334 -0.0127  0.2255 -1.2121
 3238SOL    HW221174   4.712   3.005   6.244  1.1552  0.1991 -0.4116
 3239SOL     OW21175   4.086   2.384  11.537 -0.3310 -0.2345 -0.0442
 3239SOL    HW121176   4.089   2.323  11.462  3.8066  1.9595 -1.6561
 3239SOL    HW221177   4.179   2.384  11.561  0.0478  0.7553 -1.5127
 3240SOL     OW21178   2.083   1.752  10.041 -0.2711 -0.1482 -0.5899
 3240SOL    HW121179   2.094   1.678  10.101 -0.1276  0.0537 -0.3684
 3240SOL    HW221180   2.114   1.708   9.962  2.5867 -0.8941  0.9246
 3241SOL     OW21181   4.283   2.955   0.717 -0.2170  0.2678  0.0241
 3241SOL    HW121182   4.231   2.877   0.738  1.5861 -1.1335 -0.6800
 3241SOL    HW221183   4.228   3.023   0.755 -0.3299 -0.1646  0.6419
 3242SOL     OW21184   4.165   1.153  15.044  0.2155  0.4294 -0.5918
 3242SOL    HW121185   4.222   1.197  14.982 -0.7233  1.6809 -0.5578
 3242SOL    HW221186   4.172   1.063  15.012  0.2029  0.8867 -1.8872
 3243SOL     OW21187   1.852   3.266  17.581 -0.5671 -0.4295  0.0413
 3243SOL    HW121188   1.844   3.226  17.494  0.6844 -1.4676  0.3965
 3243SOL    HW221189   1.905   3.202  17.628 -1.5809 -2.2180 -1.2434
 3244SOL     OW21190   2.609   1.703  13.973 -0.5407 -0.2017 -0.1632
 3244SOL    HW121191   2.583   1.795  13.968 -2.8880 -0.7309  2.2780
 3244SOL    HW221192   2.520   1.668  13.980 -0.5213 -0.4627 -1.1330
 3245SOL     OW21193   4.022   3.902   7.875 -0.0598 -0.3440 -0.3401
 3245SOL    HW121194   4.002   3.810   7.892 -1.9181  0.2987  0.8852
 3245SOL    HW221195   4.117   3.904   7.857 -0.3928 -1.7429 -2.2892
 3246SOL     OW21196   2.416   2.818   3.380  0.4014  0.5037  0.2471
 3246SOL    HW121197   2.467   2.754   3.330  0.2200  1.8772 -1.6816
 3246SOL    HW221198   2.413   2.892   3.320 -1.0027  0.1072 -0.1762
 3247SOL     OW21199   1.755   4.106   1.990 -0.1136  0.4854  0.2861
 3247SOL    HW121200   1.743   4.163   1.914  1.8978  1.6396  0.8443
 3247SOL    HW221201   1.788   4.027   1.946 -0.8378 -0.4044  1.3452
 3248SOL     OW21202   1.566   3.025  17.635 -0.6437  0.2032 -0.0483
 3248SOL    HW121203   1.584   2.995  17.546 -1.4645  1.3038 -0.5867
 3248SOL    HW221204   1.488   2.977  17.662  0.1084 -1.4253 -0.7728
 3249SOL     OW21205   1.214   3.400   3.926 -0.1790  0.1973  0.1796
 3249SOL    HW121206   1.205   3.349   3.845  0.1970 -1.9533  1.5010
 3249SOL    HW221207   1.306   3.427   3.921 -0.3859  0.6578 -1.2111
 3250SOL     OW21208   4.551   1.399   0.325  1.4470  0.3654 -0.4307
 3250SOL    HW121209   4.572   1.350   0.404  0.4227 -2.2703 -1.8084
 3250SOL    HW221210   4.531   1.487   0.358 -2.5204 -0.4400 -0.7265
 3251SOL     OW21211   2.743   2.135  12.322 -0.1361 -0.1122 -0.1887
 3251SOL    HW121212   2.755   2.214  12.374  1.8234 -2.6413  3.1420
 3251SOL    HW221213   2.835   2.122  12.300  0.3488  1.8476  0.7550
 3252SOL     OW21214   2.979   0.907   9.559  0.2190  0.0952 -0.1817
 3252SOL    HW121215   3.062   0.947   9.584 -0.8120  1.3790  1.1270
 3252SOL    HW221216   2.981   0.824   9.606 -1.4924  0.7106  0.9959
 3253SOL     OW21217   1.033   3.896   4.336  0.7693 -0.6337 -0.0409
 3253SOL    HW121218   1.043   3.957   4.263 -2.8829  0.1135  0.0647
 3253SOL    HW221219   1.111   3.918   4.386  0.5156  0.2329 -0.0182
 3254SOL     OW21220   0.146   3.206  10.640  0.1946 -0.4045  0.6472
 3254SOL    HW121221   0.071   3.169  10.687  1.1380 -1.7623  1.0696
 3254SOL    HW221222   0.110   3.224  10.553  0.0806 -0.4602  0.6832
 3255SOL     OW21223   0.000   1.561   2.513  0.0872  0.1956  0.3494
 3255SOL    HW121224   0.019   1.519   2.429 -0.8887  3.2138 -1.4006
 3255SOL    HW221225   4.672   1.490   2.550 -0.4941  0.0591 -0.7063
 3256SOL     OW21226   3.070   2.648  11.444 -0.6642  0.2756 -0.0318
 3256SOL    HW121227   3.027   2.731  11.422  0.9254  0.7961 -1.1820
 3256SOL    HW221228   3.147   2.653  11.389 -1.1263 -1.7963 -0.8889
 3257SOL     OW21229   1.809   3.164   4.151  0.5589 -0.2948 -0.7541
 3257SOL    HW121230   1.788   3.161   4.245 -0.7962 -1.6099 -1.0975
 3257SOL    HW221231   1.719   3.157   4.118  0.3200 -0.2635 -0.1092
 3258SOL     OW21232   3.230   4.367  17.030 -0.2511 -0.0677  0.0547
 3258SOL    HW121233   3.272   4.400  17.110  0.9799  0.9033 -0.9836
 3258SOL    HW221234   3.303   4.350  16.970  0.8473  0.5142  1.2068
 3259SOL     OW21235   3.549   2.285   5.566  0.5998  0.1969 -0.3214
 3259SOL    HW121236   3.555   2.362   5.509 -0.2093 -0.4427 -1.2563
 3259SOL    HW221237   3.536   2.320   5.654  1.1569  2.2712 -1.0396
 3260SOL     OW21238   3.068   3.463   8.033  0.3268 -0.6325 -0.4792
 3260SOL    HW121239   3.030   3.507   7.956 -0.3465 -0.6106 -0.1369
 3260SOL    HW221240   2.995   3.405   8.057  0.6126  0.0093  1.8836
 3261SOL     OW21241   1.916   4.576   8.152 -0.7954  0.4770  0.1829
 3261SOL    HW121242   1.831   4.603   8.188  0.5820  3.4112  1.3086
 3261SOL    HW221243   1.898   4.482   8.152  2.2833 -0.1115 -0.6589
 3262SOL     OW21244   3.927   0.879   7.354  0.2549 -0.2601 -0.3380
 3262SOL    HW121245   3.965   0.835   7.277 -0.9465  0.3079 -1.2570
 3262SOL    HW221246   4.004   0.912   7.401 -0.2329 -0.4618  0.5922
 3263SOL     OW21247   1.512   3.915   6.806  0.4424  0.2892  0.0862
 3263SOL    HW121248   1.550   3.897   6.719  0.7079  1.8318 -0.1140
 3263SOL    HW221249   1.457   3.837   6.817 -1.4015  1.8939  2.2803
 3264SOL     OW21250   0.298   0.796   4.105  0.2557 -0.5427 -0.4380
 3264SOL    HW121251   0.255   0.822   4.024  0.8287  0.7033 -0.3539
 3264SOL    HW221252   0.232   0.765   4.166  1.8038 -2.0589  0.4805
 3265SOL     OW21253   1.191   3.042   0.202 -0.3341 -0.3709 -0.5513
 3265SOL    HW121254   1.167   2.958   0.163 -3.3040  0.4199 -0.4005
 3265SOL    HW221255   1.286   3.042   0.211 -0.5795  0.6606  1.9974
 3266SOL     OW21256   1.343   1.550   9.074  0.0812  0.1919 -0.3869
 3266SOL    HW121257   1.287   1.473   9.065  0.5009 -0.2737  1.0947
 3266SOL    HW221258   1.339   1.560   9.169 -2.6680  0.7246 -0.5854
 3267SOL     OW21259   2.753   2.203  13.505  0.2287 -0.6869 -0.0296
 3267SOL    HW121260   2.823   2.185  13.442  0.5087  1.9016 -0.4399
 3267SOL    HW221261   2.777   2.291  13.535 -0.6622  0.0520 -1.4772
 3268SOL     OW21262   0.473   3.464   0.691  0.3142  0.2234  0.0824
 3268SOL    HW121263   0.399   3.503   0.738 -0.1858  0.4747 -0.9316
 3268SOL    HW221264   0.458   3.499   0.604 -1.0438 -2.3186 -0.7064
 3269SOL     OW21265   1.233   1.006  15.761  0.4361  0.2367 -0.3328
 3269SOL    HW121266   1.275   1.043  15.683 -2.4842  0.5070 -1.7765
 3269SOL    HW221267   1.284   1.055  15.825  0.9152 -0.7365  0.0228
 3270SOL     OW21268   1.360   4.258  10.010 -0.3324 -0.0055  0.0851
 3270SOL    HW121269   1.351   4.302  10.095 -0.9126 -0.7503  0.4139
 3270SOL    HW221270   1.453   4.236  10.004 -0.0339  1.8959 -1.8698
 3271SOL     OW21271   3.124   2.813   0.386  0.3733 -0.5875  0.1011
 3271SOL    HW121272   3.108   2.732   0.339 -0.7570 -0.4914  0.3167
 3271SOL    HW221273   3.079   2.877   0.331 -0.2844 -1.4301 -0.3299
 3272SOL     OW21274   0.288   2.973  12.638  0.0340 -0.5220  0.4816
 3272SOL    HW121275   0.326   2.955  12.553 -1.4376 -0.6250 -0.1622
 3272SOL    HW221276   0.367   3.010  12.676 -0.2896  1.0980 -0.4430
 3273SOL     OW21277   3.671   3.125   7.182 -0.2123  0.3824 -0.5823
 3273SOL    HW121278   3.693   3.056   7.245  2.5007  0.9259 -0.9243
 3273SOL    HW221279   3.627   3.071   7.117 -1.2857  1.4438 -0.7346
 3274SOL     OW21280   4.032   0.005   3.119  0.1501 -0.0309 -0.6215
 3274SOL    HW121281   4.124   4.717   3.093  0.5977 -1.7014  1.7674
 3274SOL    HW221282   4.004   0.027   3.031  0.7985 -1.9635 -1.3172
 3275SOL     OW21283   4.548   1.238   5.832 -0.0447  0.5403 -0.2947
 3275SOL    HW121284   4.502   1.287   5.900  0.6333  1.7565 -0.7080
 3275SOL    HW221285   4.503   1.154   5.839  1.0315  0.2015  2.5908
 3276SOL     OW21286   2.756   0.275   4.005  0.2988 -0.0569  0.0977
 3276SOL    HW121287   2.784   0.208   3.942 -0.5741 -0.4076  0.0817
 3276SOL    HW221288   2.673   0.297   3.963  0.7375  2.5702  0.6336
 3277SOL     OW21289   3.799   1.484  17.351 -0.0679 -0.3596 -0.2144
 3277SOL    HW121290   3.770   1.575  17.350 -0.8704 -0.6367 -1.4770
 3277SOL    HW221291   3.846   1.489  17.268 -0.2313  1.0431 -0.2283
 3278SOL     OW21292   4.012   3.295  16.072  0.1609  0.2495  0.2215
 3278SOL    HW121293   4.064   3.268  16.148 -0.6665 -1.6844  0.1005
 3278SOL    HW221294   4.049   3.235  16.007  1.6888  2.0606 -0.5905
 3279SOL     OW21295   2.328   1.995  14.206 -0.3082 -0.4648  0.6037
 3279SOL    HW121296   2.358   1.949  14.284  2.6120 -0.4858 -0.5140
 3279SOL    HW221297   2.324   2.085  14.237 -0.0258 -0.9302  2.0144
 3280SOL     OW21298   2.184   1.436   2.488  0.3844  0.4395  0.2811
 3280SOL    HW121299   2.221   1.478   2.411  0.9711  1.0421  0.9000
 3280SOL    HW221300   2.265   1.411   2.530 -0.1453 -0.3394  0.8279
 3281SOL     OW21301   1.735   0.946   7.181 -0.2935  0.0568  0.1864
 3281SOL    HW121302   1.649   0.985   7.163 -0.8592  0.0868  2.9760
 3281SOL    HW221303   1.765   1.021   7.232  2.2090  0.5187 -1.9633
 3282SOL     OW21304   4.484   4.503   4.533  0.3335  0.4161  0.2976
 3282SOL    HW121305   4.392   4.510   4.505  0.1003 -1.8993  0.4228
 3282SOL    HW221306   4.501   4.423   4.483  0.0633  0.6786 -0.2158
 3283SOL     OW21307   1.358   1.280   3.102 -0.3688  0.2576  0.2986
 3283SOL    HW121308   1.431   1.307   3.159 -0.6622  1.4651  0.0985
 3283SOL    HW221309   1.296   1.351   3.116  0.1421  1.2453 -2.3867
 3284SOL     OW21310   2.220   1.262   7.408  0.4004  0.4849 -1.1273
 3284SOL    HW121311   2.204   1.199   7.479 -0.6808  0.2702 -1.5666
 3284SOL    HW221312   2.306   1.226   7.384  0.1560 -0.5958 -0.3929
 3285SOL     OW21313   0.883   1.744  16.365 -0.5022  0.4366  0.1984
 3285SOL    HW121314   0.959   1.768  16.312 -1.2327  1.8146 -0.1964
 3285SOL    HW221315   0.919   1.665  16.406 -0.2277  0.7465  0.5524
 3286SOL     OW21316   1.751   4.237   9.120 -0.3471 -0.2091 -0.0585
 3286SOL    HW121317   1.790   4.319   9.151 -0.2291 -0.2652 -0.0598
 3286SOL    HW221318   1.759   4.193   9.205  0.1266  0.3363  0.1858
 3287SOL     OW21319   0.699   1.567  15.703  0.2270  0.3850  0.2314
 3287SOL    HW121320   0.608   1.593  15.687  0.5305  1.4658  0.2523
 3287SOL    HW221321   0.743   1.555  15.619 -0.5583 -1.1985  0.0572
 3288SOL     OW21322   4.360   2.704   4.867  0.0812 -0.4429 -0.2361
 3288SOL    HW121323   4.323   2.746   4.789 -2.3270 -0.8515  0.6625
 3288SOL    HW221324   4.280   2.701   4.920  0.5292 -0.1852  0.4452
 3289SOL     OW21325   2.572   1.111   8.982 -0.1773 -0.0846  0.0692
 3289SOL    HW121326   2.561   1.206   8.976 -0.2377 -0.0352  1.0464
 3289SOL    HW221327   2.568   1.084   8.890 -1.0273 -0.2075  0.1476
 3290SOL     OW21328   2.504   0.239  17.668  0.1433  0.0732 -0.1336
 3290SOL    HW121329   2.515   0.284   0.054  3.3406 -0.2331 -0.3944
 3290SOL    HW221330   2.438   0.172  17.687  0.2292 -0.3671 -1.3753
 3291SOL     OW21331   2.752   3.991   7.040 -0.1831  0.0926 -0.3284
 3291SOL    HW121332   2.696   3.994   6.963 -3.1946  0.8070  1.8627
 3291SOL    HW221333   2.837   4.014   7.004  0.1118  0.2921  0.5015
 3292SOL     OW21334   2.874   3.586  11.551 -0.3865  0.2486  0.3363
 3292SOL    HW121335   2.790   3.566  11.511  1.3224 -2.2319 -1.9779
 3292SOL    HW221336   2.913   3.628  11.474 -0.3471  1.9960  1.2920
 3293SOL     OW21337   4.515   1.266   5.055  0.0638 -0.4925  0.1218
 3293SOL    HW121338   4.591   1.302   5.102  0.0538 -2.9690  2.0380
 3293SOL    HW221339   4.461   1.341   5.031 -0.1901 -1.0727 -1.0882
 3294SOL     OW21340   2.284   0.903   1.087 -0.2831 -0.1943 -0.1060
 3294SOL    HW121341   2.268   0.892   0.994  0.7496 -0.3434 -0.2694
 3294SOL    HW221342   2.298   0.817   1.127  0.7284  0.6345  1.3402
 3295SOL     OW21343   3.007   3.837   5.822  0.0881 -0.4549  0.4720
 3295SOL    HW121344   2.990   3.743   5.818  3.5529 -0.9425 -2.4581
 3295SOL    HW221345   3.028   3.852   5.730  0.1215 -1.2991  0.3442
 3296SOL     OW21346   1.192   1.135   1.632  0.4501  0.0234 -0.6828
 3296SOL    HW121347   1.250   1.196   1.678 -0.8202  0.4824  0.3179
 3296SOL    HW221348   1.218   1.170   1.547 -1.7828 -0.3379 -1.5090
 3297SOL     OW21349   0.889   1.505   5.680  0.2575  0.0295  0.2942
 3297SOL    HW121350   0.980   1.485   5.658  0.6985 -0.5150  2.6106
 3297SOL    HW221351   0.855   1.535   5.596 -0.5140 -0.4353  0.4360
 3298SOL     OW21352   1.229   3.280  13.379 -0.1761 -0.0980  0.3613
 3298SOL    HW121353   1.234   3.372  13.355  0.2705  0.0128  0.8985
 3298SOL    HW221354   1.279   3.227  13.316  0.5053  1.1406 -0.1262
 3299SOL     OW21355   4.340   1.555   7.030 -0.5828  0.2762 -0.8381
 3299SOL    HW121356   4.409   1.603   6.986 -1.2794  0.8615 -1.3001
 3299SOL    HW221357   4.323   1.607   7.109 -2.1584 -0.0226 -0.9811
 3300SOL     OW21358   2.892   3.675   4.092 -0.3401  0.0158 -0.2126
 3300SOL    HW121359   2.968   3.731   4.110 -1.3252  1.3729 -0.2594
 3300SOL    HW221360   2.909   3.644   4.003  1.1746 -3.2557  1.2348
 3301SOL     OW21361   1.111   0.603  16.154 -0.0568 -0.5169  0.1915
 3301SOL    HW121362   1.029   0.645  16.130 -0.3574 -0.1655  1.8071
 3301SOL    HW221363   1.138   0.566  16.070 -0.1145 -1.2488  0.5002
 3302SOL     OW21364   4.430   0.721   3.551 -0.2612 -0.3456 -0.0609
 3302SOL    HW121365   4.467   0.634   3.539  0.5314 -0.3502  2.5867
 3302SOL    HW221366   4.376   0.727   3.472 -2.9228 -0.4203  1.7649
 3303SOL     OW21367   1.586   2.325   3.795 -0.8106  0.0893 -1.2062
 3303SOL    HW121368   1.503   2.373   3.797 -0.9733 -0.2168 -0.6251
 3303SOL    HW221369   1.635   2.382   3.854  0.8563 -1.2446 -1.2992
 3304SOL     OW21370   0.387   4.428  14.660  0.2994  0.4179 -0.1624
 3304SOL    HW121371   0.439   4.399  14.585  0.2874  1.3707 -0.5401
 3304SOL    HW221372   0.328   4.490  14.617 -0.2176  0.8584  1.1787
 3305SOL     OW21373   0.576   2.795   1.174 -0.1217 -0.1823 -0.1290
 3305SOL    HW121374   0.502   2.853   1.192 -0.2709 -0.1936 -0.6791
 3305SOL    HW221375   0.595   2.755   1.258 -0.1145 -1.2609 -0.6448
 3306SOL     OW21376   4.289   2.761  12.249 -0.1968  0.1321  0.3887
 3306SOL    HW121377   4.363   2.816  12.224  0.5368 -1.4997 -1.0106
 3306SOL    HW221378   4.296   2.688  12.187  1.5720  0.7209 -0.1102
 3307SOL     OW21379   1.284   1.347   6.041 -0.1329 -0.0116  0.2712
 3307SOL    HW121380   1.363   1.350   5.987 -0.4947  1.0272 -0.1914
 3307SOL    HW221381   1.230   1.296   5.981  0.3867  1.5964 -1.5864
 3308SOL     OW21382   2.750   2.579   3.483 -0.5654 -0.5490 -0.2199
 3308SOL    HW121383   2.678   2.585   3.547  2.0104 -1.0984  2.7265
 3308SOL    HW221384   2.783   2.669   3.486  2.6265 -1.7893  1.3975
 3309SOL     OW21385   1.491   2.043   4.811  0.2694  0.2600 -0.2023
 3309SOL    HW121386   1.574   2.041   4.764 -0.6506  2.6422 -1.9379
 3309SOL    HW221387   1.498   1.950   4.835  0.5600  0.3460  0.0460
 3310SOL     OW21388   3.347   3.160   6.947  0.7427 -0.3770  0.6489
 3310SOL    HW121389   3.330   3.252   6.923  0.6522 -0.2843  1.0693
 3310SOL    HW221390   3.258   3.133   6.967  0.7702 -0.9835 -0.0470
 3311SOL     OW21391   4.026   2.368  16.129  0.4025 -0.0146 -0.2944
 3311SOL    HW121392   4.121   2.380  16.134  0.1212  0.9581  2.4842
 3311SOL    HW221393   4.004   2.461  16.131 -1.7826 -0.5038 -1.3040
 3312SOL     OW21394   0.949   4.711   6.695 -0.3273  0.1011 -0.3987
 3312SOL    HW121395   0.938   0.006   6.789  1.0403  0.4528 -0.3057
 3312SOL    HW221396   1.040   0.017   6.686  0.1203 -0.6819  1.4573
 3313SOL     OW21397   2.420   1.525  16.662 -0.0963 -0.1638 -0.7840
 3313SOL    HW121398   2.441   1.550  16.752  0.2992  1.6944 -1.3918
 3313SOL    HW221399   2.501   1.488  16.627  0.0997  1.2855 -1.8882
 3314SOL     OW21400   3.834   0.633  13.495  0.0051 -0.3012 -0.6535
 3314SOL    HW121401   3.903   0.690  13.460  3.0186 -3.5910 -0.1217
 3314SOL    HW221402   3.764   0.673  13.445  1.1192  1.4941 -0.7829
 3315SOL     OW21403   4.488   2.580   6.144 -0.2350 -0.0272 -0.0382
 3315SOL    HW121404   4.510   2.498   6.189  1.5743  1.5060  1.8887
 3315SOL    HW221405   4.511   2.646   6.209  1.5720  0.2466 -0.9526
 3316SOL     OW21406   3.565   2.626   7.889  0.3361 -0.4010 -0.6036
 3316SOL    HW121407   3.644   2.669   7.856  0.7953  0.4610  1.6596
 3316SOL    HW221408   3.604   2.539   7.895  0.1692 -0.4221  0.1263
 3317SOL     OW21409   1.440   4.551   3.543 -0.3420  0.1779  0.2520
 3317SOL    HW121410   1.408   4.579   3.457  0.3012  0.8277  0.2279
 3317SOL    HW221411   1.494   4.626   3.568 -0.4361 -0.7730  3.2568
 3318SOL     OW21412   3.906   2.498   2.857 -0.0561  0.4535 -0.4940
 3318SOL    HW121413   3.858   2.456   2.786  1.0471 -1.1625 -0.2724
 3318SOL    HW221414   3.981   2.526   2.805  0.5617  2.2753  1.3472
 3319SOL     OW21415   1.452   4.296  16.650  0.3026  0.2616 -0.6437
 3319SOL    HW121416   1.370   4.344  16.663 -1.6182 -3.3599  0.4601
 3319SOL    HW221417   1.415   4.225  16.598  2.0492 -0.8892 -0.3247
 3320SOL     OW21418   1.553   4.256  12.936  0.2517  0.0472  0.1557
 3320SOL    HW121419   1.627   4.309  12.905  0.7242  0.5032  2.0452
 3320SOL    HW221420   1.588   4.240  13.024 -0.8819  1.1342  0.8021
 3321SOL     OW21421   4.552   1.428   8.067 -0.0313 -0.3508 -0.5399
 3321SOL    HW121422   4.533   1.489   8.137 -2.8793 -2.7228  0.7543
 3321SOL    HW221423   4.624   1.478   8.027 -0.3135 -1.4189 -2.4192
 3322SOL     OW21424   0.207   0.289   1.988 -0.0912  0.0994  0.2829
 3322SOL    HW121425   0.264   0.212   1.997 -1.4697 -1.1660 -1.8221
 3322SOL    HW221426   0.152   0.273   1.912 -0.2321 -1.7860  0.7722
 3323SOL     OW21427   3.897   0.602  15.121 -0.1971  0.6588 -0.2974
 3323SOL    HW121428   3.835   0.544  15.077  0.3186 -0.8296  0.9579
 3323SOL    HW221429   3.956   0.618  15.047  1.6471  1.8592  1.4294
 3324SOL     OW21430   2.032   1.563   0.759  0.2082  0.0481 -0.0944
 3324SOL    HW121431   2.060   1.640   0.808 -2.7527 -0.3069  2.1052
 3324SOL    HW221432   2.102   1.504   0.789  0.9152  1.7545  1.6583
 3325SOL     OW21433   0.887   3.545   6.711  0.1056 -0.2931 -0.0347
 3325SOL    HW121434   0.850   3.528   6.624  0.5330 -0.9317 -0.0946
 3325SOL    HW221435   0.981   3.539   6.695  0.0563  0.3381 -0.5650
 3326SOL     OW21436   2.696   3.522   1.994 -0.0488  0.4276  1.0675
 3326SOL    HW121437   2.719   3.542   2.084 -0.5564 -0.0713  1.3056
 3326SOL    HW221438   2.676   3.607   1.955  0.5322 -0.0308 -0.2410
 3327SOL     OW21439   2.817   0.742   2.244  1.0437 -0.7208  0.0827
 3327SOL    HW121440   2.757   0.794   2.190 -1.3962 -0.9331  2.5898
 3327SOL    HW221441   2.768   0.660   2.243  1.3109 -0.8788  0.0255
 3328SOL     OW21442   2.534   3.385   1.061  0.5259 -0.0727  0.1836
 3328SOL    HW121443   2.518   3.463   1.007  0.6353 -0.4218 -0.3483
 3328SOL    HW221444   2.444   3.359   1.080  0.3434 -0.0984 -0.6854
 3329SOL     OW21445   2.675   2.149   2.565 -0.3495  0.1031  0.3044
 3329SOL    HW121446   2.666   2.069   2.617  0.1144  0.9964  1.7498
 3329SOL    HW221447   2.606   2.207   2.598  0.0749  1.0024 -0.3897
 3330SOL     OW21448   4.562   0.145  13.381  0.6110 -0.4693  0.4985
 3330SOL    HW121449   4.594   0.218  13.434 -2.3643 -0.6664  2.5918
 3330SOL    HW221450   4.619   0.073  13.406  3.0529  0.6809 -1.7480
 3331SOL     OW21451   2.507   3.647  15.343 -0.3044  0.7877 -0.0003
 3331SOL    HW121452   2.528   3.562  15.305 -0.6332  0.2668  0.9964
 3331SOL    HW221453   2.576   3.654  15.410 -1.8149  0.4310  1.5869
 3332SOL     OW21454   1.066   1.979  13.156  0.0378 -0.2752  0.9384
 3332SOL    HW121455   1.130   1.908  13.151 -0.5104 -0.5647 -1.5697
 3332SOL    HW221456   1.033   1.956  13.069 -1.4639 -1.5789  1.8512
 3333SOL     OW21457   0.942   1.093   2.535 -0.0676 -0.5561  0.4712
 3333SOL    HW121458   1.003   1.090   2.609  1.5395 -1.5851 -0.8944
 3333SOL    HW221459   0.958   1.182   2.505 -1.0658 -0.7901 -0.7603
 3334SOL     OW21460   2.128   3.158   1.228 -0.3920  0.1145  0.5986
 3334SOL    HW121461   2.190   3.094   1.263  1.4046  0.3624 -2.1499
 3334SOL    HW221462   2.062   3.172   1.297 -1.6605 -3.1425  0.0417
 3335SOL     OW21463   2.640   1.927   7.414 -0.1540  0.0137  0.6095
 3335SOL    HW121464   2.730   1.961   7.415 -0.8228  1.8902 -2.0836
 3335SOL    HW221465   2.585   1.988   7.462 -0.3044  0.7779 -0.5276
 3336SOL     OW21466   1.684   1.360  13.247  0.9659 -0.5594  0.6846
 3336SOL    HW121467   1.630   1.408  13.309  0.7021 -1.5717  1.2451
 3336SOL    HW221468   1.765   1.345  13.297  1.3845  0.0061  0.1859
 3337SOL     OW21469   3.957   2.376   0.305 -0.5793 -0.0067  0.3377
 3337SOL    HW121470   3.943   2.465   0.273 -0.0190 -0.2936 -0.7327
 3337SOL    HW221471   3.919   2.384   0.392 -1.5967 -0.3072 -0.0776
 3338SOL     OW21472   1.178   1.359  11.036 -0.5450  0.5458  0.0323
 3338SOL    HW121473   1.212   1.372  10.948 -0.1680 -1.6184 -0.1458
 3338SOL    HW221474   1.251   1.345  11.096 -2.0253 -0.7782  1.5395
 3339SOL     OW21475   3.400   3.551   2.999  0.2727 -0.6277  0.1384
 3339SOL    HW121476   3.347   3.612   3.050  1.5229 -0.3494  1.1017
 3339SOL    HW221477   3.426   3.608   2.926 -0.5725 -0.4051  0.0137
 3340SOL     OW21478   4.450   4.607   7.938  0.0842  0.1406  0.3484
 3340SOL    HW121479   4.383   4.549   7.902 -3.1887  2.8975  2.0434
 3340SOL    HW221480   4.516   4.548   7.976 -1.0883 -2.7341 -2.0295
 3341SOL     OW21481   3.629   0.009  11.431 -0.5001 -0.1984  0.3873
 3341SOL    HW121482   3.554   0.067  11.445 -1.0122 -0.8610  0.4121
 3341SOL    HW221483   3.653   0.034  11.342 -1.4830  1.5503  0.6223
 3342SOL     OW21484   2.027   3.525   1.026  0.6453  0.2086  0.4527
 3342SOL    HW121485   2.009   3.602   0.972  0.2808 -0.2857 -0.1276
 3342SOL    HW221486   1.972   3.464   0.977  0.0612  2.2692 -1.4788
 3343SOL     OW21487   2.116   0.030   6.382 -0.3611  0.4592  0.1840
 3343SOL    HW121488   2.174   4.686   6.416  1.4728  2.7198  1.5344
 3343SOL    HW221489   2.068   0.051   6.462  0.5874  1.4247  0.4915
 3344SOL     OW21490   3.779   2.986  15.482  0.2821  0.2335 -0.0945
 3344SOL    HW121491   3.840   2.984  15.408 -2.0079 -2.6679 -1.9233
 3344SOL    HW221492   3.695   2.983  15.436  0.9511 -1.4830 -1.1978
 3345SOL     OW21493   3.636   1.527   8.242 -0.5750 -0.4935 -0.2449
 3345SOL    HW121494   3.695   1.475   8.187 -0.4063  0.0218 -0.5513
 3345SOL    HW221495   3.687   1.513   8.323 -0.8066  0.9556  0.1391
 3346SOL     OW21496   2.411   3.755   3.864  0.0123 -0.2351 -0.8294
 3346SOL    HW121497   2.388   3.818   3.933 -1.8674  1.1257 -2.7109
 3346SOL    HW221498   2.486   3.702   3.891  0.3895  0.2979 -0.8204
 3347SOL     OW21499   2.857   2.826   0.583 -0.4807  0.2961  0.1593
 3347SOL    HW121500   2.853   2.863   0.671 -0.0524 -0.4769  0.4960
 3347SOL    HW221501   2.823   2.737   0.592  0.0478  0.2015  1.2092
 3348SOL     OW21502   0.676   2.495   5.402  0.4002 -0.0274 -0.0119
 3348SOL    HW121503   0.710   2.437   5.469 -1.2379  2.1505  2.7131
 3348SOL    HW221504   0.632   2.552   5.464  0.7147  1.9813 -1.6207
 3349SOL     OW21505   2.954   0.069   7.474 -0.0481 -0.7249  0.1852
 3349SOL    HW121506   2.907   0.108   7.401  1.3351  0.8465  0.1415
 3349SOL    HW221507   2.911   4.707   7.474 -0.7974 -0.3534  0.5455
 3350SOL     OW21508   3.251   1.493   5.011  0.2553 -0.0022  0.0098
 3350SOL    HW121509   3.179   1.441   5.045 -2.2430  2.0749 -2.0905
 3350SOL    HW221510   3.207   1.576   4.989  0.6375 -0.2333 -1.5942
 3351SOL     OW21511   1.859   3.119   3.331 -0.0926 -0.0711  0.6360
 3351SOL    HW121512   1.894   3.207   3.341 -0.9951  0.3077  0.4126
 3351SOL    HW221513   1.777   3.131   3.378  0.6424  1.5551  1.4962
 3352SOL     OW21514   3.448   4.330  12.350 -0.3410 -0.1560  0.1198
 3352SOL    HW121515   3.533   4.299  12.382 -0.2945  0.9354  1.0740
 3352SOL    HW221516   3.464   4.423  12.334  0.0422 -0.2101  0.1834
 3353SOL     OW21517   3.654   4.720   8.266  0.4614 -0.0844 -0.4470
 3353SOL    HW121518   3.579   0.019   8.320  0.7760 -1.1586  0.4494
 3353SOL    HW221519   3.721   4.715   8.335 -0.3300  0.1800  0.3389
 3354SOL     OW21520   2.925   3.767   7.281 -0.3778 -0.6953 -0.3140
 3354SOL    HW121521   2.956   3.852   7.313 -1.3626 -0.3488 -0.2621
 3354SOL    HW221522   3.002   3.712   7.289  1.0836  1.5787  1.2163
 3355SOL     OW21523   3.126   0.205  17.423  0.3115  0.0712 -0.3485
 3355SOL    HW121524   3.116   0.225  17.516 -0.8776  2.4312 -0.9742
 3355SOL    HW221525   3.037   0.217  17.389  0.2099  1.0215  0.2416
 3356SOL     OW21526   3.180   1.650   4.703  1.0991  0.0120  0.5159
 3356SOL    HW121527   3.134   1.595   4.641  0.7250  0.3878  0.4667
 3356SOL    HW221528   3.254   1.596   4.732  1.3087 -0.6684 -1.2800
 3357SOL     OW21529   3.520   3.910  13.737  0.0638  0.2681 -0.6558
 3357SOL    HW121530   3.460   3.984  13.748 -0.6242 -0.6326  1.6512
 3357SOL    HW221531   3.500   3.890  13.645 -2.4606 -1.1610  0.2098
 3358SOL     OW21532   3.866   1.232  10.127  0.3820 -0.1655 -0.0082
 3358SOL    HW121533   3.779   1.198  10.144 -0.6490  2.0701 -0.8404
 3358SOL    HW221534   3.921   1.158  10.150 -2.6042 -2.0629  0.9430
 3359SOL     OW21535   2.942   2.605   4.161 -0.2433 -0.4621 -0.2506
 3359SOL    HW121536   2.922   2.663   4.234 -0.0048  0.5820 -1.0068
 3359SOL    HW221537   3.031   2.579   4.186  0.0610  0.1256 -0.7036
 3360SOL     OW21538   2.375   0.127  11.629  0.6004 -0.2199  0.0670
 3360SOL    HW121539   2.356   0.090  11.715 -0.4036  0.8519  0.2937
 3360SOL    HW221540   2.292   0.131  11.582 -1.0504 -2.0715  2.7967
 3361SOL     OW21541   2.225   2.232   4.731 -0.0394 -0.2387 -0.3278
 3361SOL    HW121542   2.227   2.327   4.722 -0.1595 -0.1797  0.2054
 3361SOL    HW221543   2.186   2.221   4.818 -2.1584  0.8549 -1.1422
 3362SOL     OW21544   1.380   1.010   1.971 -1.1002  0.0534 -0.1803
 3362SOL    HW121545   1.324   0.945   2.013  0.0239  0.4823  1.9797
 3362SOL    HW221546   1.469   0.977   1.984 -1.0481 -0.6738 -2.4669
 3363SOL     OW21547   0.915   0.141  16.369 -0.0133 -0.1982  0.4671
 3363SOL    HW121548   0.987   0.204  16.360 -0.7766  0.2913 -2.1402
 3363SOL    HW221549   0.922   0.125  16.463  0.9126  2.9883  0.9526
 3364SOL     OW21550   3.389   2.861  10.622 -0.1204  0.3502  0.0431
 3364SOL    HW121551   3.384   2.922  10.695  0.0415 -0.0937  0.4280
 3364SOL    HW221552   3.328   2.800  10.662 -1.2595  0.5996 -1.3263
 3365SOL     OW21553   1.362   4.524   0.336  0.3329 -0.1027  0.1883
 3365SOL    HW121554   1.292   4.538   0.399 -1.0927  0.5613 -1.5357
 3365SOL    HW221555   1.430   4.546   0.399  0.4928 -0.7259  0.2336
 3366SOL     OW21556   4.689   1.172   7.432 -0.1898  0.2127 -0.0336
 3366SOL    HW121557   0.023   1.112   7.479 -0.6348 -1.7648 -2.0195
 3366SOL    HW221558   4.668   1.131   7.348 -1.5578  1.4775 -0.3037
 3367SOL     OW21559   3.112   2.653   4.670 -0.0539  0.1023  0.0572
 3367SOL    HW121560   3.139   2.601   4.745 -0.0926 -1.0505 -0.7338
 3367SOL    HW221561   3.019   2.644   4.689  0.2132  1.4163  1.9703
 3368SOL     OW21562   3.715   4.713   1.863  0.0736 -0.1708 -0.1895
 3368SOL    HW121563   3.728   4.654   1.938  0.1037  0.3545  0.2164
 3368SOL    HW221564   3.807   0.007   1.846 -0.0115  1.1494  0.7206
 3369SOL     OW21565   0.997   1.283  10.753  0.1694  0.3843  0.0981
 3369SOL    HW121566   1.007   1.242  10.667  0.2967  1.3621 -0.3520
 3369SOL    HW221567   1.084   1.276  10.791  1.8710  1.4873 -3.6112
 3370SOL     OW21568   2.207   3.096   2.467 -0.2114  0.4272  0.3417
 3370SOL    HW121569   2.173   3.181   2.437  1.9448  1.9216  2.0961
 3370SOL    HW221570   2.297   3.112   2.441 -0.5613  1.5902 -0.1663
 3371SOL     OW21571   4.121   2.349   4.531  0.2645 -0.2493  0.0909
 3371SOL    HW121572   4.185   2.287   4.566  1.6739  1.8371  1.2163
 3371SOL    HW221573   4.185   2.407   4.489  1.8323 -2.7320 -1.0281
 3372SOL     OW21574   3.405   4.350   1.928 -0.1001  0.6223 -0.2353
 3372SOL    HW121575   3.370   4.320   1.844  1.2607  1.3735 -1.0717
 3372SOL    HW221576   3.322   4.379   1.966 -0.4781 -0.3558 -0.3353
 3373SOL     OW21577   1.807   0.559   2.572  0.1152  0.4731  0.2982
 3373SOL    HW121578   1.773   0.481   2.528  1.9213  0.1910 -0.6004
 3373SOL    HW221579   1.812   0.616   2.495 -0.2467  0.3994  0.2186
 3374SOL     OW21580   3.098   0.059   2.992 -0.0483  0.3326 -0.3216
 3374SOL    HW121581   3.078   4.690   2.989 -2.3911  0.7051  2.7797
 3374SOL    HW221582   3.022   0.089   3.044  0.2985 -1.5435  1.2715
 3375SOL     OW21583   3.766   2.232   3.168 -0.2960 -0.2536 -0.4922
 3375SOL    HW121584   3.767   2.267   3.078  2.2786  1.3114  0.1311
 3375SOL    HW221585   3.709   2.157   3.157 -0.0299 -0.7553  1.6747
 3376SOL     OW21586   0.174   2.882  10.142  0.0587 -0.2261  0.4869
 3376SOL    HW121587   0.136   2.794  10.144  0.9209 -0.5301  2.9498
 3376SOL    HW221588   0.194   2.890  10.049  0.5508 -0.2823  0.5919
 3377SOL     OW21589   2.593   1.650  14.827 -0.5710  0.7224 -0.1793
 3377SOL    HW121590   2.682   1.663  14.796 -0.9113  2.7553 -0.2805
 3377SOL    HW221591   2.593   1.554  14.828  3.4538  0.7185  0.4963
 3378SOL     OW21592   2.845   2.584   0.368 -0.2813 -0.4876  0.7623
 3378SOL    HW121593   2.923   2.532   0.386 -0.7133 -2.3632 -2.7571
 3378SOL    HW221594   2.785   2.546   0.432 -0.6269 -1.4973 -0.1570
 3379SOL     OW21595   4.331   3.027   6.282 -0.6768 -0.3652 -0.5929
 3379SOL    HW121596   4.293   3.024   6.369  2.1974 -0.8584  0.6388
 3379SOL    HW221597   4.309   3.113   6.246  1.5241 -0.0044 -1.0737
 3380SOL     OW21598   1.461   4.243   4.528  0.4427  0.3385 -0.5953
 3380SOL    HW121599   1.540   4.279   4.566 -1.0497  1.2929  1.5781
 3380SOL    HW221600   1.425   4.314   4.474  2.2412 -0.2582 -2.6024
 3381SOL     OW21601   3.178   2.515   9.333  0.2812 -0.0167  0.2360
 3381SOL    HW121602   3.220   2.599   9.315  1.7654 -0.1530  3.1583
 3381SOL    HW221603   3.233   2.450   9.289  0.2428  0.1578 -0.0746
 3382SOL     OW21604   2.237   0.258   5.055 -0.6156  0.0628 -0.0288
 3382SOL    HW121605   2.258   0.193   4.987 -1.6945  0.4883 -0.7779
 3382SOL    HW221606   2.231   0.338   5.003 -0.6391  0.5799  0.7797
 3383SOL     OW21607   0.509   4.095   3.987 -0.2955 -0.2027  0.1911
 3383SOL    HW121608   0.423   4.130   3.963  0.8429  1.3972 -1.4368
 3383SOL    HW221609   0.491   4.086   4.081 -0.5189  1.7336  0.3151
 3384SOL     OW21610   3.223   0.891   4.772  0.2198  0.2227  0.3565
 3384SOL    HW121611   3.159   0.861   4.707 -0.1956  1.8637 -0.0018
 3384SOL    HW221612   3.287   0.936   4.717  1.6579 -1.6531  0.5026
 3385SOL     OW21613   2.538   1.435   5.412 -0.1176  0.2583 -0.2311
 3385SOL    HW121614   2.477   1.510   5.407  1.9069  1.9084 -0.2296
 3385SOL    HW221615   2.496   1.397   5.489  0.7976  0.7846  0.5334
 3386SOL     OW21616   3.077   2.797  17.269 -0.1522  0.1947 -0.5376
 3386SOL    HW121617   3.119   2.839  17.194 -1.0428 -2.8519 -2.7303
 3386SOL    HW221618   2.984   2.803  17.247 -0.5675  3.6802  2.0847
 3387SOL     OW21619   1.657   1.424  15.521 -0.1636  0.7200 -0.1864
 3387SOL    HW121620   1.581   1.388  15.567  0.0473 -1.2110 -1.3455
 3387SOL    HW221621   1.622   1.483  15.453 -2.4260 -0.4285 -0.0051
 3388SOL     OW21622   0.969   4.077   6.531 -0.0326 -0.0572  0.3350
 3388SOL    HW121623   0.960   4.080   6.626 -0.7198  0.9044  0.2332
 3388SOL    HW221624   1.008   3.989   6.523  0.5996  0.1615  0.9884
 3389SOL     OW21625   2.902   4.250   7.196  0.5946  0.2875  0.7982
 3389SOL    HW121626   2.904   4.244   7.101  1.7212  0.7614  0.7901
 3389SOL    HW221627   2.974   4.313   7.195  0.9043 -0.0758  0.2824
 3390SOL     OW21628   1.473   1.155  10.275 -0.2739 -0.1862  0.3881
 3390SOL    HW121629   1.476   1.080  10.334  0.0304 -0.5600 -0.1048
 3390SOL    HW221630   1.418   1.110  10.210 -0.2617 -0.7817  0.7940
 3391SOL     OW21631   1.487   2.808  11.120 -0.2079  0.1406  0.2180
 3391SOL    HW121632   1.506   2.746  11.191  1.1684  1.1814  0.7521
 3391SOL    HW221633   1.563   2.866  11.118  0.6571 -0.9959 -0.1207
 3392SOL     OW21634   0.036   2.246   2.444 -0.6040 -0.1567 -0.2106
 3392SOL    HW121635   4.697   2.313   2.419  0.7486  1.2209  0.0657
 3392SOL    HW221636   0.055   2.199   2.363 -0.5787 -3.4968  1.7402
 3393SOL     OW21637   4.050   3.349   4.758 -0.1935 -0.0369  0.1034
 3393SOL    HW121638   4.081   3.427   4.804  2.2997 -0.8976 -0.0863
 3393SOL    HW221639   3.968   3.330   4.802  0.4426 -1.0280  0.8597
 3394SOL     OW21640   2.510   2.224  13.674 -0.0017 -0.0793  0.3145
 3394SOL    HW121641   2.580   2.212  13.610 -1.1274 -0.1408 -0.8968
 3394SOL    HW221642   2.537   2.304  13.721  1.7893 -0.3157 -0.3208
 3395SOL     OW21643   1.827   4.360   7.452  0.3727 -0.2367  0.2800
 3395SOL    HW121644   1.884   4.299   7.500 -1.9327 -2.5619  0.0944
 3395SOL    HW221645   1.853   4.443   7.493 -1.9213  0.6330 -0.0106
 3396SOL     OW21646   3.457   1.657   7.416 -0.1740  0.4718  0.6642
 3396SOL    HW121647   3.497   1.575   7.387 -0.2729  0.4306  0.6471
 3396SOL    HW221648   3.519   1.723   7.384  0.2668 -0.2876 -0.0309
 3397SOL     OW21649   2.448   3.890   4.970 -0.4633 -0.5430  0.2924
 3397SOL    HW121650   2.531   3.936   4.978 -0.7864  0.0666  0.1259
 3397SOL    HW221651   2.436   3.907   4.877 -1.1624  0.7859  0.6250
 3398SOL     OW21652   0.348   3.073   8.835  0.0798 -0.1308 -0.1434
 3398SOL    HW121653   0.358   3.144   8.899  1.2125 -0.4640  0.0505
 3398SOL    HW221654   0.318   2.997   8.885  3.0827 -1.4959 -0.4182
 3399SOL     OW21655   4.534   3.099  16.205  0.4676  0.4564 -0.0122
 3399SOL    HW121656   4.597   3.140  16.146  1.2747 -0.0325  0.5144
 3399SOL    HW221657   4.506   3.183  16.241  0.2931  0.4766 -0.1951
 3400SOL     OW21658   1.196   3.396   4.436 -0.3326  0.3933 -0.2284
 3400SOL    HW121659   1.284   3.424   4.411 -0.3038  1.5791  1.2003
 3400SOL    HW221660   1.146   3.471   4.405  0.5398  0.6101 -1.0937
 3401SOL     OW21661   1.953   0.477   7.292 -0.0689  0.2827 -0.1103
 3401SOL    HW121662   1.908   0.559   7.311  1.0786  0.6041  1.2254
 3401SOL    HW221663   2.002   0.514   7.219 -1.4970  0.9318 -0.7344
 3402SOL     OW21664   4.638   4.305   5.297  0.4487 -0.1796  0.5249
 3402SOL    HW121665   4.626   4.212   5.275  0.9323  0.0023 -0.5291
 3402SOL    HW221666   4.696   4.317   5.222  3.9112  0.7190  3.3451
 3403SOL     OW21667   4.702   0.234   6.689 -0.1185  0.0644 -0.3438
 3403SOL    HW121668   4.626   0.292   6.689  1.2172  1.7738 -1.3252
 3403SOL    HW221669   4.698   0.200   6.779 -2.5601 -0.1892 -0.5409
 3404SOL     OW21670   0.193   0.973  17.620  0.0135  0.3628  0.6322
 3404SOL    HW121671   0.244   0.914  17.675  0.6570  0.5179  0.1980
 3404SOL    HW221672   0.159   1.026  17.692  1.5715  0.3939  1.3250
 3405SOL     OW21673   0.394   3.981   6.793 -0.3087 -0.0052 -0.1692
 3405SOL    HW121674   0.447   3.904   6.812  0.0278  0.3592  0.3726
 3405SOL    HW221675   0.313   3.961   6.840  0.6137 -0.6821  1.1462
 3406SOL     OW21676   0.496   1.570  12.086 -0.3159 -0.5181 -0.1507
 3406SOL    HW121677   0.515   1.662  12.068 -2.2269 -0.2010 -0.5210
 3406SOL    HW221678   0.556   1.530  12.022 -0.0970 -0.9425  0.3210
 3407SOL     OW21679   2.101   0.211   5.837  0.2881 -0.7787 -0.2025
 3407SOL    HW121680   2.112   0.145   5.905  0.5739 -0.1705  0.3443
 3407SOL    HW221681   2.136   0.169   5.759  1.4492 -0.2982  0.0570
 3408SOL     OW21682   2.428   2.668   1.588  0.1444  0.2111 -0.5505
 3408SOL    HW121683   2.465   2.634   1.669  2.2659 -0.6736 -1.9012
 3408SOL    HW221684   2.388   2.585   1.562 -0.3509  0.6513 -1.1767
 3409SOL     OW21685   0.630   1.469   8.413 -0.4686 -0.0721 -0.7836
 3409SOL    HW121686   0.709   1.507   8.450 -0.0598 -2.0178  0.3756
 3409SOL    HW221687   0.619   1.384   8.455  1.0637 -0.4392 -1.1373
 3410SOL     OW21688   1.140   0.607  15.887  0.5336 -0.4582 -0.1667
 3410SOL    HW121689   1.128   0.522  15.845 -1.1165 -0.7790  0.9548
 3410SOL    HW221690   1.139   0.673  15.818  0.0796  0.4815  0.7331
 3411SOL     OW21691   0.940   4.445   4.432 -0.0928 -0.5716  0.3660
 3411SOL    HW121692   0.868   4.384   4.442  0.1165 -0.8543  0.1296
 3411SOL    HW221693   0.903   4.523   4.474  0.5066 -0.0652 -0.0499
 3412SOL     OW21694   1.279   4.025   4.392 -0.6352  0.3990 -0.3817
 3412SOL    HW121695   1.297   4.100   4.448 -1.1988  0.4441 -0.2632
 3412SOL    HW221696   1.295   4.065   4.306 -1.9577  1.5149 -0.1121
 3413SOL     OW21697   2.540   0.305   7.490  0.2833  0.0026 -0.2994
 3413SOL    HW121698   2.447   0.308   7.514  0.3255  0.4670 -0.1994
 3413SOL    HW221699   2.545   0.364   7.415 -3.1096 -0.6870 -1.0700
 3414SOL     OW21700   3.474   3.373   5.186 -0.0091  0.1799 -0.4576
 3414SOL    HW121701   3.528   3.452   5.190 -1.5157  1.1758  0.3443
 3414SOL    HW221702   3.429   3.371   5.270 -1.4641 -0.5618 -1.2620
 3415SOL     OW21703   3.624   0.692  13.343  0.1182  0.3710 -0.4008
 3415SOL    HW121704   3.629   0.692  13.248 -0.8209 -0.4833 -0.4512
 3415SOL    HW221705   3.575   0.612  13.365 -0.4944  1.1915  1.2057
 3416SOL     OW21706   3.815   3.165   4.844  0.3518  0.4359 -0.5883
 3416SOL    HW121707   3.778   3.087   4.802  2.2922 -0.4314 -0.6872
 3416SOL    HW221708   3.751   3.214   4.896 -0.8686 -3.1094  1.3095
 3417SOL     OW21709   0.482   1.750   6.070  0.5516  0.0432  0.2310
 3417SOL    HW121710   0.565   1.796   6.069 -0.2667  1.5305  0.7427
 3417SOL    HW221711   0.485   1.676   6.010  1.0711  0.9783 -0.8839
 3418SOL     OW21712   3.129   1.564   2.683 -0.1800  0.2204  0.0164
 3418SOL    HW121713   3.201   1.595   2.738  0.1930 -0.1570 -0.2503
 3418SOL    HW221714   3.154   1.472   2.672  0.2044 -0.1443  4.2435
 3419SOL     OW21715   4.713   2.389  16.517 -0.1069 -0.4195  0.1085
 3419SOL    HW121716   4.665   2.316  16.477  1.2077 -1.2435  0.0202
 3419SOL    HW221717   4.705   2.371  16.610 -0.1379 -2.7155 -0.3248
 3420SOL     OW21718   0.062   3.853   4.464  0.3704 -0.3082 -0.6589
 3420SOL    HW121719   0.048   3.798   4.386  0.7557  0.1364 -1.0446
 3420SOL    HW221720   0.125   3.804   4.517  2.0976  2.1868 -0.3997
 3421SOL     OW21721   1.617   1.862   4.510 -0.4048 -0.1769 -0.1789
 3421SOL    HW121722   1.675   1.795   4.475 -0.3161 -0.3727  0.3421
 3421SOL    HW221723   1.548   1.801   4.537 -0.2674 -1.0131 -1.7246
 3422SOL     OW21724   4.067   1.884   7.591  0.7818  0.0057  0.0853
 3422SOL    HW121725   3.984   1.932   7.580  0.8439  0.1814  0.3702
 3422SOL    HW221726   4.104   1.922   7.671 -0.0440 -2.2153  1.5083
 3423SOL     OW21727   3.494   1.271  12.743  0.4121 -0.0666 -0.3520
 3423SOL    HW121728   3.447   1.201  12.699 -0.2329  0.1114  0.0530
 3423SOL    HW221729   3.433   1.331  12.787  0.8408 -0.8372  1.2856
 3424SOL     OW21730   3.517   1.337  15.360  0.0036  0.7152 -0.1655
 3424SOL    HW121731   3.580   1.283  15.313  0.4538  0.5888  0.5880
 3424SOL    HW221732   3.453   1.353  15.290 -0.8315 -0.4277  0.3434
 3425SOL     OW21733   2.343   3.203   6.143 -0.0043  0.1434 -0.2807
 3425SOL    HW121734   2.316   3.165   6.059  2.4661 -3.2479  0.4779
 3425SOL    HW221735   2.301   3.136   6.196  1.1340 -0.9982 -0.8211
 3426SOL     OW21736   0.377   4.683   4.101  1.0820  0.2725 -0.4682
 3426SOL    HW121737   0.300   0.001   4.139  0.9348 -0.5330  0.1105
 3426SOL    HW221738   0.344   4.604   4.058  0.2263 -0.5734  1.7439
 3427SOL     OW21739   0.423   4.617   2.959 -0.2985  0.0697  0.6477
 3427SOL    HW121740   0.362   4.635   3.030 -1.5334  3.1739 -1.1754
 3427SOL    HW221741   0.501   4.660   2.996 -1.2924  0.9158  1.7687
 3428SOL     OW21742   2.520   4.617  17.311  0.2231 -0.4725  0.2698
 3428SOL    HW121743   2.550   4.708  17.315  2.2475 -1.0543 -1.7822
 3428SOL    HW221744   2.588   4.573  17.361 -1.1625 -0.6014  2.0326
 3429SOL     OW21745   3.983   0.232   2.154 -0.2754 -0.4553  0.7139
 3429SOL    HW121746   4.052   0.294   2.177 -0.3337 -0.9821  2.3584
 3429SOL    HW221747   3.989   0.208   2.062 -1.6027  0.4987  0.3843
 3430SOL     OW21748   4.228   2.173   2.765 -0.5943 -0.4883  0.1004
 3430SOL    HW121749   4.191   2.210   2.845 -0.0015  0.8428 -0.2445
 3430SOL    HW221750   4.145   2.149   2.725  0.6397  0.8539 -3.2574
 3431SOL     OW21751   0.385   0.686   8.997  0.6004 -0.8861 -0.4189
 3431SOL    HW121752   0.346   0.654   9.079 -0.6853  0.3244 -0.5594
 3431SOL    HW221753   0.305   0.675   8.945 -0.9068  1.3812  1.4419
 3432SOL     OW21754   0.161   3.297  16.182  0.3422  0.3645  0.2591
 3432SOL    HW121755   0.103   3.308  16.256 -0.0099 -2.3124  0.3781
 3432SOL    HW221756   0.095   3.276  16.116  0.0745  2.4642 -0.1416
 3433SOL     OW21757   0.918   1.867   3.352 -0.2820 -0.1758 -0.0091
 3433SOL    HW121758   0.827   1.838   3.364  0.4217 -1.9409  0.9952
 3433SOL    HW221759   0.910   1.872   3.257 -2.0791  1.4039  0.2270
 3434SOL     OW21760   1.255   4.346   0.693  0.9885  0.1886 -0.0477
 3434SOL    HW121761   1.266   4.441   0.691 -0.5537  0.3472 -0.4824
 3434SOL    HW221762   1.207   4.339   0.776  0.4638 -0.7686 -0.4400
 3435SOL     OW21763   2.868   3.438   5.304 -0.7411 -0.5169  0.1399
 3435SOL    HW121764   2.919   3.518   5.287  0.3927 -1.3940 -0.5754
 3435SOL    HW221765   2.802   3.478   5.361 -0.4311 -0.6072  0.5674
 3436SOL     OW21766   4.494   2.220   9.903 -0.5313  0.2460  0.5518
 3436SOL    HW121767   4.425   2.192   9.842  0.9205  0.8145 -1.3696
 3436SOL    HW221768   4.446   2.256   9.977  0.1706  0.6704  0.7955
 3437SOL     OW21769   4.694   0.829   6.873  0.0596  0.2157  0.4150
 3437SOL    HW121770   0.004   0.860   6.957  0.6634 -1.3752  0.7608
 3437SOL    HW221771   0.045   0.833   6.814  0.7590 -3.1939  1.1237
 3438SOL     OW21772   3.279   2.730   3.240 -0.2804 -0.7622 -0.0620
 3438SOL    HW121773   3.262   2.752   3.331 -0.3845 -0.8543 -0.0589
 3438SOL    HW221774   3.218   2.656   3.230  0.7766 -1.6589  0.0890
 3439SOL     OW21775   0.457   1.782   6.651 -0.1858 -0.5145  0.6547
 3439SOL    HW121776   0.471   1.689   6.670  1.7143 -0.0991  1.2491
 3439SOL    HW221777   0.545   1.807   6.622 -0.4916 -0.6411 -0.3491
 3440SOL     OW21778   2.000   4.258   5.761 -0.5913 -0.0610  0.2144
 3440SOL    HW121779   1.941   4.320   5.804 -1.7187 -2.1111  1.6813
 3440SOL    HW221780   2.066   4.225   5.823 -0.6801  0.0603  0.3723
 3441SOL     OW21781   4.016   2.546   9.343  1.0209  0.4939 -0.3720
 3441SOL    HW121782   4.023   2.631   9.301  1.3548  1.2603  1.2363
 3441SOL    HW221783   3.924   2.552   9.369  0.5607 -0.7308 -1.6898
 3442SOL     OW21784   3.587   4.485   3.401  0.3145 -0.1267  0.7159
 3442SOL    HW121785   3.584   4.483   3.497  2.7865  2.7969  0.8524
 3442SOL    HW221786   3.612   4.396   3.377  1.9830  1.0835 -1.9241
 3443SOL     OW21787   4.348   4.158   3.354  0.1794 -0.5310 -0.4843
 3443SOL    HW121788   4.326   4.065   3.347 -1.2417 -0.2879  0.6518
 3443SOL    HW221789   4.435   4.150   3.395  0.4201 -1.4251 -1.1597
 3444SOL     OW21790   1.395   1.933   6.076 -0.4588 -0.1705 -0.0224
 3444SOL    HW121791   1.473   1.907   6.125 -0.8662 -0.1607  0.6170
 3444SOL    HW221792   1.390   1.860   6.015  0.6452  1.0328 -1.5722
 3445SOL     OW21793   0.188   4.713   9.494  0.0259  0.3274  0.3705
 3445SOL    HW121794   0.264   0.035   9.457  0.3085 -0.4296  0.0237
 3445SOL    HW221795   0.214   4.693   9.584 -0.6733 -0.7817  0.3239
 3446SOL     OW21796   3.558   4.521  13.996  0.6707 -0.0668  0.9959
 3446SOL    HW121797   3.605   4.526  14.079  0.0157  0.5918  1.3240
 3446SOL    HW221798   3.537   4.612  13.974 -2.7630 -1.0361  0.2905
 3447SOL     OW21799   2.792   0.983   3.379  0.3469  0.0039 -0.1998
 3447SOL    HW121800   2.879   0.992   3.416  0.3189 -1.5962  0.2479
 3447SOL    HW221801   2.811   0.953   3.290  1.1123  1.8596 -0.6762
 3448SOL     OW21802   1.760   0.403   6.970 -0.0842  1.1581 -0.4847
 3448SOL    HW121803   1.845   0.441   6.945  0.6788 -0.9251 -1.0179
 3448SOL    HW221804   1.734   0.382   6.880 -0.3095  1.5504 -0.5109
 3449SOL     OW21805   0.068   0.329  14.913 -0.4532  0.3616  0.7923
 3449SOL    HW121806   0.052   0.266  14.983 -0.3630  0.6179  1.0417
 3449SOL    HW221807   0.163   0.322  14.902 -0.0218  1.3000  3.9141
 3450SOL     OW21808   0.747   1.272   8.974  0.5838 -0.1645  0.1477
 3450SOL    HW121809   0.665   1.291   9.020  0.4987 -0.8408  0.2643
 3450SOL    HW221810   0.721   1.291   8.884 -2.7678 -1.1679  0.9335
 3451SOL     OW21811   1.278   2.900   7.583 -0.5973 -0.1077  0.2888
 3451SOL    HW121812   1.289   2.972   7.645  1.6084 -0.6094  0.5062
 3451SOL    HW221813   1.342   2.841   7.624 -0.3746  1.6274  2.4156
 3452SOL     OW21814   0.963   1.375   4.542  0.0118  0.5684 -0.3418
 3452SOL    HW121815   0.925   1.316   4.477  0.6756  0.1684 -0.3680
 3452SOL    HW221816   1.052   1.381   4.507  0.0841 -0.0713 -0.2639
 3453SOL     OW21817   0.456   1.625   3.557 -0.5404 -0.2400  0.0241
 3453SOL    HW121818   0.375   1.677   3.557  0.0627  0.6786  2.0791
 3453SOL    HW221819   0.428   1.533   3.555  0.5589 -0.6083  1.7780
 3454SOL     OW21820   4.718   2.202  11.129 -0.3258 -0.2116  0.7079
 3454SOL    HW121821   0.059   2.191  11.198 -0.1919  1.2398  0.8025
 3454SOL    HW221822   4.639   2.226  11.177  0.9594  2.8902  1.2386
 3455SOL     OW21823   4.637   0.603   8.117  0.0522 -0.2387  0.4803
 3455SOL    HW121824   4.643   0.698   8.105 -3.1377 -0.1225 -0.1611
 3455SOL    HW221825   4.674   0.587   8.030 -0.5441  1.2361 -0.0367
 3456SOL     OW21826   0.000   0.794  16.501  0.4867  0.3023  0.0531
 3456SOL    HW121827   4.724   0.794  16.406  0.5444  0.8162  0.0542
 3456SOL    HW221828   0.060   0.868  16.516  2.2398 -1.5890  2.4651
 3457SOL     OW21829   3.393   2.447   4.994 -0.3537  0.4504  0.6286
 3457SOL    HW121830   3.452   2.518   5.019  1.5277 -0.4356 -1.3547
 3457SOL    HW221831   3.388   2.402   5.079  1.1181  3.2415  2.2151
 3458SOL     OW21832   2.884   4.443   2.210  0.0836  0.3444 -0.0049
 3458SOL    HW121833   2.804   4.489   2.235 -0.2735  1.3443 -3.0234
 3458SOL    HW221834   2.857   4.418   2.122 -0.0130  0.1048  0.0940
 3459SOL     OW21835   2.392   1.118  17.206 -0.0191 -0.0762  0.6119
 3459SOL    HW121836   2.312   1.067  17.194 -0.6614  1.1878 -0.3946
 3459SOL    HW221837   2.434   1.067  17.276 -0.7804 -0.2909  0.9126
 3460SOL     OW21838   0.284   3.778   5.270 -0.0536 -0.6454  0.2001
 3460SOL    HW121839   0.225   3.709   5.301  0.2917 -1.2087 -0.4024
 3460SOL    HW221840   0.345   3.777   5.344 -0.0164 -3.2328  0.1321
 3461SOL     OW21841   3.240   2.430   0.945 -0.0485  0.6014  0.0031
 3461SOL    HW121842   3.309   2.451   1.008  0.7460  1.1300 -1.0351
 3461SOL    HW221843   3.296   2.416   0.869  0.2004  0.3583  0.2343
 3462SOL     OW21844   1.200   1.816   7.357  0.1796 -0.8829  1.0480
 3462SOL    HW121845   1.212   1.724   7.333  0.8058 -0.4608 -0.2688
 3462SOL    HW221846   1.273   1.836   7.416  0.0696  2.6122 -0.0126
 3463SOL     OW21847   1.420   3.733   0.866  0.1449 -0.0876  0.2075
 3463SOL    HW121848   1.431   3.764   0.956  0.4844 -0.0348  0.1448
 3463SOL    HW221849   1.328   3.758   0.853 -0.0662 -1.1202 -0.2838
 3464SOL     OW21850   2.591   0.315   0.232  0.6624 -0.6266 -0.6063
 3464SOL    HW121851   2.559   0.285   0.317  2.8876 -0.6554  0.2204
 3464SOL    HW221852   2.686   0.307   0.233  1.0434  4.1450  1.6638
 3465SOL     OW21853   0.463   2.590   3.203  0.8984  0.7565 -0.0043
 3465SOL    HW121854   0.481   2.549   3.287  0.1815 -1.1352 -0.7661
 3465SOL    HW221855   0.497   2.522   3.144 -0.4371  0.3797 -0.3493
 3466SOL     OW21856   1.423   4.304   3.059  0.7206 -0.0121 -0.0709
 3466SOL    HW121857   1.426   4.314   3.155 -2.0288  0.4573 -0.0407
 3466SOL    HW221858   1.336   4.266   3.063  1.0777 -0.7483  0.7541
 3467SOL     OW21859   4.484   0.382   7.085 -0.1413  0.0008  0.5224
 3467SOL    HW121860   4.521   0.295   7.071  1.2037  0.7673 -0.6833
 3467SOL    HW221861   4.416   0.360   7.149 -0.9731  3.0557  0.6898
 3468SOL     OW21862   2.461   2.671   9.026  0.2080  0.1664 -0.0791
 3468SOL    HW121863   2.369   2.651   9.046  0.4439 -0.3386  0.5079
 3468SOL    HW221864   2.448   2.718   8.944 -0.9475  0.7076  0.4166
 3469SOL     OW21865   3.209   1.827  16.070 -0.5454 -0.1565  0.0216
 3469SOL    HW121866   3.280   1.890  16.068 -1.3840  0.7146 -1.5070
 3469SOL    HW221867   3.172   1.860  15.989  0.1516  1.4266  0.3590
 3470SOL     OW21868   1.316   0.187   4.039  0.3354 -0.0067 -0.4388
 3470SOL    HW121869   1.395   0.133   4.030  1.0672  0.8530  0.8248
 3470SOL    HW221870   1.305   0.253   3.970  1.5331  0.5025 -0.1452
 3471SOL     OW21871   4.246   4.254   7.377  0.6086  0.2365  0.2694
 3471SOL    HW121872   4.254   4.339   7.334 -0.9372  1.0878  1.6475
 3471SOL    HW221873   4.241   4.196   7.301 -0.5376  0.2320  0.3519
 3472SOL     OW21874   1.498   1.635   8.113  0.5917  0.7409  0.4076
 3472SOL    HW121875   1.489   1.542   8.132 -0.6224  0.7532 -0.1638
 3472SOL    HW221876   1.577   1.633   8.058 -0.5418  0.6182 -1.2145
 3473SOL     OW21877   4.378   0.380   6.037  0.7766  0.6845  0.0040
 3473SOL    HW121878   4.420   0.394   5.953 -0.6385 -0.1399 -0.8522
 3473SOL    HW221879   4.340   0.297   6.007  0.1148  0.6571  0.8975
 3474SOL     OW21880   0.103   3.971   6.892  0.0997  0.4620 -0.6502
 3474SOL    HW121881   0.023   3.984   6.842 -0.4539  2.4972  0.7659
 3474SOL    HW221882   0.066   3.960   6.980 -0.8291  1.5414 -0.9073
 3475SOL     OW21883   2.551   2.347   0.211  0.2528  0.5161 -0.0313
 3475SOL    HW121884   2.606   2.282   0.167 -2.6650 -1.8246 -0.2469
 3475SOL    HW221885   2.598   2.361   0.293  0.6870  1.6975 -0.4796
 3476SOL     OW21886   4.134   0.915   7.547 -0.6890  0.1430 -0.1292
 3476SOL    HW121887   4.185   0.834   7.549  1.9401  1.7844 -1.4054
 3476SOL    HW221888   4.197   0.977   7.510 -1.1023  1.0850  0.7491
 3477SOL     OW21889   4.049   4.400   4.681 -0.1236  0.1290  0.3304
 3477SOL    HW121890   3.968   4.449   4.672  0.8564  2.1242  2.4426
 3477SOL    HW221891   4.032   4.322   4.627  0.1929  0.8181 -0.7621
 3478SOL     OW21892   2.595   4.182  10.322  0.2027 -0.3977 -0.1045
 3478SOL    HW121893   2.538   4.197  10.398 -0.4397  1.6216 -0.9829
 3478SOL    HW221894   2.533   4.133  10.268 -0.7618  0.8223 -0.1012
 3479SOL     OW21895   2.612   3.133   7.240  0.4774 -0.6270  0.0884
 3479SOL    HW121896   2.630   3.172   7.155 -2.7790 -0.4541 -0.5248
 3479SOL    HW221897   2.616   3.045   7.204  2.1449 -0.2375 -0.6602
 3480SOL     OW21898   1.816   1.254   3.965  0.5994  0.2555 -0.0861
 3480SOL    HW121899   1.900   1.299   3.951  0.7300  0.0669  0.0954
 3480SOL    HW221900   1.780   1.308   4.036 -0.2681 -2.7228  1.7342
 3481SOL     OW21901   1.498   3.418   4.040  0.7506 -0.2002  0.1742
 3481SOL    HW121902   1.456   3.484   3.986 -0.6863 -0.4034  1.0378
 3481SOL    HW221903   1.583   3.461   4.036  0.7531 -0.4523 -2.2950
 3482SOL     OW21904   3.852   2.414  10.104  0.0268  0.1076  1.1066
 3482SOL    HW121905   3.885   2.500  10.079  0.0107 -0.6115 -1.4900
 3482SOL    HW221906   3.929   2.361  10.083  0.3110  1.0111 -0.1269
 3483SOL     OW21907   1.729   1.176  14.689 -0.1689  0.0083  0.0692
 3483SOL    HW121908   1.653   1.125  14.718  1.2717 -2.1499  0.0667
 3483SOL    HW221909   1.802   1.119  14.710 -0.9204 -1.3488 -0.9501
 3484SOL     OW21910   0.403   2.840   3.177 -0.8971 -0.1578 -0.0416
 3484SOL    HW121911   0.309   2.850   3.188 -0.7743  1.9551 -0.9676
 3484SOL    HW221912   0.405   2.746   3.197 -1.1561 -0.6122 -2.1113
 3485SOL     OW21913   4.670   1.404   6.763  0.6172  0.5770  0.2964
 3485SOL    HW121914   4.591   1.357   6.789  0.7293 -0.6220 -1.5616
 3485SOL    HW221915   4.648   1.403   6.670 -0.0025  0.9695  0.4337
 3486SOL     OW21916   3.540   2.472   5.779 -0.1872 -0.0512  0.5200
 3486SOL    HW121917   3.597   2.534   5.734 -1.3427 -0.4320 -1.4406
 3486SOL    HW221918   3.460   2.506   5.739 -0.1018  0.1751  0.5447
 3487SOL     OW21919   0.933   1.353   2.418 -0.3883  0.3720 -0.3403
 3487SOL    HW121920   0.850   1.387   2.451 -1.1484 -1.7073 -0.1104
 3487SOL    HW221921   0.910   1.347   2.325 -2.6140  1.2463  0.1701
 3488SOL     OW21922   0.304   3.550  15.076 -0.0568 -0.3754  0.2748
 3488SOL    HW121923   0.277   3.626  15.023 -2.2307 -0.7467  0.8575
 3488SOL    HW221924   0.394   3.548  15.044  0.4827  3.4468  1.5062
 3489SOL     OW21925   3.155   4.545  17.305  0.2555 -0.2100 -0.0519
 3489SOL    HW121926   3.077   4.523  17.253  1.2366 -0.2441 -1.5231
 3489SOL    HW221927   3.166   4.475  17.369 -1.2517  0.5120  0.9998
 3490SOL     OW21928   1.362   3.600   5.196  0.2643  0.5072 -1.0154
 3490SOL    HW121929   1.424   3.673   5.188  0.1931  0.6848 -0.0109
 3490SOL    HW221930   1.358   3.555   5.112  2.7512 -0.6556 -0.5182
 3491SOL     OW21931   3.427   4.707  16.437  0.4757  0.3084  0.4361
 3491SOL    HW121932   3.416   4.626  16.388  1.7610  0.6135 -0.3508
 3491SOL    HW221933   3.358   4.690  16.501 -0.3674  1.3536 -0.2007
 3492SOL     OW21934   2.386   0.666   9.155 -0.4418  0.0028  0.1753
 3492SOL    HW121935   2.387   0.762   9.164 -1.5336 -0.2081  2.6150
 3492SOL    HW221936   2.291   0.654   9.163 -0.3162 -1.2461 -0.2776
 3493SOL     OW21937   3.564   1.024   9.291 -0.0027  0.3109 -0.2012
 3493SOL    HW121938   3.513   1.004   9.213  0.3324  1.5919 -0.7510
 3493SOL    HW221939   3.653   0.994   9.269  0.1858 -0.0425  1.0059
 3494SOL     OW21940   1.443   2.860   1.972 -0.0158  0.5466  1.0539
 3494SOL    HW121941   1.506   2.827   2.036  0.8428  0.1517  0.0191
 3494SOL    HW221942   1.455   2.954   1.962  1.1522  0.6446  3.3044
 3495SOL     OW21943   3.274   0.200   5.659  0.4448  0.1457 -1.0295
 3495SOL    HW121944   3.239   0.255   5.589 -0.0564  2.1066  0.7436
 3495SOL    HW221945   3.349   0.158   5.618  2.1722  1.4020  0.8027
 3496SOL     OW21946   1.894   3.436  11.958 -0.6025 -0.0383 -0.0050
 3496SOL    HW121947   1.825   3.445  11.892 -1.1839  0.0027  0.6193
 3496SOL    HW221948   1.940   3.520  11.962  1.8432 -1.3972  0.3978
 3497SOL     OW21949   2.419   0.291   0.974  0.2369  0.9391 -0.4095
 3497SOL    HW121950   2.365   0.236   1.031  0.8790  1.7167  0.9518
 3497SOL    HW221951   2.451   0.359   1.033  0.7502 -1.1790  1.7255
 3498SOL     OW21952   4.717   3.298  17.685 -0.6489 -0.1183 -0.3581
 3498SOL    HW121953   4.626   3.300  17.654 -0.3859 -0.2509 -1.1438
 3498SOL    HW221954   0.045   3.330  17.612 -2.1973 -1.3626 -2.0146
 3499SOL     OW21955   3.826   0.411   0.663 -0.0297  0.2746  0.0838
 3499SOL    HW121956   3.864   0.487   0.707 -1.9584 -0.8857  3.7614
 3499SOL    HW221957   3.863   0.419   0.575  1.9774  0.8623  0.9863
 3500SOL     OW21958   2.593   4.186   7.862  0.4082  0.5313  0.7853
 3500SOL    HW121959   2.538   4.259   7.891  0.1514  0.5001  0.3758
 3500SOL    HW221960   2.675   4.227   7.835  0.3275 -1.2058 -2.0712
 3501SOL     OW21961   2.108   1.184   6.472 -0.0337 -0.3615 -0.2212
 3501SOL    HW121962   2.059   1.180   6.390  2.1864 -0.0999 -1.5841
 3501SOL    HW221963   2.161   1.263   6.460  0.8541 -0.7781  0.9055
 3502SOL     OW21964   2.663   0.666   8.078  0.0248 -0.7511 -0.3220
 3502SOL    HW121965   2.584   0.707   8.044  0.3320  1.4503  1.5552
 3502SOL    HW221966   2.644   0.636   8.167 -0.0445  1.6216  0.4568
 3503SOL     OW21967   0.212   3.715   4.632  0.2343  0.3889 -1.4187
 3503SOL    HW121968   0.160   3.675   4.702  1.6114  1.4218  0.1808
 3503SOL    HW221969   0.281   3.648   4.634 -0.5673 -0.3904  0.1093
 3504SOL     OW21970   4.498   2.794   3.123 -0.0285 -0.2013  0.1991
 3504SOL    HW121971   4.442   2.745   3.062 -0.0640  0.3451 -0.2094
 3504SOL    HW221972   4.504   2.874   3.071 -3.0804 -0.1632 -0.0928
 3505SOL     OW21973   2.383   2.874   7.506  0.2870 -0.3457 -0.2266
 3505SOL    HW121974   2.292   2.844   7.503 -0.0488  0.6576 -0.0536
 3505SOL    HW221975   2.387   2.940   7.576 -1.1903 -0.3841 -0.0909
 3506SOL     OW21976   1.462   3.964  14.961  0.0155 -0.1776 -0.0179
 3506SOL    HW121977   1.400   3.962  15.034 -0.6241  0.2790 -0.5526
 3506SOL    HW221978   1.456   4.055  14.931 -3.7768 -0.4233 -0.0006
 3507SOL     OW21979   1.517   2.747   7.715 -0.6667 -0.1850  0.4926
 3507SOL    HW121980   1.601   2.728   7.672  0.4385 -1.5618  3.2876
 3507SOL    HW221981   1.529   2.708   7.802  0.6975 -1.3655 -0.2156
 3508SOL     OW21982   2.095   2.197   3.124 -0.2109 -0.2886  0.3366
 3508SOL    HW121983   2.170   2.139   3.112  2.2490  2.7707  0.7342
 3508SOL    HW221984   2.074   2.179   3.216  0.1032 -0.3955  0.3875
 3509SOL     OW21985   4.111   1.932  17.465 -0.2505  0.0658 -0.4353
 3509SOL    HW121986   4.097   1.839  17.444  1.4486  0.7673 -4.5540
 3509SOL    HW221987   4.206   1.938  17.451  0.1029  0.4530  2.1472
 3510SOL     OW21988   1.923   0.971   4.264  0.8723 -0.1776  0.5309
 3510SOL    HW121989   1.868   0.979   4.186  2.4675 -3.1390 -0.9156
 3510SOL    HW221990   2.008   0.954   4.223  0.1397  0.8302 -1.4051
 3511SOL     OW21991   0.473   0.096   5.734 -0.0442 -1.1743 -0.0464
 3511SOL    HW121992   0.401   0.114   5.672  0.9162  0.1631 -0.7637
 3511SOL    HW221993   0.424   0.047   5.800  0.2403 -0.5627  0.6053
 3512SOL     OW21994   4.394   1.348   4.574  0.3621  0.2813  0.8501
 3512SOL    HW121995   4.450   1.280   4.537  0.2247  1.5236 -1.6369
 3512SOL    HW221996   4.305   1.322   4.550  1.4303 -1.3902 -1.2988
 3513SOL     OW21997   0.336   4.693   8.038  0.0983 -0.3881 -0.1390
 3513SOL    HW121998   0.303   4.675   7.950 -1.7576  0.8821  0.2925
 3513SOL    HW221999   0.432   4.700   8.036  0.0811  0.0795  0.8548
 3514SOL     OW22000   2.869   3.123   2.141  0.0269  0.1814 -0.0850
 3514SOL    HW122001   2.922   3.201   2.123  1.3487 -0.7843 -0.3929
 3514SOL    HW222002   2.930   3.077   2.198 -1.2727 -1.9725 -0.4355
 3515SOL     OW22003   1.986   1.096   5.652  0.2666  0.8181 -0.3679
 3515SOL    HW122004   1.934   1.068   5.728  1.3828  0.0049  0.0947
 3515SOL    HW222005   2.022   1.179   5.685 -0.4732  1.0102 -0.0334
 3516SOL     OW22006   3.931   3.623   6.993  0.8585  0.6052 -0.2746
 3516SOL    HW122007   3.992   3.655   6.928 -0.5852  1.4697 -1.2089
 3516SOL    HW222008   3.871   3.697   7.002  2.7439  1.8595  1.9005
 3517SOL     OW22009   3.688   2.865   4.157  0.1748  0.3677  0.0143
 3517SOL    HW122010   3.714   2.811   4.231  0.3334  1.7130  0.9416
 3517SOL    HW222011   3.750   2.938   4.163  0.6549  0.0315 -0.9072
 3518SOL     OW22012   4.416   3.742   6.362 -0.0258 -0.1765  0.1272
 3518SOL    HW122013   4.502   3.750   6.404 -0.0949 -2.0167  0.5894
 3518SOL    HW222014   4.435   3.727   6.270  1.0692  1.6058  0.0430
 3519SOL     OW22015   3.902   3.772   5.435  0.0135  0.1249  0.0886
 3519SOL    HW122016   3.901   3.813   5.349  1.1395 -1.2690 -0.5855
 3519SOL    HW222017   3.810   3.747   5.447  0.3214 -0.1608  1.9381
 3520SOL     OW22018   2.458   1.326  17.020  1.0776 -0.0243  0.2767
 3520SOL    HW122019   2.519   1.300  16.952  1.3618 -0.1884  0.5951
 3520SOL    HW222020   2.442   1.249  17.075  0.9542 -1.1539 -1.3296
 3521SOL     OW22021   3.347   0.475   5.101  0.2211 -0.3232 -0.2792
 3521SOL    HW122022   3.422   0.460   5.044 -0.0539  0.9181 -0.9705
 3521SOL    HW222023   3.316   0.563   5.078 -1.2183 -0.4994  0.9885
 3522SOL     OW22024   2.939   1.537  16.664 -0.6995 -0.7170 -0.6326
 3522SOL    HW122025   2.877   1.605  16.638 -0.3903  0.8939  2.8415
 3522SOL    HW222026   2.965   1.576  16.748 -0.7775 -0.6855 -0.6228
 3523SOL     OW22027   1.460   1.440   5.835 -0.1751  0.0141 -0.2295
 3523SOL    HW122028   1.471   1.396   5.751 -0.4498 -1.4999  0.5235
 3523SOL    HW222029   1.552   1.440   5.860  0.0528 -0.3634 -1.0748
 3524SOL     OW22030   0.138   4.637   6.667  0.4259 -0.4228 -0.9344
 3524SOL    HW122031   0.138   4.571   6.736  1.1699  1.8702  1.2493
 3524SOL    HW222032   0.166   4.718   6.710 -0.2548 -0.0464 -1.1950
 3525SOL     OW22033   1.041   1.843   9.018  0.1459  0.3107 -0.2057
 3525SOL    HW122034   1.037   1.929   9.059 -1.5213  0.5110 -0.8139
 3525SOL    HW222035   1.022   1.790   9.095  2.4867 -1.3017 -0.7362
 3526SOL     OW22036   1.003   2.869   4.325 -0.1729 -0.2749  1.1835
 3526SOL    HW122037   0.922   2.855   4.374 -0.8836 -0.0806  0.0709
 3526SOL    HW222038   1.016   2.960   4.350 -1.5613  0.8062 -1.9681
 3527SOL     OW22039   0.068   2.473   9.167  0.0404  0.1089 -0.2498
 3527SOL    HW122040   0.010   2.411   9.212 -1.2689  1.9379  0.5702
 3527SOL    HW222041   0.149   2.435   9.202 -0.2886 -0.4451 -0.0815
 3528SOL     OW22042   0.270   3.310   4.886  0.2384 -0.2651  0.0474
 3528SOL    HW122043   0.195   3.320   4.944 -0.2809 -2.6169 -0.2073
 3528SOL    HW222044   0.236   3.239   4.831 -0.4310 -0.6694  0.9939
 3529SOL     OW22045   0.280   3.700   3.470 -0.0669  0.3980 -0.1047
 3529SOL    HW122046   0.207   3.710   3.408 -0.5027  0.8819  0.4854
 3529SOL    HW222047   0.314   3.788   3.455 -1.8347  1.0663 -0.2708
 3530SOL     OW22048   2.845   1.864  14.274 -0.2426  0.0626 -0.4605
 3530SOL    HW122049   2.887   1.787  14.312  0.4059 -0.0318 -1.3818
 3530SOL    HW222050   2.760   1.822  14.267  0.0652 -0.2237 -2.4323
 3531SOL     OW22051   4.300   1.925   6.986  0.3703  0.2984 -0.7894
 3531SOL    HW122052   4.331   2.007   7.024 -0.3039  1.9061 -3.6860
 3531SOL    HW222053   4.378   1.896   6.937 -0.1116 -2.3992  0.0562
 3532SOL     OW22054   4.535   3.425   3.790  0.2503  0.0179  0.0358
 3532SOL    HW122055   4.515   3.361   3.859 -0.6269  0.5666  0.2912
 3532SOL    HW222056   4.549   3.354   3.728  0.1765  0.0962 -0.0712
 3533SOL     OW22057   0.775   3.205   4.249  0.1372 -0.3723  0.3451
 3533SOL    HW122058   0.738   3.268   4.187 -0.9841  1.4565  2.8811
 3533SOL    HW222059   0.863   3.191   4.213  0.5914  3.4576 -0.0735
 3534SOL     OW22060   4.556   2.528   2.557 -0.5738 -0.5507 -1.0165
 3534SOL    HW122061   4.623   2.571   2.610 -1.4860 -0.9955  0.5066
 3534SOL    HW222062   4.607   2.509   2.478 -1.5025  1.3210 -2.0524
 3535SOL     OW22063   0.465   1.681  15.756  0.8121 -0.3214  0.2751
 3535SOL    HW122064   0.487   1.725  15.839  0.4343  3.6640 -1.7506
 3535SOL    HW222065   0.452   1.755  15.697 -0.3758 -0.8284 -0.0991
 3536SOL     OW22066   4.610   1.422   7.386 -0.7151 -0.0070  0.2796
 3536SOL    HW122067   4.611   1.442   7.292 -1.9656 -2.4876 -0.2850
 3536SOL    HW222068   4.656   1.338   7.386  3.7208  2.4463 -0.8991
 3537SOL     OW22069   4.277   3.126   4.493  0.4953 -0.0153 -0.2764
 3537SOL    HW122070   4.365   3.162   4.483  1.3265 -1.6302  1.0716
 3537SOL    HW222071   4.261   3.122   4.588 -1.0664 -0.1499 -0.5438
 3538SOL     OW22072   1.567   2.639   0.318 -0.4145 -0.6433  0.1473
 3538SOL    HW122073   1.477   2.632   0.286 -0.1548  0.9199 -0.9109
 3538SOL    HW222074   1.595   2.709   0.258 -2.9445  0.7528  0.6050
 3539SOL     OW22075   2.850   1.083   8.535  0.3684 -0.3116  0.7383
 3539SOL    HW122076   2.868   1.088   8.441  1.1194  1.5029  0.9755
 3539SOL    HW222077   2.918   1.144   8.565  0.5200  0.1536 -0.5416
 3540SOL     OW22078   0.948   3.072   2.532 -0.1536  0.0816  0.1199
 3540SOL    HW122079   0.877   3.093   2.471  0.7289 -1.1938 -1.3339
 3540SOL    HW222080   0.896   3.003   2.574  0.7484  0.4931  1.8942
 3541SOL     OW22081   4.216   2.952   6.544 -0.5785 -0.4653 -0.0469
 3541SOL    HW122082   4.260   2.955   6.629 -2.2435 -3.1215  0.9196
 3541SOL    HW222083   4.136   3.003   6.558 -0.2472 -0.1131  0.5447
 3542SOL     OW22084   3.743   3.663  12.545 -0.1493 -0.0879  0.0194
 3542SOL    HW122085   3.779   3.751  12.548  1.0485 -0.5249 -1.0376
 3542SOL    HW222086   3.753   3.632  12.635 -0.1401 -0.3094 -0.0565
 3543SOL     OW22087   0.658   3.942  15.239 -0.4188  0.1538 -0.6034
 3543SOL    HW122088   0.616   4.020  15.203 -1.0494 -0.5857 -1.4626
 3543SOL    HW222089   0.717   3.988  15.299 -1.6175  1.0833 -0.1066
 3544SOL     OW22090   3.217   1.414  16.665  0.0035 -0.3528  0.5403
 3544SOL    HW122091   3.225   1.453  16.752 -0.5611 -0.9487  0.8567
 3544SOL    HW222092   3.308   1.411  16.635 -0.4555  1.6162 -1.0725
 3545SOL     OW22093   2.811   0.045   5.896  0.2254  0.0107  0.0400
 3545SOL    HW122094   2.905   0.050   5.880 -0.2655 -1.7401 -3.2863
 3545SOL    HW222095   2.795   4.680   5.863  0.4803  0.0628 -0.2117
 3546SOL     OW22096   1.672   2.812  10.079  0.5160 -0.1477  0.5647
 3546SOL    HW122097   1.604   2.764  10.127  0.2343 -0.1875  0.1275
 3546SOL    HW222098   1.712   2.739  10.031 -0.4911  0.6316 -1.4891
 3547SOL     OW22099   0.617   2.055   1.690 -0.1169 -0.5943  0.2471
 3547SOL    HW122100   0.637   2.075   1.599 -0.7292 -1.6729 -0.1372
 3547SOL    HW222101   0.556   1.982   1.677 -0.1804 -0.8406  1.9710
 3548SOL     OW22102   2.821   1.101   5.926 -0.0330 -0.3770  0.0058
 3548SOL    HW122103   2.750   1.157   5.895 -0.2122  0.9477  2.8256
 3548SOL    HW222104   2.875   1.102   5.847 -1.5018  1.8911 -0.9785
 3549SOL     OW22105   1.648   2.029  16.597 -0.6427 -0.3123  0.4980
 3549SOL    HW122106   1.571   1.990  16.555 -0.9249 -0.2064  0.9205
 3549SOL    HW222107   1.617   2.116  16.622  0.7594  0.0298  1.0509
 3550SOL     OW22108   2.197   0.486   3.626 -0.2174  0.3251 -0.4735
 3550SOL    HW122109   2.197   0.414   3.563  1.2907 -1.2978  1.3618
 3550SOL    HW222110   2.126   0.453   3.680  0.4766 -0.3672  0.0211
 3551SOL     OW22111   4.145   3.170   0.801  0.3373  0.6274 -0.1877
 3551SOL    HW122112   4.137   3.237   0.869 -1.0189 -1.8456  2.0422
 3551SOL    HW222113   4.147   3.238   0.732  1.1872  0.3880 -0.4006
 3552SOL     OW22114   3.886   2.799  15.141 -0.1432  0.3243 -0.0908
 3552SOL    HW122115   3.897   2.860  15.068  0.0452 -0.6545 -0.8804
 3552SOL    HW222116   3.910   2.858  15.212  0.4821 -1.1740  0.9178
 3553SOL     OW22117   2.313   3.515   8.416  0.4364  0.6263  0.1900
 3553SOL    HW122118   2.289   3.484   8.329 -0.5638 -0.9301  1.0296
 3553SOL    HW222119   2.380   3.583   8.406  2.1969 -1.5540 -2.6792
 3554SOL     OW22120   1.268   2.803   8.607 -0.1432  0.6749 -0.2098
 3554SOL    HW122121   1.339   2.767   8.661  0.3645  1.2770 -0.4791
 3554SOL    HW222122   1.310   2.874   8.559  1.1954  1.1002  1.5929
 3555SOL     OW22123   2.774   3.536   2.262  0.4830 -0.5851 -0.1286
 3555SOL    HW122124   2.849   3.477   2.273  0.4050 -0.6421  0.1060
 3555SOL    HW222125   2.785   3.594   2.338  1.8916 -0.0973 -0.7043
 3556SOL     OW22126   0.168   3.458   4.152  0.0220  0.0461 -0.2713
 3556SOL    HW122127   0.183   3.453   4.058  0.4178 -2.0243 -0.0997
 3556SOL    HW222128   0.255   3.482   4.186  1.3973 -2.6500 -1.8505
 3557SOL     OW22129   0.113   2.711   1.859 -0.3295 -0.1652  0.0389
 3557SOL    HW122130   0.162   2.735   1.780 -1.6270 -0.8903 -0.9853
 3557SOL    HW222131   0.178   2.729   1.927 -2.7197 -1.0381  2.5311
 3558SOL     OW22132   3.690   0.868   0.358  0.5164  0.4074  0.6196
 3558SOL    HW122133   3.678   0.938   0.422 -0.6828  0.4844  0.3026
 3558SOL    HW222134   3.759   0.916   0.311  3.0090 -0.7232  3.1373
 3559SOL     OW22135   1.416   4.322   6.218  1.0208  0.5673  0.0970
 3559SOL    HW122136   1.411   4.250   6.155  0.4637  0.0355  0.7558
 3559SOL    HW222137   1.453   4.280   6.295 -1.8358 -2.1827 -0.0215
 3560SOL     OW22138   0.039   2.609   6.313  1.0382  0.0745  0.5718
 3560SOL    HW122139   4.692   2.658   6.355 -0.5189 -0.8150 -1.0326
 3560SOL    HW222140   0.049   2.543   6.381 -0.3394  1.1938  1.8667
 3561SOL     OW22141   3.085   3.086   6.966  0.3002  0.5055  0.0186
 3561SOL    HW122142   3.027   3.153   6.929  1.1049  0.6971 -0.8894
 3561SOL    HW222143   3.063   3.001   6.927 -1.9893  1.3271 -0.4757
 3562SOL     OW22144   4.338   3.087   8.707 -0.0211  0.8500 -0.5569
 3562SOL    HW122145   4.325   3.126   8.794 -1.2331  0.3371 -0.4996
 3562SOL    HW222146   4.246   3.078   8.681 -0.5035 -0.2530  1.4762
 3563SOL     OW22147   3.978   3.113  10.639 -0.2474 -0.0431  0.6563
 3563SOL    HW122148   3.966   3.020  10.656  0.1938 -0.3677 -0.8778
 3563SOL    HW222149   4.025   3.118  10.556 -0.2150  0.6680  0.7166
 3564SOL     OW22150   2.208   3.087   6.402  0.4809  0.2058 -0.1816
 3564SOL    HW122151   2.181   3.011   6.351 -0.5353  0.5502 -0.1576
 3564SOL    HW222152   2.172   3.051   6.482  0.4723  1.0894  0.2144
 3565SOL     OW22153   0.946   0.821   5.260 -0.1409 -0.1886 -0.1872
 3565SOL    HW122154   0.945   0.810   5.165 -0.6280 -0.0031 -0.2020
 3565SOL    HW222155   0.867   0.875   5.269 -1.0887 -2.0079  2.2218
 3566SOL     OW22156   3.155   0.185  14.698  0.0603  0.5861  0.6257
 3566SOL    HW122157   3.176   0.111  14.641 -2.3725 -0.0055  0.4727
 3566SOL    HW222158   3.156   0.143  14.785  2.2770 -0.9732 -0.1758
 3567SOL     OW22159   2.844   1.761  13.768  0.6860 -1.1051  0.2204
 3567SOL    HW122160   2.750   1.744  13.781  0.3867 -0.8841 -1.5649
 3567SOL    HW222161   2.839   1.850  13.733 -1.5222 -2.0117 -1.8417
 3568SOL     OW22162   3.397   2.050   5.239  0.7481 -0.3276 -0.0564
 3568SOL    HW122163   3.364   2.139   5.247 -1.3016 -1.1294  0.4119
 3568SOL    HW222164   3.369   2.013   5.323 -2.0964  1.8093 -0.0951
 3569SOL     OW22165   0.938   1.752   2.004 -0.3623  0.4615  0.1294
 3569SOL    HW122166   1.006   1.743   1.937  0.1853  4.2731  0.2002
 3569SOL    HW222167   0.973   1.689   2.067  1.0482  0.4722 -0.6442
 3570SOL     OW22168   2.958   2.176   6.903 -0.2803  0.0593  0.2158
 3570SOL    HW122169   3.039   2.188   6.953 -0.4390  1.4384  0.1426
 3570SOL    HW222170   2.988   2.220   6.824  1.2763  0.1031  0.8343
 3571SOL     OW22171   4.080   0.633   5.283  0.2546 -0.7044  0.1774
 3571SOL    HW122172   4.115   0.720   5.265  0.2264 -0.7514 -0.1042
 3571SOL    HW222173   4.160   0.580   5.292 -0.6118 -1.6725  1.9812
 3572SOL     OW22174   3.340   1.192  12.418  0.1252  0.5480  0.4209
 3572SOL    HW122175   3.319   1.135  12.492 -1.6844  2.3413  1.2979
 3572SOL    HW222176   3.347   1.129  12.346 -3.1180  0.0170  0.5531
 3573SOL     OW22177   1.279   2.285   7.437 -0.0040 -0.5383 -0.2066
 3573SOL    HW122178   1.321   2.307   7.354  2.4291  1.2521  1.5237
 3573SOL    HW222179   1.346   2.313   7.499 -0.9163  1.5016 -0.1426
 3574SOL     OW22180   2.730   1.715  11.421 -0.3074 -0.4208 -0.1454
 3574SOL    HW122181   2.760   1.652  11.356 -0.8805  0.6891 -1.4756
 3574SOL    HW222182   2.634   1.709  11.416 -0.0665 -1.5953 -3.5418
 3575SOL     OW22183   0.272   0.545   2.565  0.3444  0.1815 -0.0276
 3575SOL    HW122184   0.247   0.468   2.615 -0.1156  1.6932  2.0679
 3575SOL    HW222185   0.193   0.561   2.513  1.4614 -0.3400 -1.8976
 3576SOL     OW22186   1.629   2.718   7.127 -0.3951  0.4802  0.2195
 3576SOL    HW122187   1.543   2.723   7.085 -0.4079 -0.6719  0.1229
 3576SOL    HW222188   1.618   2.636   7.174 -2.3116 -0.3465 -1.6685
 3577SOL     OW22189   2.256   1.783   7.113 -0.2295 -0.4185  0.3136
 3577SOL    HW122190   2.263   1.878   7.110  3.1248 -0.6639  0.6957
 3577SOL    HW222191   2.334   1.761   7.164  0.3980 -0.1675 -0.5410
 3578SOL     OW22192   3.189   4.220  10.331 -0.1965  0.1792  0.0981
 3578SOL    HW122193   3.177   4.204  10.424  1.5690  0.4762  0.3819
 3578SOL    HW222194   3.112   4.276  10.320 -1.0565 -0.8253  1.0423
 3579SOL     OW22195   2.613   3.560   5.095  0.0738  0.1121 -0.1759
 3579SOL    HW122196   2.624   3.650   5.126  1.8451  0.0823 -0.7115
 3579SOL    HW222197   2.681   3.547   5.029  0.9443 -0.1328  0.7620
 3580SOL     OW22198   4.391   0.724   2.655  0.4553  0.0441  0.5254
 3580SOL    HW122199   4.455   0.673   2.605 -0.1113  0.5489 -0.7328
 3580SOL    HW222200   4.415   0.695   2.742 -0.8511 -2.1115  0.1538
 3581SOL     OW22201   1.859   0.599  12.449  0.2330 -0.2862 -0.1798
 3581SOL    HW122202   1.951   0.575  12.453  0.3213 -0.0213 -0.6133
 3581SOL    HW222203   1.842   0.654  12.525  2.4450  1.6053 -1.0640
 3582SOL     OW22204   4.414   1.271   6.797  0.7219 -0.6111 -0.0131
 3582SOL    HW122205   4.350   1.214   6.841 -1.5758  2.0401  0.0473
 3582SOL    HW222206   4.361   1.297   6.723  0.4593  0.7592  0.6614
 3583SOL     OW22207   1.541   2.815  15.222 -0.2339  0.1262  0.5098
 3583SOL    HW122208   1.479   2.766  15.275 -1.6585 -0.6421 -1.9092
 3583SOL    HW222209   1.592   2.747  15.179 -1.5329 -0.1817 -0.5212
 3584SOL     OW22210   2.911   0.687  16.295 -0.0663 -0.1391  0.6340
 3584SOL    HW122211   3.002   0.668  16.319 -0.5943 -2.7552  0.6353
 3584SOL    HW222212   2.859   0.613  16.328  0.7921 -1.2632 -0.4885
 3585SOL     OW22213   2.466   0.191   0.474 -0.3050 -0.0429 -0.3906
 3585SOL    HW122214   2.512   0.224   0.551 -0.5035  1.1463 -0.7775
 3585SOL    HW222215   2.408   0.129   0.517 -1.0172  1.4756  0.8548
 3586SOL     OW22216   3.970   0.751   8.126  0.2296  0.2266 -0.0393
 3586SOL    HW122217   3.902   0.797   8.175 -0.9519 -1.8577  0.2429
 3586SOL    HW222218   4.043   0.769   8.186 -1.4690  2.5847  1.3279
 3587SOL     OW22219   3.275   0.238   4.989 -0.0611 -0.8074 -0.1455
 3587SOL    HW122220   3.258   0.325   5.027 -2.0460 -0.0330 -2.7548
 3587SOL    HW222221   3.300   0.250   4.898  0.6725 -0.9110  0.0481
 3588SOL     OW22222   3.523   0.223   8.751  0.1928 -0.1186 -0.0977
 3588SOL    HW122223   3.484   0.304   8.784  1.5988  0.0096  1.2097
 3588SOL    HW222224   3.609   0.230   8.791 -0.5882  0.7897  1.4129
 3589SOL     OW22225   4.534   4.597   5.528 -0.1688  0.5189  0.0469
 3589SOL    HW122226   4.508   4.613   5.437 -0.1563  2.7053  0.4205
 3589SOL    HW222227   4.627   4.594   5.509 -0.2705 -1.2061 -0.1388
 3590SOL     OW22228   1.864   1.634   9.079 -0.1516 -0.4733  0.0452
 3590SOL    HW122229   1.886   1.688   9.003  0.2115  1.0911  1.2688
 3590SOL    HW222230   1.841   1.703   9.142 -0.1066 -0.2956 -0.1337
 3591SOL     OW22231   1.169   4.047   6.060 -0.1450  0.4800 -0.8815
 3591SOL    HW122232   1.157   4.064   6.153 -2.0230  2.5134 -1.5007
 3591SOL    HW222233   1.262   4.025   6.060  0.4671  3.0709  1.0949
 3592SOL     OW22234   4.581   4.286  11.770  0.4043  0.4502 -0.9442
 3592SOL    HW122235   4.590   4.380  11.754  3.0356  0.0268 -1.9792
 3592SOL    HW222236   4.536   4.257  11.691 -0.4455 -0.9159  0.0435
 3593SOL     OW22237   3.612   2.030  16.927  0.0650  0.3207  0.2796
 3593SOL    HW122238   3.559   2.035  17.007  1.9077 -1.2456  1.5925
 3593SOL    HW222239   3.664   2.110  16.934 -1.5955  1.4536 -0.5121
 3594SOL     OW22240   4.291   0.405   7.568  0.1498 -0.2244  0.2101
 3594SOL    HW122241   4.219   0.383   7.627  0.7348 -0.9146  0.6575
 3594SOL    HW222242   4.370   0.386   7.618 -0.1768 -0.6502  0.5645
 3595SOL     OW22243   4.490   3.030  14.743 -0.1150 -0.4929 -0.0839
 3595SOL    HW122244   4.563   3.081  14.778 -1.1715 -0.6540  2.3597
 3595SOL    HW222245   4.527   2.942  14.744  1.3229  0.0884 -2.3400
 3596SOL     OW22246   1.335   4.511   6.568  0.4440 -0.1250  0.1903
 3596SOL    HW122247   1.254   4.465   6.543  1.2890 -1.3347 -0.3373
 3596SOL    HW222248   1.290   4.584   6.611 -0.0344 -0.3090  0.0051
 3597SOL     OW22249   4.672   0.487   5.569  0.6915  0.4563  0.4328
 3597SOL    HW122250   4.648   0.569   5.526 -0.1070 -1.3459 -2.5390
 3597SOL    HW222251   0.040   0.486   5.541 -0.0945  0.5423 -2.1486
 3598SOL     OW22252   1.974   3.923  14.555  0.0125 -0.5379 -0.5572
 3598SOL    HW122253   1.981   3.994  14.618  0.5447  0.6316 -1.9111
 3598SOL    HW222254   1.980   3.972  14.472 -0.0408  0.7449  0.1903
 3599SOL     OW22255   3.433   4.020  14.537  0.3103 -0.4156  0.8566
 3599SOL    HW122256   3.518   4.030  14.494 -0.5335  1.6574 -0.3541
 3599SOL    HW222257   3.438   4.034  14.632  0.9586 -0.9427  0.8982
 3600SOL     OW22258   0.637   2.635   7.337  0.4620 -0.4277  0.3760
 3600SOL    HW122259   0.613   2.727   7.344 -0.5143 -0.5052 -1.9761
 3600SOL    HW222260   0.721   2.640   7.290  0.9713 -0.9492  1.2214
 3601SOL     OW22261   4.282   3.619  15.162  0.5584 -0.1019 -0.5687
 3601SOL    HW122262   4.366   3.577  15.142  1.0386 -0.3231  1.9323
 3601SOL    HW222263   4.261   3.566  15.239 -0.4304  0.1485 -0.6666
 3602SOL     OW22264   2.182   4.473   5.291  0.3480 -0.2104 -0.0154
 3602SOL    HW122265   2.125   4.517   5.229  1.3023 -0.1940 -0.8810
 3602SOL    HW222266   2.135   4.389   5.293  0.0769 -0.0837 -1.3758
 3603SOL     OW22267   1.188   0.047   6.576 -0.2114  0.4242 -0.2091
 3603SOL    HW122268   1.138   0.105   6.519 -0.1321  0.8937  0.1981
 3603SOL    HW222269   1.269   0.097   6.586  0.4767  0.0095 -3.8151
 3604SOL     OW22270   3.418   0.676   4.485 -0.7379 -0.4137 -0.2326
 3604SOL    HW122271   3.451   0.618   4.416  4.1082  1.3317  0.6376
 3604SOL    HW222272   3.486   0.740   4.504 -0.6402 -0.4658 -0.4048
 3605SOL     OW22273   1.511   1.233   6.855  0.4772  0.2604  0.4704
 3605SOL    HW122274   1.440   1.169   6.859  0.7560 -0.0802  0.0258
 3605SOL    HW222275   1.492   1.291   6.782 -2.9170 -0.8576  0.4505
 3606SOL     OW22276   3.064   3.965   6.694 -0.2033 -0.3982  0.2928
 3606SOL    HW122277   3.154   3.957   6.664 -0.5057  2.7548 -1.4414
 3606SOL    HW222278   3.043   3.873   6.713  1.5080 -0.5592  1.3651
 3607SOL     OW22279   4.327   3.026   4.982  0.1754  0.2772 -0.1419
 3607SOL    HW122280   4.231   3.018   4.987  0.1725  0.2031 -0.3472
 3607SOL    HW222281   4.345   2.957   5.046  0.7793  2.2125  1.7837
 3608SOL     OW22282   3.721   1.146   6.588 -0.1323  0.0029  0.5281
 3608SOL    HW122283   3.771   1.220   6.552  0.1315 -1.5498 -2.2478
 3608SOL    HW222284   3.765   1.069   6.553 -0.6628 -0.5299  1.0348
 3609SOL     OW22285   2.989   2.972   2.323 -0.0703  0.2347  0.0517
 3609SOL    HW122286   2.988   2.877   2.335  2.4615 -0.1791 -3.0900
 3609SOL    HW222287   3.014   3.008   2.408 -0.5363 -1.0079  0.7121
 3610SOL     OW22288   3.193   4.367   4.504 -0.4834 -0.2743  0.1051
 3610SOL    HW122289   3.283   4.350   4.476 -0.1956  0.5748  0.4842
 3610SOL    HW222290   3.192   4.463   4.499  2.5279 -0.1689  1.0197
 3611SOL     OW22291   3.116   3.673   2.136 -0.0961 -0.2336  0.5355
 3611SOL    HW122292   3.138   3.730   2.211  1.1362 -0.7197  0.5456
 3611SOL    HW222293   3.206   3.660   2.105 -0.5733 -0.2393 -0.8377
 3612SOL     OW22294   1.785   2.912   2.044  0.7618  0.3868 -0.7513
 3612SOL    HW122295   1.877   2.885   2.051 -0.0945 -2.0718  1.2001
 3612SOL    HW222296   1.790   2.909   1.949 -0.0996  3.9244 -0.9053
 3613SOL     OW22297   3.686   3.324   7.476 -0.2665 -0.1970 -0.0992
 3613SOL    HW122298   3.617   3.315   7.542  0.0591 -2.9894 -0.1757
 3613SOL    HW222299   3.747   3.251   7.483 -1.0599 -0.7194  1.2772
 3614SOL     OW22300   2.275   3.006   8.287  0.6575 -0.7855 -0.1788
 3614SOL    HW122301   2.202   3.045   8.336  0.6589 -1.6473  0.5060
 3614SOL    HW222302   2.301   2.929   8.337  1.4786  0.2904  1.0412
 3615SOL     OW22303   0.190   2.273   0.745  0.8225 -0.4004  0.8785
 3615SOL    HW122304   0.201   2.208   0.815  0.6049 -0.3524  0.9590
 3615SOL    HW222305   0.278   2.308   0.736  0.5132 -0.3658 -1.8632
 3616SOL     OW22306   3.086   2.683   3.458  0.0041 -0.1439  0.1279
 3616SOL    HW122307   3.018   2.749   3.447  0.7171  0.5106 -0.3620
 3616SOL    HW222308   3.058   2.614   3.398 -1.5680 -0.4868  1.2698
 3617SOL     OW22309   4.224   0.663   2.446  1.0988 -0.4106  0.5273
 3617SOL    HW122310   4.283   0.703   2.382 -2.0083  0.5327 -1.7409
 3617SOL    HW222311   4.274   0.673   2.527 -2.6450  3.1619  2.3898
 3618SOL     OW22312   4.026   4.199   7.894  0.1505 -0.6130 -0.2347
 3618SOL    HW122313   4.053   4.219   7.805  1.1022 -3.8222 -0.6751
 3618SOL    HW222314   4.029   4.103   7.889 -0.8631 -0.7791  2.2174
 3619SOL     OW22315   4.158   4.539   6.539  0.1294  0.0636 -0.2380
 3619SOL    HW122316   4.200   4.460   6.506  1.9895  1.2930 -0.8023
 3619SOL    HW222317   4.213   4.554   6.616  0.3758 -0.4410 -0.3154
 3620SOL     OW22318   1.515   2.058   1.098  0.3510 -0.4816 -0.1807
 3620SOL    HW122319   1.511   2.040   1.004 -0.8240 -0.9242 -0.0402
 3620SOL    HW222320   1.520   1.966   1.124  0.6851 -0.0187  1.4174
 3621SOL     OW22321   4.200   1.606   9.545 -0.1618 -0.0340  0.1537
 3621SOL    HW122322   4.266   1.652   9.596  1.3001 -1.6413 -0.2798
 3621SOL    HW222323   4.253   1.581   9.469  0.6453  0.9325  0.4135
 3622SOL     OW22324   1.034   0.761   6.263 -0.0960 -0.1741 -0.1504
 3622SOL    HW122325   0.999   0.818   6.195 -0.3376 -3.0746 -2.4803
 3622SOL    HW222326   0.974   0.689   6.245  0.0037 -0.4746  0.7179
 3623SOL     OW22327   1.705   0.117   4.919 -0.0401  0.0432  0.3360
 3623SOL    HW122328   1.694   0.212   4.916 -0.4898 -0.0654 -1.1063
 3623SOL    HW222329   1.621   0.087   4.883  0.1937  0.6519 -0.7084
 3624SOL     OW22330   4.323   0.907  14.014  0.2798 -0.8225 -0.1398
 3624SOL    HW122331   4.304   0.964  13.939 -1.3942 -0.1663  0.7965
 3624SOL    HW222332   4.258   0.939  14.076  0.6428 -0.5233  0.0810
 3625SOL     OW22333   4.632   4.575   5.066 -0.3049 -0.1977 -0.1915
 3625SOL    HW122334   4.672   4.499   5.023  1.4093  0.4904  0.1861
 3625SOL    HW222335   4.632   4.633   4.989  0.0037 -0.9107 -0.7335
 3626SOL     OW22336   1.537   1.799  15.355 -0.2215  0.0103  0.0981
 3626SOL    HW122337   1.602   1.864  15.382 -0.0256 -1.2942  2.7153
 3626SOL    HW222338   1.577   1.712  15.353  0.9976  0.5752 -0.5930
 3627SOL     OW22339   3.790   0.471   5.150 -0.4435  0.3413  0.4188
 3627SOL    HW122340   3.735   0.395   5.167  0.6289 -0.3037  1.0145
 3627SOL    HW222341   3.867   0.424   5.118 -0.6488 -0.8515  1.7088
 3628SOL     OW22342   2.297   0.290   7.607 -0.4056 -0.8110 -0.0716
 3628SOL    HW122343   2.202   0.295   7.614 -0.2900  1.2631  0.2246
 3628SOL    HW222344   2.321   0.313   7.697 -0.8060 -0.7227  0.0115
 3629SOL     OW22345   4.503   1.390   8.659 -0.3978 -0.1992 -0.1366
 3629SOL    HW122346   4.544   1.472   8.629  0.1171 -0.1110  0.8248
 3629SOL    HW222347   4.418   1.397   8.616  0.2843  2.5613 -1.0826
 3630SOL     OW22348   3.119   1.148   2.863  0.0474  0.5666  0.1815
 3630SOL    HW122349   3.126   1.214   2.794 -1.8761 -0.7552 -1.2587
 3630SOL    HW222350   3.207   1.119   2.888  0.6864  1.0332 -1.5437
 3631SOL     OW22351   3.326   0.146   7.344  0.3011  0.0492  0.0680
 3631SOL    HW122352   3.363   0.184   7.423 -0.8664  2.1384 -0.3818
 3631SOL    HW222353   3.367   0.190   7.270  1.7739  0.6070  1.2375
 3632SOL     OW22354   3.642   4.428   6.081 -0.6199  0.3287 -0.5183
 3632SOL    HW122355   3.663   4.508   6.129 -0.9985 -0.8781  1.6361
 3632SOL    HW222356   3.567   4.394   6.128  1.6699  0.6536  3.3838
 3633SOL     OW22357   2.472   3.935   0.798 -0.2715 -0.3073 -0.0811
 3633SOL    HW122358   2.503   3.967   0.882 -1.4120 -1.4688  0.7877
 3633SOL    HW222359   2.419   3.862   0.828  0.6624 -0.2551  1.6604
 3634SOL     OW22360   3.537   0.455   3.352 -0.5585 -0.4730 -0.0901
 3634SOL    HW122361   3.572   0.372   3.321 -0.5780 -1.1301  1.6388
 3634SOL    HW222362   3.594   0.479   3.425 -0.0097  0.1790 -0.7379
 3635SOL     OW22363   1.697   3.349   6.262  0.2458  0.6684  0.1687
 3635SOL    HW122364   1.766   3.284   6.248  0.0795  0.6913 -0.7986
 3635SOL    HW222365   1.628   3.302   6.214  0.1650  0.6217  0.3326
 3636SOL     OW22366   0.921   1.388  11.279  0.0991  0.2994  0.1415
 3636SOL    HW122367   0.934   1.360  11.188 -1.2831 -1.1215  0.3708
 3636SOL    HW222368   0.850   1.452  11.274 -0.7455 -0.7693 -1.5506
 3637SOL     OW22369   3.110   0.973   5.369 -0.9982 -0.2509  0.2370
 3637SOL    HW122370   3.143   0.905   5.310 -2.3267 -0.2179 -0.5436
 3637SOL    HW222371   3.076   1.039   5.309  1.9262  1.5118  0.5024
 3638SOL     OW22372   0.254   0.272   4.617  0.0251 -0.9075 -0.0054
 3638SOL    HW122373   0.286   0.306   4.534  0.7477  1.2256  1.1396
 3638SOL    HW222374   0.183   0.225   4.575 -0.6900  1.0720 -1.0096
 3639SOL     OW22375   3.349   3.687   5.471 -0.2359  0.1180  0.1476
 3639SOL    HW122376   3.349   3.771   5.518  0.5429  0.0900  0.2017
 3639SOL    HW222377   3.294   3.710   5.396 -1.7797 -0.9418  0.9654
 3640SOL     OW22378   2.547   2.230   8.472 -0.8879 -0.5112  0.1430
 3640SOL    HW122379   2.573   2.240   8.381  0.2445 -1.3403  0.3753
 3640SOL    HW222380   2.616   2.268   8.526  0.1974  0.3953 -1.9102
 3641SOL     OW22381   0.423   4.510   9.401  0.0800 -0.1795  0.3622
 3641SOL    HW122382   0.515   4.522   9.427 -0.2488  0.2988  1.3216
 3641SOL    HW222383   0.389   4.462   9.476  0.7595 -1.9094 -0.4568
 3642SOL     OW22384   0.225   3.996   5.109 -0.3457 -0.5336  0.3709
 3642SOL    HW122385   0.236   3.920   5.165 -1.3359 -1.6563 -0.9337
 3642SOL    HW222386   0.176   3.963   5.033 -2.3491  1.7371  0.6840
 3643SOL     OW22387   4.176   0.511   4.313  0.4112 -0.3010  0.4972
 3643SOL    HW122388   4.249   0.451   4.328  0.2086 -0.5912  0.3232
 3643SOL    HW222389   4.184   0.549   4.225 -1.2714  1.7785  1.2338
 3644SOL     OW22390   4.661   3.686  17.141  0.5213  0.2438 -0.2587
 3644SOL    HW122391   0.002   3.712  17.207 -0.0040 -0.4333  0.5148
 3644SOL    HW222392   4.623   3.770  17.115  3.7732  1.3929 -1.3774
 3645SOL     OW22393   3.478   3.085   1.482 -0.8355 -0.1755  0.8491
 3645SOL    HW122394   3.436   3.112   1.563 -0.8443  0.6669  0.5697
 3645SOL    HW222395   3.546   3.023   1.508  1.4031  1.2026 -1.6574
 3646SOL     OW22396   3.071   0.328   7.554 -0.2486 -0.4230 -0.1100
 3646SOL    HW122397   3.034   0.242   7.572  0.6998 -0.5752  1.1477
 3646SOL    HW222398   3.011   0.391   7.593 -0.2762  0.6928 -1.9597
 3647SOL     OW22399   3.792   3.907   6.080 -0.3385  0.5174 -0.2417
 3647SOL    HW122400   3.808   3.813   6.080  0.1427  0.5955  0.6369
 3647SOL    HW222401   3.836   3.940   6.159  2.0306 -2.5575 -0.2668
 3648SOL     OW22402   1.250   0.608   6.710 -0.0578  0.2377 -0.4586
 3648SOL    HW122403   1.194   0.684   6.692 -2.1944 -1.2449 -0.0537
 3648SOL    HW222404   1.293   0.609   6.624  2.0756 -1.1126  0.5863
 3649SOL     OW22405   0.794   0.041   5.355 -0.6594  0.8764 -0.2199
 3649SOL    HW122406   0.753   0.111   5.406 -0.3817  0.8626  0.0173
 3649SOL    HW222407   0.727   4.696   5.358 -0.8016  0.9888 -0.7510
 3650SOL     OW22408   0.009   3.149  15.754  0.2966  0.0446  0.0305
 3650SOL    HW122409   0.027   3.064  15.794 -0.6961 -0.9636 -1.6797
 3650SOL    HW222410   0.038   3.138  15.663  1.6680  1.7560  0.2521
 3651SOL     OW22411   3.054   4.415   7.494 -0.1368  0.4067 -0.6416
 3651SOL    HW122412   3.056   4.414   7.399  1.9829  1.1978 -0.6030
 3651SOL    HW222413   2.981   4.476   7.504  0.1675  0.9887 -1.9888
 3652SOL     OW22414   0.390   1.999   6.211 -0.2086  0.0878 -0.3889
 3652SOL    HW122415   0.423   2.033   6.128  0.5124  0.2069 -0.0513
 3652SOL    HW222416   0.377   1.906   6.192 -1.3668  0.3634 -0.9643
 3653SOL     OW22417   3.759   3.870   3.676  0.5169 -0.6454  0.6557
 3653SOL    HW122418   3.680   3.833   3.636 -1.4913 -0.8870  4.8733
 3653SOL    HW222419   3.791   3.921   3.601  1.5429 -0.4618  1.2312
 3654SOL     OW22420   3.802   3.156   4.525  0.2368 -0.1455  0.3004
 3654SOL    HW122421   3.839   3.085   4.577 -3.0507 -1.5792  0.7094
 3654SOL    HW222422   3.878   3.205   4.496  0.4459  0.8772  2.6425
 3655SOL     OW22423   4.437   3.422   0.111 -0.1994  0.1161 -0.2870
 3655SOL    HW122424   4.449   3.352   0.047  1.4445  0.1916 -0.0691
 3655SOL    HW222425   4.452   3.500   0.057  0.7484 -1.2704 -2.0539
 3656SOL     OW22426   0.255   1.604  12.516 -0.9643  0.3137 -0.0977
 3656SOL    HW122427   0.328   1.601  12.454  0.2557 -0.9861  1.3947
 3656SOL    HW222428   0.295   1.562  12.592 -0.0964 -1.2668 -1.4226
 3657SOL     OW22429   1.259   1.453   5.648 -0.3670 -0.9140  0.2062
 3657SOL    HW122430   1.278   1.439   5.740 -2.3182  0.9470  0.8828
 3657SOL    HW222431   1.219   1.540   5.644 -1.5871 -1.4760 -0.0301
 3658SOL     OW22432   0.920   3.367   9.424 -0.5687  0.3507  0.9184
 3658SOL    HW122433   0.910   3.426   9.349  1.7530 -1.0779 -0.5292
 3658SOL    HW222434   1.013   3.346   9.416 -0.5211  0.6359  0.7455
 3659SOL     OW22435   4.656   2.434   7.825  0.2630 -0.2815  0.6539
 3659SOL    HW122436   0.001   2.461   7.763  0.5124 -1.1739  0.5439
 3659SOL    HW222437   4.601   2.511   7.840 -0.4740 -0.3607 -1.7053
 3660SOL     OW22438   4.303   0.268   3.947  0.1939 -0.2814  0.8147
 3660SOL    HW122439   4.376   0.262   3.885  0.4013  0.9996  0.9284
 3660SOL    HW222440   4.229   0.306   3.900  0.3751 -1.6608 -0.5956
 3661SOL     OW22441   0.603   1.338   9.288  0.0725 -0.2976 -0.7104
 3661SOL    HW122442   0.589   1.431   9.271 -0.4552 -0.2175  0.1295
 3661SOL    HW222443   0.671   1.354   9.353  1.1117 -2.3058 -1.3308
 3662SOL     OW22444   3.364   4.056   5.117  0.5887 -0.0307  0.4508
 3662SOL    HW122445   3.437   4.109   5.149  0.6567 -1.2655  2.3420
 3662SOL    HW222446   3.300   4.120   5.085 -0.4451 -0.4092  1.7205
 3663SOL     OW22447   0.002   3.530   6.499 -0.7355  0.0700  0.4014
 3663SOL    HW122448   4.635   3.507   6.521  0.7066 -2.0001  4.1489
 3663SOL    HW222449   4.723   3.486   6.414 -0.4079 -0.0229  0.4402
 3664SOL     OW22450   0.800   2.202  11.730  0.1251  0.2269  0.0130
 3664SOL    HW122451   0.831   2.189  11.640  1.9069  2.4951  0.3190
 3664SOL    HW222452   0.769   2.290  11.711 -0.6741 -0.0121  0.1912
 3665SOL     OW22453   1.800   0.392  15.974  0.9001 -0.9280 -0.1589
 3665SOL    HW122454   1.758   0.307  15.980  0.7172 -0.7577  1.0776
 3665SOL    HW222455   1.722   0.447  15.986  1.0761 -0.2713 -2.1129
 3666SOL     OW22456   3.901   2.147  16.039  0.1570 -0.3459 -0.4492
 3666SOL    HW122457   3.949   2.169  15.959  0.1290  1.2906 -0.0158
 3666SOL    HW222458   3.926   2.222  16.094  1.3078 -0.3797 -0.9269
 3667SOL     OW22459   3.473   2.783   0.932  0.4040  0.7076  0.7637
 3667SOL    HW122460   3.397   2.766   0.877  1.2771  0.2287 -0.2947
 3667SOL    HW222461   3.540   2.807   0.867  0.8207 -0.5406  0.7317
 3668SOL     OW22462   3.022   4.289   4.908 -0.0559  0.1037  0.6495
 3668SOL    HW122463   3.080   4.215   4.886 -1.1756 -0.5473 -0.0800
 3668SOL    HW222464   3.066   4.328   4.984 -0.2960 -0.6971  1.2127
 3669SOL     OW22465   1.346   4.050   7.680 -0.3534 -0.3319  0.0572
 3669SOL    HW122466   1.439   4.047   7.656 -0.3667  2.3710 -0.3466
 3669SOL    HW222467   1.315   3.962   7.662  1.1431 -0.4725 -1.7813
 3670SOL     OW22468   2.679   3.319   8.577  0.3733  0.2698 -0.3887
 3670SOL    HW122469   2.682   3.395   8.519  0.2435  0.8980  0.4315
 3670SOL    HW222470   2.658   3.360   8.661  1.6077 -0.1050  0.1036
 3671SOL     OW22471   3.581   3.907   2.652  0.7248  0.0227  0.4935
 3671SOL    HW122472   3.553   3.853   2.726 -1.1847 -0.4913 -0.6153
 3671SOL    HW222473   3.659   3.952   2.685 -0.1233  0.7925  1.4557
 3672SOL     OW22474   2.767   1.565   5.821 -0.3558 -0.5670 -0.2191
 3672SOL    HW122475   2.856   1.575   5.785 -0.1641  0.2831  0.4971
 3672SOL    HW222476   2.724   1.544   5.738 -0.0297  2.7487 -1.2103
 3673SOL     OW22477   4.437   4.259   2.564 -0.3107  0.5252  0.2935
 3673SOL    HW122478   4.478   4.175   2.542  0.5429  1.2999 -1.0201
 3673SOL    HW222479   4.492   4.321   2.517  0.8466 -0.6506  0.0945
 3674SOL     OW22480   1.035   2.955  10.400 -0.4540 -0.3805  0.1323
 3674SOL    HW122481   0.957   3.010  10.397  0.4545  0.9547  0.8188
 3674SOL    HW222482   1.047   2.945  10.495 -0.9874  0.7202  0.3175
 3675SOL     OW22483   0.648   3.509   1.622  0.1974  0.0367  0.2050
 3675SOL    HW122484   0.675   3.493   1.532  0.0263  0.2504  0.1147
 3675SOL    HW222485   0.695   3.591   1.639  0.8240  0.0754 -1.6736
 3676SOL     OW22486   4.343   2.325  11.534 -0.6624  0.0527  0.0630
 3676SOL    HW122487   4.436   2.344  11.533 -0.4834 -0.8007  0.9551
 3676SOL    HW222488   4.332   2.238  11.496  3.1326 -0.2266 -0.3065
 3677SOL     OW22489   2.575   1.038   4.739 -0.1868  0.3787  1.2024
 3677SOL    HW122490   2.535   1.055   4.653  0.8982  1.9102  0.9889
 3677SOL    HW222491   2.506   1.085   4.786 -0.1166 -0.5351  2.2210
 3678SOL     OW22492   2.030   3.691  10.018  0.6382  0.1238  0.2503
 3678SOL    HW122493   2.046   3.653  10.104  0.4759 -3.2253 -1.2213
 3678SOL    HW222494   2.091   3.763  10.035  0.3796  0.2599  0.5911
 3679SOL     OW22495   1.615   2.924   8.193 -0.9751  0.0176  0.0776
 3679SOL    HW122496   1.553   2.890   8.257  1.1205 -0.6577  1.7673
 3679SOL    HW222497   1.693   2.954   8.240 -1.6355  0.4776  0.8857
 3680SOL     OW22498   3.915   0.118  14.734 -0.3475  0.0636 -0.2327
 3680SOL    HW122499   3.951   0.053  14.673 -0.5723  0.4322 -0.7559
 3680SOL    HW222500   3.932   0.196  14.681  0.8056 -0.5122 -0.7143
 3681SOL     OW22501   0.236   3.474  15.389  0.3115  0.2855  0.0263
 3681SOL    HW122502   0.262   3.470  15.297 -0.3791  1.6767 -0.2286
 3681SOL    HW222503   0.231   3.383  15.418 -0.1489  0.1192 -0.5895
 3682SOL     OW22504   0.977   1.190  16.546 -0.0323  0.2800  0.1852
 3682SOL    HW122505   0.973   1.124  16.616 -3.7716  2.1523  1.7479
 3682SOL    HW222506   1.066   1.218  16.566  0.9528 -2.0827 -0.8627
 3683SOL     OW22507   4.022   1.431   4.602 -0.5017 -0.2113 -0.8848
 3683SOL    HW122508   4.047   1.504   4.658 -0.8328 -0.3692 -0.5354
 3683SOL    HW222509   3.943   1.395   4.642  0.0538 -0.5353 -0.0801
 3684SOL     OW22510   3.310   2.860  15.529 -0.3885  0.1124  0.0816
 3684SOL    HW122511   3.254   2.783  15.535 -2.0339  1.2071 -1.3437
 3684SOL    HW222512   3.396   2.819  15.518 -1.6636 -2.5382  0.0632
 3685SOL     OW22513   0.020   1.753   3.785  0.2322  0.2864  0.3500
 3685SOL    HW122514   4.697   1.671   3.801  1.3815 -0.7887 -1.7544
 3685SOL    HW222515   4.711   1.801   3.861 -3.4013  1.7118 -2.0994
 3686SOL     OW22516   3.020   1.274   6.291 -0.1092  0.0060 -0.2331
 3686SOL    HW122517   3.040   1.315   6.206  1.4218  2.7224  1.4259
 3686SOL    HW222518   2.952   1.212   6.266 -0.6811 -0.2942  2.0750
 3687SOL     OW22519   0.149   4.099   7.249  0.1840  0.2253  0.6612
 3687SOL    HW122520   0.236   4.129   7.278 -0.5039  1.7337  1.1841
 3687SOL    HW222521   0.091   4.140   7.313 -0.3739  0.6491 -0.1253
 3688SOL     OW22522   0.088   3.935   3.365  0.3238  0.2155  0.3821
 3688SOL    HW122523   0.104   3.955   3.273  0.2248 -0.0623  0.3063
 3688SOL    HW222524   0.057   3.845   3.357  2.8021 -0.3853 -2.4366
 3689SOL     OW22525   1.151   0.068  14.620 -0.1284 -0.4819 -0.0531
 3689SOL    HW122526   1.164   0.103  14.532 -1.7762 -0.7269 -0.4037
 3689SOL    HW222527   1.078   0.122  14.651  0.2390 -0.1025  0.1362
 3690SOL     OW22528   2.592   0.620   2.608  0.1814  0.5402 -0.4980
 3690SOL    HW122529   2.584   0.712   2.631  0.1577 -0.1669  2.2655
 3690SOL    HW222530   2.659   0.618   2.540 -0.4615 -1.9986 -1.0652
 3691SOL     OW22531   2.515   1.107   5.796  0.0915 -0.1439 -0.1637
 3691SOL    HW122532   2.586   1.070   5.743 -0.2792  2.0574 -2.1783
 3691SOL    HW222533   2.491   1.025   5.840  1.1998 -0.6747 -0.5476
 3692SOL     OW22534   4.183   0.425   6.790  0.1144 -0.6040  0.4450
 3692SOL    HW122535   4.176   0.330   6.801  0.4056 -0.7585 -0.7093
 3692SOL    HW222536   4.108   0.446   6.734 -0.6281 -0.6442  1.4264
 3693SOL     OW22537   4.455   3.673   5.847  0.5381 -0.9594 -0.1227
 3693SOL    HW122538   4.411   3.737   5.791  1.0502 -0.7807 -0.3281
 3693SOL    HW222539   4.474   3.604   5.784 -1.3388 -1.0192 -0.6027
 3694SOL     OW22540   2.162   0.985   6.640 -0.0071  0.2214  0.2324
 3694SOL    HW122541   2.070   0.960   6.639  0.0442  0.0303  0.2090
 3694SOL    HW222542   2.158   1.042   6.563 -1.3123 -0.3511 -0.1243
 3695SOL     OW22543   2.092   3.919  16.720 -0.3726 -0.6578 -0.6601
 3695SOL    HW122544   2.105   4.003  16.763 -0.7007 -0.8990 -0.0979
 3695SOL    HW222545   2.170   3.921  16.665 -0.4559 -0.5543 -0.7741
 3696SOL     OW22546   3.897   3.612  13.702  0.4093  0.1309  0.2827
 3696SOL    HW122547   3.852   3.696  13.707 -0.2982 -0.0833 -2.5429
 3696SOL    HW222548   3.902   3.589  13.795  0.6615  0.4105  0.3412
 3697SOL     OW22549   3.135   2.548   3.693  0.1619 -0.3524 -0.3783
 3697SOL    HW122550   3.125   2.606   3.617  1.3066  0.7951  0.3532
 3697SOL    HW222551   3.068   2.484   3.667  1.4576 -0.8923 -2.4728
 3698SOL     OW22552   0.701   4.285   3.603 -0.4885  0.3443  0.2354
 3698SOL    HW122553   0.652   4.290   3.685 -3.3089 -0.0481 -1.4375
 3698SOL    HW222554   0.630   4.245   3.553 -1.1229 -0.8338  2.0678
 3699SOL     OW22555   1.536   3.139   1.107  1.1258  0.1732  0.7874
 3699SOL    HW122556   1.541   3.059   1.055  2.0728  1.8682 -1.6890
 3699SOL    HW222557   1.628   3.157   1.130  1.2844 -1.1177  1.1996
 3700SOL     OW22558   2.795   1.890   3.995  0.4804  0.3334  0.1503
 3700SOL    HW122559   2.787   1.795   3.987 -1.9087  0.5351 -0.0780
 3700SOL    HW222560   2.863   1.906   4.060 -0.6499 -2.2124  1.9435
 3701SOL     OW22561   3.585   4.210   5.180  0.4184 -0.2697 -0.1512
 3701SOL    HW122562   3.676   4.240   5.180  0.0185  0.9384  0.5980
 3701SOL    HW222563   3.539   4.279   5.228 -0.5530 -1.8405  1.1621
 3702SOL     OW22564   2.918   3.551   1.145 -0.4529  0.4745  0.3171
 3702SOL    HW122565   2.829   3.527   1.171 -1.2440  0.2807 -2.5346
 3702SOL    HW222566   2.940   3.467   1.105  1.3514  0.0555  2.2236
 3703SOL     OW22567   0.117   2.612   7.677  0.3565 -0.5229 -0.3458
 3703SOL    HW122568   0.201   2.598   7.633 -0.9118 -1.3141 -2.5340
 3703SOL    HW222569   0.125   2.707   7.677  0.9451 -0.5732  2.9850
 3704SOL     OW22570   3.797   2.804   5.423  0.3645  0.1443 -0.6685
 3704SOL    HW122571   3.880   2.826   5.465  0.6918 -0.0655 -1.2145
 3704SOL    HW222572   3.788   2.877   5.362  1.7121  0.9214  0.0694
 3705SOL     OW22573   0.317   3.444   7.304  0.2577 -0.2293  0.4253
 3705SOL    HW122574   0.284   3.410   7.221  2.4217  0.1059 -0.5667
 3705SOL    HW222575   0.273   3.529   7.298 -3.0096 -2.0166 -0.9774
 3706SOL     OW22576   4.560   2.287   3.216  0.2175  0.2660  0.0643
 3706SOL    HW122577   4.579   2.381   3.209 -0.0792  0.3338  0.1374
 3706SOL    HW222578   4.534   2.273   3.125 -1.4266  1.5262  0.3397
 3707SOL     OW22579   1.404   0.011   8.404  0.3724  0.3526 -0.5915
 3707SOL    HW122580   1.442   4.651   8.380  2.7891  1.8236 -1.9080
 3707SOL    HW222581   1.312   4.714   8.422  0.9045 -1.8856 -0.5536
 3708SOL     OW22582   4.588   3.363   4.755 -0.2087 -0.0114 -0.0383
 3708SOL    HW122583   4.651   3.358   4.827 -0.9910 -0.4616  0.6230
 3708SOL    HW222584   4.560   3.272   4.752  0.0122 -0.1067  0.6314
 3709SOL     OW22585   2.121   3.264   0.384 -0.1354 -0.3021  0.0624
 3709SOL    HW122586   2.099   3.174   0.359  1.3553 -0.6466  0.0139
 3709SOL    HW222587   2.153   3.303   0.303  1.2313 -0.6504  0.4425
 3710SOL     OW22588   0.987   1.765   0.716  0.0228  0.3055 -0.0187
 3710SOL    HW122589   1.039   1.830   0.765  0.5723 -1.1223  1.2858
 3710SOL    HW222590   1.054   1.697   0.709 -1.5688 -1.0329 -2.1856
 3711SOL     OW22591   2.288   0.451   0.211  0.3140  0.2679  0.6181
 3711SOL    HW122592   2.347   0.484   0.278 -0.4126 -0.1117  1.4411
 3711SOL    HW222593   2.321   0.361   0.201  0.3759  0.6694 -2.8358
 3712SOL     OW22594   0.475   0.854   9.248 -0.2682  0.2950  0.5883
 3712SOL    HW122595   0.571   0.853   9.253 -0.3010 -0.7295  0.8168
 3712SOL    HW222596   0.461   0.946   9.272  0.6594 -0.1743  2.8701
 3713SOL     OW22597   3.152   3.424  12.442 -0.2491  0.2969  0.2745
 3713SOL    HW122598   3.240   3.442  12.407  0.0551 -0.9281  0.4137
 3713SOL    HW222599   3.186   3.373  12.515  0.0521  1.5325  1.0064
 3714SOL     OW22600   2.049   0.614   4.597 -0.0545 -0.0444  0.2670
 3714SOL    HW122601   1.961   0.627   4.563 -0.4950 -3.2469  0.1838
 3714SOL    HW222602   2.056   0.697   4.644 -1.6411  1.2857 -1.8589
 3715SOL     OW22603   0.236   3.658   7.118 -0.1228  0.6217  0.2629
 3715SOL    HW122604   0.168   3.603   7.079 -0.2569  1.5160 -0.7396
 3715SOL    HW222605   0.184   3.738   7.111  1.4371  1.7706  1.8193
 3716SOL     OW22606   2.319   3.215   0.770  0.1343 -0.1021 -0.3834
 3716SOL    HW122607   2.345   3.306   0.769  0.9053 -0.3216  0.3737
 3716SOL    HW222608   2.359   3.177   0.848 -1.2034 -1.1016 -0.1786
 3717SOL     OW22609   2.479   0.981  17.420 -0.3230  0.1960  0.1746
 3717SOL    HW122610   2.554   0.933  17.386  0.0506  0.3953  0.7105
 3717SOL    HW222611   2.406   0.918  17.428 -0.6937  0.6422  0.3012
 3718SOL     OW22612   2.692   3.209   4.039 -0.1533 -0.3010 -0.3305
 3718SOL    HW122613   2.694   3.296   4.078  1.8397 -0.3056 -0.4564
 3718SOL    HW222614   2.703   3.148   4.112 -0.6041  0.7231  0.5976
 3719SOL     OW22615   3.175   2.798  14.433 -0.0458 -0.3173 -0.3178
 3719SOL    HW122616   3.161   2.705  14.416 -1.1975 -0.0206 -1.0127
 3719SOL    HW222617   3.241   2.816  14.366 -0.9781  1.9188 -0.6391
 3720SOL     OW22618   1.991   4.444   6.484 -0.0438 -0.2035 -0.1666
 3720SOL    HW122619   2.087   4.440   6.483  0.1172  2.2452  2.4339
 3720SOL    HW222620   1.976   4.467   6.576 -3.6839 -2.9737 -0.0544
 3721SOL     OW22621   3.956   1.353   9.883 -0.3761  0.0860 -0.6375
 3721SOL    HW122622   3.919   1.322   9.966  1.2895  2.1211  0.8460
 3721SOL    HW222623   4.049   1.348   9.901 -0.8097  0.7685  1.7787
 3722SOL     OW22624   1.248   3.238   3.700 -0.1865  0.4950  0.0819
 3722SOL    HW122625   1.162   3.249   3.661 -0.8228 -1.3124  0.9975
 3722SOL    HW222626   1.298   3.193   3.632 -1.6123 -1.3162  0.2170
 3723SOL     OW22627   2.357   1.605   6.946 -0.1606 -0.0143  0.2340
 3723SOL    HW122628   2.306   1.662   7.004  0.1168  0.2583  0.2124
 3723SOL    HW222629   2.362   1.532   7.009  2.8159  0.1456  0.2060
 3724SOL     OW22630   3.020   1.080   5.735  0.1768  0.1928 -0.2629
 3724SOL    HW122631   3.102   1.077   5.687  0.3682 -1.7335  0.1781
 3724SOL    HW222632   2.987   0.991   5.721 -2.0905  0.9300  0.3317
 3725SOL     OW22633   2.433   1.127   2.405  0.0152 -0.3636  0.1877
 3725SOL    HW122634   2.382   1.085   2.336 -0.2715 -1.1311  0.8566
 3725SOL    HW222635   2.514   1.150   2.359 -0.5615  1.9499  0.3224
 3726SOL     OW22636   3.192   0.871  16.370 -0.4471  0.0100 -0.4601
 3726SOL    HW122637   3.265   0.816  16.342 -2.7105 -3.5338  0.7257
 3726SOL    HW222638   3.219   0.957  16.338  0.4936  0.5258  1.7095
 3727SOL     OW22639   3.959   1.534  14.456  0.2757  0.5558 -0.4249
 3727SOL    HW122640   4.010   1.547  14.376  0.8097 -2.4651 -0.5961
 3727SOL    HW222641   4.032   1.528  14.517  0.8777 -1.9791 -1.3875
 3728SOL     OW22642   0.894   3.780   9.935  0.0787  0.1005 -0.1203
 3728SOL    HW122643   0.835   3.705   9.929  1.4009 -0.8260 -1.6336
 3728SOL    HW222644   0.972   3.730   9.913  0.4341 -0.5864  2.7877
 3729SOL     OW22645   1.781   3.337   2.062  0.3280 -0.0842  0.3011
 3729SOL    HW122646   1.708   3.284   2.094 -0.2662  1.4565  1.4731
 3729SOL    HW222647   1.845   3.267   2.074 -0.5707 -0.7589  1.2069
 3730SOL     OW22648   1.855   0.389  11.245  0.3437 -0.1109 -0.1205
 3730SOL    HW122649   1.881   0.307  11.204 -1.8440  0.4565 -2.6393
 3730SOL    HW222650   1.794   0.431  11.184 -0.7590 -0.8632  0.4460
 3731SOL     OW22651   0.638   3.351   1.208 -0.3235  0.4894  0.1841
 3731SOL    HW122652   0.586   3.423   1.173  0.2478 -0.9155 -3.4622
 3731SOL    HW222653   0.690   3.395   1.276 -0.5390  1.5467 -0.3352
 3732SOL     OW22654   4.239   2.977   6.982  0.3156  0.1537 -0.2972
 3732SOL    HW122655   4.149   2.983   6.949 -0.9622 -0.3830  3.0290
 3732SOL    HW222656   4.278   2.980   6.895 -1.4420  2.6341 -0.9919
 3733SOL     OW22657   0.688   2.834   3.630 -0.6020  0.3965 -0.5240
 3733SOL    HW122658   0.604   2.824   3.585 -0.8051  3.4622 -0.8356
 3733SOL    HW222659   0.747   2.791   3.567  0.3151  0.9688 -0.0447
 3734SOL     OW22660   0.656   3.973   3.768  0.3092 -0.6059  0.5223
 3734SOL    HW122661   0.610   4.010   3.843 -0.2115 -0.3390  0.0743
 3734SOL    HW222662   0.746   3.964   3.797  1.0107  0.3594 -1.3470
 3735SOL     OW22663   1.316   1.253   8.516 -0.1430 -0.2351 -0.1099
 3735SOL    HW122664   1.365   1.201   8.579 -0.1310 -0.7701 -0.5558
 3735SOL    HW222665   1.390   1.284   8.465 -1.0229  0.4922 -0.9538
 3736SOL     OW22666   2.377   4.087  11.847  0.4285 -0.1384  0.1644
 3736SOL    HW122667   2.414   4.002  11.872  1.6825  0.3999  0.0984
 3736SOL    HW222668   2.313   4.105  11.917  1.7519 -1.8103  1.8219
 3737SOL     OW22669   2.029   0.667   3.084 -0.3122 -0.2234 -0.0559
 3737SOL    HW122670   1.979   0.586   3.079  0.0954 -0.5793  1.4299
 3737SOL    HW222671   2.028   0.687   2.991 -2.0241  0.5930  0.1392
 3738SOL     OW22672   0.529   2.371  11.873 -0.3218 -0.3778 -0.1584
 3738SOL    HW122673   0.584   2.413  11.807 -2.2219  0.0874 -1.4416
 3738SOL    HW222674   0.446   2.372  11.825 -0.1767  2.3323 -0.3942
 3739SOL     OW22675   3.705   3.410   2.134  0.1695  0.5606  0.0109
 3739SOL    HW122676   3.619   3.451   2.137 -0.1787 -0.3032  2.3414
 3739SOL    HW222677   3.703   3.369   2.048  1.3996 -1.5346  0.9375
 3740SOL     OW22678   2.655   0.876   2.052 -0.4970 -0.3062  0.4224
 3740SOL    HW122679   2.573   0.837   2.083 -0.4660 -0.6093  0.1310
 3740SOL    HW222680   2.637   0.899   1.961 -0.2621 -0.8306  0.2380
 3741SOL     OW22681   4.607   4.034   5.133 -0.0759  0.1566 -0.7440
 3741SOL    HW122682   4.541   3.965   5.138  1.6418 -1.2926  1.7040
 3741SOL    HW222683   4.630   4.015   5.042 -1.7353 -0.8390 -0.9599
 3742SOL     OW22684   4.721   0.600   5.012  0.6013  0.6335  0.6903
 3742SOL    HW122685   4.669   0.669   4.971 -0.8349 -0.7888  0.0953
 3742SOL    HW222686   0.002   0.531   4.946 -3.5010  2.7752 -1.8700
 3743SOL     OW22687   1.893   2.770   3.142 -0.0716 -0.1527 -0.5790
 3743SOL    HW122688   1.926   2.771   3.052 -0.9299 -1.4206 -0.8942
 3743SOL    HW222689   1.800   2.754   3.130 -0.3019 -0.6065  1.8430
 3744SOL     OW22690   1.808   1.582  16.258 -0.1149 -0.3213 -0.1988
 3744SOL    HW122691   1.865   1.514  16.221 -0.7639 -1.4645  0.8974
 3744SOL    HW222692   1.853   1.623  16.332 -0.0374  0.4531 -0.6740
 3745SOL     OW22693   4.516   4.109   1.162 -0.0298  0.4769  0.2631
 3745SOL    HW122694   4.607   4.103   1.133 -0.1302  0.5386 -0.0626
 3745SOL    HW222695   4.479   4.129   1.076 -1.4125  0.8611  0.9444
 3746SOL     OW22696   2.150   2.011   4.623  0.3405 -0.5401  0.6016
 3746SOL    HW122697   2.203   1.968   4.555 -0.3690  0.8280 -0.8386
 3746SOL    HW222698   2.201   2.081   4.663  2.8314 -0.9616 -1.8148
 3747SOL     OW22699   0.728   3.996   0.773 -0.2900  0.1527  0.1978
 3747SOL    HW122700   0.811   4.021   0.814  0.7527 -0.4467 -1.5383
 3747SOL    HW222701   0.709   4.077   0.726  3.6123  0.4326 -0.9311
 3748SOL     OW22702   3.745   3.018   5.299  0.5181  0.3427 -0.0429
 3748SOL    HW122703   3.686   3.011   5.224 -0.0441  3.6387  0.0805
 3748SOL    HW222704   3.760   3.113   5.304  0.3161  0.3942 -0.4086
 3749SOL     OW22705   0.740   3.616   2.159  0.6777  0.2704 -0.2941
 3749SOL    HW122706   0.820   3.668   2.162  0.8374  0.1144 -1.7589
 3749SOL    HW222707   0.689   3.673   2.101 -0.4853 -0.1907  0.2555
 3750SOL     OW22708   4.586   0.596  16.644 -0.0107  0.2891  0.5704
 3750SOL    HW122709   4.618   0.663  16.584 -0.9990  0.4328  0.2058
 3750SOL    HW222710   4.567   0.645  16.723  0.8989  0.3788  0.7392
 3751SOL     OW22711   2.630   1.943   1.855 -0.5426  0.4183 -0.1797
 3751SOL    HW122712   2.632   1.894   1.772 -0.4260 -4.2789  2.6044
 3751SOL    HW222713   2.654   1.874   1.917 -0.4591 -0.9087 -1.6756
 3752SOL     OW22714   2.400   1.132   6.697  0.5185  0.0196 -0.1695
 3752SOL    HW122715   2.323   1.078   6.684 -0.6796  2.0841 -1.5150
 3752SOL    HW222716   2.407   1.135   6.793 -1.8966 -0.6151  0.0137
 3753SOL     OW22717   0.085   0.097   8.167 -0.3125  0.3584 -0.2894
 3753SOL    HW122718   0.159   0.041   8.145 -0.3026 -0.1067  0.9613
 3753SOL    HW222719   0.016   0.031   8.182 -0.1042  0.0863 -0.5314
 3754SOL     OW22720   3.819   3.972   8.038 -0.4333  0.0574  0.0661
 3754SOL    HW122721   3.898   3.936   7.997  1.3605  1.8892  1.8661
 3754SOL    HW222722   3.751   3.907   8.019 -1.2569  1.6484 -2.4000
 3755SOL     OW22723   3.261   0.460   1.975  0.2098 -0.0247 -0.9319
 3755SOL    HW122724   3.206   0.506   2.039 -2.5665 -1.2257 -2.4568
 3755SOL    HW222725   3.305   0.401   2.037  1.4929  0.5397 -1.3179
 3756SOL     OW22726   1.481   1.038   8.248  0.3843 -0.3035 -0.1584
 3756SOL    HW122727   1.494   1.103   8.317  1.3408 -0.4961 -0.1521
 3756SOL    HW222728   1.571   1.046   8.216 -0.1443  0.5403 -1.4280
 3757SOL     OW22729   3.437   0.027   5.024  0.0776 -0.1796 -0.4501
 3757SOL    HW122730   3.523   0.069   5.026 -0.5833  1.1246  0.7992
 3757SOL    HW222731   3.381   0.102   5.005  0.4286  0.0032 -0.7682
 3758SOL     OW22732   2.444   3.067   5.548  0.1352  0.3932  0.8148
 3758SOL    HW122733   2.372   3.123   5.577 -1.4522 -0.8967 -0.6394
 3758SOL    HW222734   2.432   3.078   5.454 -0.1370  2.3694  1.0674
 3759SOL     OW22735   0.846   2.686   9.245 -0.1194 -0.3177  0.5840
 3759SOL    HW122736   0.787   2.627   9.198  0.8202 -0.7877  0.0025
 3759SOL    HW222737   0.842   2.763   9.188 -1.0777 -0.2283  0.7608
 3760SOL     OW22738   2.026   4.607   5.109  0.0573  0.0929 -0.0432
 3760SOL    HW122739   1.945   4.656   5.126  0.5338  0.3382  1.5421
 3760SOL    HW222740   2.022   4.612   5.014  1.1314  1.9849  0.0144
 3761SOL     OW22741   3.474   0.701   8.089  0.6837 -0.1906  0.1787
 3761SOL    HW122742   3.383   0.724   8.107  0.3748  0.2972 -2.0522
 3761SOL    HW222743   3.502   0.645   8.162 -0.1038 -1.6686 -0.6548
 3762SOL     OW22744   4.476   2.372   6.315 -0.1678  0.1601 -0.2084
 3762SOL    HW122745   4.552   2.316   6.298 -0.8818 -0.7838 -0.2826
 3762SOL    HW222746   4.406   2.309   6.298  1.8848 -1.8386 -1.2380
 3763SOL     OW22747   3.649   2.743  10.843 -0.1937 -0.2442  0.1296
 3763SOL    HW122748   3.680   2.764  10.755 -1.6016 -0.2860 -0.3679
 3763SOL    HW222749   3.676   2.652  10.848 -0.2440 -0.2854 -0.4021
 3764SOL     OW22750   2.442   0.399   3.883  0.3572  0.3145  0.7568
 3764SOL    HW122751   2.458   0.451   3.804 -2.3186 -2.4253 -1.6195
 3764SOL    HW222752   2.472   0.467   3.943  1.4576 -0.0065  0.5592
 3765SOL     OW22753   3.048   2.230   5.221 -0.0165  0.0828 -0.1487
 3765SOL    HW122754   3.073   2.205   5.310  2.4533 -0.1197 -0.8994
 3765SOL    HW222755   3.129   2.275   5.198  1.3794 -3.4198 -2.0403
 3766SOL     OW22756   2.792   4.261  17.440  0.1022 -0.4304  0.3465
 3766SOL    HW122757   2.808   4.208  17.517  0.2370  1.5154  1.6507
 3766SOL    HW222758   2.734   4.328  17.477  0.0057 -1.7767  2.5767
 3767SOL     OW22759   0.911   4.058   3.051  0.9820 -0.6966 -1.0428
 3767SOL    HW122760   0.893   4.069   2.958  0.1472 -1.8743 -1.0262
 3767SOL    HW222761   0.848   3.987   3.063 -0.3237  0.4828 -0.9036
 3768SOL     OW22762   2.299   0.009  14.767  0.5845 -0.1879  0.1478
 3768SOL    HW122763   2.318   4.658  14.710  4.5621 -0.0877  1.3020
 3768SOL    HW222764   2.204   0.002  14.764  0.3706  2.2217  1.1625
 3769SOL     OW22765   3.168   3.492   2.756  0.3995 -0.0168 -0.7746
 3769SOL    HW122766   3.190   3.426   2.690 -0.1451  1.0017 -1.9790
 3769SOL    HW222767   3.243   3.551   2.754 -0.8858  1.6453  0.3688
 3770SOL     OW22768   3.441   0.291   5.319 -0.3048 -0.1910  0.3432
 3770SOL    HW122769   3.528   0.279   5.282 -0.9048  1.1089 -1.5255
 3770SOL    HW222770   3.402   0.351   5.255 -1.4758 -0.9450  0.3371
 3771SOL     OW22771   0.349   3.696  15.545  0.0248  0.4357  0.4157
 3771SOL    HW122772   0.370   3.646  15.466 -1.0658  1.4666 -0.5100
 3771SOL    HW222773   0.276   3.639  15.573 -0.3633  0.5452 -0.3842
 3772SOL     OW22774   0.245   4.691  17.396 -0.8835 -0.4926  0.0452
 3772SOL    HW122775   0.162   0.005  17.427  0.3247  2.9460 -0.8840
 3772SOL    HW222776   0.285   4.654  17.474 -0.7210  2.4308  1.3660
 3773SOL     OW22777   1.021   0.093  10.270  0.1083 -0.2813 -0.8828
 3773SOL    HW122778   0.948   0.103  10.331  0.6888 -0.3561 -0.1694
 3773SOL    HW222779   1.093   0.138  10.314 -2.8695  1.6922  2.0007
 3774SOL     OW22780   0.707   4.012   3.335 -0.1642 -0.3637  0.0263
 3774SOL    HW122781   0.709   3.941   3.399  0.3988  0.6445  1.1107
 3774SOL    HW222782   0.713   3.962   3.253 -0.6157 -2.2211  1.1153
 3775SOL     OW22783   3.506   1.573   6.933 -0.1164 -0.0287 -0.3307
 3775SOL    HW122784   3.532   1.488   6.897 -0.7734 -0.6974  0.7677
 3775SOL    HW222785   3.410   1.566   6.925  0.2757 -1.9526 -3.4409
 3776SOL     OW22786   2.673   1.077   7.915  0.0891 -0.2931 -0.0644
 3776SOL    HW122787   2.738   1.007   7.928  0.9329  0.1309 -1.9674
 3776SOL    HW222788   2.725   1.140   7.865 -0.5377  0.8359  0.7052
 3777SOL     OW22789   0.554   0.009   7.778  0.0625  0.2610  0.4764
 3777SOL    HW122790   0.604   4.704   7.856 -0.5459  0.0391  0.7842
 3777SOL    HW222791   0.528   0.098   7.802 -1.0629 -0.2148  1.0074
 3778SOL     OW22792   1.570   2.261   7.438 -0.0697  0.4169  0.5603
 3778SOL    HW122793   1.528   2.176   7.453 -0.2247  0.8744  2.7108
 3778SOL    HW222794   1.659   2.265   7.473 -0.7838 -1.4586  2.5806
 3779SOL     OW22795   3.254   1.828   7.691  0.2315 -0.2972  0.1226
 3779SOL    HW122796   3.290   1.889   7.626 -1.9907 -0.2941 -1.1297
 3779SOL    HW222797   3.263   1.742   7.650 -2.6225  0.2360 -1.6142
 3780SOL     OW22798   2.324   3.475   2.086 -0.7136 -0.0997 -0.0791
 3780SOL    HW122799   2.308   3.381   2.079 -1.7824  0.0656  0.1505
 3780SOL    HW222800   2.409   3.496   2.046 -1.0501  1.7288  0.1345
 3781SOL     OW22801   2.510   4.222  13.708  0.2328 -0.7389 -0.1515
 3781SOL    HW122802   2.428   4.234  13.756 -1.7755  0.3189 -3.8382
 3781SOL    HW222803   2.571   4.271  13.762 -2.1552  0.8779  1.0605
 3782SOL     OW22804   1.947   2.871   3.407  0.4985 -0.6624 -0.6916
 3782SOL    HW122805   1.915   2.860   3.318  0.1650  1.0005 -0.7834
 3782SOL    HW222806   1.994   2.954   3.405  0.2671 -0.5343 -0.7437
 3783SOL     OW22807   1.258   3.245   5.051 -0.0320 -0.2295 -0.6379
 3783SOL    HW122808   1.248   3.338   5.030  1.1257  0.2783  1.1182
 3783SOL    HW222809   1.312   3.244   5.129  0.6335  0.9940 -1.0927
 3784SOL     OW22810   1.869   1.638   4.034  0.2616 -0.0879  0.3553
 3784SOL    HW122811   1.852   1.619   3.941  0.1612 -0.0471  0.3652
 3784SOL    HW222812   1.809   1.580   4.080  1.4737 -0.8939  0.8958
 3785SOL     OW22813   2.248   2.215   6.362  0.8254  0.0736 -0.3742
 3785SOL    HW122814   2.206   2.285   6.312  1.1132  1.1489  0.8696
 3785SOL    HW222815   2.286   2.165   6.290  2.2284 -1.7701  1.6515
 3786SOL     OW22816   2.464   0.843   5.958  0.0888  0.0841  0.4365
 3786SOL    HW122817   2.477   0.895   6.037  0.0723  0.9195 -0.1158
 3786SOL    HW222818   2.554   0.815   5.943  0.4599  0.5257  1.7982
 3787SOL     OW22819   2.365   0.559   0.875  0.0707  0.0599  0.0558
 3787SOL    HW122820   2.416   0.519   0.945 -3.8775  0.8299  3.3410
 3787SOL    HW222821   2.326   0.488   0.825 -0.4650  0.2110  0.2567
 3788SOL     OW22822   3.446   0.799   6.702  0.1731 -0.1003  0.2929
 3788SOL    HW122823   3.366   0.814   6.753  0.3553  1.6204  0.0543
 3788SOL    HW222824   3.411   0.774   6.616 -1.3667 -0.4866  1.0288
 3789SOL     OW22825   1.083   3.810   3.932 -0.2520  0.7845  0.2382
 3789SOL    HW122826   1.155   3.825   3.870  0.8653 -2.1392  0.8123
 3789SOL    HW222827   1.077   3.893   3.979  1.7267  1.2761 -0.3596
 3790SOL     OW22828   4.196   2.882   9.037 -0.1877  0.4319 -0.4466
 3790SOL    HW122829   4.151   2.804   9.004 -0.6541  0.8729 -0.8579
 3790SOL    HW222830   4.274   2.848   9.079 -0.4609  0.7760  0.3527
 3791SOL     OW22831   4.503   2.373   8.780 -0.0570 -0.5935  0.5221
 3791SOL    HW122832   4.450   2.292   8.780  0.0644 -0.6730  0.7940
 3791SOL    HW222833   4.487   2.391   8.872 -0.8699 -3.8257  1.0131
 3792SOL     OW22834   2.897   0.022   9.209  0.3851  0.0685  0.2221
 3792SOL    HW122835   2.917   0.116   9.206  0.5451  0.0063 -0.4932
 3792SOL    HW222836   2.831   0.027   9.278  2.0720 -1.9848  1.9791
 3793SOL     OW22837   2.729   4.534  16.557  0.4631 -0.2773 -0.0404
 3793SOL    HW122838   2.688   4.476  16.493 -1.7037  1.5002 -0.2696
 3793SOL    HW222839   2.748   4.475  16.630 -0.4558  0.7813  1.0588
 3794SOL     OW22840   1.190   4.494   1.772 -0.5492  0.3798  0.2139
 3794SOL    HW122841   1.278   4.481   1.737 -0.1483  1.7568  0.7202
 3794SOL    HW222842   1.126   4.440   1.726 -0.4783 -0.1012  0.6706
 3795SOL     OW22843   2.679   2.059  15.338 -0.2481  0.1604  0.6370
 3795SOL    HW122844   2.644   1.971  15.346 -0.8922  0.5011  1.6596
 3795SOL    HW222845   2.747   2.038  15.274 -1.1464 -1.8119  0.3406
 3796SOL     OW22846   4.203   1.960   5.722  0.5064 -0.4629  0.6865
 3796SOL    HW122847   4.266   2.032   5.717 -1.0658  0.8790  0.5830
 3796SOL    HW222848   4.132   1.999   5.671  0.4135  1.0366  1.9860
 3797SOL     OW22849   0.825   4.369   1.428  0.4350 -0.4639  0.4031
 3797SOL    HW122850   0.865   4.311   1.493  2.1876 -1.1841 -1.3173
 3797SOL    HW222851   0.739   4.327   1.425 -0.0053  0.4906 -0.2496
 3798SOL     OW22852   0.289   2.515   8.699 -0.4759  0.7290  0.4868
 3798SOL    HW122853   0.197   2.542   8.695 -0.9712 -1.0483  0.1856
 3798SOL    HW222854   0.272   2.437   8.750 -1.5260 -0.1182 -1.1631
 3799SOL     OW22855   0.554   4.537   3.246  0.7693 -0.2565 -0.3154
 3799SOL    HW122856   0.602   4.590   3.183  1.2038 -1.1075 -0.6965
 3799SOL    HW222857   0.609   4.460   3.264  2.0586  0.8094  0.3299
 3800SOL     OW22858   3.761   3.821   7.067 -0.1908 -0.3182 -0.0241
 3800SOL    HW122859   3.744   3.839   7.160  0.4655  0.9449 -0.1417
 3800SOL    HW222860   3.795   3.904   7.034 -1.5141  0.1722 -0.1576
 3801SOL     OW22861   2.766   0.899   4.896 -0.1535  0.1793  0.6593
 3801SOL    HW122862   2.685   0.941   4.864  2.0243  2.7909 -1.4286
 3801SOL    HW222863   2.747   0.900   4.990  1.6334  1.5556  0.9913
 3802SOL     OW22864   3.814   3.569   7.467  0.2474 -0.3354 -0.3211
 3802SOL    HW122865   3.780   3.485   7.437 -1.6161  0.0592  0.6927
 3802SOL    HW222866   3.786   3.578   7.559  0.7247  1.6288 -0.3756
 3803SOL     OW22867   3.328   0.387   3.739 -0.3154  0.3619 -0.2147
 3803SOL    HW122868   3.361   0.458   3.684  0.1356  0.5706  0.3218
 3803SOL    HW222869   3.348   0.410   3.830  3.4374 -1.9299 -0.4789
 3804SOL     OW22870   1.652   4.278   9.994 -0.4813 -0.3310 -0.4316
 3804SOL    HW122871   1.732   4.234   9.963  0.9003  1.1159  1.1267
 3804SOL    HW222872   1.685   4.332  10.065  0.2022  0.3103 -1.2277
 3805SOL     OW22873   3.727   2.038   8.456 -0.1919  0.4101 -0.3924
 3805SOL    HW122874   3.761   2.032   8.546 -0.0612 -0.6848 -0.5110
 3805SOL    HW222875   3.785   1.973   8.416  0.5899  0.4160  0.7281
 3806SOL     OW22876   2.242   0.701   8.224  0.3398 -0.1190  0.2123
 3806SOL    HW122877   2.250   0.655   8.307 -1.2125 -0.2917  0.2653
 3806SOL    HW222878   2.307   0.770   8.235  0.2148 -0.1771  1.3216
 3807SOL     OW22879   3.783   4.510   2.837 -0.0137 -0.6077 -0.6021
 3807SOL    HW122880   3.854   4.451   2.862  0.1779 -0.4057 -0.6737
 3807SOL    HW222881   3.832   4.592   2.832 -0.2081 -0.2977  2.5043
 3808SOL     OW22882   4.668   3.291  16.004  0.7294  0.0937 -0.3298
 3808SOL    HW122883   4.694   3.219  15.947  1.6101 -0.4153  0.7029
 3808SOL    HW222884   4.621   3.343  15.939  1.5813  2.9839  1.3777
 3809SOL     OW22885   2.358   3.814   6.776 -0.3931 -0.3643 -0.2674
 3809SOL    HW122886   2.307   3.745   6.735 -0.2380 -1.1729  0.9187
 3809SOL    HW222887   2.443   3.770   6.781 -0.0922  0.3718  1.4336
 3810SOL     OW22888   0.501   3.001   2.496 -0.9642 -0.1487 -1.0735
 3810SOL    HW122889   0.521   2.939   2.426  2.2659 -1.1742  0.7574
 3810SOL    HW222890   0.592   3.015   2.522 -1.1017  1.8085 -1.6249
 3811SOL     OW22891   3.745   0.353  13.308 -0.4256  0.1405 -0.2576
 3811SOL    HW122892   3.683   0.407  13.356  0.3221  1.2129 -0.4961
 3811SOL    HW222893   3.674   0.309  13.261 -2.7158  2.6611  0.8873
 3812SOL     OW22894   3.565   0.197  16.878  0.3770  0.0405  0.4767
 3812SOL    HW122895   3.548   0.104  16.862 -1.0494  0.0257  2.0907
 3812SOL    HW222896   3.475   0.221  16.854 -0.2726 -1.2708  1.5558
 3813SOL     OW22897   2.996   3.101  10.547 -0.1642  0.5234 -0.3437
 3813SOL    HW122898   2.924   3.112  10.484 -0.3883  3.5945  0.4275
 3813SOL    HW222899   3.066   3.067  10.491 -0.0503 -0.2127  0.2405
 3814SOL     OW22900   3.369   0.833   0.648  0.1852 -0.3651  0.3500
 3814SOL    HW122901   3.444   0.890   0.666  0.7075 -1.6270  2.1035
 3814SOL    HW222902   3.413   0.758   0.609  0.4019 -0.6534  1.1519
 3815SOL     OW22903   3.320   1.092   8.139  0.2419  0.5330  0.4361
 3815SOL    HW122904   3.291   1.171   8.094 -0.6502  0.0981  0.2410
 3815SOL    HW222905   3.233   1.052   8.139  0.3309  0.3356  0.7576
 3816SOL     OW22906   4.275   3.219   7.150  0.3675  0.3729  0.4842
 3816SOL    HW122907   4.314   3.132   7.143  0.1007  0.2601  0.3802
 3816SOL    HW222908   4.263   3.259   7.064 -1.0270 -2.1429 -0.4990
 3817SOL     OW22909   1.511   4.322   2.656  0.0440  0.6582  0.1207
 3817SOL    HW122910   1.557   4.368   2.726  0.9761  1.3948 -0.9785
 3817SOL    HW222911   1.491   4.241   2.702  0.6964 -0.1944 -1.1231
 3818SOL     OW22912   4.568   0.159   3.831  0.0277  0.2151  0.3453
 3818SOL    HW122913   4.617   0.222   3.779  0.9099 -0.8417 -0.1018
 3818SOL    HW222914   4.545   0.101   3.758  0.1291  0.7911 -0.1495
 3819SOL     OW22915   4.066   3.398  15.123  0.4324  0.7542  0.8453
 3819SOL    HW122916   4.037   3.318  15.165  2.6802 -0.7206 -0.3666
 3819SOL    HW222917   4.142   3.361  15.077  1.6761  0.5466  3.0875
 3820SOL     OW22918   0.722   2.446   6.518  0.0752  0.1286 -0.2841
 3820SOL    HW122919   0.778   2.524   6.514 -0.6591  0.7903  2.6096
 3820SOL    HW222920   0.634   2.480   6.530  0.0729  0.8604 -2.3614
 3821SOL     OW22921   0.175   3.136  11.454  0.2098 -0.0938  0.1111
 3821SOL    HW122922   0.137   3.092  11.379  0.2827 -1.7819  1.0671
 3821SOL    HW222923   0.267   3.108  11.452  0.9138  2.0407  1.8726
 3822SOL     OW22924   3.194   2.764   2.489  0.3832  0.0781 -0.1691
 3822SOL    HW122925   3.251   2.720   2.426  1.1990 -0.3258  0.8397
 3822SOL    HW222926   3.111   2.739   2.450  0.9259 -2.3221  0.2003
 3823SOL     OW22927   0.142   0.671   8.863 -0.6019 -0.0421  0.4560
 3823SOL    HW122928   0.106   0.753   8.899  0.3733  0.6896 -0.2382
 3823SOL    HW222929   0.107   0.659   8.775 -1.0922  0.4954  0.5758
 3824SOL     OW22930   2.763   1.136   6.868  0.0914  0.7111  0.5174
 3824SOL    HW122931   2.847   1.171   6.896 -1.6897  2.6227  3.5723
 3824SOL    HW222932   2.733   1.087   6.945  2.0804 -0.1460  0.7427
 3825SOL     OW22933   3.964   4.034   3.143  0.0296 -0.6174 -0.7839
 3825SOL    HW122934   3.996   4.106   3.198  2.1796 -0.1144 -2.7076
 3825SOL    HW222935   4.046   3.987   3.129  0.9794  0.6685  0.4962
 3826SOL     OW22936   2.103   1.788   9.427  0.2689  0.0480 -0.9644
 3826SOL    HW122937   2.066   1.846   9.495  0.0175  0.8613 -1.7894
 3826SOL    HW222938   2.144   1.855   9.372  2.9513 -0.1766  0.8057
 3827SOL     OW22939   2.382   2.426  14.865  0.0175 -0.1148  0.3506
 3827SOL    HW122940   2.389   2.438  14.770 -1.2746  1.3576  0.4543
 3827SOL    HW222941   2.476   2.421  14.887  0.5379 -0.1101 -1.8843
 3828SOL     OW22942   4.155   2.958  16.284  0.0263  0.8027  0.5253
 3828SOL    HW122943   4.098   2.882  16.267  1.0527  0.0229  0.5898
 3828SOL    HW222944   4.174   2.950  16.377  0.5084  1.4924  0.4866
 3829SOL     OW22945   2.836   4.234  12.448 -0.1530  0.2913 -0.0532
 3829SOL    HW122946   2.777   4.284  12.505 -1.3896 -0.8997 -0.2924
 3829SOL    HW222947   2.868   4.307  12.395  0.0480  0.7045  0.6415
 3830SOL     OW22948   0.636   4.444   7.207 -0.1345 -0.0368  0.2112
 3830SOL    HW122949   0.716   4.411   7.247  0.1965 -1.3968 -1.5663
 3830SOL    HW222950   0.619   4.377   7.140 -2.3889 -1.2413  1.9776
 3831SOL     OW22951   1.723   2.061   4.657 -0.8421 -0.3135  0.2517
 3831SOL    HW122952   1.799   2.028   4.704 -0.5419 -1.4104 -1.0190
 3831SOL    HW222953   1.694   1.978   4.618 -3.1615  0.3617  0.5030
 3832SOL     OW22954   2.611   3.927   8.680  0.3777 -0.0948  0.3235
 3832SOL    HW122955   2.633   3.835   8.664  0.9867  0.2430 -0.7275
 3832SOL    HW222956   2.620   3.960   8.591 -0.5013 -0.2460  0.1743
 3833SOL     OW22957   2.065   4.059   2.785 -0.0658  0.0153 -0.3830
 3833SOL    HW122958   2.101   3.976   2.754 -0.3368 -0.0704 -0.4707
 3833SOL    HW222959   1.972   4.038   2.794  0.3287 -2.0362 -1.0470
 3834SOL     OW22960   3.923   4.433   3.377 -0.0767 -0.2923 -0.1172
 3834SOL    HW122961   3.850   4.486   3.346  0.7490  0.7306 -0.3366
 3834SOL    HW222962   3.955   4.479   3.455 -0.7879 -1.8103  1.0729
 3835SOL     OW22963   0.170   0.170  10.152 -0.5915 -0.0735  0.3465
 3835SOL    HW122964   0.170   0.075  10.138  0.2339  0.5458 -3.8896
 3835SOL    HW222965   0.128   0.176  10.237  1.2591 -0.2597  1.2794
 3836SOL     OW22966   0.953   0.407   2.302  0.1502 -0.6328 -0.2531
 3836SOL    HW122967   0.965   0.320   2.340  0.9624  0.2132  1.4211
 3836SOL    HW222968   0.928   0.453   2.382  2.5496 -1.6818  1.1041
 3837SOL     OW22969   2.282   2.299   0.235  0.4750  0.0522 -0.7430
 3837SOL    HW122970   2.255   2.376   0.286  2.0618  2.0520 -2.9554
 3837SOL    HW222971   2.373   2.324   0.217  0.6890  0.0136  0.2600
 3838SOL     OW22972   2.787   0.680  13.739  0.4979  0.2521  0.3555
 3838SOL    HW122973   2.702   0.638  13.741  1.1275 -1.0033  0.4949
 3838SOL    HW222974   2.764   0.769  13.712  0.9275  0.8975  2.1471
 3839SOL     OW22975   4.502   2.588   3.508  0.3920 -0.4791  0.0418
 3839SOL    HW122976   4.457   2.557   3.587  0.5507  1.2358  0.8030
 3839SOL    HW222977   4.585   2.541   3.518  2.1418  2.9405  1.6484
 3840SOL     OW22978   1.097   4.689  13.273 -0.3989  0.1286  0.2106
 3840SOL    HW122979   1.154   4.622  13.309  0.6580  1.0510  0.2550
 3840SOL    HW222980   1.134   0.047  13.307  0.9203 -0.9767  1.4371
 3841SOL     OW22981   2.812   3.631   4.916 -0.1013 -0.0063  0.2658
 3841SOL    HW122982   2.826   3.723   4.939 -1.0159  0.1647  0.1379
 3841SOL    HW222983   2.901   3.601   4.899  0.1145  1.1474 -0.6146
 3842SOL     OW22984   1.518   2.685  17.265  0.3004  0.2301 -0.3469
 3842SOL    HW122985   1.473   2.606  17.236  0.7991 -0.8066  1.7043
 3842SOL    HW222986   1.477   2.761  17.224 -1.5664  0.0243  1.1572
 3843SOL     OW22987   4.560   3.038   1.907  0.5059 -0.0407 -0.6249
 3843SOL    HW122988   4.514   2.959   1.933  0.4136  0.5816  1.1191
 3843SOL    HW222989   4.625   3.062   1.974 -1.7744  0.8212  1.2614
 3844SOL     OW22990   0.420   3.994   8.524  0.3349  0.1160 -0.1224
 3844SOL    HW122991   0.369   3.941   8.464  0.6442 -1.2025  0.7868
 3844SOL    HW222992   0.354   4.041   8.575 -1.5662 -1.1374 -1.4041
 3845SOL     OW22993   4.556   1.167   1.127 -0.5732  0.0796  0.6601
 3845SOL    HW122994   4.609   1.176   1.206 -1.6780  0.4947  1.3474
 3845SOL    HW222995   4.594   1.094   1.078  0.4761  0.1808  1.3285
 3846SOL     OW22996   1.009   3.502  15.461  0.4572  0.5333 -0.2009
 3846SOL    HW122997   1.077   3.570  15.457  1.5191 -0.5074  0.0764
 3846SOL    HW222998   1.017   3.475  15.369  0.0444 -0.0898 -0.0518
 3847SOL     OW22999   2.637   0.176  17.291 -0.0726 -0.1871  0.4530
 3847SOL    HW123000   2.723   0.191  17.331  0.9098 -1.0888 -1.3830
 3847SOL    HW223001   2.658   0.232  17.216 -1.1779 -1.3502 -0.7242
 3848SOL     OW23002   0.618   2.476   9.359 -0.2963  0.3453  0.0077
 3848SOL    HW123003   0.549   2.470   9.293 -0.8331  2.1669  0.4267
 3848SOL    HW223004   0.606   2.562   9.398 -0.0592 -0.6588  2.3003
 3849SOL     OW23005   1.604   1.886  15.744  0.1349 -0.3310  0.1818
 3849SOL    HW123006   1.647   1.828  15.682 -1.2627 -1.5599  0.3675
 3849SOL    HW223007   1.585   1.828  15.818 -0.9925 -0.7850 -0.4784
 3850SOL     OW23008   3.597   2.546  13.173 -0.2645 -0.2789 -0.1343
 3850SOL    HW123009   3.692   2.531  13.175 -0.1135  0.3665 -2.1077
 3850SOL    HW223010   3.586   2.595  13.254 -3.0252 -1.5258  0.2388
 3851SOL     OW23011   3.352   2.018   1.981  0.1967 -0.4689  0.0732
 3851SOL    HW123012   3.340   2.072   2.059  0.7243  0.1682 -0.2940
 3851SOL    HW223013   3.326   1.929   2.006 -0.5479 -0.0921  0.6197
 3852SOL     OW23014   1.527   2.435   4.497  0.1500  0.1624 -0.0317
 3852SOL    HW123015   1.442   2.399   4.521  0.3834 -0.6774 -0.4499
 3852SOL    HW223016   1.526   2.517   4.547  2.5910  0.2211 -0.0572
 3853SOL     OW23017   4.017   2.690   8.117 -0.2369 -1.0868  0.3798
 3853SOL    HW123018   4.019   2.596   8.136 -2.0013 -1.2251 -0.1178
 3853SOL    HW223019   4.016   2.722   8.207  1.2117 -0.8314  0.3040
 3854SOL     OW23020   3.078   4.590   1.252  0.2394  0.0543  0.3205
 3854SOL    HW123021   3.055   4.676   1.215  0.5680 -0.9596 -2.2020
 3854SOL    HW223022   3.091   4.541   1.171  0.8994 -0.6782  0.8806
 3855SOL     OW23023   3.245   1.006   5.612  0.3535  0.3171  0.6723
 3855SOL    HW123024   3.207   0.984   5.527  2.5603  1.0264 -0.5018
 3855SOL    HW223025   3.336   1.007   5.584  0.1904  2.2838  0.2181
 3856SOL     OW23026   4.098   2.637  10.958  0.2786  0.4356  0.4325
 3856SOL    HW123027   4.133   2.726  10.946  1.2712 -0.0204 -0.1274
 3856SOL    HW223028   4.039   2.625  10.884 -0.2935  1.4694  0.7174
 3857SOL     OW23029   0.308   3.179   9.835  0.3875 -0.1661 -0.0987
 3857SOL    HW123030   0.305   3.259   9.782  0.4130  1.3737  2.2300
 3857SOL    HW223031   0.398   3.150   9.828  0.8823  1.3255  0.0530
 3858SOL     OW23032   1.534   1.771  16.031  0.1252  0.4834  0.2771
 3858SOL    HW123033   1.595   1.700  16.011  0.8624  1.7037 -1.8746
 3858SOL    HW223034   1.508   1.754  16.121 -0.4131  0.4713  0.1215
 3859SOL     OW23035   2.565   3.189   6.774 -0.4104  0.2751 -0.2430
 3859SOL    HW123036   2.494   3.236   6.818  0.6973  0.9546  0.8092
 3859SOL    HW223037   2.522   3.162   6.693  0.8167  0.3342 -0.9173
 3860SOL     OW23038   3.298   2.787  10.354  0.0407 -0.0652  0.0628
 3860SOL    HW123039   3.299   2.790  10.258 -1.6523 -1.1440 -0.0011
 3860SOL    HW223040   3.278   2.877  10.376  0.5108  0.4761 -1.6866
 3861SOL     OW23041   4.363   0.734  12.780 -0.0281  0.0077  0.2912
 3861SOL    HW123042   4.423   0.807  12.796  0.0672 -0.2484  1.0943
 3861SOL    HW223043   4.410   0.675  12.721 -1.8434 -0.0570 -1.1048
 3862SOL     OW23044   0.574   1.892   3.744  0.0211  0.4101 -0.0085
 3862SOL    HW123045   0.618   1.960   3.796  0.4480  2.1689 -2.6563
 3862SOL    HW223046   0.629   1.882   3.666  0.3974 -0.7599  0.4104
 3863SOL     OW23047   2.517   2.623   2.092 -0.2574 -0.6957 -0.3774
 3863SOL    HW123048   2.596   2.582   2.126  1.9502  3.2108 -0.7541
 3863SOL    HW223049   2.453   2.558   2.121 -0.3866 -0.9546 -1.2435
 3864SOL     OW23050   1.601   4.043   0.056  0.0475  0.3015 -0.5447
 3864SOL    HW123051   1.602   4.059  17.659 -0.6094  2.0487 -0.2655
 3864SOL    HW223052   1.524   4.094   0.082  0.2718  1.0025 -1.2743
 3865SOL     OW23053   1.319   0.251   8.973 -0.1440  0.4671 -0.4513
 3865SOL    HW123054   1.397   0.229   9.023  0.5517  2.4858 -0.6581
 3865SOL    HW223055   1.355   0.256   8.885 -0.6330 -0.8039 -0.7332
 3866SOL     OW23056   0.173   2.949   8.148 -0.0320  0.3691 -0.2447
 3866SOL    HW123057   0.163   2.863   8.105  0.5500  0.4905 -0.6229
 3866SOL    HW223058   0.134   2.921   8.231  0.7696  4.1141  1.3817
 3867SOL     OW23059   4.621   2.387   6.911  0.2516 -0.0190 -0.3479
 3867SOL    HW123060   4.621   2.474   6.951 -0.2745 -0.1051 -0.1617
 3867SOL    HW223061   4.527   2.383   6.895  0.2939 -0.7187 -0.4309
 3868SOL     OW23062   2.068   4.537  16.520 -0.2184  0.5673  0.1127
 3868SOL    HW123063   2.062   4.516  16.613 -0.9577 -0.0366 -0.0764
 3868SOL    HW223064   2.159   4.522  16.494 -0.7399 -1.4768 -0.5424
 3869SOL     OW23065   0.710   1.125   2.060  0.1929 -0.2791  0.1204
 3869SOL    HW123066   0.790   1.106   2.012  0.1641  1.7364 -0.7096
 3869SOL    HW223067   0.688   1.049   2.114  0.5888  1.0748  2.1853
 3870SOL     OW23068   3.873   0.388   5.654 -0.3252  0.1597  0.0721
 3870SOL    HW123069   3.849   0.449   5.724  0.2056 -0.9624  1.2044
 3870SOL    HW223070   3.896   0.448   5.583  0.8756  1.0354  1.1988
 3871SOL     OW23071   1.803   2.156   0.071  0.4982 -0.1813  0.3627
 3871SOL    HW123072   1.744   2.231   0.075 -0.1170 -0.6337 -0.3113
 3871SOL    HW223073   1.888   2.200   0.068 -0.3008  1.1930 -2.0179
 3872SOL     OW23074   1.006   0.068   7.515 -0.8642 -0.0496  0.1024
 3872SOL    HW123075   0.999   0.164   7.510 -1.4564 -0.0461  0.8763
 3872SOL    HW223076   1.022   0.044   7.607 -0.7221  1.7175  0.5542
 3873SOL     OW23077   1.688   2.553  11.348 -0.1160 -0.0375 -0.3371
 3873SOL    HW123078   1.744   2.613  11.299 -1.5156  0.1427 -1.7300
 3873SOL    HW223079   1.748   2.561  11.422 -1.6380  0.7356  0.8222
 3874SOL     OW23080   2.159   4.379  10.757  0.5576  0.1582  0.1971
 3874SOL    HW123081   2.157   4.370  10.662 -1.4669  0.9732  0.1659
 3874SOL    HW223082   2.254   4.381  10.769  0.3517 -1.0269  2.0012
 3875SOL     OW23083   2.682   2.128   8.838  0.1462  0.3468  0.1367
 3875SOL    HW123084   2.672   2.195   8.770  0.0953  0.7054  0.4936
 3875SOL    HW223085   2.656   2.180   8.915 -0.2251  1.4089 -0.7076
 3876SOL     OW23086   1.852   0.461   3.029 -0.5303  0.3476  0.1274
 3876SOL    HW123087   1.774   0.512   3.011 -0.9489 -0.5383 -0.5990
 3876SOL    HW223088   1.878   0.424   2.945 -0.3273  0.6057  0.0766
 3877SOL     OW23089   4.504   3.233   8.535  0.1672 -0.1965  0.4883
 3877SOL    HW123090   4.496   3.197   8.623 -1.4600  0.3999  0.5885
 3877SOL    HW223091   4.418   3.212   8.498  0.3963 -2.1560  1.0946
 3878SOL     OW23092   2.498   3.994   0.151  0.0870 -0.6096 -0.4436
 3878SOL    HW123093   2.576   3.942   0.171 -0.1156 -0.1265  1.6422
 3878SOL    HW223094   2.493   3.979   0.057  0.8053 -1.0341 -0.4189
 3879SOL     OW23095   3.897   3.527  11.443  0.4364  0.7599  0.2849
 3879SOL    HW123096   3.822   3.467  11.438 -0.3959  1.7525  0.8536
 3879SOL    HW223097   3.892   3.558  11.533  1.5898 -0.8999  0.9172
 3880SOL     OW23098   3.935   0.259   9.562 -0.2856  0.7795 -0.5228
 3880SOL    HW123099   3.949   0.201   9.488  1.7459 -0.2426  0.6619
 3880SOL    HW223100   4.019   0.251   9.607 -0.1540 -2.2026 -1.3487
 3881SOL     OW23101   0.104   1.116   8.535 -0.2210 -0.1903 -0.3895
 3881SOL    HW123102   0.131   1.063   8.461 -1.4858 -0.0929 -0.9254
 3881SOL    HW223103   0.008   1.121   8.539 -0.0827  1.0240  1.6744
 3882SOL     OW23104   0.451   0.266   3.154 -0.2459 -0.1206  0.2229
 3882SOL    HW123105   0.461   0.252   3.248  0.4669 -0.6769  0.0674
 3882SOL    HW223106   0.545   0.285   3.150 -0.4055  0.4572 -0.7968
 3883SOL     OW23107   1.344   2.431   9.133 -0.5602  0.1303  0.2418
 3883SOL    HW123108   1.269   2.463   9.183 -1.3087  0.6722 -1.2247
 3883SOL    HW223109   1.311   2.344   9.112  1.0876 -0.8436  1.7196
 3884SOL     OW23110   4.685   0.345   0.460  0.5128  0.0776  0.1384
 3884SOL    HW123111   0.015   0.424   0.472  0.7063  0.4430 -2.9961
 3884SOL    HW223112   4.685   0.307   0.548  1.7174  0.4404  0.2947
 3885SOL     OW23113   3.066   4.214   4.144  0.0512  0.2364 -0.3811
 3885SOL    HW123114   2.990   4.268   4.165 -1.8943 -1.1023 -4.1409
 3885SOL    HW223115   3.148   4.263   4.155  1.0553 -1.2325 -1.4002
 3886SOL     OW23116   1.968   3.997  14.959  0.0490  0.1414 -0.1432
 3886SOL    HW123117   2.021   4.059  14.910  1.7122 -0.5663  0.7371
 3886SOL    HW223118   2.023   3.918  14.962  0.0041  0.1509  1.3288
 3887SOL     OW23119   1.044   4.225   4.838 -0.7165  0.0522 -0.3968
 3887SOL    HW123120   0.953   4.230   4.868 -0.4268 -2.1885  0.8349
 3887SOL    HW223121   1.032   4.182   4.754  2.1974 -1.2604 -0.1353
 3888SOL     OW23122   2.312   1.824  14.693  0.0833 -0.3437 -0.7257
 3888SOL    HW123123   2.251   1.863  14.630 -1.3191 -3.3268 -1.2676
 3888SOL    HW223124   2.332   1.888  14.761 -1.6678 -1.0025  0.4352
 3889SOL     OW23125   0.779   3.547   9.958 -0.0080 -0.4817 -0.3116
 3889SOL    HW123126   0.811   3.477  10.015 -0.9738  0.9651  2.0364
 3889SOL    HW223127   0.719   3.490   9.910 -0.5816 -0.3661  0.2719
 3890SOL     OW23128   0.627   4.116   6.282  0.2860  0.6789  0.3413
 3890SOL    HW123129   0.641   4.036   6.231  0.7071  0.4127  0.8753
 3890SOL    HW223130   0.610   4.070   6.364  0.0806 -0.0656 -0.1177
 3891SOL     OW23131   3.659   1.465  12.582  0.2149 -0.4344 -0.0085
 3891SOL    HW123132   3.673   1.528  12.653  0.6766  0.2539 -0.7093
 3891SOL    HW223133   3.658   1.380  12.626 -1.6462  0.9622  2.6589
 3892SOL     OW23134   4.178   4.035   3.598  0.3308 -0.0629 -0.3730
 3892SOL    HW123135   4.161   3.971   3.667  0.9106 -0.8454 -0.9679
 3892SOL    HW223136   4.196   3.980   3.522 -0.6182 -0.7173 -0.1250
 3893SOL     OW23137   2.560   0.926   6.269 -0.0691  0.1792 -0.1803
 3893SOL    HW123138   2.622   0.855   6.286 -0.8030 -0.8686 -1.8198
 3893SOL    HW223139   2.611   1.007   6.268 -1.7926  1.2679  0.2653
 3894SOL     OW23140   1.621   2.721   7.993  0.2748 -0.2021 -0.9942
 3894SOL    HW123141   1.679   2.790   8.024 -1.3652  1.0944 -0.8028
 3894SOL    HW223142   1.623   2.659   8.066  0.2351  0.7879 -0.1529
 3895SOL     OW23143   3.358   4.678   3.765  0.2912 -0.1824 -0.9974
 3895SOL    HW123144   3.290   4.612   3.782 -0.0929  0.3903 -0.3041
 3895SOL    HW223145   3.347   4.720   3.851 -3.0460 -0.4902 -1.2918
 3896SOL     OW23146   1.355   4.077   8.349  0.0095  0.1928  0.4923
 3896SOL    HW123147   1.413   4.003   8.332 -0.0527  0.7630 -2.2427
 3896SOL    HW223148   1.368   4.084   8.444 -1.4598  0.6763  0.6648
 3897SOL     OW23149   1.524   1.497  10.397 -0.4697  0.2957  0.2993
 3897SOL    HW123150   1.579   1.558  10.447 -1.6546  0.7419  1.0405
 3897SOL    HW223151   1.588   1.458  10.337 -0.1041 -0.4740  1.1818
 3898SOL     OW23152   0.930   3.512   5.891  0.0355  0.2906 -0.3138
 3898SOL    HW123153   0.901   3.587   5.840  0.2641  0.3616 -0.3396
 3898SOL    HW223154   1.018   3.537   5.920  0.1094 -0.6486  0.2851
 3899SOL     OW23155   1.901   0.027  16.483  0.0242  0.5285  0.6011
 3899SOL    HW123156   1.852   4.703  16.416 -1.1142  2.0767  0.3440
 3899SOL    HW223157   1.962   4.681  16.507 -0.0688  0.6071  1.0779
 3900SOL     OW23158   2.787   4.429   7.843 -0.1808  0.3732  0.3994
 3900SOL    HW123159   2.788   4.511   7.794 -0.7895  1.1469  1.6784
 3900SOL    HW223160   2.871   4.390   7.818 -0.2175 -0.3125  1.3378
 3901SOL     OW23161   1.602   0.091   2.994 -0.0538 -0.0725  0.0092
 3901SOL    HW123162   1.667   0.105   3.063 -0.5267 -2.5235  0.9642
 3901SOL    HW223163   1.519   0.112   3.036  0.2758  0.6097  0.3203
 3902SOL     OW23164   4.547   1.036   0.842  0.1365 -0.1167 -0.2529
 3902SOL    HW123165   4.581   0.987   0.766 -2.2279 -1.1387 -0.6333
 3902SOL    HW223166   4.636   1.059   0.868  0.1421 -0.3287 -0.0831
 3903SOL     OW23167   1.044   1.949   7.924  0.3524 -0.0726  0.0214
 3903SOL    HW123168   1.030   1.913   7.837  1.3117  0.9189 -0.5380
 3903SOL    HW223169   1.066   1.869   7.971  0.5197  0.6999  1.2703
 3904SOL     OW23170   2.122   3.684   8.859 -0.6645 -0.0323  0.1783
 3904SOL    HW123171   2.086   3.626   8.791 -0.0827  1.4879 -1.4375
 3904SOL    HW223172   2.212   3.698   8.829 -0.6618  1.5507  0.9168
 3905SOL     OW23173   0.568   1.447   2.876 -0.3151 -0.1300  0.5448
 3905SOL    HW123174   0.491   1.430   2.930 -1.1006  0.2743 -0.4453
 3905SOL    HW223175   0.546   1.446   2.783 -0.2437  1.6821  0.5004
 3906SOL     OW23176   0.380   2.982   4.364  0.3776  0.1885  0.5024
 3906SOL    HW123177   0.367   2.965   4.271 -1.8590  2.5048  0.4143
 3906SOL    HW223178   0.476   2.974   4.365  0.4140  0.4171 -1.1283
 3907SOL     OW23179   1.320   0.999   2.637  0.1837 -0.2788  0.3410
 3907SOL    HW123180   1.229   1.030   2.639  0.2825 -0.0761  1.7020
 3907SOL    HW223181   1.365   1.047   2.706 -2.9338 -0.0437  2.2261
 3908SOL     OW23182   4.248   1.962   3.808  0.3320  0.6435 -0.2110
 3908SOL    HW123183   4.205   1.992   3.889  0.3832  0.1548 -0.0040
 3908SOL    HW223184   4.173   1.939   3.753  1.7189  3.0315 -3.0924
 3909SOL     OW23185   3.661   2.482   3.691  0.5387  0.0847  0.1951
 3909SOL    HW123186   3.597   2.545   3.724 -0.6640 -2.5484  2.9183
 3909SOL    HW223187   3.618   2.457   3.608 -1.2862 -0.2168  1.2226
 3910SOL     OW23188   1.999   3.648   1.527 -0.2404  0.1373 -0.1584
 3910SOL    HW123189   1.904   3.648   1.542 -0.3138  0.1775 -0.6414
 3910SOL    HW223190   2.022   3.581   1.591 -0.7008  1.3285  1.2511
 3911SOL     OW23191   4.231   3.960   2.431  0.3598 -0.1870 -0.0292
 3911SOL    HW123192   4.303   3.898   2.438 -0.0345 -0.4965  1.2787
 3911SOL    HW223193   4.158   3.899   2.430  1.5017 -1.5106 -1.7012
 3912SOL     OW23194   2.706   3.546   2.766 -0.3825  0.1126  0.2996
 3912SOL    HW123195   2.675   3.633   2.795  0.6496  0.1137  1.3888
 3912SOL    HW223196   2.659   3.488   2.826 -3.3223  0.6029 -1.5116
 3913SOL     OW23197   2.285   3.460  17.648  0.1524 -0.0325 -0.3514
 3913SOL    HW123198   2.304   3.472  17.555 -0.0927 -0.6367 -0.4804
 3913SOL    HW223199   2.190   3.469  17.647  0.1947  0.5717  2.8327
 3914SOL     OW23200   0.569   0.820   7.016  0.2585  0.0173  0.4240
 3914SOL    HW123201   0.507   0.818   6.943 -0.3073 -0.3300  0.9217
 3914SOL    HW223202   0.537   0.896   7.064 -0.3136  0.5649 -0.8285
 3915SOL     OW23203   2.499   4.546   6.537 -0.1980  0.5047  0.3479
 3915SOL    HW123204   2.543   4.559   6.621 -1.7325  1.7150  0.9786
 3915SOL    HW223205   2.559   4.590   6.478  1.4706  0.4703  2.0013
 3916SOL     OW23206   3.508   1.703   4.923  0.4873 -0.2544 -0.4040
 3916SOL    HW123207   3.430   1.743   4.961  0.1189 -0.6443 -0.7539
 3916SOL    HW223208   3.503   1.723   4.829 -0.5778 -2.4915 -0.8185
 3917SOL     OW23209   2.974   2.683   5.013 -0.1046  0.1687 -0.0871
 3917SOL    HW123210   2.924   2.636   4.947 -2.4347  3.5968 -0.7611
 3917SOL    HW223211   3.044   2.625   5.042  0.2470 -0.5564 -2.4250
 3918SOL     OW23212   4.430   2.469  11.859 -0.4780  0.0794  0.2960
 3918SOL    HW123213   4.409   2.556  11.825  0.0161  1.3648  3.2650
 3918SOL    HW223214   4.507   2.448  11.808  0.7639  0.8295  1.8629
 3919SOL     OW23215   2.704   2.317   9.037 -0.4503  0.6809 -0.1133
 3919SOL    HW123216   2.760   2.394   9.031  0.3740  0.1808  1.1168
 3919SOL    HW223217   2.653   2.344   9.114 -1.6466 -0.0875 -0.6271
 3920SOL     OW23218   0.556   2.349  11.532 -0.0032 -0.1562  0.1985
 3920SOL    HW123219   0.631   2.399  11.564 -0.4805 -0.8625  2.3969
 3920SOL    HW223220   0.530   2.397  11.453 -0.6130  1.5981  1.4689
 3921SOL     OW23221   1.052   0.709   4.070  0.0905  0.0795  0.3246
 3921SOL    HW123222   1.055   0.615   4.054  0.9148 -0.4387  3.5100
 3921SOL    HW223223   1.037   0.742   3.981  2.3876  2.5716  0.8516
 3922SOL     OW23224   1.739   0.056   4.455 -0.1427 -0.3368 -0.2572
 3922SOL    HW123225   1.805   0.121   4.479 -2.1131  1.9743 -1.0475
 3922SOL    HW223226   1.748   4.719   4.528 -0.3924  0.5060  0.4792
 3923SOL     OW23227   0.421   3.497   4.262  0.5944  0.1565 -0.0939
 3923SOL    HW123228   0.440   3.558   4.334 -4.6555  1.5417  0.0749
 3923SOL    HW223229   0.500   3.494   4.208 -0.7658  0.2810 -2.0556
 3924SOL     OW23230   3.460   0.934   2.695  0.2202 -0.2079  0.7150
 3924SOL    HW123231   3.547   0.900   2.719  1.2878 -0.3980 -3.3796
 3924SOL    HW223232   3.484   1.001   2.631 -0.8205 -0.3306  0.2035
 3925SOL     OW23233   0.871   2.866   4.603 -0.1968  0.1318 -0.1127
 3925SOL    HW123234   0.963   2.879   4.626 -0.5013  0.2022  1.1027
 3925SOL    HW223235   0.830   2.916   4.674  1.8939  0.4327  0.8866
 3926SOL     OW23236   2.491   2.078  10.228  0.0413  0.3792  0.3225
 3926SOL    HW123237   2.517   2.150  10.170 -0.4140  0.6259  0.4228
 3926SOL    HW223238   2.578   2.061  10.263  0.2562  2.6105  0.8771
 3927SOL     OW23239   2.972   0.342   5.901 -0.0090  0.3066 -0.2649
 3927SOL    HW123240   2.903   0.404   5.924  0.7743  0.7507  0.8360
 3927SOL    HW223241   2.953   0.315   5.811 -1.0342  0.4628 -0.1001
 3928SOL     OW23242   4.330   3.810   4.074 -0.0089 -0.4679  0.1240
 3928SOL    HW123243   4.254   3.752   4.079 -0.3939 -0.1770 -2.4224
 3928SOL    HW223244   4.395   3.743   4.053  1.7177  1.0455  0.6102
 3929SOL     OW23245   4.270   2.521   4.147 -0.0196  0.1009 -0.5852
 3929SOL    HW123246   4.198   2.514   4.084  0.2839  1.0800 -1.0444
 3929SOL    HW223247   4.348   2.533   4.094  0.6138 -1.7731 -0.0623
 3930SOL     OW23248   3.453   0.262  11.858 -0.2102 -0.2951 -0.4301
 3930SOL    HW123249   3.497   0.344  11.878 -0.3819 -0.7002  1.6487
 3930SOL    HW223250   3.415   0.250  11.945  2.9228  1.1647  1.1457
 3931SOL     OW23251   1.119   2.451  17.348 -0.2498 -0.4618  0.3965
 3931SOL    HW123252   1.024   2.458  17.343 -0.2416  0.6406  1.9613
 3931SOL    HW223253   1.136   2.467  17.441 -1.2348  1.2753  0.2811
 3932SOL     OW23254   3.873   4.669   1.183  0.1756 -0.3810 -0.0871
 3932SOL    HW123255   3.894   4.691   1.274  2.9163  1.8904 -1.2558
 3932SOL    HW223256   3.896   4.577   1.186  0.2477 -0.2700  2.2488
 3933SOL     OW23257   1.736   4.570   3.832  0.3654 -0.2921  0.4535
 3933SOL    HW123258   1.786   4.510   3.888  2.5227 -0.6062 -1.8242
 3933SOL    HW223259   1.779   4.653   3.855 -2.9024  0.8653  2.3675
 3934SOL     OW23260   2.730   1.591   4.947  0.3050  0.6464 -0.0962
 3934SOL    HW123261   2.692   1.516   4.902  0.9485  0.6426 -0.6411
 3934SOL    HW223262   2.687   1.665   4.905  2.2055  1.7136 -0.1859
 3935SOL     OW23263   1.561   4.457   7.698  0.6861  0.1651  0.4328
 3935SOL    HW123264   1.575   4.506   7.778  0.3080  0.2940  0.4220
 3935SOL    HW223265   1.607   4.516   7.638  0.3743  1.0002  1.0246
 3936SOL     OW23266   4.585   3.399   1.105  0.2079  0.5795  0.1156
 3936SOL    HW123267   4.609   3.463   1.172 -0.2552 -0.4931  1.3033
 3936SOL    HW223268   4.504   3.372   1.149 -0.7402 -0.6258 -2.3764
 3937SOL     OW23269   1.965   0.903  13.071 -1.1060 -0.2149 -0.5518
 3937SOL    HW123270   2.041   0.888  13.127 -1.8188 -0.6125  0.2998
 3937SOL    HW223271   1.997   0.877  12.985  1.5038 -0.7841  0.6019
 3938SOL     OW23272   3.821   1.422   3.381 -0.4906 -0.3473  0.2927
 3938SOL    HW123273   3.888   1.355   3.369  0.8845  1.1950 -0.6586
 3938SOL    HW223274   3.855   1.502   3.341  0.0439 -1.2607 -1.0662
 3939SOL     OW23275   2.901   3.654  16.092 -0.2700  0.2279  0.6440
 3939SOL    HW123276   2.898   3.716  16.164 -2.0667  0.9688 -0.0958
 3939SOL    HW223277   2.843   3.582  16.117 -0.0189 -1.6319 -4.1358
 3940SOL     OW23278   3.103   0.141   4.529  0.3746 -0.0821  0.6092
 3940SOL    HW123279   3.154   0.191   4.592 -1.4298 -0.3528  2.2758
 3940SOL    HW223280   3.027   0.127   4.586  0.1400  1.6864  0.7273
 3941SOL     OW23281   0.118   0.322   8.017 -0.2441  0.8149 -0.0083
 3941SOL    HW123282   0.152   0.391   8.073 -1.7570 -0.1343  2.0895
 3941SOL    HW223283   0.112   0.247   8.077 -0.5573 -1.0805 -2.4067
 3942SOL     OW23284   3.401   4.557   5.494 -0.5851 -0.4819 -0.1878
 3942SOL    HW123285   3.420   4.650   5.503 -2.2562 -0.3007  1.4267
 3942SOL    HW223286   3.376   4.535   5.583 -1.7621 -0.4992 -0.5199
 3943SOL     OW23287   2.876   2.270   3.291 -0.4367  0.1129  0.1317
 3943SOL    HW123288   2.920   2.282   3.207 -0.1423 -1.7073  0.0406
 3943SOL    HW223289   2.787   2.268   3.256  0.2526 -0.4536 -1.5561
 3944SOL     OW23290   3.514   0.291  16.406  0.5316 -0.1317 -0.3253
 3944SOL    HW123291   3.461   0.212  16.407 -0.0956  0.2700 -2.1062
 3944SOL    HW223292   3.453   0.345  16.457 -0.6323 -1.1566 -0.6330
 3945SOL     OW23293   1.299   0.143   6.216  0.0500 -0.6141 -0.2284
 3945SOL    HW123294   1.263   0.101   6.138 -0.3395 -0.1912 -0.2736
 3945SOL    HW223295   1.351   0.215   6.180 -0.1515 -0.8937 -1.0803
 3946SOL     OW23296   4.097   1.047   4.449  0.1891 -0.3528 -0.2276
 3946SOL    HW123297   4.058   1.090   4.525 -1.3371 -2.1010 -0.0236
 3946SOL    HW223298   4.071   1.107   4.379  0.2920  0.6089  0.5565
 3947SOL     OW23299   0.197   4.197   2.458  0.4916 -0.2343 -0.0358
 3947SOL    HW123300   0.282   4.216   2.499  0.7554 -0.6139 -0.4103
 3947SOL    HW223301   0.205   4.239   2.373 -2.0855  0.6379  0.1667
 3948SOL     OW23302   3.933   4.329   8.591 -0.2467  0.1820 -0.1652
 3948SOL    HW123303   3.952   4.422   8.606 -0.9439  0.6734 -2.2858
 3948SOL    HW223304   3.846   4.326   8.630  0.2293  1.3925  0.9862
 3949SOL     OW23305   3.570   3.015   1.056  0.2003 -0.4994  0.3218
 3949SOL    HW123306   3.500   2.958   1.025  0.4642 -0.3543 -0.5541
 3949SOL    HW223307   3.522   3.063   1.123  0.4380  0.3072 -0.0750
 3950SOL     OW23308   3.818   3.667   0.131 -0.2784 -0.7689 -0.8544
 3950SOL    HW123309   3.873   3.730   0.178 -0.5070  0.4182 -2.1595
 3950SOL    HW223310   3.730   3.694   0.158  0.2125  1.2027 -1.1970
 3951SOL     OW23311   1.621   2.472   7.233  0.0444 -0.2974  0.2272
 3951SOL    HW123312   1.642   2.464   7.327  2.6761  0.6441 -0.2832
 3951SOL    HW223313   1.561   2.398   7.224 -1.9310  1.5230 -1.5430
 3952SOL     OW23314   0.491   3.028   5.570 -0.1091 -0.3332 -0.1174
 3952SOL    HW123315   0.528   3.070   5.647 -1.4340 -1.5681  1.1844
 3952SOL    HW223316   0.559   2.980   5.523 -2.3257 -1.6609 -1.9694
 3953SOL     OW23317   2.242   1.575   9.882 -0.9120  0.6113 -0.1736
 3953SOL    HW123318   2.301   1.609   9.950  0.6879 -1.4426 -0.5588
 3953SOL    HW223319   2.255   1.481   9.896  1.0439  1.0093  0.7046
 3954SOL     OW23320   3.145   0.497  13.030  0.1889 -0.5568  0.1361
 3954SOL    HW123321   3.212   0.478  13.095  1.2899  1.5339 -0.4188
 3954SOL    HW223322   3.164   0.425  12.969  0.1349 -0.4366 -0.0220
 3955SOL     OW23323   0.284   2.916   3.795 -0.2230 -0.2697  0.3858
 3955SOL    HW123324   0.188   2.913   3.793 -0.2544  0.3382  1.1002
 3955SOL    HW223325   0.309   2.911   3.703 -2.0487 -1.5982 -0.0452
 3956SOL     OW23326   4.463   0.041   1.142 -0.0817  0.0368  0.4024
 3956SOL    HW123327   4.516   0.104   1.190 -0.5072 -0.2304  1.2223
 3956SOL    HW223328   4.429   0.089   1.067 -0.8679  0.6972  1.1904
 3957SOL     OW23329   0.421   0.081   6.267 -0.3272  0.4179 -0.5802
 3957SOL    HW123330   0.506   0.110   6.234 -0.1085  0.9409  0.4702
 3957SOL    HW223331   0.401   0.162   6.313  0.8634  0.5775 -0.3626
 3958SOL     OW23332   0.201   2.297  17.313 -0.1408 -0.1270  0.5188
 3958SOL    HW123333   0.107   2.289  17.332 -0.4101  1.3274 -0.2518
 3958SOL    HW223334   0.222   2.389  17.326  0.7478 -0.2099 -0.3038
 3959SOL     OW23335   0.304   1.782  14.998  0.5201 -0.0155 -0.1181
 3959SOL    HW123336   0.312   1.696  15.040  1.4967 -0.5897 -1.4709
 3959SOL    HW223337   0.261   1.753  14.918  1.1012 -0.2695 -0.3370
 3960SOL     OW23338   1.714   3.346   6.532 -0.5055 -0.1277  0.2275
 3960SOL    HW123339   1.667   3.263   6.532  0.0080 -0.4124  1.7871
 3960SOL    HW223340   1.705   3.370   6.439 -0.5435  1.6252  0.6694
 3961SOL     OW23341   3.611   1.040   5.759 -0.4502 -0.0770 -0.2103
 3961SOL    HW123342   3.523   1.032   5.720 -0.4176  1.1425 -0.5108
 3961SOL    HW223343   3.632   1.119   5.711  0.6511 -0.6779 -0.7019
 3962SOL     OW23344   0.445   2.244   7.750 -0.0345 -0.8303 -0.6334
 3962SOL    HW123345   0.360   2.257   7.793  0.0398  0.8053 -0.9863
 3962SOL    HW223346   0.483   2.332   7.752 -0.6216 -0.5724 -0.9958
 3963SOL     OW23347   0.429   3.785   7.330 -0.1024 -0.1596  0.0182
 3963SOL    HW123348   0.375   3.789   7.409  0.9020  0.9438  0.6453
 3963SOL    HW223349   0.363   3.770   7.262 -1.1977 -1.0739  1.2768
 3964SOL     OW23350   3.005   1.395   5.503 -0.2725 -0.0660 -0.6520
 3964SOL    HW123351   3.080   1.343   5.474 -1.4374 -2.9513  1.4460
 3964SOL    HW223352   3.059   1.455   5.554 -1.9267  0.3581  0.5808
 3965SOL     OW23353   0.409   3.360   8.717 -0.2989 -0.7597 -0.2614
 3965SOL    HW123354   0.379   3.274   8.746 -1.7165 -0.2111 -0.1074
 3965SOL    HW223355   0.323   3.401   8.708  0.0223  0.4651  2.0786
 3966SOL     OW23356   3.395   2.716   5.671 -0.1867  0.0238  0.5022
 3966SOL    HW123357   3.450   2.775   5.618  1.1492 -1.5985  0.0599
 3966SOL    HW223358   3.403   2.752   5.759 -1.1123 -0.8950  0.9514
 3967SOL     OW23359   0.207   3.503  16.502 -0.0051 -0.0645 -0.2165
 3967SOL    HW123360   0.268   3.470  16.435  0.0300  1.0685 -0.7523
 3967SOL    HW223361   0.124   3.462  16.480  0.3627 -1.1907  0.5138
 3968SOL     OW23362   0.274   2.543  11.535 -0.3014  0.5252  0.0709
 3968SOL    HW123363   0.336   2.615  11.527 -0.6050  0.6894 -0.6955
 3968SOL    HW223364   0.193   2.574  11.495  0.4859 -1.8836 -3.3472
 3969SOL     OW23365   4.127   0.525  12.468  0.0937 -0.7694 -0.0198
 3969SOL    HW123366   4.161   0.471  12.540  0.9013  2.1780  1.7952
 3969SOL    HW223367   4.153   0.466  12.397  1.2408 -0.5930  0.2454
 3970SOL     OW23368   4.137   2.607   7.192  0.5177  0.0843 -0.5226
 3970SOL    HW123369   4.128   2.512   7.189 -1.8549  0.2386  1.2901
 3970SOL    HW223370   4.075   2.621   7.264  0.3235  0.9060 -0.8528
 3971SOL     OW23371   4.193   0.847  11.617  0.4161  0.1473 -0.2722
 3971SOL    HW123372   4.280   0.858  11.580  0.5445  2.4948  0.7176
 3971SOL    HW223373   4.204   0.777  11.680  2.0242  1.7893  1.2777
 3972SOL     OW23374   1.880   0.910   4.524  0.1165 -0.4066 -0.0684
 3972SOL    HW123375   1.893   0.926   4.430  1.1321 -3.9559 -0.5221
 3972SOL    HW223376   1.900   0.998   4.554 -1.0217 -0.4069  0.6617
 3973SOL     OW23377   4.349   1.488   5.658 -0.3434 -0.4204  0.4964
 3973SOL    HW123378   4.395   1.404   5.655  1.9793  0.9014 -0.7835
 3973SOL    HW223379   4.363   1.520   5.569  1.2951  2.0064  1.6293
 3974SOL     OW23380   3.405   3.553   7.319  0.5568  0.3394 -0.6335
 3974SOL    HW123381   3.341   3.568   7.249 -0.6354  0.2283  0.4446
 3974SOL    HW223382   3.347   3.593   7.384  0.0863 -0.2647 -0.6850
 3975SOL     OW23383   1.162   1.302   9.811 -0.4609 -0.2376  0.5146
 3975SOL    HW123384   1.143   1.377   9.754 -0.1282  1.6402  2.8757
 3975SOL    HW223385   1.250   1.331   9.835  0.0480 -2.3638  1.2081
 3976SOL     OW23386   0.035   3.560   2.762 -0.0534 -0.2086  0.2369
 3976SOL    HW123387   0.073   3.494   2.705 -1.1066 -1.7719  1.3689
 3976SOL    HW223388   4.694   3.601   2.705 -1.6738 -1.7970  0.9558
 3977SOL     OW23389   0.664   2.498   8.863  0.0235 -0.3948  0.0035
 3977SOL    HW123390   0.706   2.495   8.948 -1.3145 -1.2703  0.6428
 3977SOL    HW223391   0.610   2.419   8.868 -1.7839  0.9750  2.0009
 3978SOL     OW23392   4.108   3.628  16.024  0.3325 -0.0987  0.1411
 3978SOL    HW123393   4.137   3.713  16.057  2.7516 -2.2229  3.4417
 3978SOL    HW223394   4.166   3.622  15.948 -0.3694  3.8404 -0.7126
 3979SOL     OW23395   2.592   4.583   6.010  0.0435  0.1685  0.0111
 3979SOL    HW123396   2.535   4.523   6.058 -1.0125  1.5877  0.5286
 3979SOL    HW223397   2.609   4.645   6.080 -1.6670 -0.8151  1.2905
 3980SOL     OW23398   1.317   4.454   7.507 -0.1027 -0.2775  0.4979
 3980SOL    HW123399   1.262   4.377   7.524 -1.4394  1.1635  2.5494
 3980SOL    HW223400   1.367   4.450   7.589 -2.5864  0.7990  2.0386
 3981SOL     OW23401   0.688   3.457   7.047  0.0762 -0.0378 -0.0128
 3981SOL    HW123402   0.606   3.483   7.005 -0.8433 -0.8760  1.2414
 3981SOL    HW223403   0.731   3.531   7.089  1.6961 -1.3122  0.5902
 3982SOL     OW23404   3.461   0.234   4.491 -0.1236  0.4464  0.3865
 3982SOL    HW123405   3.451   0.303   4.557  2.7680  0.4488  0.8143
 3982SOL    HW223406   3.377   0.243   4.446 -0.5189 -2.0838  0.6294
 3983SOL     OW23407   1.014   0.286   6.880  0.2932 -0.2202  0.4253
 3983SOL    HW123408   0.959   0.299   6.802 -1.4586 -0.9786  1.5246
 3983SOL    HW223409   1.005   0.374   6.917  5.3395 -0.1502  1.4014
 3984SOL     OW23410   4.285   0.160   7.863 -0.2644 -0.5869  0.3224
 3984SOL    HW123411   4.379   0.176   7.860 -0.2632 -0.9433 -1.3244
 3984SOL    HW223412   4.254   0.250   7.871 -0.7033 -0.7634  0.6715
 3985SOL     OW23413   1.304   2.023   8.738  0.0077  0.7456  1.1139
 3985SOL    HW123414   1.355   2.045   8.660  0.0274 -0.9003  0.6708
 3985SOL    HW223415   1.358   1.957   8.780  0.5584 -0.1361 -0.9635
 3986SOL     OW23416   3.236   1.591   7.535 -0.1446  0.2548  0.1857
 3986SOL    HW123417   3.307   1.605   7.472  1.5591  0.1727  2.0836
 3986SOL    HW223418   3.286   1.547   7.604  1.0849  1.9697  0.3900
 3987SOL     OW23419   2.692   3.162  12.326  0.4757 -0.1627 -0.2620
 3987SOL    HW123420   2.658   3.140  12.413 -2.2859 -0.9527 -1.5261
 3987SOL    HW223421   2.777   3.199  12.347  0.7353 -1.2068  0.5218
 3988SOL     OW23422   0.274   3.279   3.701 -0.1230  0.0726 -0.0018
 3988SOL    HW123423   0.353   3.226   3.715 -0.7167 -0.4017  1.5166
 3988SOL    HW223424   0.304   3.324   3.622  2.2432 -0.5472  0.5262
 3989SOL     OW23425   0.853   3.215   0.264 -0.1552  0.4149  0.4112
 3989SOL    HW123426   0.774   3.239   0.215  0.0705  0.8233  0.2473
 3989SOL    HW223427   0.824   3.157   0.335 -0.8930  0.9910  0.5849
 3990SOL     OW23428   3.871   0.382   2.704 -0.2865  0.6504  0.0216
 3990SOL    HW123429   3.948   0.390   2.760  0.2514  0.6127 -0.7120
 3990SOL    HW223430   3.901   0.374   2.614  2.4281  0.8849  0.9011
 3991SOL     OW23431   4.117   0.028  15.803  0.5830  0.0627  0.2942
 3991SOL    HW123432   4.095   0.121  15.797 -3.5331 -0.8821  0.4359
 3991SOL    HW223433   4.146   0.021  15.712 -0.9111 -0.5435 -0.1438
 3992SOL     OW23434   3.225   1.843   3.255  0.1751 -0.0133  0.1353
 3992SOL    HW123435   3.196   1.784   3.186 -1.1421 -1.5012  1.9509
 3992SOL    HW223436   3.207   1.783   3.328  2.1945 -0.4422  0.2886
 3993SOL     OW23437   4.079   3.138   2.730 -0.4612 -0.1444  0.7874
 3993SOL    HW123438   4.110   3.196   2.660 -2.9973 -0.3309 -0.4872
 3993SOL    HW223439   4.063   3.205   2.796 -0.2263  0.6335  0.0594
 3994SOL     OW23440   4.657   2.145   7.089 -0.4196 -0.3776 -0.4117
 3994SOL    HW123441   4.722   2.095   7.040 -2.4364 -2.9302 -0.4582
 3994SOL    HW223442   4.640   2.215   7.027  1.1470  0.0498 -0.3452
 3995SOL     OW23443   3.210   2.806   1.596 -0.4293 -0.1913 -0.1911
 3995SOL    HW123444   3.260   2.725   1.611  0.6071  0.3835 -0.5440
 3995SOL    HW223445   3.210   2.807   1.500  1.9978  1.1155 -0.1920
 3996SOL     OW23446   1.240   1.523   0.000 -0.0952  0.4336  0.2040
 3996SOL    HW123447   1.250   1.612  17.662  1.1166  0.3679  0.3723
 3996SOL    HW223448   1.327   1.513   0.039 -0.1588  1.7649  0.6972
 3997SOL     OW23449   3.636   1.628  15.961 -0.0400 -0.6496  0.5681
 3997SOL    HW123450   3.652   1.558  16.025 -0.2258 -0.9488  0.2890
 3997SOL    HW223451   3.716   1.679  15.976 -0.7651  0.3449  1.0256
 3998SOL     OW23452   0.159   1.536   8.155 -0.1361  0.2247  0.1084
 3998SOL    HW123453   0.190   1.616   8.199 -2.3442  2.7204 -2.8907
 3998SOL    HW223454   0.101   1.577   8.091  1.1583 -0.2172 -1.3473
 3999SOL     OW23455   3.147   1.646   3.463  0.2208 -0.6530  0.6429
 3999SOL    HW123456   3.161   1.701   3.540 -0.0534 -0.7480  0.7622
 3999SOL    HW223457   3.054   1.633   3.481 -0.0157  0.0698 -0.0537
 4000SOL     OW23458   1.218   1.039   3.234 -0.2892 -0.9366  0.6242
 4000SOL    HW123459   1.235   1.092   3.156  1.0803  0.3488  1.7965
 4000SOL    HW223460   1.299   1.055   3.281  0.9890 -0.0723 -1.8957
 4001SOL     OW23461   4.054   0.796   3.651  0.7042  0.8068  0.2695
 4001SOL    HW123462   4.040   0.716   3.599 -0.0627  1.5294 -0.6335
 4001SOL    HW223463   3.990   0.855   3.612  1.7740  0.4389 -2.0383
 4002SOL     OW23464   1.694   4.554  11.673  0.1032 -0.1359 -0.2307
 4002SOL    HW123465   1.742   4.560  11.756 -0.6106  1.6797  0.0614
 4002SOL    HW223466   1.630   4.486  11.695  1.3342 -0.5412  2.1670
 4003SOL     OW23467   4.465   0.762   4.874 -0.0804  0.5467  0.1420
 4003SOL    HW123468   4.442   0.851   4.900  0.0228  0.6417 -0.0970
 4003SOL    HW223469   4.455   0.772   4.780  0.0905  0.9811  0.1734
 4004SOL     OW23470   2.375   2.123   5.265  0.1051  0.2657 -0.2293
 4004SOL    HW123471   2.457   2.151   5.223 -1.3745  2.2434 -1.7916
 4004SOL    HW223472   2.324   2.202   5.279  0.2314 -0.2616  3.0688
 4005SOL     OW23473   0.863   2.819   7.721  0.4352 -0.1858 -0.2645
 4005SOL    HW123474   0.800   2.747   7.727 -1.1787  1.0739 -2.5603
 4005SOL    HW223475   0.938   2.766   7.693  0.8502  0.8787 -1.1506
 4006SOL     OW23476   3.563   0.649  12.324 -0.7580 -0.6746  0.2361
 4006SOL    HW123477   3.504   0.700  12.379  0.1944  1.9731 -1.1958
 4006SOL    HW223478   3.639   0.673  12.376 -0.8987 -2.0209  1.0435
 4007SOL     OW23479   1.113   0.140   2.476  0.0702 -0.2382  0.0766
 4007SOL    HW123480   1.110   0.162   2.383 -1.7887 -0.7826  0.0094
 4007SOL    HW223481   1.172   0.065   2.475 -0.2337 -0.4659 -1.8716
 4008SOL     OW23482   4.650   1.680   7.961 -0.2756 -0.0743  0.2189
 4008SOL    HW123483   4.614   1.744   7.900  1.5603  0.2251 -0.5615
 4008SOL    HW223484   4.711   1.629   7.907 -0.0863 -0.7981  1.1179
 4009SOL     OW23485   3.339   1.921   2.936 -0.0486 -0.3129 -0.1319
 4009SOL    HW123486   3.382   1.994   2.979 -3.1822  1.8919 -0.7312
 4009SOL    HW223487   3.371   1.844   2.983 -0.0525 -0.2504 -0.0285
 4010SOL     OW23488   4.396   4.697   2.320  0.2861  0.5962  0.2934
 4010SOL    HW123489   4.374   4.684   2.412 -0.2799 -2.4392 -0.2566
 4010SOL    HW223490   4.450   4.618   2.315 -1.2073 -0.3836 -0.6360
 4011SOL     OW23491   2.016   1.344   0.562 -0.1694 -0.2105  0.4594
 4011SOL    HW123492   2.092   1.290   0.585  0.5929  0.7617  0.2749
 4011SOL    HW223493   2.039   1.427   0.603  0.6090 -0.9704  1.5577
 4012SOL     OW23494   2.824   3.114   3.801  0.1799 -0.7041  0.1929
 4012SOL    HW123495   2.768   3.037   3.794 -0.8712  0.0139  0.6866
 4012SOL    HW223496   2.786   3.146   3.883  2.1483  0.6996  0.5765
 4013SOL     OW23497   2.178   1.768   0.388  0.6902 -0.2461  0.3940
 4013SOL    HW123498   2.176   1.861   0.410  1.2621 -0.1533  0.0601
 4013SOL    HW223499   2.265   1.732   0.406  0.8629  0.2212  0.4887
 4014SOL     OW23500   1.184   1.429   1.894 -0.6025 -0.4686  0.0149
 4014SOL    HW123501   1.243   1.363   1.857  3.5094  2.5310  1.2598
 4014SOL    HW223502   1.241   1.485   1.946 -1.2345 -1.5311  1.8686
 4015SOL     OW23503   2.049   0.125   9.807 -0.1399  0.1967  0.3261
 4015SOL    HW123504   2.044   0.033   9.834  0.5772 -0.5817 -2.2086
 4015SOL    HW223505   2.133   0.155   9.840  0.4469 -1.4623  0.3262
 4016SOL     OW23506   1.397   4.151   7.369 -0.4918  0.3731 -0.2655
 4016SOL    HW123507   1.314   4.115   7.337  0.2991 -0.7581 -1.0524
 4016SOL    HW223508   1.383   4.245   7.359  1.1751  0.6451 -0.0526
 4017SOL     OW23509   0.827   2.126   1.834  0.0599 -0.2248  0.4068
 4017SOL    HW123510   0.744   2.103   1.791  0.2354  0.2957 -0.1985
 4017SOL    HW223511   0.790   2.146   1.920  3.1576  0.6248  1.5359
 4018SOL     OW23512   2.999   3.393  13.949 -0.2256 -0.3611 -0.2078
 4018SOL    HW123513   3.060   3.372  14.019  1.2356 -0.5551 -1.5438
 4018SOL    HW223514   3.007   3.489  13.947 -0.1086 -0.3312  1.3030
 4019SOL     OW23515   3.424   2.492  10.801 -0.4144  0.0197 -0.2732
 4019SOL    HW123516   3.480   2.501  10.724  1.1329  0.6486  0.9233
 4019SOL    HW223517   3.479   2.450  10.866 -0.0644 -1.4078 -1.5086
 4020SOL     OW23518   3.379   1.152   4.948  0.6901 -0.5124 -0.6374
 4020SOL    HW123519   3.434   1.098   5.005 -0.9907  0.0748  1.5516
 4020SOL    HW223520   3.381   1.094   4.872 -2.1401  0.0124 -1.1146
 4021SOL     OW23521   0.136   3.134   4.744  0.0679 -0.1040 -0.3932
 4021SOL    HW123522   0.077   3.088   4.803  0.1428  3.0393  2.1452
 4021SOL    HW223523   0.128   3.089   4.660  0.2436 -0.3019 -0.3033
 4022SOL     OW23524   1.136   0.313   1.916  0.7331 -0.5010 -0.1361
 4022SOL    HW123525   1.108   0.289   1.828 -2.6500  2.3865  0.1917
 4022SOL    HW223526   1.106   0.403   1.920  0.0052 -0.6697 -2.1422
 4023SOL     OW23527   4.498   3.335   2.452  0.1041 -0.2176 -0.2353
 4023SOL    HW123528   4.519   3.246   2.426  0.2975  0.4927 -2.5143
 4023SOL    HW223529   4.547   3.376   2.382  0.3930 -1.7402 -0.9158
 4024SOL     OW23530   2.894   2.042  10.983 -0.2574  0.2363  0.3100
 4024SOL    HW123531   2.829   2.096  10.938 -0.2765  1.0195  1.2664
 4024SOL    HW223532   2.848   2.055  11.066  0.4296 -0.9471  0.8731
 4025SOL     OW23533   3.324   2.756   7.128 -1.0744 -0.3710 -0.0840
 4025SOL    HW123534   3.275   2.735   7.049 -1.3172  0.8475 -0.2669
 4025SOL    HW223535   3.251   2.762   7.190  0.6093 -0.5523  1.9178
 4026SOL     OW23536   4.312   0.867  15.381  0.5228  0.4946 -0.4669
 4026SOL    HW123537   4.378   0.905  15.322 -0.2585 -1.2935 -2.5163
 4026SOL    HW223538   4.283   0.787  15.335 -1.5120 -0.3749  2.3764
 4027SOL     OW23539   2.484   3.538   7.893 -0.4391  0.8743  0.3528
 4027SOL    HW123540   2.549   3.605   7.915 -1.0214  1.2838  0.7932
 4027SOL    HW223541   2.415   3.557   7.956  0.8063 -0.6555  2.1826
 4028SOL     OW23542   2.257   1.678   7.749  0.4126 -0.2270 -0.5290
 4028SOL    HW123543   2.216   1.603   7.792  1.0434 -1.1333 -1.5018
 4028SOL    HW223544   2.286   1.637   7.667  0.1466 -0.3224 -0.5762
 4029SOL     OW23545   2.813   2.138  14.673  0.6452  0.0120 -0.2098
 4029SOL    HW123546   2.807   2.138  14.769 -0.4934 -0.9805 -0.2805
 4029SOL    HW223547   2.879   2.070  14.658  0.4914 -0.3762  0.8645
 4030SOL     OW23548   1.435   2.034   7.161 -0.1126  0.1256  0.5916
 4030SOL    HW123549   1.507   1.980   7.193  0.9575  0.6965 -0.8372
 4030SOL    HW223550   1.441   2.025   7.066  3.2975  0.5670  0.7483
 4031SOL     OW23551   4.012   4.643   4.335  0.2404  0.5084  0.9847
 4031SOL    HW123552   4.067   4.662   4.411  0.1463 -0.3619  1.2696
 4031SOL    HW223553   4.068   4.588   4.280 -0.0021  1.3481 -0.1015
 4032SOL     OW23554   1.799   0.707   2.017  0.2508 -0.7010 -0.2831
 4032SOL    HW123555   1.862   0.635   2.017 -0.4724 -1.3235  1.8960
 4032SOL    HW223556   1.722   0.659   1.987  0.9327 -1.0472 -1.4982
 4033SOL     OW23557   1.755   2.655   1.409  0.1702  0.2400  0.8347
 4033SOL    HW123558   1.726   2.582   1.465  1.5220 -2.1097 -1.5320
 4033SOL    HW223559   1.832   2.626   1.361  0.3841  2.8863 -0.4077
 4034SOL     OW23560   0.507   2.575   2.225 -0.0348 -0.1393 -0.6546
 4034SOL    HW123561   0.597   2.571   2.257  0.2863 -1.6404 -1.7607
 4034SOL    HW223562   0.473   2.496   2.267  0.4064 -0.2161 -0.4422
 4035SOL     OW23563   1.709   4.174   7.686 -0.5397 -0.6564 -0.3457
 4035SOL    HW123564   1.696   4.082   7.663 -2.5847  0.1285 -2.3111
 4035SOL    HW223565   1.640   4.220   7.639 -0.1097 -0.3569 -0.6891
 4036SOL     OW23566   2.248   0.751   1.493  0.9000 -0.6276  0.5535
 4036SOL    HW123567   2.222   0.843   1.498  2.5092 -0.1419 -0.0588
 4036SOL    HW223568   2.278   0.749   1.402 -1.3559  1.7343 -0.2264
 4037SOL     OW23569   1.847   1.518  15.882 -0.1177  0.5685 -0.0751
 4037SOL    HW123570   1.860   1.600  15.928 -0.1578  0.9313 -0.7151
 4037SOL    HW223571   1.850   1.544  15.790 -2.9250 -1.9849 -0.8806
 4038SOL     OW23572   4.669   1.466   9.267 -0.2059  0.2689  0.0669
 4038SOL    HW123573   4.698   1.408   9.196  1.6515  2.2925 -0.8366
 4038SOL    HW223574   0.013   1.441   9.330 -0.2791 -1.8708 -0.6830
 4039SOL     OW23575   0.737   0.814   9.237 -0.0423  0.4558  0.0110
 4039SOL    HW123576   0.791   0.754   9.288  1.1701  0.1833 -1.5986
 4039SOL    HW223577   0.746   0.781   9.148  0.9800 -0.4924  0.4677
 4040SOL     OW23578   2.245   4.077  10.715  0.3216  0.0927  0.4109
 4040SOL    HW123579   2.285   4.005  10.764 -1.9572 -1.3711  0.1171
 4040SOL    HW223580   2.209   4.126  10.788  0.9583 -0.0603  0.8284
 4041SOL     OW23581   2.099   1.541  11.549 -0.7823 -0.0331 -0.1126
 4041SOL    HW123582   2.027   1.566  11.491 -1.7241  0.2556  1.1811
 4041SOL    HW223583   2.174   1.543  11.489 -0.6176 -1.8603  0.0431
 4042SOL     OW23584   1.645   1.373  10.212  0.8471  0.4194 -0.1130
 4042SOL    HW123585   1.703   1.329  10.274  0.9518  1.6290  0.6592
 4042SOL    HW223586   1.594   1.293  10.203  2.2292 -0.5034  0.2870
 4043SOL     OW23587   2.431   0.388  12.847  0.1117 -0.2829  0.2669
 4043SOL    HW123588   2.336   0.392  12.860  0.3719 -1.2506  2.4290
 4043SOL    HW223589   2.459   0.453  12.912 -0.8129 -0.2101  0.5886
 4044SOL     OW23590   3.922   4.118   4.854 -0.7213  0.5465 -0.4836
 4044SOL    HW123591   3.989   4.120   4.923  0.1405 -1.1692 -1.2753
 4044SOL    HW223592   3.978   4.101   4.778  1.2245  3.2770  0.3093
 4045SOL     OW23593   3.796   1.451   7.838 -0.6843 -0.0632 -0.6249
 4045SOL    HW123594   3.798   1.510   7.762  0.3623  1.0643  0.2897
 4045SOL    HW223595   3.809   1.365   7.797  2.0001 -0.3296  0.7773
 4046SOL     OW23596   0.922   1.938   2.558 -0.2624 -0.4139 -0.4448
 4046SOL    HW123597   0.892   1.992   2.632  0.1942  0.8058 -1.1476
 4046SOL    HW223598   0.878   1.988   2.490  0.7760  2.1831  0.7533
 4047SOL     OW23599   3.968   1.062  14.829 -0.2416  0.5541 -0.4965
 4047SOL    HW123600   3.885   1.023  14.857  0.0649  1.2015  1.3511
 4047SOL    HW223601   4.031   0.992  14.847 -0.9984 -0.3751 -1.5300
 4048SOL     OW23602   1.300   0.252   5.375 -0.0729 -0.1485  0.4065
 4048SOL    HW123603   1.341   0.304   5.444  1.6722 -1.3188  0.2204
 4048SOL    HW223604   1.216   0.229   5.416  0.3819 -1.7264  0.4363
 4049SOL     OW23605   1.583   0.335   1.717  0.5685 -0.6671 -0.2880
 4049SOL    HW123606   1.656   0.322   1.778  1.2472 -1.2868 -1.2402
 4049SOL    HW223607   1.639   0.375   1.651  0.6929 -0.2475  0.0677
 4050SOL     OW23608   0.582   1.998   3.465  0.6036  0.1978 -0.0900
 4050SOL    HW123609   0.639   1.923   3.449 -2.2491 -1.9873  0.0963
 4050SOL    HW223610   0.494   1.971   3.440  0.4660  0.6956 -0.1537
 4051SOL     OW23611   1.999   0.656   6.659 -0.7662 -0.1481 -0.2893
 4051SOL    HW123612   1.958   0.726   6.709 -0.2232 -0.9798  1.3254
 4051SOL    HW223613   1.960   0.671   6.573 -1.0177 -1.0333 -0.3240
 4052SOL     OW23614   0.522   3.216  10.917 -0.3089 -0.0844 -0.2922
 4052SOL    HW123615   0.480   3.149  10.862 -0.2846  0.2899 -0.7674
 4052SOL    HW223616   0.609   3.177  10.923 -0.3812 -0.1240  0.4516
 4053SOL     OW23617   2.921   2.885   6.868  0.1191  0.7732  0.3964
 4053SOL    HW123618   2.869   2.821   6.916 -1.5377  0.4175 -1.9096
 4053SOL    HW223619   2.867   2.964   6.867 -1.5085 -0.3411  1.0712
 4054SOL     OW23620   1.906   1.872   3.309 -0.7715 -0.2036 -0.4049
 4054SOL    HW123621   1.815   1.900   3.300 -0.6643  0.7203  1.4293
 4054SOL    HW223622   1.949   1.952   3.338 -2.8437  0.3481  1.1400
 4055SOL     OW23623   1.687   3.179   9.607 -0.2458 -0.0518 -0.0001
 4055SOL    HW123624   1.692   3.124   9.685 -3.0115 -1.5126 -0.8249
 4055SOL    HW223625   1.696   3.266   9.647 -0.4416 -0.6022  1.2459
 4056SOL     OW23626   3.552   0.380  12.209 -1.1008  0.6329  0.0045
 4056SOL    HW123627   3.581   0.463  12.246 -0.9455  0.7636 -0.4133
 4056SOL    HW223628   3.547   0.325  12.288  0.8203  1.3859  0.6505
 4057SOL     OW23629   0.272   4.688   7.351  0.5043  0.0044 -0.3206
 4057SOL    HW123630   0.329   4.712   7.277 -0.3186  0.0911 -0.9174
 4057SOL    HW223631   0.336   4.675   7.421 -0.8639 -1.1073  0.6999
 4058SOL     OW23632   0.324   2.964   5.343  0.7633 -0.6034  0.0345
 4058SOL    HW123633   0.403   2.984   5.292  0.2879  3.8387  1.0490
 4058SOL    HW223634   0.353   2.986   5.431  0.9063 -2.9572  0.5815
 4059SOL     OW23635   1.811   4.570   4.919  0.7523 -0.6176  0.2760
 4059SOL    HW123636   1.797   4.511   4.993 -1.8841  0.4743  0.6329
 4059SOL    HW223637   1.760   4.644   4.953  0.9278 -1.4004  2.2561
 4060SOL     OW23638   4.360   0.852   1.001  0.0141 -0.3876  0.0434
 4060SOL    HW123639   4.287   0.796   1.027 -2.2668  2.2732 -0.4895
 4060SOL    HW223640   4.312   0.915   0.947 -1.2202 -0.8708  0.5805
 4061SOL     OW23641   3.636   1.398  11.946  0.3502 -0.1820  0.3238
 4061SOL    HW123642   3.584   1.468  11.906  0.9266  0.2243  0.2882
 4061SOL    HW223643   3.718   1.437  11.976  0.2494 -0.6426  1.1857
 4062SOL     OW23644   2.475   0.922   9.274  0.0130  0.4533  0.4099
 4062SOL    HW123645   2.509   0.896   9.359  0.4850 -0.2279  0.0085
 4062SOL    HW223646   2.396   0.971   9.298 -1.4660 -1.1138 -1.2200
 4063SOL     OW23647   0.066   0.027   1.575  0.7234  0.5429 -0.3190
 4063SOL    HW123648   0.016   0.048   1.496  0.4100  2.9111  0.5172
 4063SOL    HW223649   0.127   4.696   1.525  0.1728 -0.3882  0.0307
 4064SOL     OW23650   3.555   4.529   7.367  0.2587  0.1393  0.6077
 4064SOL    HW123651   3.613   4.560   7.436 -1.3829 -1.2820  2.6309
 4064SOL    HW223652   3.471   4.549   7.409 -0.0289 -0.0221  0.1048
 4065SOL     OW23653   1.953   2.115   5.935  0.0955 -0.6337  0.0421
 4065SOL    HW123654   1.929   2.163   6.014  1.1658  0.8794 -0.5496
 4065SOL    HW223655   1.975   2.188   5.877 -0.0087  1.1714  2.2965
 4066SOL     OW23656   2.037   1.109   9.540  0.5842 -0.7954  0.6308
 4066SOL    HW123657   1.977   1.160   9.486  0.7363  0.1777  1.3783
 4066SOL    HW223658   2.050   1.167   9.615 -0.5229 -0.4641  0.5620
 4067SOL     OW23659   2.791   0.061   5.411 -0.8202  0.6068 -0.2763
 4067SOL    HW123660   2.876   0.063   5.456 -1.4951  1.3185  0.9560
 4067SOL    HW223661   2.723   0.031   5.470  0.1323 -2.9695 -1.0232
 4068SOL     OW23662   1.205   2.758  12.034 -0.3194  0.0656  0.3094
 4068SOL    HW123663   1.226   2.775  12.126 -1.2931 -0.0175  0.5458
 4068SOL    HW223664   1.295   2.757  12.001  0.9091  2.4907  3.4818
 4069SOL     OW23665   0.147   0.320   8.575 -0.1907  0.2263  0.1380
 4069SOL    HW123666   0.070   0.372   8.597  0.2248  1.0333 -0.3428
 4069SOL    HW223667   0.139   0.317   8.479 -1.0001 -2.1505  0.2781
 4070SOL     OW23668   2.341   2.444   5.392  0.3731  0.3910  0.6709
 4070SOL    HW123669   2.428   2.425   5.426  0.2356  1.2083  1.4978
 4070SOL    HW223670   2.351   2.535   5.362 -0.2151 -0.0932 -1.0247
 4071SOL     OW23671   4.605   1.440   3.624  0.5562 -0.4552  0.1003
 4071SOL    HW123672   4.564   1.486   3.697  1.0090 -0.2911  0.2471
 4071SOL    HW223673   4.529   1.424   3.567 -1.2833  1.1739  2.1247
 4072SOL     OW23674   3.929   2.118  11.046  0.2469  0.0937  0.3217
 4072SOL    HW123675   3.907   2.187  11.109  2.3880  0.6242  0.4775
 4072SOL    HW223676   3.855   2.124  10.985  1.5201 -0.5881 -1.3035
 4073SOL     OW23677   4.121   4.382   0.169  0.0072 -0.4357 -0.1891
 4073SOL    HW123678   4.113   4.460   0.114  0.4673 -0.8223 -0.8018
 4073SOL    HW223679   4.087   4.413   0.253 -0.6327 -3.3570  0.6073
 4074SOL     OW23680   3.876   2.575  17.668  0.8175 -0.2811 -0.0229
 4074SOL    HW123681   3.894   2.603   0.061 -0.6434 -2.0778  0.8273
 4074SOL    HW223682   3.843   2.486  17.664 -2.5314  0.9876 -0.6565
 4075SOL     OW23683   4.391   0.704  15.760  0.2945  0.0819  0.4438
 4075SOL    HW123684   4.481   0.710  15.728  0.2712 -0.8075  0.2234
 4075SOL    HW223685   4.367   0.625  15.711  1.3338  0.8935 -1.3972
 4076SOL     OW23686   1.030   1.807  15.334  0.0855  0.2551 -0.5202
 4076SOL    HW123687   1.109   1.803  15.388  0.6166  0.0472 -1.3084
 4076SOL    HW223688   1.045   1.878  15.272 -0.1129  1.0811  0.3839
 4077SOL     OW23689   3.605   3.699  13.293  0.1457  1.0379  0.0281
 4077SOL    HW123690   3.545   3.624  13.294  0.9097  0.4471  1.5334
 4077SOL    HW223691   3.586   3.751  13.372  2.4978  0.9826  0.6139
 4078SOL     OW23692   1.159   0.324  17.019 -0.7823 -0.2396  0.4330
 4078SOL    HW123693   1.212   0.252  17.055  0.5088  0.1936 -0.6070
 4078SOL    HW223694   1.099   0.345  17.090 -2.5245 -1.7843 -0.5710
 4079SOL     OW23695   4.436   3.026  10.438  0.0182  0.7703  0.3615
 4079SOL    HW123696   4.517   3.073  10.457  0.1571  0.7570 -0.2000
 4079SOL    HW223697   4.374   3.098  10.451  1.6883  2.0731  1.0167
 4080SOL     OW23698   2.759   4.560   5.023 -0.6144  0.0364  0.5549
 4080SOL    HW123699   2.808   4.585   5.101  1.6818 -0.8054 -0.6052
 4080SOL    HW223700   2.690   4.625   5.032 -0.1211  0.5736  0.4330
 4081SOL     OW23701   0.296   0.503   8.700 -0.2378 -0.2105 -0.3067
 4081SOL    HW123702   0.262   0.423   8.661 -0.9809  0.6023 -1.3461
 4081SOL    HW223703   0.214   0.553   8.699 -0.2757 -0.2406  0.8629
 4082SOL     OW23704   0.387   3.728   6.107  0.1428 -0.1742 -0.4635
 4082SOL    HW123705   0.384   3.824   6.102 -0.1705 -0.0715  1.7216
 4082SOL    HW223706   0.389   3.721   6.202  0.8766 -1.8421 -0.6094
 4083SOL     OW23707   4.054   1.463  16.131  0.0683 -0.0770 -0.2305
 4083SOL    HW123708   4.063   1.459  16.036  2.3369  0.6185 -0.0386
 4083SOL    HW223709   4.130   1.516  16.156 -0.5691  1.4067 -1.4404
 4084SOL     OW23710   3.514   2.766  14.516 -0.0527  0.1809 -0.0874
 4084SOL    HW123711   3.475   2.757  14.429  0.1388  1.4554 -0.3127
 4084SOL    HW223712   3.498   2.678  14.550  1.2764 -0.0899 -0.1650
 4085SOL     OW23713   2.513   0.665   4.344  0.0328  0.1660 -0.8204
 4085SOL    HW123714   2.548   0.691   4.430  0.1905 -0.1780 -0.7807
 4085SOL    HW223715   2.423   0.655   4.374  0.5212 -0.5623  0.4129
 4086SOL     OW23716   0.503   2.323   4.663  0.2015  0.0912 -0.2132
 4086SOL    HW123717   0.532   2.404   4.703  1.3717 -0.1705 -0.5270
 4086SOL    HW223718   0.553   2.329   4.581 -0.1987  1.5551 -0.3450
 4087SOL     OW23719   2.487   1.950   0.764  0.3071 -0.0948  0.5549
 4087SOL    HW123720   2.475   1.953   0.669 -0.2198 -0.9973  0.5917
 4087SOL    HW223721   2.469   1.856   0.774 -2.7468  0.5433  0.8253
 4088SOL     OW23722   2.355   2.091   6.566 -0.0352  0.5488 -0.4354
 4088SOL    HW123723   2.321   2.156   6.506  1.6700 -0.6211 -2.6919
 4088SOL    HW223724   2.342   2.143   6.645  0.5084 -0.4003  0.2851
 4089SOL     OW23725   0.746   1.962  11.844 -0.1580  0.2476 -0.6627
 4089SOL    HW123726   0.759   2.039  11.788  1.6761 -0.1393 -0.7483
 4089SOL    HW223727   0.785   1.896  11.787  0.4472 -1.4410  1.7161
 4090SOL     OW23728   3.051   0.867   2.284 -0.2398 -0.1948  0.5052
 4090SOL    HW123729   2.968   0.826   2.262 -1.5423  1.5187  2.2922
 4090SOL    HW223730   3.082   0.803   2.348 -0.6947 -1.1965 -0.2703
 4091SOL     OW23731   1.617   1.260   7.622 -0.0522 -0.0819 -0.1059
 4091SOL    HW123732   1.596   1.230   7.711 -0.6666  0.7090  0.0186
 4091SOL    HW223733   1.698   1.213   7.603 -1.7314 -2.3888 -1.5289
 4092SOL     OW23734   0.525   0.590   4.085  0.3555  0.2035 -0.3453
 4092SOL    HW123735   0.549   0.597   3.992 -0.7987  1.1257 -0.5789
 4092SOL    HW223736   0.482   0.673   4.107  0.3768 -0.3857  1.8318
 4093SOL     OW23737   0.475   3.153  15.569 -0.3004 -0.2919 -0.0333
 4093SOL    HW123738   0.558   3.128  15.610 -1.3939 -1.8945  1.2041
 4093SOL    HW223739   0.504   3.178  15.482 -1.2953  1.1437  0.0381
 4094SOL     OW23740   3.565   2.063   4.865  0.5765  0.1388 -0.3627
 4094SOL    HW123741   3.603   2.050   4.952  0.8833 -0.8634 -0.6384
 4094SOL    HW223742   3.621   2.007   4.811 -2.0686 -0.9301 -2.0272
 4095SOL     OW23743   1.362   2.827  10.905 -0.3817 -0.3509 -0.0236
 4095SOL    HW123744   1.279   2.859  10.938 -0.3902 -0.8782  0.4621
 4095SOL    HW223745   1.415   2.826  10.984 -0.4142 -0.6239 -0.0047
 4096SOL     OW23746   0.180   2.025   6.628 -0.1992 -0.1169  0.5191
 4096SOL    HW123747   0.107   2.086   6.644 -0.4498 -0.5740  1.1136
 4096SOL    HW223748   0.237   2.075   6.570 -1.8955  1.1076 -0.1112
 4097SOL     OW23749   4.344   0.220   4.708 -0.1161  0.2392 -0.4280
 4097SOL    HW123750   4.378   0.145   4.658 -1.0645  0.4718 -1.4129
 4097SOL    HW223751   4.386   0.213   4.794  2.3054 -2.5073 -1.8117
 4098SOL     OW23752   2.464   3.379   2.565  0.3030  0.0662  0.0100
 4098SOL    HW123753   2.463   3.370   2.661 -0.3135  1.0292  0.0960
 4098SOL    HW223754   2.475   3.294   2.522 -1.8421 -1.1242  1.7678
 4099SOL     OW23755   0.855   3.281   6.229 -0.0885  0.7301  0.0485
 4099SOL    HW123756   0.816   3.333   6.158 -0.3621  0.2792 -0.1290
 4099SOL    HW223757   0.795   3.207   6.232  0.0740  0.5819 -0.4035
 4100SOL     OW23758   4.534   1.054   6.322 -0.3801 -0.7032 -0.7083
 4100SOL    HW123759   4.575   0.977   6.283  1.1911 -0.1277 -0.1967
 4100SOL    HW223760   4.452   1.048   6.273 -0.9695  0.7741  0.1004
 4101SOL     OW23761   3.000   0.566   2.058 -0.0477  0.0994 -1.1038
 4101SOL    HW123762   2.949   0.488   2.036  0.8773 -0.6696 -0.5602
 4101SOL    HW223763   2.947   0.629   2.010  0.4437 -0.5992 -2.5385
 4102SOL     OW23764   4.449   0.779   6.020 -0.1266  0.2279  0.1934
 4102SOL    HW123765   4.365   0.775   6.065 -0.2640 -1.6991 -0.2384
 4102SOL    HW223766   4.502   0.714   6.066 -2.3460 -1.5859  0.2064
 4103SOL     OW23767   3.111   4.681  12.855  0.0800 -0.1127  0.1267
 4103SOL    HW123768   3.110   4.717  12.943  0.6072  1.3481 -0.4622
 4103SOL    HW223769   3.197   4.714  12.827 -1.2915  1.6847 -2.0180
 4104SOL     OW23770   3.492   3.257  15.112 -0.6326 -0.6842 -0.4837
 4104SOL    HW123771   3.454   3.308  15.184  1.1223 -0.5307  0.3321
 4104SOL    HW223772   3.413   3.244  15.059 -2.2061  1.2225  1.4219
 4105SOL     OW23773   1.073   0.826   2.943  0.2827 -0.1003 -0.3635
 4105SOL    HW123774   1.029   0.765   3.002  1.8246 -2.5053 -1.6734
 4105SOL    HW223775   1.157   0.780   2.936  1.1160  1.4013 -0.2152
 4106SOL     OW23776   1.267   3.555   0.541 -0.2459  0.4322  0.0831
 4106SOL    HW123777   1.243   3.521   0.627  0.6525 -1.6896 -0.5120
 4106SOL    HW223778   1.268   3.649   0.560  2.6351 -0.5845  5.0895
 4107SOL     OW23779   1.092   1.278   7.817  0.2369  0.3996  0.4940
 4107SOL    HW123780   1.003   1.305   7.844  0.3440  1.9111 -0.6743
 4107SOL    HW223781   1.073   1.268   7.724 -0.0740  3.1598  0.2678
 4108SOL     OW23782   2.463   1.611   8.554 -0.1927 -0.1154 -0.1892
 4108SOL    HW123783   2.536   1.672   8.550  0.9015 -1.5254 -1.6334
 4108SOL    HW223784   2.442   1.599   8.462  0.1933  0.0140 -0.2915
 4109SOL     OW23785   0.279   3.674   0.583 -0.0734 -0.1124  0.3298
 4109SOL    HW123786   0.315   3.612   0.519  0.1443 -0.5502  0.8743
 4109SOL    HW223787   0.226   3.621   0.643 -0.9666 -0.3573 -0.6775
 4110SOL     OW23788   4.037   2.347  10.336  0.1049 -0.1692  0.3396
 4110SOL    HW123789   4.074   2.436  10.344  0.4448 -0.1355 -1.7779
 4110SOL    HW223790   4.064   2.309  10.253  1.3638  2.3348 -0.4060
 4111SOL     OW23791   1.635   2.192   6.985  0.3053 -0.6049 -0.0993
 4111SOL    HW123792   1.679   2.134   7.047 -0.9178  0.0409  1.3961
 4111SOL    HW223793   1.688   2.272   6.993 -0.1681 -0.4532  1.6646
 4112SOL     OW23794   3.302   2.618   8.777 -0.0577 -0.6410 -0.1999
 4112SOL    HW123795   3.233   2.681   8.756 -2.0656 -2.7246  0.0997
 4112SOL    HW223796   3.346   2.625   8.692  2.0806  0.8878  1.0291
 4113SOL     OW23797   4.220   4.656   5.214 -0.2790  0.4207  0.0038
 4113SOL    HW123798   4.193   4.683   5.302  1.4879  1.6521  0.1769
 4113SOL    HW223799   4.297   4.603   5.237 -1.2236 -0.4713  1.0875
 4114SOL     OW23800   0.159   3.526   7.807  0.0132  1.2129  0.0200
 4114SOL    HW123801   0.189   3.488   7.889  0.0818 -1.1177 -1.0697
 4114SOL    HW223802   0.168   3.616   7.837  1.5046  0.8472  0.6341
 4115SOL     OW23803   0.050   1.105   0.139  0.0892 -0.2929  0.3623
 4115SOL    HW123804   4.692   1.152   0.124  1.0974  1.2180 -0.3610
 4115SOL    HW223805   0.120   1.168   0.123 -0.6478  0.1009 -1.3543
 4116SOL     OW23806   2.887   0.511  13.937  0.7260 -1.0097  0.1467
 4116SOL    HW123807   2.880   0.582  13.873 -2.2305 -0.7042  0.8156
 4116SOL    HW223808   2.891   0.438  13.875 -2.0816  1.0925 -2.5009
 4117SOL     OW23809   1.456   3.486   3.167 -0.1293  0.9859  0.1905
 4117SOL    HW123810   1.419   3.398   3.161  0.6988  0.8328 -3.1992
 4117SOL    HW223811   1.394   3.534   3.112 -0.4456 -0.2845 -0.5572
 4118SOL     OW23812   0.866   2.467   6.849  0.1398  0.3100 -0.1829
 4118SOL    HW123813   0.814   2.386   6.842  1.1906 -0.1927 -2.1856
 4118SOL    HW223814   0.821   2.513   6.919  0.3304 -1.5951  1.1941
 4119SOL     OW23815   3.705   2.328  15.144 -0.0835 -0.0552  0.2912
 4119SOL    HW123816   3.787   2.371  15.167 -0.3377  0.7017 -0.2474
 4119SOL    HW223817   3.646   2.393  15.180  1.1880  0.6876  1.0379
 4120SOL     OW23818   4.284   2.325   6.638  0.8535  0.0103 -0.1836
 4120SOL    HW123819   4.201   2.293   6.602 -0.0012  2.7996 -0.7170
 4120SOL    HW223820   4.268   2.418   6.656 -0.3106 -0.4782  1.2883
 4121SOL     OW23821   4.074   2.289   7.502 -0.0391 -0.5685  0.0639
 4121SOL    HW123822   4.050   2.372   7.543 -0.4987 -0.0794 -1.1860
 4121SOL    HW223823   4.076   2.305   7.407 -0.1368  0.3198  0.2116
 4122SOL     OW23824   2.404   0.602   9.889  0.1147 -0.3370  0.8659
 4122SOL    HW123825   2.450   0.665   9.833 -0.4373 -1.0480 -0.3877
 4122SOL    HW223826   2.468   0.531   9.894  1.6765  1.1271  1.8595
 4123SOL     OW23827   1.918   4.087   4.089 -0.3466  0.0395  0.2096
 4123SOL    HW123828   1.881   4.142   4.157 -0.2772  0.1535  0.1558
 4123SOL    HW223829   1.983   4.036   4.138  2.0996  3.7068  0.7711
 4124SOL     OW23830   2.341   3.652   5.724 -0.1246  0.1720  0.2695
 4124SOL    HW123831   2.362   3.571   5.677  0.9099 -0.0163  1.0666
 4124SOL    HW223832   2.428   3.692   5.725  0.5726 -1.2263 -3.8590
 4125SOL     OW23833   2.558   0.464   1.105 -0.2348  0.5695  0.3482
 4125SOL    HW123834   2.644   0.505   1.115 -0.5685  0.7227  2.4154
 4125SOL    HW223835   2.510   0.489   1.184 -0.1525  2.0801 -0.0748
 4126SOL     OW23836   4.372   2.674   2.927  0.5534 -0.0585  0.4359
 4126SOL    HW123837   4.296   2.720   2.963 -0.9470  0.0452 -2.8979
 4126SOL    HW223838   4.333   2.591   2.900  0.4276  0.2504 -0.3151
 4127SOL     OW23839   2.248   4.477   8.051  0.0824  0.0535 -0.2667
 4127SOL    HW123840   2.177   4.431   8.006  0.5589  0.0252 -0.9943
 4127SOL    HW223841   2.322   4.466   7.991  1.6746  2.9022  1.1909
 4128SOL     OW23842   0.720   4.710   8.748 -0.4279 -0.1153 -0.2403
 4128SOL    HW123843   0.782   0.043   8.702 -0.7514 -0.0640 -0.6177
 4128SOL    HW223844   0.641   0.039   8.734 -1.2972 -1.4335 -0.3070
 4129SOL     OW23845   4.172   4.429   3.200  1.1243 -0.0201  0.0894
 4129SOL    HW123846   4.104   4.478   3.153  3.0687  2.8596  0.3124
 4129SOL    HW223847   4.205   4.494   3.262 -0.6562  1.9793 -1.0292
 4130SOL     OW23848   1.869   2.355   3.388 -0.4605 -0.5358  0.5903
 4130SOL    HW123849   1.924   2.428   3.419  1.6897 -1.5024 -0.9235
 4130SOL    HW223850   1.833   2.406   3.316 -0.4696 -0.4586  0.6497
 4131SOL     OW23851   0.359   3.437   3.457 -0.2516 -0.6487  0.7456
 4131SOL    HW123852   0.453   3.451   3.462 -0.0692 -0.9827 -1.9434
 4131SOL    HW223853   0.326   3.527   3.458  0.0733 -0.5148 -1.2871
 4132SOL     OW23854   2.085   1.366   5.665  0.0307 -0.1170 -0.2931
 4132SOL    HW123855   2.109   1.398   5.752 -2.8143  0.2084  0.3748
 4132SOL    HW223856   2.041   1.441   5.626 -0.6679  0.1833  1.0526
 4133SOL     OW23857   1.474   1.290  13.467 -0.1484  0.2195  0.2739
 4133SOL    HW123858   1.397   1.347  13.472 -1.8963 -1.9745 -1.5903
 4133SOL    HW223859   1.429   1.205  13.463  0.1453  0.0212  1.0805
 4134SOL     OW23860   1.457   2.985   7.965 -0.1181 -0.2041 -0.2756
 4134SOL    HW123861   1.544   2.961   7.996 -0.5864 -0.0073  1.2034
 4134SOL    HW223862   1.407   2.908   7.992  1.5708  0.1038  3.7523
 4135SOL     OW23863   2.090   1.700   8.552  0.4091  0.5419  0.1685
 4135SOL    HW123864   2.136   1.618   8.537  0.3386  0.5727 -0.2195
 4135SOL    HW223865   2.135   1.716   8.635  0.7153 -2.3961  0.5622
 4136SOL     OW23866   1.709   3.389   2.858  0.5149  0.9158  0.2695
 4136SOL    HW123867   1.674   3.303   2.833  1.1668  1.1238 -1.3806
 4136SOL    HW223868   1.795   3.388   2.816 -0.3413  0.6634 -1.5244
 4137SOL     OW23869   0.363   4.708   4.495  0.0370 -0.6990 -0.1383
 4137SOL    HW123870   0.283   0.017   4.453  0.0083  0.4780  0.8223
 4137SOL    HW223871   0.429   0.020   4.436  0.1033 -3.7775 -1.9478
 4138SOL     OW23872   3.517   2.183   4.511 -0.5165 -0.0392 -0.2715
 4138SOL    HW123873   3.424   2.171   4.493 -0.5911 -0.4830  0.4099
 4138SOL    HW223874   3.507   2.229   4.594 -1.6219 -1.5334  0.4147
 4139SOL     OW23875   1.289   3.185   0.883 -0.3993 -1.0265 -0.2208
 4139SOL    HW123876   1.274   3.220   0.971 -1.1319  1.3271 -1.2679
 4139SOL    HW223877   1.344   3.248   0.837 -0.9065 -0.1887  0.3160
 4140SOL     OW23878   4.080   1.022  15.330 -0.1392 -0.6357  0.1471
 4140SOL    HW123879   4.042   0.986  15.249 -0.3131 -1.9636  0.8130
 4140SOL    HW223880   4.161   0.975  15.310 -0.8418 -1.4785 -0.7357
 4141SOL     OW23881   4.661   2.821   4.852 -0.2891  0.1861  0.0001
 4141SOL    HW123882   4.639   2.763   4.925  1.0257 -3.1412 -2.2434
 4141SOL    HW223883   4.682   2.904   4.896 -0.5708 -1.0925  2.5574
 4142SOL     OW23884   3.701   2.763   4.489  0.0821 -0.0567  0.5120
 4142SOL    HW123885   3.709   2.690   4.550 -0.3051  0.5327  1.2647
 4142SOL    HW223886   3.757   2.734   4.417 -1.7295 -0.9132 -0.5553
 4143SOL     OW23887   2.270   3.846  15.454 -0.2040 -0.4903  0.4307
 4143SOL    HW123888   2.226   3.928  15.433 -2.0549 -1.4238  0.6837
 4143SOL    HW223889   2.358   3.872  15.481 -0.6678  1.9822 -0.5234
 4144SOL     OW23890   2.528   3.447   7.025  0.0215 -0.1976  0.2303
 4144SOL    HW123891   2.444   3.405   7.007 -0.5302  1.2015 -0.4271
 4144SOL    HW223892   2.523   3.527   6.973 -1.8632 -2.2150 -2.7220
 4145SOL     OW23893   3.155   4.196   9.328  0.6348  0.2183  0.1484
 4145SOL    HW123894   3.224   4.132   9.346  0.8002  0.3162 -0.1406
 4145SOL    HW223895   3.105   4.145   9.264  1.7703 -0.6030 -0.0836
 4146SOL     OW23896   2.787   2.280   7.126  0.1230 -0.3077 -0.5233
 4146SOL    HW123897   2.825   2.213   7.070 -1.0381 -0.5246 -1.0534
 4146SOL    HW223898   2.855   2.287   7.193  0.0221  2.4019 -0.6836
 4147SOL     OW23899   3.747   3.144   2.583 -0.0296  0.1849  0.2641
 4147SOL    HW123900   3.744   3.216   2.646 -0.6175  2.1693 -2.0497
 4147SOL    HW223901   3.790   3.189   2.510 -1.6864  0.4840 -0.5370
 4148SOL     OW23902   4.098   0.342   4.701  0.0366 -0.0317  0.5605
 4148SOL    HW123903   4.070   0.331   4.610 -1.3129 -0.0312  0.9819
 4148SOL    HW223904   4.182   0.297   4.700 -1.1686 -2.2745  0.9442
 4149SOL     OW23905   0.908   0.538  12.861 -0.0241 -0.4615  0.2459
 4149SOL    HW123906   0.837   0.513  12.920 -0.0008  1.8635  1.2546
 4149SOL    HW223907   0.905   0.457  12.810  2.1027 -0.7159  0.5267
 4150SOL     OW23908   1.344   3.338   1.796 -0.2763  0.0704 -0.2343
 4150SOL    HW123909   1.256   3.308   1.819 -0.6933  1.1730 -0.3912
 4150SOL    HW223910   1.325   3.419   1.749 -1.4269 -1.3226 -2.1666
 4151SOL     OW23911   4.601   3.999   4.841  0.0597  0.0451  0.1799
 4151SOL    HW123912   4.598   4.087   4.802 -0.5501  0.1691  0.5053
 4151SOL    HW223913   4.509   3.974   4.854 -0.7638  2.9619  0.0813
 4152SOL     OW23914   0.908   0.555   5.351 -0.9558  0.2953 -0.4459
 4152SOL    HW123915   0.916   0.647   5.327 -1.1416  0.2487 -0.6956
 4152SOL    HW223916   0.961   0.520   5.279 -1.0867  0.5809 -0.6817
 4153SOL     OW23917   0.100   2.185  11.662 -0.0228 -0.5999  0.4780
 4153SOL    HW123918   0.018   2.173  11.615  0.2731  0.6270 -0.3566
 4153SOL    HW223919   0.116   2.105  11.713  1.9066 -1.5274 -1.5628
 4154SOL     OW23920   3.483   2.974   6.504  0.5234 -0.0914  0.3649
 4154SOL    HW123921   3.399   2.990   6.546 -0.1805  0.3823 -1.2572
 4154SOL    HW223922   3.491   2.880   6.520 -1.0214 -0.1735  0.6634
 4155SOL     OW23923   3.571   1.484  13.171  0.0792  0.7004 -0.2345
 4155SOL    HW123924   3.585   1.424  13.244  1.9184  0.8341 -0.4748
 4155SOL    HW223925   3.546   1.561  13.221  1.1322 -0.3425  1.8712
 4156SOL     OW23926   3.341   0.096   6.516 -0.0521  0.1805 -0.4922
 4156SOL    HW123927   3.403   0.155   6.558 -1.0571  0.9948 -0.1310
 4156SOL    HW223928   3.348   0.027   6.582 -3.0217  0.2955 -0.0571
 4157SOL     OW23929   2.025   1.873  10.304 -0.1293  0.0608 -0.3588
 4157SOL    HW123930   2.079   1.848  10.229 -0.7733 -1.7405 -0.2307
 4157SOL    HW223931   2.030   1.966  10.324 -1.2018 -0.1084  0.6847
 4158SOL     OW23932   3.350   3.945   7.669 -0.2374  0.1394 -0.2590
 4158SOL    HW123933   3.410   3.969   7.740 -0.2227 -1.2520  0.1882
 4158SOL    HW223934   3.421   3.950   7.606 -1.0986 -0.2739 -1.2674
 4159SOL     OW23935   0.727   2.998   8.107  0.2276 -0.8589 -0.0858
 4159SOL    HW123936   0.742   3.006   8.201  1.7030  1.8763 -0.5469
 4159SOL    HW223937   0.640   3.035   8.094 -0.0263 -1.2509  0.4961
 4160SOL     OW23938   0.722   2.067   3.901 -0.0484 -0.0624  0.4636
 4160SOL    HW123939   0.777   2.136   3.863  1.2323 -0.8381  0.9095
 4160SOL    HW223940   0.665   2.125   3.953 -0.3468  0.3470 -0.3221
 4161SOL     OW23941   2.436   3.163   5.298 -0.1782  0.2349 -0.3958
 4161SOL    HW123942   2.353   3.196   5.333 -0.8515 -1.4005 -0.4471
 4161SOL    HW223943   2.449   3.227   5.228 -1.7966  1.8887  0.8189
 4162SOL     OW23944   2.309   3.444   8.135 -0.2659  0.0657 -0.2379
 4162SOL    HW123945   2.216   3.466   8.127 -0.0633  0.8365 -0.5290
 4162SOL    HW223946   2.343   3.532   8.152 -1.8741  0.1490  2.5344
 4163SOL     OW23947   3.430   3.865  13.463  0.1234  0.3710  0.3226
 4163SOL    HW123948   3.453   3.948  13.422  1.0798  0.1422  0.4112
 4163SOL    HW223949   3.341   3.854  13.427 -0.4728  0.6168  1.7159
 4164SOL     OW23950   3.435   4.411   2.891 -0.1410 -0.0107  0.8060
 4164SOL    HW123951   3.466   4.449   2.974  0.4636  0.3271  0.4224
 4164SOL    HW223952   3.360   4.357   2.918  0.1569 -0.8491 -0.0690
 4165SOL     OW23953   4.406   1.816   5.875 -0.0003  0.0106  0.2161
 4165SOL    HW123954   4.326   1.852   5.837  0.2066  1.2136  0.8942
 4165SOL    HW223955   4.372   1.729   5.895  1.5316 -0.3370  1.3591
 4166SOL     OW23956   1.026   0.864   7.449  0.0008  0.1158  0.0922
 4166SOL    HW123957   1.088   0.930   7.416  0.5801 -1.2572 -1.5639
 4166SOL    HW223958   1.068   0.781   7.426  1.2363  0.9434 -0.6445
 4167SOL     OW23959   0.765   2.529   8.168  0.4156  0.0913  0.7505
 4167SOL    HW123960   0.738   2.592   8.101  3.1346  0.6262  0.1466
 4167SOL    HW223961   0.746   2.577   8.248  0.7428 -0.1610  0.9774
 4168SOL     OW23962   3.287   1.692  13.953  1.0794 -0.5606  0.5348
 4168SOL    HW123963   3.296   1.744  14.033  0.7878 -2.8022  2.0307
 4168SOL    HW223964   3.198   1.657  13.965  0.3057  0.5228 -2.0459
 4169SOL     OW23965   3.950   1.828   9.716  0.3860 -0.5366 -0.2759
 4169SOL    HW123966   3.895   1.855   9.789  1.8298 -0.8042  0.8997
 4169SOL    HW223967   4.011   1.773   9.764 -0.9295  0.6510  2.7478
 4170SOL     OW23968   4.679   0.061   2.129 -0.3617 -0.0772 -0.4242
 4170SOL    HW123969   4.585   0.061   2.111 -1.0001  1.2412  2.8111
 4170SOL    HW223970   4.722   0.088   2.048 -2.7715  1.0351 -1.3178
 4171SOL     OW23971   0.479   4.261   8.146 -0.3204 -0.2420  1.0024
 4171SOL    HW123972   0.507   4.178   8.185  0.6262  0.0274  0.9169
 4171SOL    HW223973   0.564   4.291   8.112 -1.2349 -0.1710 -1.1911
 4172SOL     OW23974   1.320   1.028  11.349 -0.1073 -0.0735 -0.4955
 4172SOL    HW123975   1.251   1.090  11.328 -0.3872  0.4469  1.9408
 4172SOL    HW223976   1.273   0.946  11.364 -0.7417 -0.3221 -3.9361
 4173SOL     OW23977   0.939   3.043   7.908 -0.0789  0.0497  0.1548
 4173SOL    HW123978   0.875   3.036   7.979  1.6711 -0.2834  1.6825
 4173SOL    HW223979   0.920   2.957   7.870  2.1044 -0.6418  0.6239
 4174SOL     OW23980   3.106   4.049   0.123 -0.2760 -0.8979 -0.7088
 4174SOL    HW123981   3.180   4.109   0.124 -0.1722 -1.1064  2.7435
 4174SOL    HW223982   3.070   4.077   0.207  1.5112 -1.4607  0.2280
 4175SOL     OW23983   2.702   0.068  17.600  0.3100  0.1296  0.5006
 4175SOL    HW123984   2.638   0.136  17.621 -0.9902 -0.6890 -0.7704
 4175SOL    HW223985   2.777   0.110  17.642 -0.3240  1.9792 -0.2203
 4176SOL     OW23986   0.326   2.184   8.002  0.0555  0.0715  0.0517
 4176SOL    HW123987   0.350   2.192   8.094  1.4820 -2.1792 -0.1364
 4176SOL    HW223988   0.380   2.254   7.967  1.9892 -1.7092 -0.4948
 4177SOL     OW23989   0.587   2.686  11.737  0.0417 -0.0077  0.1230
 4177SOL    HW123990   0.492   2.682  11.745 -0.1406  2.5929 -0.9668
 4177SOL    HW223991   0.595   2.766  11.788 -0.2155 -0.2084  0.4813
 4178SOL     OW23992   2.512   2.610   9.423 -0.7726 -0.1034 -0.0639
 4178SOL    HW123993   2.561   2.646   9.350  0.5637  0.9370  1.3341
 4178SOL    HW223994   2.423   2.629   9.394 -0.4234  1.5861  0.0174
 4179SOL     OW23995   1.254   1.618  11.286 -0.0988 -0.1499  0.5078
 4179SOL    HW123996   1.283   1.634  11.196 -1.4074  0.4142  0.1893
 4179SOL    HW223997   1.201   1.539  11.273 -1.6265  1.0856 -0.7598
 4180SOL     OW23998   3.208   0.320  11.717 -0.2454 -0.1089  0.4575
 4180SOL    HW123999   3.180   0.409  11.738  0.6594 -0.0995  1.6008
 4180SOL    HW224000   3.290   0.319  11.766  0.5094  0.5976 -0.7872
 4181SOL     OW24001   1.984   3.424  12.215 -0.1044 -0.2946  0.2176
 4181SOL    HW124002   2.063   3.371  12.227 -0.1889 -0.1373  1.4728
 4181SOL    HW224003   1.963   3.397  12.126 -0.6855  1.2195 -0.0962
 4182SOL     OW24004   4.064   3.982  14.159  0.6653 -0.7375  0.0617
 4182SOL    HW124005   4.136   3.923  14.179  1.8397  0.7274  0.1522
 4182SOL    HW224006   4.019   3.919  14.104 -2.4859  1.8864 -0.3622
 4183SOL     OW24007   1.899   3.804   3.971 -0.3564 -0.0692 -0.3567
 4183SOL    HW124008   1.982   3.776   4.009 -0.5679  1.8111  1.5041
 4183SOL    HW224009   1.893   3.885   4.022 -2.5150  0.5313 -1.5779
 4184SOL     OW24010   2.505   2.841   5.663  0.0311 -0.1156 -0.6316
 4184SOL    HW124011   2.516   2.790   5.583 -2.2751  0.0040 -1.0213
 4184SOL    HW224012   2.478   2.923   5.623 -0.0140  0.0281 -0.3069
 4185SOL     OW24013   2.350   0.465   5.526 -0.0502  0.1169 -0.0524
 4185SOL    HW124014   2.383   0.527   5.591  2.6042  0.6796 -1.9168
 4185SOL    HW224015   2.342   0.382   5.572 -1.1086  1.5949  2.4183
 4186SOL     OW24016   2.659   0.700   7.516 -0.1714  0.1994 -0.1470
 4186SOL    HW124017   2.691   0.765   7.578 -0.2324  0.1296 -0.0417
 4186SOL    HW224018   2.566   0.723   7.511  0.3157  2.5083  1.4344
 4187SOL     OW24019   1.437   1.985   2.481 -0.0123  0.2916 -0.8504
 4187SOL    HW124020   1.347   1.952   2.473  0.4771 -1.3850  0.6741
 4187SOL    HW224021   1.429   2.051   2.549  3.1016 -0.4368  0.1967
 4188SOL     OW24022   2.504   1.743   7.598 -0.5521 -0.6795  0.2505
 4188SOL    HW124023   2.516   1.795   7.677 -0.0809  2.8891 -2.1115
 4188SOL    HW224024   2.562   1.787   7.535 -0.8277 -0.7487 -0.0539
 4189SOL     OW24025   2.745   0.343   8.368  0.1553  0.2601 -0.0393
 4189SOL    HW124026   2.825   0.312   8.410  0.4297  0.9833 -0.0199
 4189SOL    HW224027   2.689   0.337   8.445 -0.2671 -1.1442 -0.4702
 4190SOL     OW24028   1.001   2.907   1.719  0.6108  0.1941 -0.5653
 4190SOL    HW124029   1.063   2.851   1.766 -0.3354 -0.9496 -0.6582
 4190SOL    HW224030   0.933   2.917   1.787  1.5096  2.0254  0.0664
 4191SOL     OW24031   1.623   2.752   1.810 -0.6745  0.1403  0.0890
 4191SOL    HW124032   1.601   2.670   1.854  0.9406 -1.0547 -1.3358
 4191SOL    HW224033   1.549   2.805   1.840 -0.4102  1.7780 -2.1719
 4192SOL     OW24034   4.457   2.045   9.020 -0.2375 -0.5212  0.5027
 4192SOL    HW124035   4.417   2.131   9.032 -0.5824 -0.7202  0.7631
 4192SOL    HW224036   4.448   2.009   9.108 -0.2616  0.1660  0.7839
 4193SOL     OW24037   1.824   4.615   2.481  0.0786  0.2076  0.3720
 4193SOL    HW124038   1.729   4.622   2.476 -0.0481  0.6887  3.1903
 4193SOL    HW224039   1.828   4.520   2.493  1.5582  0.2551  0.2764
 4194SOL     OW24040   3.587   2.246  16.738 -0.1181 -0.1567  0.2393
 4194SOL    HW124041   3.657   2.243  16.673 -1.5375 -2.9382 -1.1716
 4194SOL    HW224042   3.650   2.261  16.808  0.0773  0.2424 -0.0190
 4195SOL     OW24043   0.861   3.389   4.913  0.1483  0.7579 -0.3111
 4195SOL    HW124044   0.794   3.425   4.855 -0.4923  0.1672  0.0681
 4195SOL    HW224045   0.942   3.417   4.869  0.0257  0.2844 -0.8422
 4196SOL     OW24046   1.581   1.756   4.193  0.3891 -0.2215 -0.1577
 4196SOL    HW124047   1.643   1.823   4.166  0.0350  1.1003  2.2632
 4196SOL    HW224048   1.500   1.794   4.159  0.3491  0.5079  0.7364
 4197SOL     OW24049   1.058   3.342   1.315  0.2671  0.2789  0.4991
 4197SOL    HW124050   1.083   3.347   1.223 -0.4928  4.4569  0.4915
 4197SOL    HW224051   1.144   3.323   1.354  1.6069  1.4878 -1.8727
 4198SOL     OW24052   3.482   0.252   1.905  0.3239 -0.5487  0.2977
 4198SOL    HW124053   3.479   0.347   1.913 -2.6346 -0.7004  1.0831
 4198SOL    HW224054   3.567   0.235   1.945  0.3137  0.1522  0.6156
 4199SOL     OW24055   2.950   0.680   2.511  0.1707  0.1199 -0.2527
 4199SOL    HW124056   2.950   0.594   2.470  0.9933  0.0232 -0.0668
 4199SOL    HW224057   3.038   0.678   2.550 -0.5374  0.2974  1.3510
 4200SOL     OW24058   1.693   1.078  10.039  0.0778 -0.1950  0.7318
 4200SOL    HW124059   1.722   1.083  10.130 -0.6246  2.3465  0.8157
 4200SOL    HW224060   1.704   0.984  10.026  0.5400 -0.4136  2.6687
 4201SOL     OW24061   2.037   3.984   3.285  0.2079  0.1276  0.1621
 4201SOL    HW124062   2.064   3.999   3.375 -0.8442 -0.4687  0.5754
 4201SOL    HW224063   2.055   4.071   3.248  1.2933 -0.5380 -0.8570
 4202SOL     OW24064   4.617   0.683   7.824  0.6340  0.4590 -0.3869
 4202SOL    HW124065   4.644   0.769   7.792  0.1638  0.2729 -1.2838
 4202SOL    HW224066   4.651   0.634   7.749 -0.4344  0.9505 -1.1834
 4203SOL     OW24067   3.657   0.667   5.604  0.3888  0.0049 -0.1886
 4203SOL    HW124068   3.579   0.614   5.589  0.0837  0.1352  0.9530
 4203SOL    HW224069   3.727   0.627   5.552 -0.6237  0.7020 -2.0980
 4204SOL     OW24070   4.267   0.696   3.336 -0.2729  0.2257  0.4279
 4204SOL    HW124071   4.192   0.650   3.373 -2.0584  3.0833  0.3597
 4204SOL    HW224072   4.215   0.767   3.299  0.8126  1.0379  0.4534
 4205SOL     OW24073   3.695   2.192   5.989 -0.3347  0.0666  0.2560
 4205SOL    HW124074   3.730   2.238   5.912  1.2056 -1.9990 -0.2749
 4205SOL    HW224075   3.637   2.125   5.954 -1.8229  0.4653  1.9779
 4206SOL     OW24076   0.911   0.647   3.073  0.4643  0.4559 -0.5792
 4206SOL    HW124077   0.824   0.609   3.061  0.5421  0.1802 -0.2768
 4206SOL    HW224078   0.970   0.577   3.044  0.8448 -0.6216  2.7533
 4207SOL     OW24079   2.792   2.939   9.051  0.4367  0.5497 -0.1491
 4207SOL    HW124080   2.734   2.909   9.121  1.1624 -0.1098  0.1706
 4207SOL    HW224081   2.757   3.027   9.036 -0.0164  0.7190  1.9076
 4208SOL     OW24082   3.449   2.183   3.747  0.1071 -0.0763 -0.4127
 4208SOL    HW124083   3.418   2.271   3.726 -0.6200 -0.4636 -0.9669
 4208SOL    HW224084   3.541   2.198   3.766  0.0841 -0.5197  0.0613
 4209SOL     OW24085   3.745   2.193  13.978 -0.1951 -0.0415  0.4408
 4209SOL    HW124086   3.832   2.153  13.967  0.3309  1.8300 -2.1513
 4209SOL    HW224087   3.757   2.252  14.053 -2.1842 -0.4221  1.0432
 4210SOL     OW24088   2.171   3.395   5.893 -0.3460 -0.4374  0.1599
 4210SOL    HW124089   2.220   3.346   5.827  2.3871  1.4210  0.8106
 4210SOL    HW224090   2.081   3.383   5.863 -0.0774  0.8447 -1.2324
 4211SOL     OW24091   2.785   2.816   5.154  0.4798  0.3828  0.1755
 4211SOL    HW124092   2.865   2.785   5.111 -0.8862 -2.0540 -0.6303
 4211SOL    HW224093   2.812   2.849   5.240 -0.6393  1.3328  0.1594
 4212SOL     OW24094   4.345   1.264   8.252  0.2370  0.1073  0.0299
 4212SOL    HW124095   4.253   1.242   8.236  0.4508 -2.1931  1.8546
 4212SOL    HW224096   4.372   1.257   8.160 -0.5087  0.1347 -0.1937
 4213SOL     OW24097   2.505   2.620  16.163 -0.2598  0.8150 -0.0324
 4213SOL    HW124098   2.466   2.545  16.119 -0.5912  0.0913  1.4995
 4213SOL    HW224099   2.453   2.624  16.243 -2.2105 -0.3270 -1.2344
 4214SOL     OW24100   1.542   1.589   3.400 -0.2278 -0.1592  0.2303
 4214SOL    HW124101   1.453   1.623   3.398 -0.0671  0.2121 -0.2982
 4214SOL    HW224102   1.591   1.640   3.336  3.7775 -1.4394  2.2752
 4215SOL     OW24103   0.315   1.525   5.074 -0.0527  0.1829  0.6414
 4215SOL    HW124104   0.402   1.553   5.044 -0.0930 -0.7164 -0.3199
 4215SOL    HW224105   0.323   1.528   5.169 -0.4063  2.7794  0.5949
 4216SOL     OW24106   1.193   1.809  16.350 -0.5339  0.2577  0.0779
 4216SOL    HW124107   1.256   1.737  16.345 -2.0352 -1.0220 -0.1894
 4216SOL    HW224108   1.164   1.792  16.440 -1.3632  1.2101 -0.0099
 4217SOL     OW24109   4.638   2.159  14.573 -0.1739 -0.2711  0.7147
 4217SOL    HW124110   4.550   2.163  14.609 -0.6787 -0.2005 -0.5094
 4217SOL    HW224111   4.629   2.079  14.520 -0.0975  0.9757 -1.1862
 4218SOL     OW24112   3.026   0.778   2.815  0.1708  0.0635  0.0891
 4218SOL    HW124113   2.949   0.802   2.763 -0.7428 -1.6997  0.6412
 4218SOL    HW224114   3.094   0.787   2.748  0.0953  0.8001  0.1079
 4219SOL     OW24115   0.806   4.330   8.949  0.0215  0.0397  0.1787
 4219SOL    HW124116   0.806   4.409   8.895 -0.3919  0.6828  1.1342
 4219SOL    HW224117   0.877   4.353   9.008  0.4134 -0.2143 -0.1904
 4220SOL     OW24118   2.080   2.894  10.897 -0.3790  0.0314 -0.0709
 4220SOL    HW124119   2.157   2.946  10.922 -1.3081  0.6350  1.5050
 4220SOL    HW224120   2.049   2.875  10.986  0.1231  0.1163  0.1223
 4221SOL     OW24121   0.352   3.844   3.869  0.2151 -0.1892  0.5108
 4221SOL    HW124122   0.309   3.928   3.878 -0.8185 -0.6874  0.2624
 4221SOL    HW224123   0.293   3.800   3.808  1.9507  1.3169 -2.2462
 4222SOL     OW24124   0.485   4.528   1.525 -0.0970 -0.2649 -0.0722
 4222SOL    HW124125   0.498   4.435   1.509  1.7149  0.1779 -1.2915
 4222SOL    HW224126   0.398   4.544   1.488  0.8869 -0.1575 -2.3966
 4223SOL     OW24127   2.341   1.258   3.505  0.3261 -0.1485 -0.3593
 4223SOL    HW124128   2.402   1.198   3.550  0.2371 -0.9124 -1.2621
 4223SOL    HW224129   2.271   1.241   3.568 -1.8783  1.0471 -2.5279
 4224SOL     OW24130   1.337   0.234   8.022 -0.1536  0.1093 -0.5354
 4224SOL    HW124131   1.376   0.250   7.936  1.0717  0.2256  0.0532
 4224SOL    HW224132   1.305   0.319   8.051  0.1855 -0.5082  1.6471
 4225SOL     OW24133   3.800   3.382   3.242  0.3664 -0.4946  0.2684
 4225SOL    HW124134   3.892   3.360   3.258  0.0058 -3.2248 -1.4155
 4225SOL    HW224135   3.800   3.472   3.276 -0.0067  0.4661 -2.2092
 4226SOL     OW24136   1.645   0.494   8.830 -0.2336 -0.6719  0.2137
 4226SOL    HW124137   1.623   0.456   8.916 -2.4212  0.0300 -0.0380
 4226SOL    HW224138   1.570   0.550   8.812 -0.4993 -2.0876 -2.9516
 4227SOL     OW24139   0.573   1.423   7.777  0.3498 -0.6831 -0.5218
 4227SOL    HW124140   0.567   1.517   7.794  1.1603 -0.6263 -0.5521
 4227SOL    HW224141   0.503   1.385   7.831  0.5281 -0.3202 -0.0332
 4228SOL     OW24142   1.005   4.015   9.778 -0.8790  0.6268 -0.4223
 4228SOL    HW124143   0.987   4.074   9.851  1.8028 -2.1385  2.4756
 4228SOL    HW224144   0.950   3.942   9.808  1.3138 -0.5769  0.6925
 4229SOL     OW24145   1.644   2.295  17.447  0.0489 -0.2156 -0.0594
 4229SOL    HW124146   1.684   2.382  17.445  0.0871 -0.2313  0.0261
 4229SOL    HW224147   1.581   2.311  17.518  2.1277  1.0727  1.5051
 4230SOL     OW24148   1.011   2.498  12.378 -0.2531  1.0100  0.1920
 4230SOL    HW124149   0.959   2.499  12.297 -0.4741  1.2620  0.3397
 4230SOL    HW224150   0.950   2.554  12.425  0.6935  1.8416  0.4320
 4231SOL     OW24151   1.841   3.940   8.310  0.9774 -0.4748  0.6231
 4231SOL    HW124152   1.916   3.979   8.266  0.1572  0.2571 -0.1266
 4231SOL    HW224153   1.872   3.934   8.400 -0.0890 -1.9592  0.9057
 4232SOL     OW24154   0.931   2.742   9.533  0.9722 -0.1980  0.0733
 4232SOL    HW124155   0.898   2.827   9.560  1.8330  0.4233 -0.8204
 4232SOL    HW224156   0.909   2.742   9.440 -0.8706  1.3056  0.5241
 4233SOL     OW24157   4.708   2.384   7.287 -0.2858  0.4040  0.4277
 4233SOL    HW124158   4.689   2.298   7.248  1.9232  0.5625 -0.9996
 4233SOL    HW224159   4.617   2.405   7.306 -0.0986 -0.0820  1.8664
 4234SOL     OW24160   1.056   1.816   2.894  0.7220 -0.5309 -0.2291
 4234SOL    HW124161   1.117   1.743   2.880 -0.8392 -1.7509 -0.6136
 4234SOL    HW224162   1.103   1.884   2.845 -0.0510 -0.2685 -0.6019
 4235SOL     OW24163   2.178   1.151  14.900  0.2121 -0.6260  0.7199
 4235SOL    HW124164   2.173   1.240  14.864  0.5632 -0.1572  1.8158
 4235SOL    HW224165   2.089   1.149  14.936 -0.9508 -1.1697 -2.2181
 4236SOL     OW24166   4.322   1.427   7.356 -0.0926  1.0223  0.1964
 4236SOL    HW124167   4.358   1.380   7.280 -1.4904  0.2085  0.0444
 4236SOL    HW224168   4.397   1.422   7.416 -0.7378  0.9058  0.9903
 4237SOL     OW24169   3.119   1.481   4.484  0.7149 -0.3203  0.1907
 4237SOL    HW124170   3.083   1.393   4.472 -0.2153  0.4580 -2.6857
 4237SOL    HW224171   3.081   1.527   4.410  0.8554  1.0548  0.9811
 4238SOL     OW24172   1.123   2.202   4.760  0.3744 -0.1638  0.4729
 4238SOL    HW124173   1.130   2.295   4.738  0.6433 -0.5055 -0.8550
 4238SOL    HW224174   1.151   2.153   4.683  0.1731  0.6640 -0.1301
 4239SOL     OW24175   1.622   3.274   9.357  0.1743  0.5721  0.0515
 4239SOL    HW124176   1.622   3.219   9.435  0.4275 -0.2032 -0.4949
 4239SOL    HW224177   1.567   3.347   9.385 -1.1243 -0.8953  1.3105
 4240SOL     OW24178   3.771   2.835   6.133  0.5746 -0.1951  0.6695
 4240SOL    HW124179   3.768   2.741   6.150  1.2207 -0.7230 -2.1477
 4240SOL    HW224180   3.706   2.854   6.200  0.5386 -1.0998  0.8818
 4241SOL     OW24181   2.321   4.309   3.576 -0.7023 -0.5821 -0.3005
 4241SOL    HW124182   2.258   4.357   3.630  2.1182  0.6897  1.8426
 4241SOL    HW224183   2.405   4.353   3.592 -0.8272  0.0343 -1.2845
 4242SOL     OW24184   1.632   0.020   3.575 -0.0458 -0.1856 -0.1771
 4242SOL    HW124185   1.606   0.108   3.546 -5.1551 -1.6401 -0.0869
 4242SOL    HW224186   1.675   0.043   3.657 -0.3494 -1.4774  0.3312
 4243SOL     OW24187   3.501   0.981   5.517  0.1002  0.4261 -0.6987
 4243SOL    HW124188   3.539   1.008   5.434  1.0376  0.7601 -0.1639
 4243SOL    HW224189   3.457   0.899   5.495 -0.7206  0.2141  1.6573
 4244SOL     OW24190   0.090   3.758   6.045 -0.3460  0.0190  0.4960
 4244SOL    HW124191   0.093   3.708   6.127 -0.2997  1.1618  1.1887
 4244SOL    HW224192   0.135   3.840   6.066  0.3219  0.0547 -1.0208
 4245SOL     OW24193   0.560   0.466   2.178 -0.5482 -0.1622 -0.1472
 4245SOL    HW124194   0.646   0.434   2.151  0.4245  3.8576 -1.7968
 4245SOL    HW224195   0.512   0.464   2.095 -1.8471 -2.2225  0.6570
 4246SOL     OW24196   2.425   3.278   1.867  0.2409  0.0389  0.4263
 4246SOL    HW124197   2.346   3.277   1.922  1.1622  2.2776  1.7627
 4246SOL    HW224198   2.445   3.369   1.844  1.4556 -0.4808 -0.5082
 4247SOL     OW24199   2.199   0.827  13.201  0.3482 -0.0568 -0.7226
 4247SOL    HW124200   2.294   0.836  13.205  0.4341 -0.5611 -1.5651
 4247SOL    HW224201   2.191   0.732  13.212  1.6204 -0.0268  0.4314
 4248SOL     OW24202   2.624   4.011   6.298 -0.2010 -0.0331 -0.3525
 4248SOL    HW124203   2.666   3.938   6.253 -1.0278 -0.9132  0.2979
 4248SOL    HW224204   2.708   4.033   6.338 -0.0075  1.5579 -1.6053
 4249SOL     OW24205   1.642   0.749  17.650 -0.4952 -0.0127  0.5565
 4249SOL    HW124206   1.671   0.809  17.581  4.4233 -2.0474  0.8386
 4249SOL    HW224207   1.717   0.689  17.643  0.2001  0.6795  2.0579
 4250SOL     OW24208   1.351   4.304   3.634  0.3224 -0.3208  0.4146
 4250SOL    HW124209   1.353   4.389   3.591  0.5301  0.1432  1.3383
 4250SOL    HW224210   1.446   4.295   3.648  0.5298  0.5292 -0.5213
 4251SOL     OW24211   4.404   2.729   7.589  0.0779 -0.2958  0.1690
 4251SOL    HW124212   4.399   2.654   7.531 -1.3190  0.0821 -0.1894
 4251SOL    HW224213   4.328   2.778   7.558  0.2321 -0.3175 -0.2411
 4252SOL     OW24214   3.646   1.820   4.029  0.0522  0.0731  0.0455
 4252SOL    HW124215   3.711   1.870   3.979  0.5809  0.8027  1.4737
 4252SOL    HW224216   3.675   1.731   4.008 -1.9028 -0.3816 -0.7675
 4253SOL     OW24217   2.918   2.716   8.292  0.0160 -0.0471  0.1513
 4253SOL    HW124218   2.970   2.795   8.305  0.3777 -0.2563 -0.0429
 4253SOL    HW224219   2.964   2.676   8.218 -0.5474 -2.6182  1.2088
 4254SOL     OW24220   1.397   0.291   7.549 -0.0966  0.2070  0.3012
 4254SOL    HW124221   1.368   0.209   7.508  0.8458  0.4717 -0.8857
 4254SOL    HW224222   1.459   0.315   7.480  1.7700  0.2626  2.0154
 4255SOL     OW24223   3.695   2.586  12.264 -0.7482 -0.9070  0.8396
 4255SOL    HW124224   3.605   2.617  12.279 -1.1556 -0.1485 -3.0070
 4255SOL    HW224225   3.700   2.540  12.348  1.8572  1.0617  1.7435
 4256SOL     OW24226   1.804   3.015   7.202  0.1427  0.0410  0.1261
 4256SOL    HW124227   1.754   2.961   7.263  0.2296 -0.6395 -0.4061
 4256SOL    HW224228   1.744   3.090   7.203 -2.3757 -2.0174  1.1974
 4257SOL     OW24229   0.815   1.786  15.510 -0.1496  0.1453 -0.3572
 4257SOL    HW124230   0.813   1.856  15.575 -0.1093 -1.1807  1.0535
 4257SOL    HW224231   0.890   1.797  15.451 -2.7881 -0.5360 -3.8282
 4258SOL     OW24232   4.054   3.646   6.761 -0.3393 -0.2368 -0.1178
 4258SOL    HW124233   3.989   3.701   6.717 -0.9123 -0.8948 -0.1003
 4258SOL    HW224234   4.108   3.639   6.682  0.8477 -0.7673  0.7393
 4259SOL     OW24235   3.764   1.621   5.021 -0.2364  0.3781  0.9199
 4259SOL    HW124236   3.777   1.683   4.949  0.7948 -1.5781 -0.5610
 4259SOL    HW224237   3.670   1.617   5.002  0.1411 -0.5764 -0.6625
 4260SOL     OW24238   1.085   3.944   8.380 -0.2338 -0.4096 -0.2356
 4260SOL    HW124239   1.164   3.959   8.329  0.2201  0.1052  0.6191
 4260SOL    HW224240   1.120   3.940   8.469 -1.5578  0.8927  0.3507
 4261SOL     OW24241   0.794   1.159  17.127 -0.3480 -0.1455 -0.1708
 4261SOL    HW124242   0.699   1.148  17.126 -0.4228  0.2431  1.9612
 4261SOL    HW224243   0.816   1.208  17.047 -0.8824 -1.0353 -0.8527
 4262SOL     OW24244   0.447   2.439   7.332  0.2091 -0.1155 -0.3060
 4262SOL    HW124245   0.519   2.501   7.325  0.7329 -0.6909 -0.0338
 4262SOL    HW224246   0.498   2.363   7.360 -0.4357 -0.5755 -0.3935
 4263SOL     OW24247   0.799   3.421   1.917  0.4373 -0.1941 -0.3416
 4263SOL    HW124248   0.879   3.432   1.867  0.8044 -0.8500  0.0999
 4263SOL    HW224249   0.789   3.500   1.971 -1.4963  1.5686 -3.2935
 4264SOL     OW24250   1.729   1.802   0.354  0.0009 -0.2119  0.1745
 4264SOL    HW124251   1.784   1.747   0.409  1.8185  0.9460 -0.4459
 4264SOL    HW224252   1.771   1.775   0.272 -0.7236  1.2038 -0.6692
 4265SOL     OW24253   4.400   3.965   4.301 -0.0010  0.1604  0.3788
 4265SOL    HW124254   4.360   3.922   4.225  0.2286  1.9458 -0.7463
 4265SOL    HW224255   4.443   3.892   4.345 -1.7652 -0.5804  0.8893
 4266SOL     OW24256   2.989   2.256   4.288 -0.0677 -0.3519  0.2520
 4266SOL    HW124257   2.923   2.197   4.324 -1.1292  0.1157 -0.9239
 4266SOL    HW224258   2.994   2.314   4.364 -1.2306 -1.7198  1.3821
 4267SOL     OW24259   1.989   1.201   6.227 -0.4723  0.5976 -0.6834
 4267SOL    HW124260   1.911   1.145   6.227 -0.7401  0.9721 -1.3560
 4267SOL    HW224261   1.957   1.287   6.198 -0.3135 -0.2239 -3.2847
 4268SOL     OW24262   3.460   3.449  12.101 -0.2438  0.2591  0.2626
 4268SOL    HW124263   3.524   3.519  12.111  0.1232 -0.4834  2.9680
 4268SOL    HW224264   3.384   3.496  12.065 -0.3846 -0.5292 -0.4563
 4269SOL     OW24265   1.975   1.947  15.307  0.0178 -0.7403 -0.8000
 4269SOL    HW124266   2.045   1.997  15.265 -2.0964  2.0326 -0.9768
 4269SOL    HW224267   1.962   1.887  15.233  0.3758  1.0694 -2.3110
 4270SOL     OW24268   2.924   4.430  14.124 -0.3387  0.6109 -0.5749
 4270SOL    HW124269   2.961   4.366  14.183 -0.8854  1.1322  0.3360
 4270SOL    HW224270   2.991   4.432  14.056  0.9945  0.9629  0.7674
 4271SOL     OW24271   3.856   4.145   7.337  0.3678 -0.5996  0.4632
 4271SOL    HW124272   3.854   4.215   7.272 -1.1787 -1.1791 -0.0882
 4271SOL    HW224273   3.841   4.194   7.418 -2.1896  1.6490 -1.3695
 4272SOL     OW24274   4.593   4.052  16.100 -0.2073 -0.3542  0.4239
 4272SOL    HW124275   4.539   4.045  16.022  0.0631 -0.7025  0.2681
 4272SOL    HW224276   4.606   3.964  16.136  1.1954 -0.1147  0.5234
 4273SOL     OW24277   1.131   1.506   3.634 -0.2617  0.4965  0.2559
 4273SOL    HW124278   1.051   1.468   3.598  0.8887 -0.6315 -1.0780
 4273SOL    HW224279   1.112   1.600   3.632 -2.6067  0.0383  1.0380
 4274SOL     OW24280   2.874   2.627  11.225  0.1191 -0.1778  0.0749
 4274SOL    HW124281   2.929   2.583  11.290 -1.4487 -2.5154 -0.1756
 4274SOL    HW224282   2.783   2.605  11.243  0.3940 -0.0492  1.6359
 4275SOL     OW24283   1.415   3.309   8.624 -0.0012 -0.2376  0.2891
 4275SOL    HW124284   1.430   3.387   8.570  1.3294 -0.5696  0.1862
 4275SOL    HW224285   1.472   3.336   8.696 -0.0784 -1.3873  0.7776
 4276SOL     OW24286   3.320   1.370   4.757 -0.7053  0.3861 -0.3702
 4276SOL    HW124287   3.343   1.329   4.840 -0.1998  0.3864 -0.5091
 4276SOL    HW224288   3.227   1.352   4.750 -0.8635  1.4918 -1.0807
 4277SOL     OW24289   1.065   3.074   8.208  0.3641 -0.1362 -0.3281
 4277SOL    HW124290   0.989   3.063   8.266  1.0760 -0.3232  0.5746
 4277SOL    HW224291   1.047   3.020   8.131 -3.5490  0.1746  0.3706
 4278SOL     OW24292   2.554   1.614   9.208  0.3211  0.1859 -0.2609
 4278SOL    HW124293   2.499   1.668   9.152 -0.3217  0.1230  0.3101
 4278SOL    HW224294   2.569   1.670   9.285 -0.1220 -0.0471 -0.0034
 4279SOL     OW24295   1.537   0.876   7.961 -0.2577  0.0344  0.3163
 4279SOL    HW124296   1.444   0.853   7.955 -0.6407  1.2957  1.3816
 4279SOL    HW224297   1.569   0.790   7.989  0.9822  0.3094 -0.2739
 4280SOL     OW24298   4.587   2.035  17.268  0.2615 -0.1841 -0.0278
 4280SOL    HW124299   4.611   2.126  17.285  0.6558 -0.2132 -0.4521
 4280SOL    HW224300   4.495   2.039  17.295  0.6305  1.0275  1.0867
 4281SOL     OW24301   0.169   4.188   5.868  0.1111  0.3145  0.1983
 4281SOL    HW124302   0.099   4.158   5.811  0.6217 -1.9839  0.7902
 4281SOL    HW224303   0.153   4.280   5.889  0.8780  0.4467  0.2036
 4282SOL     OW24304   3.821   0.995   5.249 -0.2499  0.0942 -0.3028
 4282SOL    HW124305   3.843   0.915   5.201  0.7559 -0.6933  1.4601
 4282SOL    HW224306   3.906   1.010   5.289 -0.3754  2.0619 -0.8168
 4283SOL     OW24307   2.140   2.887  13.697  0.1799  0.5734 -0.0195
 4283SOL    HW124308   2.214   2.850  13.746 -0.5222 -0.8447 -0.0245
 4283SOL    HW224309   2.116   2.964  13.748 -0.4130  0.2293  0.2279
 4284SOL     OW24310   2.851   3.559  13.416  0.0202  0.1245  0.6704
 4284SOL    HW124311   2.891   3.522  13.495  2.4154  1.1157 -0.0884
 4284SOL    HW224312   2.771   3.596  13.453 -1.6799 -2.9608  0.0807
 4285SOL     OW24313   2.438   2.506   7.943  0.1252  0.5238 -0.2464
 4285SOL    HW124314   2.516   2.453   7.929 -0.8476 -0.6582 -1.2069
 4285SOL    HW224315   2.483   2.578   7.987  1.6835 -1.2518  1.0470
 4286SOL     OW24316   1.609   0.429   2.792 -0.4800 -1.4006 -0.4799
 4286SOL    HW124317   1.684   0.480   2.761 -0.9542  0.3231  1.2620
 4286SOL    HW224318   1.531   0.469   2.756 -0.9305  0.1485  2.2493
 4287SOL     OW24319   2.695   2.002   7.146  0.0159 -0.4669 -0.2732
 4287SOL    HW124320   2.693   1.965   7.235 -1.5382 -1.7240 -0.8272
 4287SOL    HW224321   2.768   1.955   7.105  0.7452  1.1989 -0.8721
 4288SOL     OW24322   0.909   0.696   1.968  0.4107  0.0468  0.4417
 4288SOL    HW124323   0.826   0.661   1.935 -0.4170  2.7183 -0.3298
 4288SOL    HW224324   0.913   0.755   1.893  0.4756 -1.2994 -0.6161
 4289SOL     OW24325   3.240   3.416   8.504  0.0525 -0.3360  0.3373
 4289SOL    HW124326   3.317   3.390   8.555 -1.0065 -3.5688  0.2923
 4289SOL    HW224327   3.266   3.384   8.418  2.2064  0.9727  0.5132
 4290SOL     OW24328   0.403   1.055   1.839 -0.1913 -0.2783  0.3858
 4290SOL    HW124329   0.420   1.131   1.894  0.2069  0.0662 -0.2193
 4290SOL    HW224330   0.399   0.984   1.904 -3.3322 -2.9132 -2.7241
 4291SOL     OW24331   1.132   1.217  11.284 -0.2319  0.1317  0.7748
 4291SOL    HW124332   1.139   1.211  11.189  0.7203 -0.6730  0.8963
 4291SOL    HW224333   1.055   1.272  11.297 -1.1344 -0.7044 -1.1136
 4292SOL     OW24334   1.959   1.240  14.090  0.5720  0.0505 -0.1684
 4292SOL    HW124335   1.881   1.279  14.130 -0.2480 -0.2357 -1.4823
 4292SOL    HW224336   2.018   1.307  14.125 -0.6226  1.1378 -0.2201
 4293SOL     OW24337   1.114   0.497  11.042  0.2420  0.2655 -0.4920
 4293SOL    HW124338   1.047   0.564  11.027 -0.5646 -0.5993 -0.7431
 4293SOL    HW224339   1.089   0.434  10.974  0.0999 -1.2975  1.0189
 4294SOL     OW24340   0.814   0.860   9.647  0.2676 -0.1155  0.1165
 4294SOL    HW124341   0.814   0.886   9.739  0.4188 -1.2445  0.4291
 4294SOL    HW224342   0.723   0.874   9.624  0.6944 -0.2432 -1.6336
 4295SOL     OW24343   3.245   0.989   3.140 -0.7542 -0.0830 -0.4318
 4295SOL    HW124344   3.297   1.040   3.078  2.2820 -0.3537  1.9139
 4295SOL    HW224345   3.238   0.904   3.097 -0.4407  0.7786 -2.1749
 4296SOL     OW24346   4.474   3.704   4.361  0.2668 -0.0932  0.2583
 4296SOL    HW124347   4.564   3.678   4.341  0.2379  0.4498 -0.6018
 4296SOL    HW224348   4.423   3.652   4.299 -0.6458  1.0594  0.0462
 4297SOL     OW24349   1.734   1.360   9.242 -0.3753  0.2365 -0.3109
 4297SOL    HW124350   1.754   1.280   9.192  0.7603 -0.3208  1.0451
 4297SOL    HW224351   1.732   1.424   9.171  0.6914  1.9258  1.2127
 4298SOL     OW24352   1.537   2.277   3.277  0.0206 -0.1082 -0.2544
 4298SOL    HW124353   1.486   2.238   3.207 -1.5391  0.7562  0.4097
 4298SOL    HW224354   1.584   2.351   3.237  1.4135 -1.3000 -0.8013
 4299SOL     OW24355   1.606   0.594   7.715 -0.3235 -0.0170  0.2036
 4299SOL    HW124356   1.600   0.580   7.810  0.8238 -0.5764  0.2038
 4299SOL    HW224357   1.514   0.610   7.694  0.2633  0.1799 -2.1896
 4300SOL     OW24358   3.496   1.163   5.268  0.0479 -0.0350 -0.0360
 4300SOL    HW124359   3.531   1.241   5.312 -1.3049  0.0065  0.9740
 4300SOL    HW224360   3.402   1.177   5.256  0.0071  0.9657  1.5200
 4301SOL     OW24361   0.969   4.637  15.693  0.1308 -0.5461  0.3692
 4301SOL    HW124362   0.932   4.562  15.646 -1.8411  0.4038  0.4287
 4301SOL    HW224363   0.973   4.595  15.779  1.0870 -1.8219 -0.3015
 4302SOL     OW24364   3.964   2.387  11.137  0.0339 -0.4103 -0.5933
 4302SOL    HW124365   4.001   2.445  11.070 -0.7660  0.6819 -0.0884
 4302SOL    HW224366   3.940   2.448  11.206 -0.1473 -0.5923 -0.4942
 4303SOL     OW24367   0.793   1.126   3.199  0.4063  0.1992  0.3689
 4303SOL    HW124368   0.709   1.172   3.200  2.3458  3.7676 -0.1377
 4303SOL    HW224369   0.774   1.035   3.218 -1.0144  0.7701  1.7067
 4304SOL     OW24370   0.740   0.576   9.398  0.7191 -0.3857 -0.4468
 4304SOL    HW124371   0.778   0.509   9.341  1.1660  0.2087 -0.8469
 4304SOL    HW224372   0.812   0.624   9.440 -0.0241  1.4183 -1.2370
 4305SOL     OW24373   4.559   3.154  11.206 -0.0276 -0.1654  0.1949
 4305SOL    HW124374   4.597   3.070  11.183  0.6802 -0.0584  0.9687
 4305SOL    HW224375   4.635   3.208  11.228 -0.1528 -0.3472  1.0776
 4306SOL     OW24376   1.800   3.921   0.721 -0.0994 -0.6326 -0.0201
 4306SOL    HW124377   1.732   3.870   0.678  2.2853 -3.6181 -0.1679
 4306SOL    HW224378   1.747   3.999   0.741 -0.4968 -0.8475 -0.2538
 4307SOL     OW24379   2.283   4.501  17.396  0.2785  0.1012 -0.3255
 4307SOL    HW124380   2.350   4.566  17.376  0.5119  0.1736  0.6835
 4307SOL    HW224381   2.323   4.433  17.342 -1.7159 -1.4863  0.1994
 4308SOL     OW24382   2.607   0.315   8.602 -0.2536 -0.2054 -0.2409
 4308SOL    HW124383   2.534   0.255   8.586  0.1863 -1.1685  1.2905
 4308SOL    HW224384   2.656   0.281   8.677 -0.4526 -0.5613 -0.2716
 4309SOL     OW24385   3.612   3.095   7.686 -0.2970  0.0051  0.1658
 4309SOL    HW124386   3.606   3.137   7.772 -3.6446  1.0140 -0.5859
 4309SOL    HW224387   3.699   3.124   7.657 -0.9303  1.3261 -0.4188
 4310SOL     OW24388   2.949   3.762   0.717 -0.4480  0.1332 -0.2015
 4310SOL    HW124389   2.956   3.840   0.772 -2.5498  0.9363 -1.0753
 4310SOL    HW224390   2.858   3.735   0.729 -0.3854  0.3247  0.7410
 4311SOL     OW24391   4.118   3.242   6.410  0.2918 -0.0328 -0.2462
 4311SOL    HW124392   4.154   3.255   6.322 -0.3031 -3.5801 -1.0018
 4311SOL    HW224393   4.025   3.264   6.397 -0.2453 -2.7768 -1.0104
 4312SOL     OW24394   1.539   2.047  10.416  0.5457  0.6431 -0.2400
 4312SOL    HW124395   1.584   2.121  10.457  3.8640 -0.6999 -1.4567
 4312SOL    HW224396   1.551   2.076  10.326  1.1131 -1.8165 -0.9438
 4313SOL     OW24397   3.543   2.736   6.828  0.1721 -0.3668  0.1431
 4313SOL    HW124398   3.526   2.808   6.889  0.3807 -1.1757  1.1464
 4313SOL    HW224399   3.633   2.716   6.851 -0.1363  1.5558  3.0297
 4314SOL     OW24400   2.560   1.703   4.692  0.3195  0.1252  1.0303
 4314SOL    HW124401   2.495   1.760   4.732 -0.3715  0.3468 -0.4190
 4314SOL    HW224402   2.501   1.652   4.637 -0.8807  0.2057  2.2329
 4315SOL     OW24403   2.977   2.946  14.544 -0.1220 -0.1716  0.8397
 4315SOL    HW124404   3.031   2.874  14.512  0.4268 -0.0538  1.5073
 4315SOL    HW224405   2.927   2.980  14.469  0.5076 -1.3328 -0.1008
 4316SOL     OW24406   1.275   2.278  16.277 -0.4947 -0.0209  0.9474
 4316SOL    HW124407   1.255   2.195  16.235 -1.0518  1.6797 -2.1921
 4316SOL    HW224408   1.208   2.339  16.244  0.8077  0.0695 -1.5931
 4317SOL     OW24409   1.802   2.050   7.190  0.4664  0.0977  0.1262
 4317SOL    HW124410   1.818   2.102   7.268  1.0591 -0.3739  0.3171
 4317SOL    HW224411   1.888   2.011   7.174  1.0152  1.2278  0.3862
 4318SOL     OW24412   3.601   1.306  14.412  0.5019  0.1359 -0.2089
 4318SOL    HW124413   3.684   1.258  14.404 -0.5174 -1.9544  1.6902
 4318SOL    HW224414   3.628   1.389  14.372 -0.0396  0.8199  0.8378
 4319SOL     OW24415   0.538   3.433  13.530  0.1899 -0.4858 -0.8097
 4319SOL    HW124416   0.506   3.356  13.482  0.4057  0.3835 -2.3444
 4319SOL    HW224417   0.633   3.428  13.530  0.1732 -1.0272  1.7450
 4320SOL     OW24418   4.245   2.099   2.449 -0.2350 -0.5239 -0.0690
 4320SOL    HW124419   4.179   2.075   2.385 -0.0399 -1.2127 -0.0137
 4320SOL    HW224420   4.317   2.117   2.389 -1.0000  2.4673 -0.0916
 4321SOL     OW24421   3.175   0.698   3.839 -0.1696  0.5070  0.3201
 4321SOL    HW124422   3.254   0.715   3.889  0.5199 -0.5249 -0.4088
 4321SOL    HW224423   3.106   0.722   3.901 -2.4474 -1.8633 -1.2604
 4322SOL     OW24424   4.335   1.370  17.420 -0.3155  0.2301 -0.6408
 4322SOL    HW124425   4.277   1.435  17.458  1.7563  2.6244 -1.5485
 4322SOL    HW224426   4.337   1.316  17.499  1.3227  1.0981 -0.0809
 4323SOL     OW24427   4.663   4.601  10.920 -0.2561  0.9710 -0.0228
 4323SOL    HW124428   4.618   4.669  10.870  0.4950  0.1275 -1.8816
 4323SOL    HW224429   4.602   4.552  10.975  0.4554 -0.7448 -0.7515
 4324SOL     OW24430   0.132   0.653   3.013  0.6652 -0.3731 -0.7779
 4324SOL    HW124431   0.194   0.581   3.000  1.4492  0.2389 -0.4678
 4324SOL    HW224432   0.195   0.718   3.045  1.0579 -1.3398  0.3996
 4325SOL     OW24433   0.999   3.254   5.747  0.5302 -0.0301  0.3003
 4325SOL    HW124434   0.952   3.186   5.698 -0.3031  1.6765 -1.2697
 4325SOL    HW224435   0.941   3.323   5.779 -1.8115 -0.7189 -2.4477
 4326SOL     OW24436   1.429   1.281   9.865 -0.1724  0.2360 -0.3172
 4326SOL    HW124437   1.449   1.277   9.771 -0.2767  3.2679 -0.4935
 4326SOL    HW224438   1.506   1.231   9.890  1.1945  1.5880 -1.7974
 4327SOL     OW24439   3.048   0.529  15.402  0.2385  0.7792  0.2036
 4327SOL    HW124440   3.131   0.577  15.406  1.3764 -0.8705 -3.7833
 4327SOL    HW224441   2.994   0.606  15.420 -1.3000  0.2045 -1.9585
 4328SOL     OW24442   1.880   1.668   9.781 -0.3705  0.2069  0.0848
 4328SOL    HW124443   1.899   1.761   9.763  2.3907 -0.4295 -0.3299
 4328SOL    HW224444   1.943   1.619   9.729 -0.8054  0.2984 -0.5299
 4329SOL     OW24445   1.799   1.843   8.157  0.4167 -0.3131  0.0733
 4329SOL    HW124446   1.866   1.803   8.212 -1.4344  0.6597  3.0511
 4329SOL    HW224447   1.797   1.778   8.086  2.9184 -0.8031  0.4471
 4330SOL     OW24448   1.582   0.358   4.621  0.1606  0.2799  0.1341
 4330SOL    HW124449   1.650   0.358   4.554  1.0610 -0.8175  1.0334
 4330SOL    HW224450   1.622   0.391   4.702 -1.3190 -3.6062  2.5017
 4331SOL     OW24451   4.160   4.207   2.542 -0.1089  0.2775  0.2809
 4331SOL    HW124452   4.175   4.119   2.508 -0.9372  0.3067 -0.1587
 4331SOL    HW224453   4.246   4.247   2.552 -0.8160  1.2231  2.6193
 4332SOL     OW24454   2.174   3.136   3.353 -0.2959 -0.5976  0.9517
 4332SOL    HW124455   2.208   3.222   3.378  1.8972 -1.2681  0.3306
 4332SOL    HW224456   2.245   3.073   3.363 -0.3391 -0.4921  1.8661
 4333SOL     OW24457   1.470   3.129   0.277 -0.3362 -0.1584 -0.3419
 4333SOL    HW124458   1.486   3.209   0.227  3.2769 -0.1886  0.7716
 4333SOL    HW224459   1.484   3.156   0.368 -0.3028 -0.9649 -0.1008
 4334SOL     OW24460   2.545   0.516  11.662 -0.5451 -0.1897 -0.0219
 4334SOL    HW124461   2.522   0.509  11.570 -0.8018  0.5675 -0.0131
 4334SOL    HW224462   2.604   0.592  11.662 -0.2378 -0.4394 -1.4618
 4335SOL     OW24463   3.453   2.263  12.483  0.1617 -0.2539 -0.1577
 4335SOL    HW124464   3.440   2.261  12.578 -1.8732 -0.5370 -0.4599
 4335SOL    HW224465   3.517   2.334  12.491 -0.9178  0.4031  2.6924
 4336SOL     OW24466   3.012   1.029   3.541 -0.3129 -0.1721  0.0250
 4336SOL    HW124467   3.019   0.934   3.548 -2.3602 -0.4500 -1.6448
 4336SOL    HW224468   3.034   1.054   3.631 -1.8940 -1.9515  0.9049
 4337SOL     OW24469   3.799   1.551  15.500 -0.6079 -0.1224 -0.7685
 4337SOL    HW124470   3.742   1.569  15.426 -0.1062  3.6634 -0.2127
 4337SOL    HW224471   3.735   1.551  15.572 -0.1332 -2.7101 -0.3331
 4338SOL     OW24472   2.769   3.473   6.656  0.2051  0.5341 -0.3540
 4338SOL    HW124473   2.759   3.378   6.647 -1.7014  0.6216  0.9381
 4338SOL    HW224474   2.683   3.508   6.632  0.7038  1.5332 -0.6907
 4339SOL     OW24475   3.841   0.991   8.520 -0.1559 -0.0025  0.0326
 4339SOL    HW124476   3.828   1.051   8.593 -0.1743  2.9628 -2.4307
 4339SOL    HW224477   3.930   0.958   8.533 -0.0536  0.0095 -0.6814
 4340SOL     OW24478   1.019   4.297   1.656  0.3539  0.3159 -0.9763
 4340SOL    HW124479   1.023   4.206   1.624 -0.9380 -0.7710  1.9654
 4340SOL    HW224480   0.969   4.293   1.737 -0.6570 -0.4503 -1.6361
 4341SOL     OW24481   3.327   1.169   6.764  0.0196 -0.0019  0.0519
 4341SOL    HW124482   3.363   1.153   6.851 -0.3320  3.1431  0.7877
 4341SOL    HW224483   3.369   1.254   6.745  2.0805 -0.3635  2.9191
 4342SOL     OW24484   1.314   3.040  10.739  0.3126 -0.0373  0.2355
 4342SOL    HW124485   1.350   2.968  10.791 -0.6958 -0.9435 -0.3111
 4342SOL    HW224486   1.223   3.013  10.724 -0.2910  2.6002 -0.7863
 4343SOL     OW24487   4.711   0.330   9.332 -0.7157  0.0157  0.9536
 4343SOL    HW124488   0.043   0.394   9.376 -0.1474 -0.0914  0.3820
 4343SOL    HW224489   0.036   0.300   9.256 -1.8255 -0.3813  0.3936
 4344SOL     OW24490   1.281   2.258  10.484 -0.4693 -0.0115 -0.2624
 4344SOL    HW124491   1.284   2.349  10.453  0.4972 -0.1256 -0.5113
 4344SOL    HW224492   1.191   2.236  10.459 -1.2243  2.2105  0.5172
 4345SOL     OW24493   1.256   0.132   7.208  0.0419 -0.2099  0.0059
 4345SOL    HW124494   1.288   0.186   7.135  1.5316 -1.5816 -0.3605
 4345SOL    HW224495   1.171   0.102   7.177  0.3076  0.3103 -1.2597
 4346SOL     OW24496   0.483   0.042  12.704  0.1731  0.2807  0.0985
 4346SOL    HW124497   0.575   0.065  12.704 -0.1603  1.5859 -1.0827
 4346SOL    HW224498   0.452   0.118  12.655  2.5592  0.1051 -1.6415
 4347SOL     OW24499   0.482   1.337   4.085 -0.3928  0.0264  0.0960
 4347SOL    HW124500   0.533   1.279   4.028 -3.4887  0.7236 -3.3610
 4347SOL    HW224501   0.515   1.420   4.052 -1.0632  0.0722 -0.4677
 4348SOL     OW24502   1.489   1.881   2.841  0.0343 -0.2889 -0.4382
 4348SOL    HW124503   1.411   1.928   2.813  1.0568  1.7620  0.1834
 4348SOL    HW224504   1.474   1.792   2.808 -0.9370  0.1268 -1.1163
 4349SOL     OW24505   0.418   2.710   9.057  0.2487 -0.2732 -0.1361
 4349SOL    HW124506   0.340   2.750   9.019 -0.3384 -1.5038 -0.2315
 4349SOL    HW224507   0.488   2.744   9.001 -0.1005 -1.5597 -1.3465
 4350SOL     OW24508   2.820   2.100   7.501  0.2027  0.5724  0.1556
 4350SOL    HW124509   2.852   2.165   7.439  2.5991 -0.3311  0.4343
 4350SOL    HW224510   2.909   2.078   7.528  0.2877  0.3373 -0.3177
 4351SOL     OW24511   4.525   2.011  15.665 -0.1197  0.0508 -0.2668
 4351SOL    HW124512   4.476   1.988  15.585  2.0224 -0.2991 -1.4706
 4351SOL    HW224513   4.471   1.976  15.735 -0.8991  0.9773 -0.3952
 4352SOL     OW24514   3.059   1.774  13.609 -0.4136  0.0011  0.5757
 4352SOL    HW124515   2.998   1.737  13.672 -0.9336  0.2782  0.2367
 4352SOL    HW224516   3.117   1.822  13.668 -1.5393 -0.1832  1.8267
 4353SOL     OW24517   2.429   4.401   3.892  0.4690  0.3939  0.0016
 4353SOL    HW124518   2.343   4.369   3.866  0.9146  0.4872 -1.6150
 4353SOL    HW224519   2.469   4.435   3.812  1.6532 -3.6497 -1.1265
 4354SOL     OW24520   4.472   3.283   5.488  0.2584  0.2566 -0.2894
 4354SOL    HW124521   4.452   3.224   5.416 -0.8397  1.6891 -1.1558
 4354SOL    HW224522   4.530   3.223   5.535 -0.7325 -1.3560 -1.1372
 4355SOL     OW24523   2.782   4.230   5.021 -0.1261 -0.1758  0.5606
 4355SOL    HW124524   2.806   4.231   5.113  1.1070  1.4441  0.2251
 4355SOL    HW224525   2.863   4.247   4.973 -0.3433 -0.4371  0.0967
 4356SOL     OW24526   1.807   1.690   5.047  0.3304  0.0784 -0.2727
 4356SOL    HW124527   1.758   1.608   5.038  1.6368 -0.7121 -0.3042
 4356SOL    HW224528   1.812   1.717   4.955 -2.6879  0.8220 -0.2050
 4357SOL     OW24529   3.520   1.248   9.793  0.4678  0.2215 -0.0305
 4357SOL    HW124530   3.511   1.197   9.874 -0.7405  1.0353  0.3569
 4357SOL    HW224531   3.611   1.238   9.767  0.9647 -0.4885  1.9886
 4358SOL     OW24532   2.043   3.388   8.225 -0.1000 -0.6100  0.6441
 4358SOL    HW124533   2.003   3.457   8.278 -1.9492 -1.6448  0.6061
 4358SOL    HW224534   1.985   3.395   8.149  2.3945  2.1618 -1.0169
 4359SOL     OW24535   3.361   0.458  16.192  0.1714 -0.3839  0.0347
 4359SOL    HW124536   3.401   0.545  16.182 -4.6187  2.0085  1.4446
 4359SOL    HW224537   3.438   0.412  16.224 -0.0668  0.1284  1.3697
 4360SOL     OW24538   1.512   0.931  11.834 -0.1223 -0.1787  0.0303
 4360SOL    HW124539   1.420   0.914  11.853 -0.5598  1.0887 -0.9841
 4360SOL    HW224540   1.512   0.919  11.739 -0.6894 -0.1228  0.0267
 4361SOL     OW24541   1.742   2.588   8.278 -0.1237 -0.1374  0.0279
 4361SOL    HW124542   1.805   2.657   8.296  0.3212 -1.1834  2.4438
 4361SOL    HW224543   1.788   2.516   8.321 -1.8757 -0.7702  0.8218
 4362SOL     OW24544   2.878   1.669  17.078 -0.5810  0.0431  0.2212
 4362SOL    HW124545   2.884   1.765  17.084 -0.2522  0.0318  0.1018
 4362SOL    HW224546   2.849   1.648  16.989  3.1146 -2.7552 -0.3229
 4363SOL     OW24547   1.077   0.703   5.947 -0.2730  0.0065  0.5499
 4363SOL    HW124548   1.104   0.647   6.020 -1.2642 -1.1955 -0.0047
 4363SOL    HW224549   0.986   0.724   5.963 -0.2244 -0.8100  1.8293
 4364SOL     OW24550   3.372   1.602  13.323  0.6029 -0.4318  0.4326
 4364SOL    HW124551   3.278   1.624  13.322  1.6804  4.1943  0.2744
 4364SOL    HW224552   3.363   1.507  13.313 -0.3784 -0.0841 -2.1917
 4365SOL     OW24553   3.532   4.664   8.759 -0.3607  0.2329 -0.5345
 4365SOL    HW124554   3.525   0.035   8.767  1.1502  0.1031  2.1797
 4365SOL    HW224555   3.628   4.666   8.755 -0.3363  0.6681  0.3285
 4366SOL     OW24556   2.999   1.635   4.940 -0.4260 -0.0031  0.4773
 4366SOL    HW124557   2.905   1.617   4.942 -0.4534  0.0680 -0.0924
 4366SOL    HW224558   3.027   1.588   4.861 -3.0962  0.1753 -0.5866
 4367SOL     OW24559   3.942   4.361  14.918 -0.2337 -0.9224  0.0850
 4367SOL    HW124560   3.891   4.281  14.908  0.1287 -1.1733  0.2747
 4367SOL    HW224561   4.029   4.323  14.930  0.1727  0.5783  1.8226
 4368SOL     OW24562   4.665   4.707  16.078 -0.6657  0.0854  0.0622
 4368SOL    HW124563   0.019   4.662  16.044 -2.8910 -2.8908 -1.1329
 4368SOL    HW224564   4.625   4.644  16.139  0.9810  1.0815  2.1693
 4369SOL     OW24565   4.438   2.269   1.337  0.1410  0.7393  0.0023
 4369SOL    HW124566   4.444   2.237   1.427 -0.6949  0.4926 -0.0278
 4369SOL    HW224567   4.523   2.313   1.329  1.7678 -2.8258 -2.3189
 4370SOL     OW24568   3.427   1.248   2.332 -0.5644 -0.6530 -0.0202
 4370SOL    HW124569   3.478   1.219   2.256 -0.3029  0.0511 -0.1114
 4370SOL    HW224570   3.351   1.289   2.290 -0.9055  0.8224  2.0695
 4371SOL     OW24571   1.142   1.641  12.788  0.3379 -0.0083  0.0511
 4371SOL    HW124572   1.210   1.696  12.828  0.1888  1.3981 -1.6118
 4371SOL    HW224573   1.167   1.650  12.696  2.5032  0.8098  0.7350
 4372SOL     OW24574   1.372   0.056   0.083  0.3835 -0.2606  0.6668
 4372SOL    HW124575   1.371   0.147   0.055 -1.0989 -0.5399 -0.2218
 4372SOL    HW224576   1.463   0.041   0.060 -0.6775 -3.2246 -1.6375
 4373SOL     OW24577   4.123   4.160   1.495  0.4172 -0.6934  0.2620
 4373SOL    HW124578   4.059   4.134   1.429  0.9741 -1.2129 -0.0619
 4373SOL    HW224579   4.161   4.236   1.451 -0.0875 -0.5630  0.0445
 4374SOL     OW24580   0.833   4.108   2.295  0.6247 -0.6758  0.1342
 4374SOL    HW124581   0.746   4.095   2.333  0.4389  1.4969  0.4692
 4374SOL    HW224582   0.811   4.176   2.232 -1.5450 -1.0818  0.4656
 4375SOL     OW24583   4.604   0.880  12.787  0.3300  0.3715  0.3334
 4375SOL    HW124584   4.658   0.800  12.784 -0.0960  0.1044 -0.1933
 4375SOL    HW224585   4.658   0.939  12.736  1.1523 -0.4180  0.2817
 4376SOL     OW24586   2.036   4.604  14.831 -0.3928 -0.1031 -0.3729
 4376SOL    HW124587   1.995   4.519  14.821 -0.5225  0.0823 -1.4818
 4376SOL    HW224588   1.961   4.660  14.847  0.2160 -0.4831  3.8721
 4377SOL     OW24589   0.535   0.156   4.365 -0.2864 -0.3282  0.5176
 4377SOL    HW124590   0.553   0.178   4.274 -0.1485 -0.9746  0.3923
 4377SOL    HW224591   0.584   0.232   4.397  2.9841 -2.1459 -0.1584
 4378SOL     OW24592   1.397   2.532  15.548 -0.1829 -0.3880  0.6715
 4378SOL    HW124593   1.397   2.534  15.452  0.8332  1.2369  0.7067
 4378SOL    HW224594   1.422   2.440  15.560 -0.3214 -0.4074  0.8095
 4379SOL     OW24595   3.799   3.234   0.623 -0.8594 -0.1249 -0.3815
 4379SOL    HW124596   3.732   3.167   0.608 -0.3975 -0.7389  0.3526
 4379SOL    HW224597   3.785   3.232   0.717  0.1273 -0.3503 -0.2417
 4380SOL     OW24598   4.262   1.553   1.798  0.0677 -0.1279  0.4927
 4380SOL    HW124599   4.273   1.583   1.707  0.9612 -1.6166  0.1046
 4380SOL    HW224600   4.229   1.467   1.771 -1.3938  0.7199 -0.4705
 4381SOL     OW24601   3.146   3.381   6.240  0.1301  0.3375  0.0165
 4381SOL    HW124602   3.074   3.328   6.272  0.4133 -0.7169 -1.1085
 4381SOL    HW224603   3.183   3.337   6.164 -1.4154 -1.3788  0.2863
 4382SOL     OW24604   2.041   4.148  10.945 -0.5845  0.0405  0.1115
 4382SOL    HW124605   2.031   4.146  11.040  0.5646 -1.2682  0.2006
 4382SOL    HW224606   2.085   4.233  10.935  0.3060 -0.2522  1.6491
 4383SOL     OW24607   3.906   0.841   4.516 -0.8622 -0.3651 -0.3432
 4383SOL    HW124608   3.947   0.822   4.600 -1.6095 -0.1616  0.0666
 4383SOL    HW224609   3.976   0.893   4.478  0.3979  0.2948  2.8690
 4384SOL     OW24610   4.348   4.284   4.127 -0.0258 -0.1007  0.1546
 4384SOL    HW124611   4.418   4.249   4.183  0.1240  2.0296  1.3126
 4384SOL    HW224612   4.296   4.212   4.092  1.4399 -1.5388  0.8694
 4385SOL     OW24613   2.507   2.950   5.941 -0.0575  1.2162  0.3031
 4385SOL    HW124614   2.570   3.022   5.948 -0.2036  1.0827  3.3234
 4385SOL    HW224615   2.537   2.906   5.862  1.0194  1.2287  0.7038
 4386SOL     OW24616   3.127   3.500   2.470  0.1321 -0.1269 -0.2118
 4386SOL    HW124617   3.050   3.466   2.515  1.5228 -2.2037  0.5966
 4386SOL    HW224618   3.144   3.583   2.515 -1.1447  0.6943 -1.2197
 4387SOL     OW24619   4.317   0.407   7.971 -0.2495  0.1528 -0.0975
 4387SOL    HW124620   4.319   0.495   7.935  1.7699 -0.4229 -1.3948
 4387SOL    HW224621   4.269   0.426   8.052 -0.0654 -2.5110  0.6296
 4388SOL     OW24622   0.024   2.141  17.025  0.3750 -0.6496  0.5549
 4388SOL    HW124623   4.674   2.088  17.054  0.4744 -1.3291 -0.4261
 4388SOL    HW224624   0.016   2.114  16.933 -1.7730  1.5884  0.0994
 4389SOL     OW24625   3.260   3.954   3.846  0.0387 -0.3010 -0.2661
 4389SOL    HW124626   3.293   3.924   3.931 -1.2343 -2.5320 -0.5642
 4389SOL    HW224627   3.275   3.882   3.786  0.5737 -0.6401  0.2766
 4390SOL     OW24628   2.001   4.437   8.791 -0.5045 -0.0929  0.2714
 4390SOL    HW124629   1.998   4.527   8.759  0.4866 -0.8173 -1.8913
 4390SOL    HW224630   2.092   4.421   8.815 -0.9442 -2.7764  0.2171
 4391SOL     OW24631   2.637   3.873   3.106 -0.6792  0.1603  0.0585
 4391SOL    HW124632   2.688   3.931   3.162 -2.1683  3.1300 -1.6540
 4391SOL    HW224633   2.559   3.929   3.101 -0.0636  1.0217  0.1125
 4392SOL     OW24634   3.998   1.422  14.879 -0.2427 -0.4513  0.2944
 4392SOL    HW124635   3.939   1.417  14.804 -1.4384 -0.6273  1.2411
 4392SOL    HW224636   4.052   1.496  14.851 -0.2478 -0.7766 -0.5630
 4393SOL     OW24637   1.958   0.942   8.417 -0.4261  0.0884 -0.0038
 4393SOL    HW124638   1.935   0.945   8.510  1.6023  2.6322  0.4117
 4393SOL    HW224639   2.043   0.899   8.427 -0.4171  0.3622  1.1197
 4394SOL     OW24640   1.790   3.554   4.646  0.0554 -0.2609  0.2146
 4394SOL    HW124641   1.883   3.559   4.626 -0.2243  2.0712 -0.4424
 4394SOL    HW224642   1.748   3.506   4.574 -0.7415  2.0707 -0.8529
 4395SOL     OW24643   2.859   1.381   4.356  0.1057 -0.4586 -0.2767
 4395SOL    HW124644   2.791   1.407   4.419 -1.0342  0.4896 -1.9078
 4395SOL    HW224645   2.887   1.309   4.412 -0.1267 -1.3576 -1.3146
 4396SOL     OW24646   2.066   2.229   3.867 -0.0616 -0.2227 -0.2667
 4396SOL    HW124647   2.038   2.263   3.952  0.2430 -2.6379  0.8037
 4396SOL    HW224648   2.093   2.310   3.825 -1.7193  0.5179  0.1078
 4397SOL     OW24649   2.995   0.231   2.785  0.5605  0.0001 -0.2408
 4397SOL    HW124650   3.068   0.280   2.748  0.0817 -0.5005 -1.8265
 4397SOL    HW224651   3.037   0.173   2.849  3.4485  1.9467 -0.3694
 4398SOL     OW24652   1.008   4.375   3.171 -0.1913 -0.9053  0.1617
 4398SOL    HW124653   1.052   4.293   3.194 -0.4179 -1.5814 -1.8550
 4398SOL    HW224654   1.036   4.390   3.081  0.9602  0.7111  0.7664
 4399SOL     OW24655   3.654   0.553   3.564  0.4149  0.2725 -0.1211
 4399SOL    HW124656   3.704   0.507   3.632  1.1566  1.1451 -0.0766
 4399SOL    HW224657   3.568   0.554   3.607  0.3039  1.7080 -0.3978
 4400SOL     OW24658   4.102   0.401   7.371  0.0477 -0.2581 -0.2682
 4400SOL    HW124659   4.129   0.491   7.351 -1.6911  0.8695  2.4853
 4400SOL    HW224660   4.164   0.393   7.444 -1.5714  0.5502  1.1802
 4401SOL     OW24661   3.093   2.944   7.200 -0.0281  0.0428 -0.3139
 4401SOL    HW124662   3.101   2.970   7.108  1.6474 -1.1430 -0.5160
 4401SOL    HW224663   3.161   3.000   7.239  0.5289  0.9483 -2.5723
 4402SOL     OW24664   3.383   3.118   4.505 -0.0306 -0.5530 -0.6225
 4402SOL    HW124665   3.449   3.187   4.492 -1.8339  1.2995  0.1810
 4402SOL    HW224666   3.418   3.045   4.453  1.2155 -1.9249  2.1142
 4403SOL     OW24667   1.913   1.793   7.076  0.1225  0.0241  0.7732
 4403SOL    HW124668   1.962   1.813   7.156  0.1246  0.6100  0.6271
 4403SOL    HW224669   1.969   1.812   7.001 -0.4813  2.9352  1.0352
 4404SOL     OW24670   4.334   3.363   1.254 -0.0779  0.4986  0.5917
 4404SOL    HW124671   4.354   3.441   1.306  3.7195 -1.7026  2.3549
 4404SOL    HW224672   4.360   3.298   1.318 -0.9541  0.5657  1.0159
 4405SOL     OW24673   3.400   1.610  12.253 -0.1167 -0.6073  0.2939
 4405SOL    HW124674   3.384   1.565  12.335  1.3558 -1.0912  0.3096
 4405SOL    HW224675   3.312   1.650  12.253  1.1898  2.2576  1.2759
 4406SOL     OW24676   3.430   0.808   3.941 -0.1140 -0.5398  0.6209
 4406SOL    HW124677   3.518   0.794   3.976  1.4261  2.2303 -2.2216
 4406SOL    HW224678   3.385   0.824   4.024  0.2309  1.8966  0.3357
 4407SOL     OW24679   0.036   0.746   6.474 -0.4444 -0.2206  0.3535
 4407SOL    HW124680   4.680   0.696   6.490 -1.0462  0.3036 -0.9971
 4407SOL    HW224681   0.069   0.773   6.560  1.2344 -1.4370  0.1031
 4408SOL     OW24682   0.680   4.054  13.298 -0.0960  0.3696  0.1963
 4408SOL    HW124683   0.656   4.142  13.325 -0.8622  1.2247 -3.3068
 4408SOL    HW224684   0.769   4.056  13.335  0.4820 -0.3854 -1.1616
 4409SOL     OW24685   1.826   2.682  16.255  0.1562  0.0972 -0.1601
 4409SOL    HW124686   1.865   2.606  16.213 -0.2448 -0.0031 -0.3545
 4409SOL    HW224687   1.826   2.743  16.181  0.3333  0.3795  0.0725
 4410SOL     OW24688   2.151   4.374  14.600 -0.1536 -0.0606  0.1805
 4410SOL    HW124689   2.069   4.377  14.650  0.4021 -1.1775  1.1627
 4410SOL    HW224690   2.138   4.293  14.551  0.1807  1.5529 -2.5299
 4411SOL     OW24691   1.472   2.944   2.683  1.0088 -0.2112 -0.1623
 4411SOL    HW124692   1.392   2.925   2.635  0.4153 -2.2728  1.6586
 4411SOL    HW224693   1.458   2.886   2.758  1.1347 -1.2694 -0.9682
 4412SOL     OW24694   3.285   0.339   5.943 -0.0149 -0.2126  0.1449
 4412SOL    HW124695   3.196   0.371   5.952  0.1881  0.5097 -0.3198
 4412SOL    HW224696   3.287   0.293   5.859 -1.5405  1.1346 -0.6327
 4413SOL     OW24697   3.939   4.155   3.905 -0.1266  0.4316 -0.8443
 4413SOL    HW124698   3.873   4.172   3.838  0.1717  0.8305 -1.0303
 4413SOL    HW224699   3.924   4.061   3.915  0.9154  0.1913 -1.5632
 4414SOL     OW24700   1.886   2.538   1.167 -0.4784 -0.2127 -0.1724
 4414SOL    HW124701   1.813   2.490   1.129 -1.1068  0.1818  0.5478
 4414SOL    HW224702   1.902   2.493   1.250 -0.2961  1.0881  0.4939
 4415SOL     OW24703   2.804   1.866   6.502  0.0893 -0.2835 -0.2494
 4415SOL    HW124704   2.726   1.882   6.556 -0.6564  0.7230 -1.6077
 4415SOL    HW224705   2.770   1.871   6.412 -0.9170 -1.8853  0.0311
 4416SOL     OW24706   0.381   4.204   7.275 -0.0963  0.2959  0.0246
 4416SOL    HW124707   0.416   4.264   7.341  1.2404 -0.1888 -0.2545
 4416SOL    HW224708   0.455   4.189   7.216  0.0957 -0.3061  0.4197
 4417SOL     OW24709   0.317   3.795   9.614 -0.1307  0.1912 -1.0629
 4417SOL    HW124710   0.328   3.876   9.664 -3.7287 -0.6734  1.1433
 4417SOL    HW224711   0.248   3.823   9.555 -2.3721  0.4734  1.6778
 4418SOL     OW24712   1.995   4.247   2.448  0.0002  0.2137  0.5332
 4418SOL    HW124713   1.926   4.249   2.382  1.0928  2.6143 -0.5314
 4418SOL    HW224714   2.074   4.229   2.396 -0.2522  0.1365  0.1761
 4419SOL     OW24715   3.954   4.448  15.948  0.1690  0.3766  0.2164
 4419SOL    HW124716   3.888   4.484  15.889  0.8508 -1.2201 -1.4992
 4419SOL    HW224717   4.035   4.479  15.909  1.0451 -0.2976  1.4798
 4420SOL     OW24718   2.579   0.064   3.301 -0.2373 -0.6469  0.4773
 4420SOL    HW124719   2.652   0.058   3.239  0.5927  0.0605  1.3880
 4420SOL    HW224720   2.509   0.023   3.251 -0.9579  0.0593  0.9132
 4421SOL     OW24721   0.755   1.648   8.998 -0.2015 -0.0229 -0.5533
 4421SOL    HW124722   0.797   1.609   8.921 -2.4937  0.3678 -1.9939
 4421SOL    HW224723   0.679   1.694   8.965 -0.9949  0.8337  2.4612
 4422SOL     OW24724   2.303   2.539   9.684 -0.0841  0.2448  0.4788
 4422SOL    HW124725   2.346   2.623   9.702 -1.6756  1.0498  0.5676
 4422SOL    HW224726   2.360   2.503   9.616  1.2377  0.2417  1.5863
 4423SOL     OW24727   3.871   0.831   5.528 -0.4269 -0.0158 -0.7944
 4423SOL    HW124728   3.789   0.818   5.577 -1.3172  0.2834 -2.1947
 4423SOL    HW224729   3.939   0.833   5.595 -0.7103 -0.5670 -0.4802
 4424SOL     OW24730   1.790   0.479  13.809 -0.1239 -0.2206  0.2681
 4424SOL    HW124731   1.709   0.507  13.851 -0.5305  0.7795 -1.1626
 4424SOL    HW224732   1.821   0.422  13.879  1.3303 -1.8652 -1.6929
 4425SOL     OW24733   4.394   3.512   4.901 -0.2505 -0.0749 -0.1513
 4425SOL    HW124734   4.452   3.565   4.955  1.1302 -1.7274 -0.0062
 4425SOL    HW224735   4.463   3.465   4.853  2.3453  1.6101  1.9506
 4426SOL     OW24736   3.847   2.423   5.034 -0.4077  0.0917  0.4303
 4426SOL    HW124737   3.911   2.408   4.965  0.2229 -1.7031  1.3832
 4426SOL    HW224738   3.902   2.487   5.078  0.6265 -1.4113  1.3344
 4427SOL     OW24739   0.844   0.911  13.701  0.0143 -0.4634 -0.0431
 4427SOL    HW124740   0.828   0.850  13.628 -2.1902  1.1995 -0.9250
 4427SOL    HW224741   0.759   0.916  13.743  0.1361 -1.3207  0.3028
 4428SOL     OW24742   4.233   3.280   4.015 -0.0855  0.2807 -0.1944
 4428SOL    HW124743   4.234   3.205   4.076  0.3970  0.6283  0.2283
 4428SOL    HW224744   4.321   3.275   3.976 -0.4639 -0.0080 -1.0172
 4429SOL     OW24745   0.624   0.663  13.669 -0.3059  0.2376  0.2632
 4429SOL    HW124746   0.617   0.741  13.724 -0.1422 -0.4732  1.3001
 4429SOL    HW224747   0.676   0.607  13.727 -0.0907 -0.4385 -0.5932
 4430SOL     OW24748   0.957   2.808  10.181  0.1409  0.6226  0.0700
 4430SOL    HW124749   0.876   2.802  10.232 -0.3385  0.9854 -0.6399
 4430SOL    HW224750   1.022   2.834  10.247 -1.6601  1.6429  1.4469
 4431SOL     OW24751   2.637   0.602   0.188  0.6500  0.5838  0.1148
 4431SOL    HW124752   2.622   0.521   0.140  1.2226 -0.5072  1.7522
 4431SOL    HW224753   2.602   0.583   0.276  0.8796 -2.5712 -0.4895
 4432SOL     OW24754   3.003   2.481  15.407  0.5581  0.2945  0.0471
 4432SOL    HW124755   2.953   2.485  15.488  1.1769  0.4865  0.4241
 4432SOL    HW224756   2.979   2.397  15.368 -1.9714  0.8895  0.3535
 4433SOL     OW24757   2.729   4.374   3.286  0.4959 -0.3037 -0.1789
 4433SOL    HW124758   2.770   4.337   3.364 -0.4981  0.4860  0.7177
 4433SOL    HW224759   2.656   4.313   3.279  2.2168 -2.4965  1.0150
 4434SOL     OW24760   4.215   3.341   6.885  0.4270 -0.5312 -0.2953
 4434SOL    HW124761   4.121   3.357   6.878  0.3319 -1.0813 -0.2901
 4434SOL    HW224762   4.230   3.307   6.796  0.0273  1.5348 -1.1582
 4435SOL     OW24763   3.720   2.719  11.906  0.2974  0.4394  0.5121
 4435SOL    HW124764   3.809   2.719  11.870 -0.2317 -1.6709 -0.7788
 4435SOL    HW224765   3.742   2.733  11.998 -0.1395 -0.2036  0.7151
 4436SOL     OW24766   3.800   0.059   0.428 -0.3538 -0.3141 -0.3121
 4436SOL    HW124767   3.813   0.052   0.522  3.4982  2.1265 -0.6297
 4436SOL    HW224768   3.776   0.151   0.417  1.1814  0.0605 -0.6426
 4437SOL     OW24769   2.241   2.088   5.808  0.4734  0.7641 -0.1304
 4437SOL    HW124770   2.222   2.176   5.840 -1.2101  0.2675  0.2276
 4437SOL    HW224771   2.335   2.097   5.793  0.6378 -2.9755 -1.3191
 4438SOL     OW24772   1.042   0.821   2.475  0.1544  0.3306 -0.2262
 4438SOL    HW124773   0.996   0.903   2.454 -1.0014 -0.1304  0.5077
 4438SOL    HW224774   1.106   0.828   2.405 -0.9616 -0.3606 -1.3118
 4439SOL     OW24775   1.241   4.316   9.523 -0.3656  0.0427  0.1492
 4439SOL    HW124776   1.232   4.281   9.612 -1.4694 -1.7861 -0.6748
 4439SOL    HW224777   1.272   4.246   9.466 -1.4248 -0.8867  0.7169
 4440SOL     OW24778   0.105   4.297   3.718 -0.1341 -0.2375  0.3782
 4440SOL    HW124779   0.021   4.252   3.731  0.4819 -1.1720  1.1287
 4440SOL    HW224780   0.143   4.245   3.648  0.0796  0.1535  0.2027
 4441SOL     OW24781   2.121   0.268   1.967 -0.2354 -0.5124  0.3677
 4441SOL    HW124782   2.156   0.266   1.878 -2.9796 -1.9094 -0.6631
 4441SOL    HW224783   2.107   0.174   1.962  3.1472 -1.1759  3.0601
 4442SOL     OW24784   1.268   3.314   7.130  0.2012  0.1601 -0.4428
 4442SOL    HW124785   1.314   3.398   7.127 -2.6782  1.7977  1.6221
 4442SOL    HW224786   1.251   3.305   7.224 -0.7748 -2.7914 -0.9141
 4443SOL     OW24787   1.252   2.113   1.144  0.1279 -0.1292 -0.4898
 4443SOL    HW124788   1.224   2.203   1.134  4.3042  1.3049  0.6366
 4443SOL    HW224789   1.344   2.126   1.169  0.1650  0.3880 -0.9076
 4444SOL     OW24790   0.708   1.420   4.656 -0.7775 -0.4474  0.5908
 4444SOL    HW124791   0.797   1.432   4.622 -0.0557 -0.6626  2.4244
 4444SOL    HW224792   0.652   1.394   4.583  0.8584  0.3054 -0.9432
 4445SOL     OW24793   0.742   3.976   8.923  0.2882  0.4549 -0.9534
 4445SOL    HW124794   0.771   4.015   8.841  0.9469 -0.1124 -0.9980
 4445SOL    HW224795   0.652   3.965   8.895 -0.3139  1.9750  0.3856
 4446SOL     OW24796   3.752   0.829   5.790  0.1509 -0.6708 -0.0734
 4446SOL    HW124797   3.701   0.910   5.784 -0.8020 -1.3270 -0.8404
 4446SOL    HW224798   3.697   0.772   5.736 -2.9690  1.6068  0.6468
 4447SOL     OW24799   3.959   0.184   4.890  0.4218  0.0223  0.1421
 4447SOL    HW124800   4.008   0.256   4.849 -0.4478  0.6059  0.1288
 4447SOL    HW224801   4.032   0.136   4.928  0.2781 -0.2383  0.0869
 4448SOL     OW24802   0.548   1.777   2.748 -0.2065 -0.2210  0.2603
 4448SOL    HW124803   0.641   1.797   2.734 -0.4977  0.4605 -0.6380
 4448SOL    HW224804   0.517   1.836   2.680 -0.4678  1.5012  1.8693
 4449SOL     OW24805   0.403   4.204   3.453 -0.2355  0.1765 -0.7885
 4449SOL    HW124806   0.430   4.169   3.368 -1.4014 -0.7414 -0.7847
 4449SOL    HW224807   0.371   4.292   3.432 -1.1350  0.8656  3.4756
 4450SOL     OW24808   1.516   1.144   7.860 -0.4359  0.1308 -0.3194
 4450SOL    HW124809   1.426   1.144   7.892 -0.7978 -1.8154 -1.3023
 4450SOL    HW224810   1.531   1.056   7.895 -1.0706  0.6208  1.2008
 4451SOL     OW24811   4.464   4.447   6.531  0.1386  0.1763  0.2471
 4451SOL    HW124812   4.554   4.436   6.560  0.5632  1.2480 -0.6763
 4451SOL    HW224813   4.460   4.534   6.491  0.3014 -1.9306 -4.2786
 4452SOL     OW24814   0.850   3.053   1.944 -0.3033  0.3021 -0.3788
 4452SOL    HW124815   0.900   3.116   1.997 -0.7076  0.0359  0.3180
 4452SOL    HW224816   0.845   2.975   2.000  2.1673 -0.0762 -0.6907
 4453SOL     OW24817   2.706   3.482   0.142  0.1158 -0.0486  0.1972
 4453SOL    HW124818   2.741   3.550   0.199 -2.2602  1.5170 -0.2331
 4453SOL    HW224819   2.739   3.413   0.200 -1.1660 -0.5517  0.3270
 4454SOL     OW24820   3.906   2.218   9.880  0.2028 -0.5040  0.2816
 4454SOL    HW124821   3.820   2.245   9.911  0.9274  0.4879  1.4396
 4454SOL    HW224822   3.894   2.123   9.872  0.4423 -0.3657 -1.5942
 4455SOL     OW24823   1.941   2.995   8.771  0.1933 -0.0408 -0.3776
 4455SOL    HW124824   1.880   2.994   8.697  1.9317 -1.5641 -1.8105
 4455SOL    HW224825   1.878   3.026   8.835  2.5978  1.6027  1.1800
 4456SOL     OW24826   0.646   1.795   1.918  0.7739 -0.1023  0.4490
 4456SOL    HW124827   0.716   1.788   1.983 -1.5531  0.3362  3.0157
 4456SOL    HW224828   0.696   1.778   1.838  1.4311  0.0536  0.8280
 4457SOL     OW24829   3.553   4.075   6.069  0.0795  0.1372  0.1999
 4457SOL    HW124830   3.645   4.088   6.092  0.0980  2.7893 -1.4790
 4457SOL    HW224831   3.536   3.982   6.084 -0.9937  0.5001  1.2335
 4458SOL     OW24832   1.366   1.866   6.399  0.1272  0.3248  0.2354
 4458SOL    HW124833   1.417   1.947   6.389 -0.0759  0.0857 -2.6655
 4458SOL    HW224834   1.437   1.802   6.402 -0.1489  0.0464  0.7638
 4459SOL     OW24835   1.851   3.014   2.913 -0.6123  0.1814 -0.1274
 4459SOL    HW124836   1.872   3.063   2.834 -1.0957  1.0043  0.2523
 4459SOL    HW224837   1.917   3.046   2.974 -0.6212 -2.1807  1.1379
 4460SOL     OW24838   1.030   3.536   0.074 -0.8789  0.1066 -0.0201
 4460SOL    HW124839   1.081   3.539  17.690 -0.9783  0.4814 -0.0689
 4460SOL    HW224840   1.081   3.583   0.140  0.8163 -1.6887 -0.0582
 4461SOL     OW24841   3.598   1.628  15.671 -0.0693  0.2075  0.2826
 4461SOL    HW124842   3.621   1.649  15.761 -0.1295 -1.3326  0.6580
 4461SOL    HW224843   3.507   1.657  15.666 -0.6562 -1.3534  1.9990
 4462SOL     OW24844   1.634   0.409   4.927 -0.5092 -0.1914 -0.2829
 4462SOL    HW124845   1.670   0.466   4.995  0.6001 -1.0892 -0.1107
 4462SOL    HW224846   1.542   0.395   4.949  0.2859 -1.9843  1.8972
 4463SOL     OW24847   2.719   0.765   4.030 -0.0554  0.5346  0.1650
 4463SOL    HW124848   2.784   0.695   4.023  1.6012  2.0874 -0.0279
 4463SOL    HW224849   2.716   0.768   3.934 -0.3145  2.1397  0.2321
 4464SOL     OW24850   2.242   1.664  11.036  0.4061  0.1648  0.0755
 4464SOL    HW124851   2.262   1.590  11.092 -0.1863  0.6986  0.9864
 4464SOL    HW224852   2.222   1.732  11.100  0.4301  0.1821  0.0649
 4465SOL     OW24853   3.663   1.431  16.138  0.1021  0.0415 -0.1315
 4465SOL    HW124854   3.722   1.357  16.152 -1.8161 -1.7210 -1.4212
 4465SOL    HW224855   3.654   1.463  16.228 -1.2359 -0.0331 -0.2356
 4466SOL     OW24856   3.702   1.499   3.077 -0.1400  0.3677  0.9147
 4466SOL    HW124857   3.747   1.425   3.117  1.2981  0.5531 -0.3845
 4466SOL    HW224858   3.774   1.525   3.020  0.4754 -2.0590  0.5867
 4467SOL     OW24859   3.489   0.400   0.727  0.3225  0.3137 -0.2617
 4467SOL    HW124860   3.500   0.466   0.795 -0.9384  1.3627 -1.0660
 4467SOL    HW224861   3.420   0.351   0.770  0.6303 -0.6073 -0.8173
 4468SOL     OW24862   0.198   1.190   2.957  0.1650  0.3168  0.1861
 4468SOL    HW124863   0.218   1.261   2.896 -2.2077  1.4366  0.7249
 4468SOL    HW224864   0.103   1.188   2.952  0.2417 -2.2842 -0.2497
 4469SOL     OW24865   2.492   3.151   8.468 -0.9332 -0.1423  0.5041
 4469SOL    HW124866   2.522   3.095   8.397  0.9663  1.5445 -0.0041
 4469SOL    HW224867   2.559   3.218   8.483 -0.5584 -0.5034  0.4338
 4470SOL     OW24868   3.170   2.448  15.059 -0.2171 -0.3375 -0.1074
 4470SOL    HW124869   3.160   2.537  15.093 -0.7252 -1.0172  1.5594
 4470SOL    HW224870   3.263   2.426  15.056  0.6389  3.0053  1.9030
 4471SOL     OW24871   1.409   3.451   0.932 -0.1003  0.1794 -0.4073
 4471SOL    HW124872   1.432   3.533   0.888  0.3270  0.5868  0.5886
 4471SOL    HW224873   1.343   3.475   0.996  1.7266  1.0658  1.1516
 4472SOL     OW24874   3.973   4.723  10.893 -0.0938 -0.0482 -0.5462
 4472SOL    HW124875   3.906   4.658  10.871 -2.3428  1.7635  1.0307
 4472SOL    HW224876   3.946   0.072  10.838  2.4320  0.6563 -0.8512
 4473SOL     OW24877   3.899   3.303  12.847 -0.6468  0.5012 -0.3885
 4473SOL    HW124878   3.823   3.245  12.834 -0.1264 -0.0160 -1.0942
 4473SOL    HW224879   3.949   3.244  12.903 -2.0213 -0.4357 -0.1461
 4474SOL     OW24880   0.410   2.067   6.814 -0.0134  0.3370  0.4430
 4474SOL    HW124881   0.477   2.014   6.856 -3.1175 -1.9059  2.6341
 4474SOL    HW224882   0.357   2.004   6.765 -0.4457 -0.3481  1.8066
 4475SOL     OW24883   1.373   0.967   7.591  0.0781 -0.5857  0.3857
 4475SOL    HW124884   1.385   1.051   7.548  0.1149  0.3097  2.1305
 4475SOL    HW224885   1.382   0.911   7.514  1.8939 -0.7797  0.7340
 4476SOL     OW24886   0.251   4.645   9.837 -0.6651  0.5585 -0.2254
 4476SOL    HW124887   0.225   0.009   9.807 -0.7431  1.5599  2.7015
 4476SOL    HW224888   0.346   4.655   9.829 -0.3844 -1.0312  1.0653
 4477SOL     OW24889   2.104   4.003   7.121 -0.1609  0.1053  0.2014
 4477SOL    HW124890   2.028   3.976   7.173  0.6001 -1.9097  0.2809
 4477SOL    HW224891   2.073   4.079   7.072  2.7094  1.7916  1.0312
 4478SOL     OW24892   2.569   2.307   6.268 -0.8562  0.5336 -0.2485
 4478SOL    HW124893   2.586   2.262   6.350 -0.2866  2.8596  0.9139
 4478SOL    HW224894   2.586   2.398   6.292  3.0749 -0.3929  0.5438
 4479SOL     OW24895   4.442   4.668   6.948 -0.0605 -0.5439  0.1890
 4479SOL    HW124896   4.490   4.587   6.965  0.4858 -0.0328  1.0712
 4479SOL    HW224897   4.488   0.008   7.002 -0.0016  0.8094 -1.4530
 4480SOL     OW24898   3.178   3.001   3.491  0.2494  0.0638 -0.4094
 4480SOL    HW124899   3.124   2.969   3.564 -1.3579 -1.6445 -2.3701
 4480SOL    HW224900   3.129   2.990   3.410  1.8195  0.5810 -1.4148
 4481SOL     OW24901   2.297   0.920   3.000 -0.4239  0.0464 -0.0011
 4481SOL    HW124902   2.264   0.907   3.089  1.8585  0.4606  0.9030
 4481SOL    HW224903   2.391   0.935   3.011 -0.0411 -1.2273 -1.4806
 4482SOL     OW24904   4.016   0.382  13.425  0.1419  0.1813 -0.0433
 4482SOL    HW124905   3.941   0.357  13.371  0.2045 -1.3087  0.5348
 4482SOL    HW224906   3.977   0.464  13.455 -0.5204 -0.5485  1.1035
 4483SOL     OW24907   2.279   3.616   2.559 -0.6406 -0.0084 -0.1000
 4483SOL    HW124908   2.335   3.678   2.514  0.6993 -0.4180  1.0120
 4483SOL    HW224909   2.345   3.550   2.582  0.3987  1.3337  0.7290
 4484SOL     OW24910   1.816   0.045   7.399 -0.1367  0.2522  0.0632
 4484SOL    HW124911   1.902   0.003   7.394  1.1672  2.7568  1.5372
 4484SOL    HW224912   1.820   0.111   7.330 -2.3068 -0.6157 -0.8976
 4485SOL     OW24913   2.637   0.227   8.123 -0.1942  0.0534  0.2539
 4485SOL    HW124914   2.663   0.254   8.211 -1.8779  2.7769 -0.0715
 4485SOL    HW224915   2.544   0.210   8.138 -0.1184  0.0504  0.7071
 4486SOL     OW24916   2.834   2.586   9.039  0.1767  0.2666 -0.4504
 4486SOL    HW124917   2.822   2.634   8.957 -0.4118  0.9098  0.0062
 4486SOL    HW224918   2.929   2.579   9.041  0.1645 -0.2775 -2.0357
 4487SOL     OW24919   2.827   1.251  16.466  0.2963  0.1537 -0.1942
 4487SOL    HW124920   2.859   1.193  16.397  0.1542 -1.5591  1.1804
 4487SOL    HW224921   2.761   1.195  16.506 -0.0783 -0.9964 -2.4019
 4488SOL     OW24922   0.175   1.774   2.483 -0.0196  0.2236 -0.1696
 4488SOL    HW124923   0.143   1.836   2.416 -1.2521 -0.3634 -0.1366
 4488SOL    HW224924   0.108   1.706   2.495 -0.2693  0.7460  1.3907
 4489SOL     OW24925   3.889   1.643   2.445 -0.2489 -0.0668 -0.0997
 4489SOL    HW124926   3.806   1.599   2.462 -1.0431  0.2088 -3.4032
 4489SOL    HW224927   3.950   1.569   2.450 -0.7787 -0.4816  0.1350
 4490SOL     OW24928   3.079   0.532   6.738  0.2052  0.1225 -0.2161
 4490SOL    HW124929   3.006   0.589   6.712  0.0510  0.4628  0.9481
 4490SOL    HW224930   3.142   0.529   6.666  2.4330 -1.8064  1.7811
 4491SOL     OW24931   2.070   2.326   5.822 -0.0975  0.5617 -0.4460
 4491SOL    HW124932   2.062   2.418   5.847 -4.1013  0.5884 -1.9062
 4491SOL    HW224933   2.060   2.342   5.728  1.1174 -0.9215 -0.8270
 4492SOL     OW24934   1.819   1.042  10.311  0.3308 -0.4094  0.1663
 4492SOL    HW124935   1.913   1.053  10.326  0.0547  0.9493  0.8839
 4492SOL    HW224936   1.795   1.130  10.339 -1.5260 -0.6210 -0.7559
 4493SOL     OW24937   3.535   1.587  13.959 -0.0085 -0.0392 -0.2020
 4493SOL    HW124938   3.440   1.601  13.967 -0.2476 -1.2198 -0.9871
 4493SOL    HW224939   3.563   1.505  13.999  1.7159  0.9033  0.5169
 4494SOL     OW24940   0.000   2.697   9.013 -0.1814  0.6481 -1.0385
 4494SOL    HW124941   0.026   2.608   9.038 -1.4365  0.9759  1.4621
 4494SOL    HW224942   0.048   2.750   9.076 -0.3968 -0.8034  0.3498
 4495SOL     OW24943   1.098   1.045   2.189 -0.3952  0.4609 -0.3702
 4495SOL    HW124944   1.129   0.960   2.159 -0.9938  0.5179 -1.1465
 4495SOL    HW224945   1.060   1.083   2.110 -0.4472 -0.4870 -0.7946
 4496SOL     OW24946   1.707   1.442   2.211 -0.3916 -0.0560  0.2338
 4496SOL    HW124947   1.698   1.537   2.212  2.5210  0.2108 -1.4037
 4496SOL    HW224948   1.801   1.435   2.201 -0.3386 -0.7646  1.2275
 4497SOL     OW24949   4.640   1.176   4.683 -0.3882 -0.1395  0.1162
 4497SOL    HW124950   0.004   1.202   4.709  0.3239 -1.3944 -1.0252
 4497SOL    HW224951   4.657   1.084   4.705 -2.6331 -1.0991 -2.1428
 4498SOL     OW24952   0.347   4.221  10.237  0.3422  0.2854 -0.3721
 4498SOL    HW124953   0.434   4.195  10.207 -0.8088 -0.8683 -2.6838
 4498SOL    HW224954   0.335   4.178  10.322 -0.4549 -1.6416 -1.4431
 4499SOL     OW24955   1.604   1.322   3.285 -0.1172  0.3488  0.0869
 4499SOL    HW124956   1.698   1.338   3.294  0.5534 -3.2842 -0.6495
 4499SOL    HW224957   1.576   1.409   3.313  2.1420  1.4844 -1.1453
 4500SOL     OW24958   2.665   2.378  13.841  0.0573 -0.1878  0.4214
 4500SOL    HW124959   2.724   2.317  13.884 -0.6811 -1.6933 -0.7017
 4500SOL    HW224960   2.724   2.433  13.790  2.3500 -3.8917 -0.9171
 4501SOL     OW24961   1.466   0.131   1.584  0.1503 -0.8573 -0.0275
 4501SOL    HW124962   1.379   0.169   1.572  0.4634 -0.8242 -2.1680
 4501SOL    HW224963   1.514   0.204   1.623  0.0588 -0.8014 -0.0203
 4502SOL     OW24964   4.168   1.770   0.334 -0.8093  0.2386 -0.6675
 4502SOL    HW124965   4.200   1.859   0.349 -3.1649  1.2511 -1.6062
 4502SOL    HW224966   4.243   1.710   0.333 -2.2608 -1.6006  1.1700
 4503SOL     OW24967   1.033   2.379   7.376  0.6670 -0.2966 -0.5076
 4503SOL    HW124968   0.969   2.308   7.385  1.0677 -0.7044 -0.8943
 4503SOL    HW224969   1.111   2.331   7.404  0.8759  0.1150 -0.3868
 4504SOL     OW24970   3.614   2.188   7.904  0.9633 -0.0556  0.3654
 4504SOL    HW124971   3.645   2.097   7.906  1.3761  0.0491 -1.8102
 4504SOL    HW224972   3.614   2.193   7.809 -2.3727 -1.4921  0.3156
 4505SOL     OW24973   0.120   0.590   1.859  0.4516  0.2983  0.3286
 4505SOL    HW124974   0.114   0.646   1.782  0.6112  1.1012  0.9016
 4505SOL    HW224975   0.192   0.530   1.839  0.7368  0.6816  0.2090
 4506SOL     OW24976   3.822   2.317   4.477  0.0411  0.2888  0.2633
 4506SOL    HW124977   3.856   2.353   4.395 -0.0392 -0.3610 -0.0545
 4506SOL    HW224978   3.907   2.301   4.519  0.6580 -0.3524 -1.2198
 4507SOL     OW24979   2.173   2.514   2.569 -0.2195  0.1031 -0.3353
 4507SOL    HW124980   2.105   2.571   2.533  0.2657 -0.5885 -2.3006
 4507SOL    HW224981   2.161   2.435   2.517 -2.2405  0.9091 -1.1124
 4508SOL     OW24982   1.199   0.438   7.700 -0.5433  0.3144  0.1908
 4508SOL    HW124983   1.263   0.376   7.666 -0.3722  1.5699 -1.7432
 4508SOL    HW224984   1.117   0.410   7.660  0.1246  1.4960 -1.9810
 4509SOL     OW24985   0.665   0.021   3.815 -0.3433  0.0491 -0.1510
 4509SOL    HW124986   0.701   4.669   3.768 -0.3394 -0.6151  0.9378
 4509SOL    HW224987   0.570   0.015   3.806 -0.3598 -1.5709  1.0890
 4510SOL     OW24988   2.915   4.043   8.157 -0.0855  0.1328 -0.4527
 4510SOL    HW124989   2.852   4.107   8.125 -1.7184 -1.2608  0.0078
 4510SOL    HW224990   2.915   3.984   8.081  1.5701 -0.2381 -0.1747
 4511SOL     OW24991   0.206   2.035  11.207 -0.9004  0.4980  0.6103
 4511SOL    HW124992   0.249   2.043  11.122 -0.7998 -0.7094  0.5454
 4511SOL    HW224993   0.171   1.946  11.211 -0.8795  0.5530  1.8971
 4512SOL     OW24994   2.497   1.947   7.871  0.1565  0.2904 -0.7858
 4512SOL    HW124995   2.503   2.035   7.833  0.2275  1.1959  1.3112
 4512SOL    HW224996   2.572   1.960   7.930 -1.5455 -2.0418  1.9088
 4513SOL     OW24997   4.502   2.723   9.320 -0.1077  0.1327 -0.1417
 4513SOL    HW124998   4.569   2.722   9.388  0.8698 -1.0892 -1.1117
 4513SOL    HW224999   4.490   2.630   9.299 -1.2908  0.3116 -0.2601
 4514SOL     OW25000   1.738   0.655   6.552 -0.2153  0.0160  0.0660
 4514SOL    HW125001   1.663   0.700   6.591  0.3852  0.5438  0.6054
 4514SOL    HW225002   1.707   0.566   6.570 -4.4228  1.8537  1.7136
 4515SOL     OW25003   2.791   2.015  13.719 -0.7456  0.1065 -0.0504
 4515SOL    HW125004   2.709   2.051  13.686 -0.2916  0.4723 -0.7839
 4515SOL    HW225005   2.849   2.049  13.651  0.4561 -2.5945 -0.3750
 4516SOL     OW25006   0.465   0.634   2.398  0.0231  0.3933  0.3337
 4516SOL    HW125007   0.391   0.619   2.456 -0.1752 -1.3562 -0.3582
 4516SOL    HW225008   0.457   0.562   2.335  0.7194  1.2248 -0.7045
 4517SOL     OW25009   1.676   2.116  12.599 -0.2024 -0.3341 -0.0075
 4517SOL    HW125010   1.759   2.114  12.552 -0.4108  0.8426 -0.4254
 4517SOL    HW225011   1.604   2.136  12.539 -0.8586 -1.6703  0.3264
 4518SOL     OW25012   0.514   1.022   4.704  0.0192  0.6892  0.2371
 4518SOL    HW125013   0.556   0.952   4.754  0.6095  1.7188  1.1845
 4518SOL    HW225014   0.557   1.101   4.738 -0.8468  1.1167  0.3466
 4519SOL     OW25015   3.337   0.439  16.574  0.1493 -0.2871 -0.8021
 4519SOL    HW125016   3.271   0.507  16.562 -0.2379 -0.1608  1.9828
 4519SOL    HW225017   3.362   0.461  16.664 -3.9670  0.2436  0.2137
 4520SOL     OW25018   3.611   3.044   1.700  0.1522 -0.0398  0.4688
 4520SOL    HW125019   3.676   2.974   1.706  0.5651  0.4398  1.6550
 4520SOL    HW225020   3.562   3.022   1.779  0.6965 -1.3087  0.4563
 4521SOL     OW25021   0.389   3.657  13.598  0.1790 -0.0187 -0.2052
 4521SOL    HW125022   0.456   3.652  13.666  1.4322 -0.6485 -1.4698
 4521SOL    HW225023   0.396   3.570  13.558  1.9529  0.0493 -0.0608
 4522SOL     OW25024   2.712   2.378   7.891  0.3371 -0.7769  0.2945
 4522SOL    HW125025   2.744   2.460   7.853 -0.6181 -0.4567  0.1768
 4522SOL    HW225026   2.789   2.322   7.900  0.1666 -1.1528 -0.6167
 4523SOL     OW25027   1.168   2.050   7.193 -0.3334 -0.4234 -0.3265
 4523SOL    HW125028   1.190   2.122   7.253  0.6073 -0.6719 -0.3751
 4523SOL    HW225029   1.258   2.021   7.176 -0.0875  2.0288 -3.2644
 4524SOL     OW25030   4.155   4.139  14.659 -0.5982 -0.1531 -0.5277
 4524SOL    HW125031   4.173   4.167  14.749  1.8586 -2.3219 -0.3524
 4524SOL    HW225032   4.247   4.126  14.636 -0.4620  0.3131 -0.2581
 4525SOL     OW25033   0.447   3.242   5.846 -0.0875  0.5230  0.0529
 4525SOL    HW125034   0.448   3.237   5.941  1.3684 -0.6507 -0.0339
 4525SOL    HW225035   0.409   3.326   5.819  1.2199  1.4760  1.2429
 4526SOL     OW25036   0.568   4.467  17.367  0.6277 -0.0113 -0.0632
 4526SOL    HW125037   0.559   4.436  17.276  1.2219 -0.0976 -0.0963
 4526SOL    HW225038   0.526   4.552  17.363 -1.1973 -0.9029  0.3313
 4527SOL     OW25039   3.848   0.358   4.435 -0.1599 -0.0662  0.1607
 4527SOL    HW125040   3.840   0.407   4.517 -0.2273 -0.3143  0.3000
 4527SOL    HW225041   3.873   0.270   4.463 -0.4435 -0.6803 -1.5425
 4528SOL     OW25042   2.422   3.858   6.408 -0.2539 -0.3484 -0.6823
 4528SOL    HW125043   2.449   3.938   6.452  0.7053 -1.9195  1.5702
 4528SOL    HW225044   2.469   3.872   6.326  1.0093 -1.4708 -0.1463
 4529SOL     OW25045   0.606   2.436   3.678  0.4557  0.1999  0.4047
 4529SOL    HW125046   0.645   2.503   3.735  0.0054  0.8447 -0.0365
 4529SOL    HW225047   0.548   2.401   3.746 -0.2773 -1.0477 -0.8810
 4530SOL     OW25048   1.911   2.891   5.017  0.3907  0.3123  0.2664
 4530SOL    HW125049   1.870   2.977   5.007 -0.1394  0.1619  1.1544
 4530SOL    HW225050   2.003   2.915   5.000  0.2551  0.3308 -0.4775
 4531SOL     OW25051   2.020   3.821   6.612 -0.0877  0.0310  0.0640
 4531SOL    HW125052   2.004   3.727   6.601 -1.9731  0.3904 -0.3476
 4531SOL    HW225053   2.051   3.852   6.527 -2.5453 -0.5404 -1.0422
 4532SOL     OW25054   2.170   1.796   6.566  0.3445  0.5538 -0.6866
 4532SOL    HW125055   2.162   1.762   6.655 -0.8030  1.7359 -0.3308
 4532SOL    HW225056   2.242   1.859   6.570  0.4224  0.4839 -1.0367
 4533SOL     OW25057   1.611   0.405   9.076 -0.2193 -0.0045 -0.3743
 4533SOL    HW125058   1.682   0.466   9.096  0.2550 -0.3740 -0.9255
 4533SOL    HW225059   1.543   0.436   9.136  1.3354  1.9035  0.3906
 4534SOL     OW25060   0.002   4.119   8.917  0.4045 -0.3583  0.0819
 4534SOL    HW125061   4.673   4.154   8.845  1.1502 -1.9906 -1.2433
 4534SOL    HW225062   0.091   4.133   8.887  0.8696 -1.5186  0.9172
 4535SOL     OW25063   1.465   2.227  15.830 -0.5416  0.2369  0.3504
 4535SOL    HW125064   1.511   2.283  15.892  2.5807 -1.4980 -0.4019
 4535SOL    HW225065   1.415   2.175  15.893 -0.0879 -0.7759 -0.1343
 4536SOL     OW25066   1.584   0.517   9.369 -0.0732 -0.1056  0.0189
 4536SOL    HW125067   1.656   0.454   9.363 -0.1465 -0.1708 -0.1854
 4536SOL    HW225068   1.589   0.551   9.458  1.7582 -1.4349  0.4212
 4537SOL     OW25069   2.598   3.793   5.743  0.0576  0.0741 -0.1897
 4537SOL    HW125070   2.658   3.765   5.674 -0.0613  0.1880 -0.3386
 4537SOL    HW225071   2.622   3.750   5.826 -2.0180  1.1647  0.9776
 4538SOL     OW25072   1.711   3.615   5.197 -0.6726 -0.0334  0.2801
 4538SOL    HW125073   1.687   3.697   5.239 -0.1524  0.6060 -0.6878
 4538SOL    HW225074   1.725   3.652   5.110 -2.3176 -0.1010 -0.0229
 4539SOL     OW25075   0.933   2.247   2.201  0.2325 -0.1401 -0.0749
 4539SOL    HW125076   0.845   2.237   2.163 -0.2307  0.1230  0.9274
 4539SOL    HW225077   0.982   2.185   2.146  0.2047  1.6888 -2.1671
 4540SOL     OW25078   0.450   2.480   6.521 -0.0886 -1.1077 -0.1105
 4540SOL    HW125079   0.366   2.442   6.496 -0.6612 -0.2967  0.5629
 4540SOL    HW225080   0.422   2.518   6.604  0.6613  2.1551 -1.3162
 4541SOL     OW25081   0.666   4.286   3.174 -0.0209  0.0512 -0.3654
 4541SOL    HW125082   0.720   4.261   3.099  1.1745 -0.1800  0.5682
 4541SOL    HW225083   0.709   4.242   3.248  1.1081  0.9074 -0.5004
 4542SOL     OW25084   3.839   3.323  15.304 -0.9105  0.2804 -0.2207
 4542SOL    HW125085   3.779   3.325  15.379 -3.1822 -0.4756 -1.9981
 4542SOL    HW225086   3.877   3.236  15.309  0.7678  0.9865 -0.8557
 4543SOL     OW25087   3.558   3.716   7.955  0.0417  0.2268 -0.4599
 4543SOL    HW125088   3.635   3.662   7.972 -0.2479 -0.6738 -1.9519
 4543SOL    HW225089   3.486   3.653   7.963  0.3983 -0.2904 -1.2946
 4544SOL     OW25090   2.467   1.228  12.368  0.1149 -0.3595 -0.2155
 4544SOL    HW125091   2.376   1.244  12.343  0.2653  1.9797  0.7366
 4544SOL    HW225092   2.454   1.164  12.438 -0.7999  1.7835  1.5780
 4545SOL     OW25093   1.726   4.680   8.984 -0.5463  0.0315  0.1341
 4545SOL    HW125094   1.722   4.585   8.993  0.5259  0.0829  1.0296
 4545SOL    HW225095   1.640   4.704   9.018 -0.2750  2.2183 -0.7321
 4546SOL     OW25096   0.102   3.738   6.338 -0.7131  0.1870 -0.0031
 4546SOL    HW125097   0.190   3.762   6.367 -1.0157 -1.6110  2.4243
 4546SOL    HW225098   0.077   3.678   6.409 -0.6630 -0.7262 -0.7507
 4547SOL     OW25099   3.714   1.048  15.490 -0.1057  0.5398  0.0513
 4547SOL    HW125100   3.807   1.033  15.511 -0.2650 -0.3518  0.1353
 4547SOL    HW225101   3.717   1.099  15.409 -0.0407  2.0436  1.0056
 4548SOL     OW25102   3.862   4.372   5.546 -0.2904  0.0456  0.1857
 4548SOL    HW125103   3.851   4.294   5.600  0.6407  0.5191  1.0584
 4548SOL    HW225104   3.777   4.413   5.563  0.4259  1.5768  0.0949
 4549SOL     OW25105   0.908   4.189   6.118 -0.3908 -0.2860  0.2895
 4549SOL    HW125106   0.865   4.104   6.114  0.4528 -0.7144  0.1770
 4549SOL    HW225107   0.995   4.163   6.148  0.2330  2.3711  0.8329
 4550SOL     OW25108   3.766   1.015   7.537  0.2200  0.6122 -0.2518
 4550SOL    HW125109   3.804   0.952   7.477  0.6943  1.0554 -0.4125
 4550SOL    HW225110   3.695   0.958   7.569  2.0374 -2.1989 -1.2913
 4551SOL     OW25111   2.249   4.183   9.959  0.7994  0.8514  0.4069
 4551SOL    HW125112   2.206   4.268   9.973  2.1542  1.7255 -0.7013
 4551SOL    HW225113   2.311   4.219   9.896 -0.6131 -0.3194 -1.6346
 4552SOL     OW25114   0.183   4.518   8.619  0.1252  0.6497  0.2143
 4552SOL    HW125115   0.202   4.608   8.594 -0.0156  0.0072 -2.1769
 4552SOL    HW225116   0.265   4.468   8.620 -0.4931 -0.3829 -1.4196
 4553SOL     OW25117   4.499   0.422   5.793 -0.3441  0.0474  0.1892
 4553SOL    HW125118   4.508   0.327   5.798  2.9705  0.3170 -0.7044
 4553SOL    HW225119   4.560   0.431   5.720  1.2290  0.3448  1.5306
 4554SOL     OW25120   1.503   3.675   8.403 -0.3076  0.1255  0.2451
 4554SOL    HW125121   1.461   3.591   8.382  2.0012 -1.1988  0.8359
 4554SOL    HW225122   1.556   3.680   8.324  2.1947 -0.4844  1.8572
 4555SOL     OW25123   3.692   4.412   8.354  0.0112  0.3705  0.4550
 4555SOL    HW125124   3.607   4.433   8.391  0.2854  1.5700  0.4254
 4555SOL    HW225125   3.737   4.494   8.376  1.5813 -1.1092  2.6712
 4556SOL     OW25126   1.487   2.572   6.883  0.1057 -0.3209  0.3698
 4556SOL    HW125127   1.477   2.526   6.799  1.5513 -0.9881  0.5500
 4556SOL    HW225128   1.415   2.522   6.922 -1.6816  2.3815  0.4856
 4557SOL     OW25129   1.420   2.098   3.013 -0.4658 -0.0908 -0.1793
 4557SOL    HW125130   1.473   2.019   3.003  0.3313  0.4278 -0.1566
 4557SOL    HW225131   1.376   2.116   2.930 -2.0918  0.4433  0.7996
 4558SOL     OW25132   3.371   4.613   9.136 -1.1207  0.5555 -0.0376
 4558SOL    HW125133   3.431   4.538   9.134 -0.2576  1.3047 -1.8089
 4558SOL    HW225134   3.412   4.672   9.200 -0.5977 -0.3808  0.5146
 4559SOL     OW25135   0.744   3.674  15.162  0.6764  0.0943 -0.4629
 4559SOL    HW125136   0.830   3.712  15.183 -0.8022  1.6508  2.9278
 4559SOL    HW225137   0.692   3.742  15.207  0.9296  0.0231 -0.0657
 4560SOL     OW25138   1.326   4.274   3.334  0.1839 -0.4226 -0.0559
 4560SOL    HW125139   1.258   4.210   3.318 -0.6842 -0.0855  2.2530
 4560SOL    HW225140   1.275   4.353   3.351  0.7583  0.0416 -0.4542
 4561SOL     OW25141   2.981   4.011   7.356  0.0417  0.0340 -0.6469
 4561SOL    HW125142   2.975   4.090   7.303 -1.5679 -0.9264 -1.8882
 4561SOL    HW225143   3.031   4.051   7.427 -0.2505 -1.4526  0.4045
 4562SOL     OW25144   3.433   2.328   6.003 -0.4911 -0.2751 -0.3030
 4562SOL    HW125145   3.494   2.364   5.939 -2.4687  3.3546 -0.1893
 4562SOL    HW225146   3.475   2.323   6.089  1.0304 -3.2766 -1.2366
 4563SOL     OW25147   3.836   4.331   7.129  0.7184  0.2753 -0.3708
 4563SOL    HW125148   3.766   4.392   7.103 -0.5000 -0.7550  0.5120
 4563SOL    HW225149   3.915   4.385   7.118  0.0077  1.0230 -1.8049
 4564SOL     OW25150   3.615   1.294   5.670  0.5850  0.5582  0.2770
 4564SOL    HW125151   3.647   1.298   5.580 -1.2286  3.0349 -0.2451
 4564SOL    HW225152   3.681   1.345   5.718  0.5622  3.0039 -2.3031
 4565SOL     OW25153   4.689   3.482  16.322 -0.4410 -0.0843 -0.0142
 4565SOL    HW125154   0.001   3.511  16.239 -1.6594 -1.6814 -1.1117
 4565SOL    HW225155   4.607   3.439  16.297 -0.3901  0.1591 -0.5855
 4566SOL     OW25156   1.167   1.335   7.123 -0.1141 -0.4465 -0.3394
 4566SOL    HW125157   1.144   1.291   7.205 -0.6215 -0.7477 -0.6432
 4566SOL    HW225158   1.239   1.386   7.160 -0.6209 -0.0936  0.1617
 4567SOL     OW25159   0.053   4.672   1.822 -0.5938  0.7245  1.0117
 4567SOL    HW125160   4.681   4.673   1.824 -0.5831  1.4883  1.6034
 4567SOL    HW225161   0.058   4.689   1.728 -0.1153  3.4159  1.5116
 4568SOL     OW25162   0.720   3.424   6.025 -0.1645  0.0734  0.1467
 4568SOL    HW125163   0.793   3.467   5.980 -1.2567 -0.3147 -1.9867
 4568SOL    HW225164   0.640   3.447   5.978 -0.7776  0.1236  1.2238
 4569SOL     OW25165   2.522   3.534   5.390  0.6977  0.8993 -0.2388
 4569SOL    HW125166   2.510   3.480   5.312  1.7644  1.2057 -0.6102
 4569SOL    HW225167   2.526   3.623   5.355  0.1322  1.7362  1.7867
 4570SOL     OW25168   3.600   1.660   6.477  0.8698  0.2030 -0.5621
 4570SOL    HW125169   3.581   1.566   6.483  1.0202  0.1078 -1.5688
 4570SOL    HW225170   3.554   1.677   6.395 -0.5147 -1.1479 -0.0585
 4571SOL     OW25171   0.867   1.268  16.893  0.6772 -0.1643  0.1280
 4571SOL    HW125172   0.824   1.218  16.823  0.5746 -1.2179  0.9407
 4571SOL    HW225173   0.929   1.330  16.855 -0.2450 -0.4543 -1.8545
 4572SOL     OW25174   4.369   1.397  16.016  0.4666  0.1306  0.1223
 4572SOL    HW125175   4.337   1.477  16.059  0.9681 -1.1313  2.8194
 4572SOL    HW225176   4.351   1.334  16.085  2.9966 -1.0019 -0.2542
 4573SOL     OW25177   1.133   0.021  11.459  0.4181 -0.1307 -0.5106
 4573SOL    HW125178   1.097   0.004  11.372 -1.2488  0.0383  0.1517
 4573SOL    HW225179   1.076   4.687  11.509  1.1128  1.1054  1.6932
 4574SOL     OW25180   0.915   2.122   5.874 -0.5809 -0.3828  0.1330
 4574SOL    HW125181   0.998   2.074   5.869 -0.5875 -0.6024  2.1129
 4574SOL    HW225182   0.886   2.076   5.952  0.4929 -0.9822  0.1780
 4575SOL     OW25183   1.034   2.668   4.908 -0.2275  0.2782 -0.1628
 4575SOL    HW125184   1.037   2.649   4.815 -0.0215  0.9068 -0.2816
 4575SOL    HW225185   1.089   2.596   4.939 -0.4119 -0.2964 -1.1962
 4576SOL     OW25186   0.076   2.066   0.506 -0.1591 -0.5151  0.2841
 4576SOL    HW125187   0.004   2.127   0.520 -1.1903 -1.3494 -1.4708
 4576SOL    HW225188   0.047   1.998   0.567 -0.5893  0.1840  0.8603
 4577SOL     OW25189   0.418   2.152   2.909  0.5475  0.4062 -0.4027
 4577SOL    HW125190   0.389   2.113   2.827 -3.3038 -0.4479  1.3502
 4577SOL    HW225191   0.400   2.244   2.893 -2.7311 -0.1326  0.0934
 4578SOL     OW25192   0.882   4.049   9.181  0.1450  0.6653 -0.0642
 4578SOL    HW125193   0.833   4.046   9.099 -1.3467  0.8907  0.8379
 4578SOL    HW225194   0.910   4.140   9.168 -0.3926  0.6803 -1.1269
 4579SOL     OW25195   4.482   2.004   2.597  0.3728 -0.7549 -0.2679
 4579SOL    HW125196   4.397   2.047   2.600  0.5038 -0.6988  2.4599
 4579SOL    HW225197   4.514   2.025   2.509  1.8225  1.4574  0.7880
 4580SOL     OW25198   1.353   1.634   3.858 -0.1103 -0.0022 -0.6773
 4580SOL    HW125199   1.404   1.603   3.783 -1.5207 -0.1286 -1.5659
 4580SOL    HW225200   1.303   1.553   3.866 -0.1367  0.0378 -0.4431
 4581SOL     OW25201   3.691   0.970   8.817  0.0926 -0.1310  0.4229
 4581SOL    HW125202   3.606   1.007   8.794 -0.0177 -0.5447  0.1690
 4581SOL    HW225203   3.684   0.990   8.911  2.0475 -1.4014  0.8510
 4582SOL     OW25204   3.025   0.146   4.926 -0.7224  0.3896  0.3281
 4582SOL    HW125205   2.973   0.196   4.988 -1.1695 -0.1178  0.3682
 4582SOL    HW225206   3.108   0.192   4.919  0.5689 -1.6654  2.0573
 4583SOL     OW25207   3.800   3.569  12.844 -0.5234  0.7113  0.0920
 4583SOL    HW125208   3.833   3.479  12.845 -2.5653 -0.0506  0.3535
 4583SOL    HW225209   3.784   3.582  12.938  0.8762 -1.9655  0.7152
 4584SOL     OW25210   1.971   4.528   7.072  0.0190 -0.0814 -0.3942
 4584SOL    HW125211   1.900   4.593   7.071  2.0456  2.1942  1.7749
 4584SOL    HW225212   1.949   4.482   7.153 -2.3445  2.2882  0.3249
 4585SOL     OW25213   4.660   4.485  16.619 -0.0769 -0.3882  0.0903
 4585SOL    HW125214   4.655   4.390  16.631 -1.3051 -0.0927  1.9702
 4585SOL    HW225215   0.003   4.494  16.550  1.9028 -2.9507  1.6767
 4586SOL     OW25216   2.887   0.348  14.652 -0.6863 -0.6394  0.4410
 4586SOL    HW125217   2.920   0.322  14.566 -3.0801  1.5533 -1.1619
 4586SOL    HW225218   2.956   0.320  14.712  0.5312 -0.2975 -0.7861
 4587SOL     OW25219   1.953   1.682   3.494  0.2895  0.1848  0.1071
 4587SOL    HW125220   2.034   1.705   3.538 -0.0130 -1.2689  1.4427
 4587SOL    HW225221   1.943   1.746   3.424 -3.6543 -1.5469 -0.9171
 4588SOL     OW25222   2.532   3.090   0.476  0.2574  0.3476 -0.3871
 4588SOL    HW125223   2.461   3.139   0.519  0.3501 -0.3121  0.5181
 4588SOL    HW225224   2.472   3.035   0.426 -0.1516  0.4352  0.0016
 4589SOL     OW25225   1.012   3.672   2.952  0.0413  0.1485  0.1257
 4589SOL    HW125226   0.964   3.594   2.978 -3.3650  2.0067 -0.5643
 4589SOL    HW225227   0.950   3.700   2.885  2.2040  0.4357 -1.7948
 4590SOL     OW25228   2.719   1.062   5.605 -0.3112 -0.6955 -0.1712
 4590SOL    HW125229   2.748   1.131   5.546 -1.7893  0.5537  0.5713
 4590SOL    HW225230   2.804   1.023   5.627 -2.5660 -4.2368  2.2949
 4591SOL     OW25231   1.766   3.711  14.372  0.0119  0.1819 -0.1000
 4591SOL    HW125232   1.679   3.752  14.376  0.2280  0.4358  2.1618
 4591SOL    HW225233   1.739   3.629  14.330  1.6789 -0.8868  0.9378
 4592SOL     OW25234   1.586   1.995   0.231 -0.1847  0.1439  0.5219
 4592SOL    HW125235   1.666   2.030   0.192 -0.2150 -0.9715 -0.5226
 4592SOL    HW225236   1.635   1.928   0.278 -1.4906 -1.2090 -0.0387
 4593SOL     OW25237   4.191   1.011  12.522 -0.6804 -0.1875  0.2057
 4593SOL    HW125238   4.211   0.927  12.479 -0.0573 -0.2791  0.6709
 4593SOL    HW225239   4.162   0.994  12.611 -0.7135  0.8176  0.3844
 4594SOL     OW25240   3.936   1.696   8.586 -0.1531 -0.3740 -0.2678
 4594SOL    HW125241   4.032   1.701   8.583 -0.1918 -0.6834 -2.1484
 4594SOL    HW225242   3.926   1.712   8.680  0.1781  0.0774 -0.3060
 4595SOL     OW25243   0.829   2.090  15.496  0.3892  0.6675 -0.8567
 4595SOL    HW125244   0.877   2.128  15.423 -0.5195  2.0260 -0.7488
 4595SOL    HW225245   0.749   2.106  15.446  0.0259  0.4591 -0.3515
 4596SOL     OW25246   4.695   3.411   3.348  0.1270  0.3348 -0.0312
 4596SOL    HW125247   0.019   3.337   3.385  1.5810  0.3806 -1.8275
 4596SOL    HW225248   4.642   3.366   3.283  2.2017 -4.0163  1.2824
 4597SOL     OW25249   3.359   3.764   2.247 -0.0074  0.5541  0.3820
 4597SOL    HW125250   3.329   3.844   2.204  0.2583  0.1599 -0.5375
 4597SOL    HW225251   3.417   3.808   2.310  1.8582 -0.9302 -0.3277
 4598SOL     OW25252   3.900   3.689  11.979  0.0782  0.1062 -0.6600
 4598SOL    HW125253   3.963   3.744  11.933 -0.0321  0.2406 -0.6488
 4598SOL    HW225254   3.955   3.650  12.048  0.3292 -1.5777 -1.8118
 4599SOL     OW25255   0.559   3.333  12.972 -0.6271  0.6584  0.3071
 4599SOL    HW125256   0.618   3.308  13.042  1.7891 -1.3556 -2.4629
 4599SOL    HW225257   0.607   3.321  12.890 -1.5804 -0.0620 -0.1434
 4600SOL     OW25258   4.587   4.138   8.214 -0.0535 -0.4230  0.2162
 4600SOL    HW125259   4.669   4.188   8.212 -0.6809  0.6818  2.3396
 4600SOL    HW225260   4.560   4.152   8.123 -0.8161  1.4849  0.7411
 4601SOL     OW25261   2.495   1.714   1.657 -0.2016 -0.1859  0.0329
 4601SOL    HW125262   2.568   1.685   1.601  0.5318  0.8164  0.4864
 4601SOL    HW225263   2.519   1.653   1.726  0.1758 -0.9550 -0.7692
 4602SOL     OW25264   3.897   2.934   2.743  0.0416  0.1861 -0.2435
 4602SOL    HW125265   3.839   2.986   2.687  1.2422 -0.5009 -2.1350
 4602SOL    HW225266   3.976   2.988   2.754  0.6541 -0.3747 -1.8445
 4603SOL     OW25267   4.406   2.244   8.207  0.0931  0.3221  0.0241
 4603SOL    HW125268   4.426   2.308   8.275  0.5421  0.4648 -0.2507
 4603SOL    HW225269   4.493   2.239   8.168 -0.0472 -0.5776 -0.1671
 4604SOL     OW25270   1.340   2.469  17.214  0.4316 -0.2532 -0.1181
 4604SOL    HW125271   1.355   2.382  17.178  2.0575  0.1988 -0.5452
 4604SOL    HW225272   1.269   2.451  17.275 -1.0855  1.0502 -1.5217
 4605SOL     OW25273   1.193   2.741   8.290  0.3374 -0.1141  0.0338
 4605SOL    HW125274   1.285   2.714   8.290 -0.4460 -2.6949  1.0113
 4605SOL    HW225275   1.180   2.720   8.382  0.4126 -0.5235 -0.0479
 4606SOL     OW25276   1.034   3.214   8.634 -0.0068 -0.2098 -0.6866
 4606SOL    HW125277   0.979   3.232   8.710 -1.6604 -0.6111 -1.7703
 4606SOL    HW225278   1.038   3.120   8.650  1.1164  0.0910  0.8287
 4607SOL     OW25279   1.334   2.541  10.687 -0.4580  0.5485 -0.6872
 4607SOL    HW125280   1.323   2.540  10.592 -1.9068 -2.7935 -0.4802
 4607SOL    HW225281   1.253   2.509  10.725  0.3209  0.6803  1.0571
 4608SOL     OW25282   3.778   3.046  12.754 -0.3520 -0.2080 -0.1897
 4608SOL    HW125283   3.700   2.993  12.767 -0.3595  0.1606  1.2198
 4608SOL    HW225284   3.847   2.986  12.781 -1.4571 -1.0614  0.7044
 4609SOL     OW25285   0.854   0.555   6.240 -0.5894 -0.0400  0.7623
 4609SOL    HW125286   0.804   0.498   6.299  1.7516 -2.7430  0.1893
 4609SOL    HW225287   0.831   0.517   6.155  1.3110 -0.6943  0.5259
 4610SOL     OW25288   0.013   4.343   6.537  0.6908  0.1918  0.3463
 4610SOL    HW125289   0.051   4.389   6.462 -0.8661  1.6814  0.4817
 4610SOL    HW225290   0.083   4.294   6.579  1.6002  0.6472 -0.6190
 4611SOL     OW25291   2.680   3.757   6.532  0.4577  0.4699 -0.4277
 4611SOL    HW125292   2.593   3.769   6.495 -0.3847 -1.7572  0.8011
 4611SOL    HW225293   2.716   3.845   6.543  1.2249  0.3762 -2.1390
 4612SOL     OW25294   4.332   4.135  13.272 -0.1815 -0.5131 -0.4308
 4612SOL    HW125295   4.314   4.110  13.181  0.1600 -2.4688  0.0446
 4612SOL    HW225296   4.321   4.230  13.275 -0.7113 -0.5972  0.4371
 4613SOL     OW25297   0.076   1.855  10.891  0.1308  0.8559 -0.9767
 4613SOL    HW125298   0.011   1.867  10.960  0.0362 -1.7479 -0.5969
 4613SOL    HW225299   0.036   1.801  10.823 -0.0722  0.9736 -0.9491
 4614SOL     OW25300   0.805   2.537   3.245 -0.4969  0.7703  0.0246
 4614SOL    HW125301   0.710   2.549   3.255 -0.7628 -0.3082 -1.2677
 4614SOL    HW225302   0.808   2.468   3.179  0.1196  0.3849  0.4606
 4615SOL     OW25303   1.798   1.915   9.699 -0.0124 -0.5492  0.2759
 4615SOL    HW125304   1.735   1.849   9.672 -0.5312  0.6893 -1.5932
 4615SOL    HW225305   1.735   1.964   9.752 -2.7437 -1.5329 -2.0703
 4616SOL     OW25306   0.754   1.728   1.688  0.0393  0.0850  0.0335
 4616SOL    HW125307   0.808   1.667   1.638  0.4358  0.1289  0.4081
 4616SOL    HW225308   0.811   1.804   1.697 -1.0245  1.2029 -2.9113
 4617SOL     OW25309   2.314   3.841  17.073 -0.3624 -0.1972 -0.3979
 4617SOL    HW125310   2.395   3.792  17.057  0.2318  0.6935 -0.1779
 4617SOL    HW225311   2.256   3.786  17.021  0.8411 -0.5292 -1.4101
 4618SOL     OW25312   0.807   1.376   4.215  0.3339 -0.5031  0.1000
 4618SOL    HW125313   0.841   1.297   4.257  0.9273 -0.6363 -0.6302
 4618SOL    HW225314   0.844   1.357   4.129 -0.0712  0.3541 -0.2567
 4619SOL     OW25315   4.062   2.362  12.084  0.6273 -0.0911  0.1445
 4619SOL    HW125316   4.030   2.445  12.120  2.3193  0.8555 -0.5771
 4619SOL    HW225317   4.011   2.365  12.003  1.8607 -1.6173 -0.6846
 4620SOL     OW25318   3.706   3.538   1.620 -0.0539  0.2011  0.1449
 4620SOL    HW125319   3.743   3.508   1.538 -0.4765 -0.6330  0.2604
 4620SOL    HW225320   3.677   3.627   1.600 -1.9341 -0.9800 -2.3588
 4621SOL     OW25321   2.143   0.985  17.140 -0.2815 -0.0127 -0.2662
 4621SOL    HW125322   2.048   0.977  17.131 -0.2199 -1.1538  0.0907
 4621SOL    HW225323   2.176   0.904  17.101 -1.0195  0.0137 -0.9590
 4622SOL     OW25324   1.985   4.551   2.102  0.5840 -0.2470  0.0032
 4622SOL    HW125325   1.959   4.464   2.134  2.2065 -0.6682  0.2166
 4622SOL    HW225326   2.068   4.549   2.150 -0.3921  0.6000  1.6907
 4623SOL     OW25327   2.176   2.975   5.063 -0.0783  0.1591  0.1315
 4623SOL    HW125328   2.222   2.894   5.084  0.2646  0.1271 -0.7746
 4623SOL    HW225329   2.245   3.019   5.013  0.0619  1.4985  1.4916
 4624SOL     OW25330   1.029   4.480   3.645  0.2447  0.1273  0.3605
 4624SOL    HW125331   1.078   4.441   3.573 -0.6170  0.3834 -0.3681
 4624SOL    HW225332   1.061   4.415   3.707 -2.1164 -0.5920  0.8558
 4625SOL     OW25333   3.988   4.615   2.001  0.3618  0.2412 -0.2095
 4625SOL    HW125334   3.919   4.590   2.063  1.8898  0.0879  1.4515
 4625SOL    HW225335   4.058   4.581   2.057 -0.1670 -0.3097  0.1236
 4626SOL     OW25336   0.154   3.171   6.441 -0.0515 -0.0507  0.1903
 4626SOL    HW125337   0.124   3.174   6.532 -0.6369 -1.1876  0.0414
 4626SOL    HW225338   0.082   3.117   6.408  1.1291 -0.8285 -1.1188
 4627SOL     OW25339   1.948   0.807  17.354 -0.0109 -0.3900 -0.3967
 4627SOL    HW125340   1.867   0.795  17.304  1.5961 -2.5027 -2.4558
 4627SOL    HW225341   1.906   0.815  17.440  2.7707  0.7818  0.8541
 4628SOL     OW25342   1.321   3.167  16.723  0.2127 -0.2199  0.2992
 4628SOL    HW125343   1.354   3.200  16.639  0.7427 -1.0733  0.1815
 4628SOL    HW225344   1.234   3.206  16.717 -0.7838 -2.6820 -1.0408
 4629SOL     OW25345   0.523   4.115   4.268  0.1629 -0.4759  0.2241
 4629SOL    HW125346   0.509   4.209   4.279 -0.4827 -0.1587 -3.0870
 4629SOL    HW225347   0.592   4.095   4.331 -0.3274 -0.2074  0.8377
 4630SOL     OW25348   2.439   4.403   6.146  0.3428 -0.1714  0.1944
 4630SOL    HW125349   2.379   4.347   6.097  0.4520  0.5729 -0.8072
 4630SOL    HW225350   2.525   4.366   6.130  0.7198 -0.2832  2.4359
 4631SOL     OW25351   3.000   3.144   7.527 -0.6201  0.3878 -0.0159
 4631SOL    HW125352   3.020   3.052   7.510  1.5464  1.1264 -1.4185
 4631SOL    HW225353   2.918   3.158   7.478 -1.3714 -1.4061  0.7398
 4632SOL     OW25354   3.232   0.239   4.296 -0.0964  0.9200 -0.0566
 4632SOL    HW125355   3.166   0.228   4.365  1.2954 -0.7679  0.9880
 4632SOL    HW225356   3.204   0.329   4.278 -2.3239  0.6197  1.8968
 4633SOL     OW25357   1.799   2.390   7.027  0.2618  0.5341 -0.3143
 4633SOL    HW125358   1.741   2.449   7.075 -1.0661 -0.7819 -0.3344
 4633SOL    HW225359   1.878   2.405   7.080  0.5375  2.8465 -1.3393
 4634SOL     OW25360   2.244   0.813   0.846 -0.1494 -0.1591 -0.6857
 4634SOL    HW125361   2.279   0.724   0.841  0.6791  0.1617 -0.6820
 4634SOL    HW225362   2.165   0.819   0.793 -0.7434 -1.4846  0.0618
 4635SOL     OW25363   0.568   3.035  12.706 -0.0523  0.3239 -0.2152
 4635SOL    HW125364   0.583   3.125  12.680 -0.6669  0.8115  1.1143
 4635SOL    HW225365   0.647   2.990  12.675  1.9574  1.8917  2.6187
 4636SOL     OW25366   3.558   4.504   3.657 -0.4011 -0.2263 -0.1950
 4636SOL    HW125367   3.641   4.511   3.704  0.1179  1.7039 -1.3914
 4636SOL    HW225368   3.494   4.530   3.724  1.0049  2.1517  0.2373
 4637SOL     OW25369   2.197   2.813   6.593  0.4786  0.2922 -0.2952
 4637SOL    HW125370   2.105   2.839   6.584  0.7526  0.5971 -2.1520
 4637SOL    HW225371   2.191   2.751   6.520 -4.0478 -1.0011  1.1168
 4638SOL     OW25372   3.265   1.291   7.101 -0.0094  0.2913 -0.1533
 4638SOL    HW125373   3.351   1.299   7.060  0.3711  1.1286  0.8229
 4638SOL    HW225374   3.292   1.279   7.192 -1.3020  2.2193  0.4839
 4639SOL     OW25375   0.208   4.234   6.667 -0.0235  1.0364 -0.0470
 4639SOL    HW125376   0.164   4.224   6.751  1.0617  0.7291  0.4705
 4639SOL    HW225377   0.292   4.267   6.697  0.1049  1.2987 -0.7025
 4640SOL     OW25378   1.741   0.154  16.171 -0.2741 -0.2930  0.2663
 4640SOL    HW125379   1.743   0.130  16.079 -3.0622  1.7496 -0.3563
 4640SOL    HW225380   1.748   0.076  16.226  1.7573 -0.3362 -0.0731
 4641SOL     OW25381   2.577   2.609   8.361  0.2958 -0.0610 -0.5184
 4641SOL    HW125382   2.602   2.624   8.270 -2.3323 -1.7978 -1.5352
 4641SOL    HW225383   2.663   2.598   8.402 -0.4230 -0.3986  0.9221
 4642SOL     OW25384   2.153   0.652   5.435 -0.1912 -0.2974 -0.1176
 4642SOL    HW125385   2.228   0.595   5.454 -0.2026 -0.8056 -1.5686
 4642SOL    HW225386   2.174   0.663   5.342 -0.1105 -0.6797 -0.1470
 4643SOL     OW25387   0.749   1.834   9.581 -0.5730  0.0373 -0.2667
 4643SOL    HW125388   0.793   1.774   9.641 -0.9417 -0.1420 -0.1781
 4643SOL    HW225389   0.787   1.915   9.615 -2.3350  0.6907  0.1339
 4644SOL     OW25390   2.854   0.651   4.964 -0.0116 -0.2581  0.3361
 4644SOL    HW125391   2.840   0.732   4.915  0.4614  0.9415  2.1417
 4644SOL    HW225392   2.777   0.596   4.951 -1.1492  1.9809 -2.4890
 4645SOL     OW25393   3.619   0.205   1.124  0.0207 -0.0776  0.0629
 4645SOL    HW125394   3.677   0.281   1.121 -0.9285  0.7412  2.6031
 4645SOL    HW225395   3.558   0.230   1.194  0.3624  1.2967 -0.1395
 4646SOL     OW25396   3.137   2.536  14.403  0.5528 -0.1319 -0.0775
 4646SOL    HW125397   3.109   2.509  14.490  1.2060  2.3592  0.9018
 4646SOL    HW225398   3.152   2.450  14.362 -1.2325  0.1337 -1.3218
 4647SOL     OW25399   2.975   3.185   6.359 -0.3241 -0.1291 -0.4493
 4647SOL    HW125400   2.979   3.115   6.424  0.4656  1.2103  0.9730
 4647SOL    HW225401   2.882   3.194   6.338  0.5491  1.3797 -3.7370
 4648SOL     OW25402   1.978   0.319   2.666  0.0228 -0.5921 -0.1840
 4648SOL    HW125403   1.979   0.250   2.600 -1.0889 -0.0057 -0.8137
 4648SOL    HW225404   1.905   0.374   2.637  1.5439  0.0370 -2.9423
 4649SOL     OW25405   4.426   3.982  15.630 -0.0562  0.3225  0.5667
 4649SOL    HW125406   4.411   4.000  15.538  4.3794 -0.6891 -0.3830
 4649SOL    HW225407   4.447   3.888  15.631  0.6992  0.4886  0.4221
 4650SOL     OW25408   0.350   0.246   8.298  0.0671  0.0357  0.2640
 4650SOL    HW125409   0.310   0.333   8.292 -0.1535 -0.0059  1.1871
 4650SOL    HW225410   0.270   0.195   8.288  0.0602 -0.2900  2.0438
 4651SOL     OW25411   3.445   0.303   7.563 -0.4392  0.7138  0.0225
 4651SOL    HW125412   3.388   0.274   7.634  0.8522 -0.2909  0.6614
 4651SOL    HW225413   3.531   0.288   7.603 -0.0165  1.9614 -0.4364
 4652SOL     OW25414   2.124   3.519   7.079  0.0522  1.0400  0.4107
 4652SOL    HW125415   2.177   3.590   7.044  0.7943 -0.3733 -1.3816
 4652SOL    HW225416   2.107   3.461   7.005  2.8207  0.1412  0.4825
 4653SOL     OW25417   3.613   0.769   7.646  0.2180  0.0376 -0.1953
 4653SOL    HW125418   3.528   0.728   7.636  1.1750 -1.7958 -0.7175
 4653SOL    HW225419   3.641   0.742   7.734 -1.1428  0.6535  0.4326
 4654SOL     OW25420   4.411   2.016   6.069 -0.8453 -0.1691  0.3687
 4654SOL    HW125421   4.415   1.949   6.001 -2.2316 -1.8414  1.9228
 4654SOL    HW225422   4.486   2.074   6.058 -1.5193  0.7175  0.4280
 4655SOL     OW25423   2.019   0.933   9.177  0.2261 -0.2407  0.0841
 4655SOL    HW125424   2.058   0.845   9.182 -0.0881 -0.4189 -0.5441
 4655SOL    HW225425   2.092   0.993   9.189 -1.0683  1.7140 -1.8191
 4656SOL     OW25426   3.887   4.154   0.819  0.4221 -0.2362 -0.3071
 4656SOL    HW125427   3.837   4.193   0.891 -1.4628 -0.2033 -1.6207
 4656SOL    HW225428   3.834   4.183   0.745 -0.4977  0.0230  0.4547
 4657SOL     OW25429   3.211   2.189   6.710  0.1528  0.1227  0.7901
 4657SOL    HW125430   3.195   2.129   6.638  0.4941 -0.0429  0.8491
 4657SOL    HW225431   3.299   2.163   6.739 -0.3397 -4.0473 -1.5323
 4658SOL     OW25432   3.349   4.518   7.555 -0.2598  0.1970  0.1011
 4658SOL    HW125433   3.271   4.565   7.582  0.4544  0.1266  2.2920
 4658SOL    HW225434   3.403   4.513   7.635  1.4503  0.3548 -1.0444
 4659SOL     OW25435   4.242   1.690   6.762 -0.5434  0.6537  0.3091
 4659SOL    HW125436   4.212   1.665   6.850 -0.6473 -0.6655 -0.0897
 4659SOL    HW225437   4.184   1.764   6.748  0.3337  1.5368  1.3288
 4660SOL     OW25438   4.293   1.923   9.216 -0.5900 -0.0023  0.1302
 4660SOL    HW125439   4.334   1.958   9.295  0.3423  0.0436 -0.3830
 4660SOL    HW225440   4.215   1.883   9.254 -2.4720  2.8772 -0.6741
 4661SOL     OW25441   2.864   1.438  11.549 -0.1598 -0.0974 -0.4179
 4661SOL    HW125442   2.839   1.469  11.462 -1.0315  1.1157  0.2760
 4661SOL    HW225443   2.887   1.523  11.586  1.5853 -0.8242  0.1670
 4662SOL     OW25444   1.730   4.050   6.239 -0.3518 -0.3238 -0.1435
 4662SOL    HW125445   1.719   4.066   6.333 -0.6787 -0.5022 -0.1515
 4662SOL    HW225446   1.644   4.018   6.210 -0.0001 -0.5878 -0.9023
 4663SOL     OW25447   3.807   1.943  10.047 -0.2224  0.1966 -0.3965
 4663SOL    HW125448   3.751   1.977  10.116 -2.1337 -0.7550 -1.4845
 4663SOL    HW225449   3.731   1.914   9.996 -0.8852  1.9822 -0.4145
 4664SOL     OW25450   4.255   0.341   3.563  0.0189  0.0138 -0.0801
 4664SOL    HW125451   4.179   0.289   3.539  1.8238 -1.9525 -1.5419
 4664SOL    HW225452   4.231   0.386   3.644 -2.7149 -0.5035 -0.6255
 4665SOL     OW25453   4.681   2.958   6.614 -0.0855  0.0223  0.0903
 4665SOL    HW125454   0.017   3.027   6.642  0.5899 -0.6237  0.2351
 4665SOL    HW225455   0.001   2.874   6.626 -0.2717  0.1105  1.4250
 4666SOL     OW25456   0.623   0.051  11.838  0.6427  0.1681 -0.0133
 4666SOL    HW125457   0.667   0.066  11.755 -1.9951 -0.4409 -1.5069
 4666SOL    HW225458   0.531   0.061  11.818  0.3283  0.9209  1.7726
 4667SOL     OW25459   3.831   3.633   2.697 -0.1665  0.0227 -0.0323
 4667SOL    HW125460   3.770   3.664   2.763 -3.0185 -0.9441 -2.2079
 4667SOL    HW225461   3.916   3.660   2.731  0.0818 -0.4163 -0.3038
 4668SOL     OW25462   2.490   0.285  12.035 -0.4075 -0.2857 -0.2840
 4668SOL    HW125463   2.473   0.217  12.101  3.3935  0.5079  1.4815
 4668SOL    HW225464   2.514   0.235  11.958  0.9647 -0.3500  0.1900
 4669SOL     OW25465   3.467   3.964   4.768 -0.2126  0.3579 -0.3426
 4669SOL    HW125466   3.504   3.955   4.680  0.1336  0.5164 -0.2131
 4669SOL    HW225467   3.538   4.006   4.818  0.6284 -2.4990  0.8521
 4670SOL     OW25468   2.008   4.134  16.577 -0.1721  0.0658  0.1185
 4670SOL    HW125469   1.924   4.164  16.610  0.0143 -2.1029  2.5532
 4670SOL    HW225470   2.001   4.038  16.580  0.0855  0.1002  1.5004
 4671SOL     OW25471   1.931   3.543   6.564  0.3073  0.4677 -0.1612
 4671SOL    HW125472   1.890   3.458   6.544  0.1635  0.6427 -0.6252
 4671SOL    HW225473   1.986   3.518   6.638 -0.8356 -0.4191  0.3827
 4672SOL     OW25474   4.551   2.428   5.478 -0.1597  0.4198  0.1697
 4672SOL    HW125475   4.564   2.515   5.515  0.0538  0.7839 -0.7443
 4672SOL    HW225476   4.623   2.384   5.523  0.0985 -0.7280 -1.3680
 4673SOL     OW25477   1.046   3.643   2.523  0.5116 -0.0058 -0.0745
 4673SOL    HW125478   0.967   3.606   2.483  1.0658 -3.1458  1.7726
 4673SOL    HW225479   1.020   3.734   2.543 -1.6759 -0.0295 -2.7670
 4674SOL     OW25480   1.125   0.374  16.383  0.3935 -0.0079  0.2182
 4674SOL    HW125481   1.196   0.321  16.420  2.3346  0.7294 -2.4684
 4674SOL    HW225482   1.174   0.456  16.393 -0.7653  0.7126 -0.0427
 4675SOL     OW25483   3.835   2.717   6.858  0.4051  0.3505 -0.1382
 4675SOL    HW125484   3.845   2.653   6.787 -0.6280  0.2268 -0.1658
 4675SOL    HW225485   3.930   2.730   6.868  0.7646 -2.8871  0.9248
 4676SOL     OW25486   0.832   1.328   2.161  0.2446 -0.3761 -0.4189
 4676SOL    HW125487   0.884   1.301   2.086  3.7567  2.2392  1.0605
 4676SOL    HW225488   0.791   1.243   2.178  1.1545 -1.1060 -1.9071
 4677SOL     OW25489   0.154   2.130   2.216  0.1341  0.1826  0.4658
 4677SOL    HW125490   0.196   2.044   2.221 -0.3361  0.0164  1.5553
 4677SOL    HW225491   0.197   2.175   2.143 -1.4436  1.0146  0.0599
 4678SOL     OW25492   2.172   0.961   4.497 -0.4456 -0.1256  0.2192
 4678SOL    HW125493   2.176   0.945   4.403 -0.3687  0.6688  0.0830
 4678SOL    HW225494   2.079   0.945   4.512 -1.0035 -0.0805 -3.3838
 4679SOL     OW25495   1.365   1.129   5.687 -0.1945 -0.2279 -0.0556
 4679SOL    HW125496   1.334   1.041   5.709  0.2577 -0.2421  0.5142
 4679SOL    HW225497   1.331   1.143   5.599 -1.4817 -1.5472  0.2254
 4680SOL     OW25498   4.428   3.457   6.283 -0.0153  0.0953  0.1992
 4680SOL    HW125499   4.512   3.412   6.272  0.3470  0.9368 -0.4474
 4680SOL    HW225500   4.443   3.537   6.233  1.2493  0.3495  0.9757
 4681SOL     OW25501   4.193   0.618  10.200  0.1045 -0.1099  0.5094
 4681SOL    HW125502   4.252   0.692  10.211 -0.6901  0.2861  2.2251
 4681SOL    HW225503   4.112   0.670  10.207  0.1296 -0.0417  0.2673
 4682SOL     OW25504   1.621   0.798   8.358  0.2382  0.1570  0.3569
 4682SOL    HW125505   1.662   0.878   8.324  0.3252  0.4707  1.2043
 4682SOL    HW225506   1.697   0.766   8.407  0.7706  2.8376  1.3338
 4683SOL     OW25507   3.784   4.678   3.251 -0.4413 -0.0915  0.5667
 4683SOL    HW125508   3.870   4.694   3.213  0.3795  0.7630  2.7876
 4683SOL    HW225509   3.760   0.043   3.277 -0.1965  0.3927 -0.8573
 4684SOL     OW25510   1.082   4.656   7.108  0.0148  0.1396 -0.2906
 4684SOL    HW125511   1.077   4.633   7.201 -0.9189  0.3483 -0.2815
 4684SOL    HW225512   0.990   4.673   7.084  0.8214  2.9198 -1.4714
 4685SOL     OW25513   1.657   4.040   3.626  0.1812 -0.0187 -0.1441
 4685SOL    HW125514   1.675   4.132   3.641  0.7954 -0.1457 -0.0887
 4685SOL    HW225515   1.729   4.000   3.675  0.7271  0.8130 -0.2768
 4686SOL     OW25516   2.488   3.330   2.857 -0.0965  0.1918 -0.0872
 4686SOL    HW125517   2.413   3.290   2.899 -0.8566  1.4407 -0.2441
 4686SOL    HW225518   2.562   3.289   2.902  1.1664  0.5395 -1.8399
 4687SOL     OW25519   4.671   0.710   5.335 -0.1614  0.1831 -0.3521
 4687SOL    HW125520   4.697   0.683   5.246 -2.0730 -0.3561 -0.7392
 4687SOL    HW225521   4.597   0.768   5.320 -1.2173 -1.4734 -1.6110
 4688SOL     OW25522   2.836   0.886   7.651 -0.2008 -1.3561  0.1856
 4688SOL    HW125523   2.874   0.801   7.674 -1.3839 -1.4001  1.9232
 4688SOL    HW225524   2.919   0.933   7.642 -2.4128  2.0827 -2.1534
 4689SOL     OW25525   1.484   4.487   8.305 -0.1712 -0.1352 -0.0512
 4689SOL    HW125526   1.407   4.434   8.284 -1.1821  0.1901  2.7620
 4689SOL    HW225527   1.540   4.411   8.319  0.0442  0.0657  0.1770
 4690SOL     OW25528   1.643   2.862   5.833 -0.4663 -0.1643 -0.4723
 4690SOL    HW125529   1.633   2.844   5.926 -0.6611  1.9916 -0.0685
 4690SOL    HW225530   1.559   2.869   5.788 -0.4569 -0.6278 -0.5659
 4691SOL     OW25531   4.100   2.990   8.100  0.4387 -0.0721  0.2270
 4691SOL    HW125532   4.009   3.021   8.102  0.5567  0.2399  0.9789
 4691SOL    HW225533   4.091   2.898   8.077 -0.8657  0.2110 -0.3943
 4692SOL     OW25534   2.906   4.266   5.300  0.0638 -0.5185 -0.2041
 4692SOL    HW125535   2.886   4.220   5.381  1.3231  0.4779  0.6594
 4692SOL    HW225536   2.847   4.341   5.312 -0.8742 -1.5130  1.4571
 4693SOL     OW25537   2.756   2.954   3.010  0.2627 -0.3323 -0.6112
 4693SOL    HW125538   2.733   2.915   3.094 -1.7109  2.0415 -0.0526
 4693SOL    HW225539   2.844   2.922   2.992 -0.3081 -1.9874 -0.4933
 4694SOL     OW25540   0.663   0.169   6.172  0.0845 -0.1347 -0.2114
 4694SOL    HW125541   0.666   0.179   6.077  1.4999 -1.0155 -0.2770
 4694SOL    HW225542   0.748   0.133   6.198  0.9304  0.5605 -2.0455
 4695SOL     OW25543   1.495   1.567   6.588  0.0765  0.3423  0.1611
 4695SOL    HW125544   1.530   1.650   6.557 -0.5318  0.2428 -0.7943
 4695SOL    HW225545   1.563   1.546   6.653 -1.4661  0.7149  1.8875
 4696SOL     OW25546   4.274   1.083  14.640 -0.2961 -0.3067 -0.3240
 4696SOL    HW125547   4.292   1.019  14.709  2.8710  0.0965 -0.8133
 4696SOL    HW225548   4.271   1.166  14.688 -0.0313 -0.2139 -0.4695
 4697SOL     OW25549   0.533   3.776   2.891 -0.5950 -1.0331 -0.3367
 4697SOL    HW125550   0.479   3.762   2.813 -2.1328 -1.4721  0.8311
 4697SOL    HW225551   0.507   3.703   2.947  0.7997  0.1025  1.8035
 4698SOL     OW25552   1.821   1.731   4.798 -0.7064 -0.6604 -0.5539
 4698SOL    HW125553   1.869   1.814   4.795  0.2515 -1.2556 -1.8637
 4698SOL    HW225554   1.869   1.668   4.744  1.1543  0.8385 -0.6554
 4699SOL     OW25555   1.140   1.592  14.155 -0.5893 -0.2036 -0.0341
 4699SOL    HW125556   1.055   1.620  14.123 -0.5962  0.5931  0.6800
 4699SOL    HW225557   1.195   1.662  14.120  0.9507 -1.0695  0.6271
 4700SOL     OW25558   0.679   0.901   4.106  0.1830 -0.2537  0.2840
 4700SOL    HW125559   0.603   0.923   4.160  0.3017  0.2233  0.2591
 4700SOL    HW225560   0.705   0.993   4.095 -0.6449 -0.0207  0.2317
 4701SOL     OW25561   0.584   3.616   6.350 -0.1631 -0.0873 -0.0141
 4701SOL    HW125562   0.642   3.551   6.389  2.6930  2.3644 -0.0998
 4701SOL    HW225563   0.525   3.628   6.424 -0.2112  2.1377 -0.3931
 4702SOL     OW25564   3.773   1.342   4.674  0.2553 -0.3984 -0.4577
 4702SOL    HW125565   3.687   1.328   4.635  0.6459  0.3515 -1.5814
 4702SOL    HW225566   3.834   1.289   4.622 -2.2383 -0.0163 -3.7290
 4703SOL     OW25567   3.219   1.050   2.447  0.4058  0.0546 -0.0451
 4703SOL    HW125568   3.293   1.077   2.392  1.0238 -1.0293  0.2340
 4703SOL    HW225569   3.147   1.043   2.385 -0.3554 -0.3644  0.8942
 4704SOL     OW25570   4.635   0.360   0.854  0.4777  0.8480  0.5185
 4704SOL    HW125571   4.609   0.430   0.914 -1.0321  2.4984 -2.0155
 4704SOL    HW225572   4.566   0.358   0.787 -0.1789 -0.1289  1.2265
 4705SOL     OW25573   3.295   0.554   7.255  0.7380  0.1214 -0.1306
 4705SOL    HW125574   3.373   0.534   7.306 -0.4888 -1.9343  0.9359
 4705SOL    HW225575   3.226   0.505   7.301  0.6467  2.3110  2.0642
 4706SOL     OW25576   1.541   2.270   5.298  0.0827 -0.6877 -0.1283
 4706SOL    HW125577   1.495   2.219   5.231  0.2965 -2.5306  1.1290
 4706SOL    HW225578   1.628   2.232   5.291  1.4389  1.9225  3.1920
 4707SOL     OW25579   1.730   0.168   6.520 -0.5837  0.1602  0.2634
 4707SOL    HW125580   1.675   0.112   6.465  0.1125  1.4387 -1.7059
 4707SOL    HW225581   1.792   0.103   6.554 -1.5882 -0.6619  0.5374
 4708SOL     OW25582   1.072   2.091   4.431  0.3183  0.0617  1.2350
 4708SOL    HW125583   0.997   2.059   4.482 -0.7641 -2.5322 -1.9283
 4708SOL    HW225584   1.149   2.054   4.474  0.3291 -0.6377  0.6188
 4709SOL     OW25585   1.321   0.421   3.876  0.3595  0.1362 -0.5255
 4709SOL    HW125586   1.239   0.446   3.833 -0.0096  0.1166  0.1724
 4709SOL    HW225587   1.390   0.474   3.838  0.0121 -0.1291 -1.5471
 4710SOL     OW25588   4.681   3.406   7.647  0.1856  0.6065 -0.6065
 4710SOL    HW125589   4.679   3.312   7.665 -0.9839  1.2688  2.6834
 4710SOL    HW225590   0.030   3.435   7.703  1.4846  0.5565 -2.2348
 4711SOL     OW25591   3.378   1.365   5.954 -0.1440  0.0459  0.0754
 4711SOL    HW125592   3.322   1.288   5.952  1.9538 -1.4667  0.0916
 4711SOL    HW225593   3.442   1.342   5.887 -0.1897  0.1137  0.0091
 4712SOL     OW25594   2.661   4.237   7.381  0.4124  0.2955  0.2534
 4712SOL    HW125595   2.597   4.252   7.312  0.6531  1.9580  0.3803
 4712SOL    HW225596   2.742   4.248   7.330  0.3271 -1.8384 -0.3209
 4713SOL     OW25597   0.971   4.259   8.537  0.1595  0.2635 -0.1510
 4713SOL    HW125598   0.969   4.343   8.582 -0.8706 -1.2878  2.6997
 4713SOL    HW225599   1.066   4.245   8.535  0.2056  0.6112 -0.4240
 4714SOL     OW25600   0.961   2.357   2.437  0.6100 -0.2765 -0.2805
 4714SOL    HW125601   0.935   2.287   2.377  0.0324  1.2108 -1.7700
 4714SOL    HW225602   0.995   2.417   2.370 -0.2510  2.9858  2.1776
 4715SOL     OW25603   0.051   0.538   1.424 -0.0292  0.0872  0.1328
 4715SOL    HW125604   4.697   0.486   1.401  0.5752  0.2593 -2.2618
 4715SOL    HW225605   0.063   0.598   1.351 -0.0008  1.0855  0.9474
 4716SOL     OW25606   2.939   3.980   0.890  0.7761  0.1186 -0.1644
 4716SOL    HW125607   2.974   4.066   0.915  2.4592 -0.6131 -0.0062
 4716SOL    HW225608   2.937   3.949   0.980  2.6224  1.8653  0.4796
 4717SOL     OW25609   1.063   2.594   6.170 -0.8564 -0.1535  0.3987
 4717SOL    HW125610   0.971   2.567   6.180 -1.1375  0.5801 -0.2485
 4717SOL    HW225611   1.065   2.608   6.076 -1.0916 -0.5947  0.3242
 4718SOL     OW25612   3.578   1.522  13.703 -0.4966  0.8256  0.1393
 4718SOL    HW125613   3.561   1.569  13.785  0.7712  2.3810 -0.4917
 4718SOL    HW225614   3.528   1.580  13.645 -1.2544  0.2475  0.2089
 4719SOL     OW25615   1.023   2.567   5.894 -0.1222  0.3646  0.0186
 4719SOL    HW125616   1.037   2.578   5.800  0.8113 -1.0631 -0.0029
 4719SOL    HW225617   0.939   2.521   5.898  0.5429 -0.7899  0.7380
 4720SOL     OW25618   1.639   1.619  10.092 -0.1487 -0.2643  0.2023
 4720SOL    HW125619   1.660   1.530  10.121  2.6488  0.6280  0.8642
 4720SOL    HW225620   1.589   1.589  10.016  0.3807 -2.8743  0.8701
 4721SOL     OW25621   3.501   2.323  13.576  0.5291 -0.1905 -0.4775
 4721SOL    HW125622   3.566   2.347  13.643 -0.9675  2.0368  0.1746
 4721SOL    HW225623   3.544   2.243  13.546  1.3171  1.1744 -3.0688
 4722SOL     OW25624   2.930   3.577   7.846  0.3225  0.0716 -0.2924
 4722SOL    HW125625   2.844   3.615   7.862  1.1303  1.5688  0.5647
 4722SOL    HW225626   2.936   3.605   7.755  2.4446 -1.9548 -0.7626
 4723SOL     OW25627   2.618   0.455   4.928  0.0620 -0.0721  0.3375
 4723SOL    HW125628   2.570   0.521   4.979  0.1153 -1.0266  1.6107
 4723SOL    HW225629   2.561   0.467   4.852 -0.1513 -0.0826  0.4957
 4724SOL     OW25630   3.439   0.253  12.432 -0.2441  0.1712  0.2404
 4724SOL    HW125631   3.379   0.184  12.405  0.6114 -0.6810  0.5447
 4724SOL    HW225632   3.404   0.283  12.516  0.0512 -1.0504  0.7985
 4725SOL     OW25633   0.877   3.035   6.461  0.3213 -0.2609  0.1257
 4725SOL    HW125634   0.826   3.010   6.384 -0.3743  1.0984  0.1579
 4725SOL    HW225635   0.816   3.054   6.532 -1.4880 -3.3483 -0.5705
 4726SOL     OW25636   1.923   2.467   7.995 -0.1024  0.3688  0.2119
 4726SOL    HW125637   1.974   2.545   8.017  1.9809 -0.3493 -1.9554
 4726SOL    HW225638   2.002   2.413   8.000  0.4387  1.1094 -0.2825
 4727SOL     OW25639   0.374   4.536   6.259 -0.3917 -0.9899  0.0970
 4727SOL    HW125640   0.394   4.630   6.256 -1.8595 -0.6335  1.6086
 4727SOL    HW225641   0.370   4.526   6.354 -0.8199  2.9098  0.4890
 4728SOL     OW25642   3.132   2.913   1.972  0.2669 -0.2039  0.6917
 4728SOL    HW125643   3.120   2.972   1.898  1.7339 -1.5908 -0.6538
 4728SOL    HW225644   3.189   2.963   2.031  1.6523 -2.2154  1.0727
 4729SOL     OW25645   0.407   0.462   4.739  0.4072  0.2053 -0.0586
 4729SOL    HW125646   0.376   0.497   4.823 -0.2375  0.9846 -0.6171
 4729SOL    HW225647   0.336   0.403   4.715  3.2916 -2.9076 -0.8682
 4730SOL     OW25648   3.567   4.387   6.444  0.2389  0.1555  0.2770
 4730SOL    HW125649   3.588   4.459   6.384 -1.9913 -0.8769 -1.7436
 4730SOL    HW225650   3.580   4.426   6.531 -1.9372 -0.3946  0.8436
 4731SOL     OW25651   1.067   3.982   6.988 -0.0880  0.2291 -0.3075
 4731SOL    HW125652   1.001   3.997   6.920  1.0472  1.3457 -1.1609
 4731SOL    HW225653   1.145   4.015   6.943 -1.9668  1.3888 -2.7879
 4732SOL     OW25654   3.254   0.266  12.934 -0.5090  0.3284  0.1855
 4732SOL    HW125655   3.291   0.234  13.017 -0.2510  2.5434  0.9463
 4732SOL    HW225656   3.303   0.211  12.873 -0.8270  0.0286  0.2026
 4733SOL     OW25657   2.520   1.413   2.811 -0.2700  0.0250 -0.3703
 4733SOL    HW125658   2.489   1.381   2.726 -1.9963  2.7401 -0.7787
 4733SOL    HW225659   2.580   1.343   2.835 -2.2628 -2.6530 -3.2503
 4734SOL     OW25660   3.421   2.268   4.056  0.2838  0.3699 -0.1613
 4734SOL    HW125661   3.474   2.213   4.114 -0.9380  1.8714  2.3659
 4734SOL    HW225662   3.486   2.293   3.990  1.3751 -0.9467  0.4114
 4735SOL     OW25663   1.946   2.003   0.417 -0.5453  0.2757  0.6996
 4735SOL    HW125664   1.885   1.932   0.437 -0.0208 -0.1979  0.6082
 4735SOL    HW225665   1.965   1.991   0.324  0.1353  0.0576  0.8649
 4736SOL     OW25666   1.134   4.291   3.819 -0.1061 -0.0868 -0.1229
 4736SOL    HW125667   1.132   4.271   3.912  0.7770 -0.0188 -0.0920
 4736SOL    HW225668   1.216   4.256   3.786  0.6300  1.0687  0.4957
 4737SOL     OW25669   4.420   2.946   3.555 -0.7197 -0.2196 -0.6670
 4737SOL    HW125670   4.407   2.875   3.618  0.8985 -0.8142 -1.0133
 4737SOL    HW225671   4.330   2.954   3.523 -1.3877 -0.6848  1.0818
 4738SOL     OW25672   0.262   4.243   4.570  0.1666  0.0614 -0.2908
 4738SOL    HW125673   0.315   4.317   4.542 -0.0855  0.0598 -0.7617
 4738SOL    HW225674   0.322   4.181   4.611  1.1293  1.2852  0.1592
 4739SOL     OW25675   2.133   2.009   2.412  0.3063  0.1903  0.4854
 4739SOL    HW125676   2.067   1.997   2.480  0.2989 -0.7875  0.3050
 4739SOL    HW225677   2.100   1.954   2.341 -1.5385  2.3581 -0.3333
 4740SOL     OW25678   3.323   4.561   6.336 -0.0131 -0.4512  0.1305
 4740SOL    HW125679   3.243   4.566   6.389  0.5778  0.5094  0.9252
 4740SOL    HW225680   3.315   4.646   6.292  1.5529  0.3674  1.4395
 4741SOL     OW25681   1.281   0.567   3.521  0.2315  0.0903  0.4662
 4741SOL    HW125682   1.301   0.583   3.429  0.4018  0.1856  0.5205
 4741SOL    HW225683   1.298   0.659   3.543  0.2606  0.1440  0.2196
 4742SOL     OW25684   3.010   4.531  12.639  0.0245 -0.2906  0.1165
 4742SOL    HW125685   3.008   4.546  12.733  2.5331 -0.0087  0.1199
 4742SOL    HW225686   3.088   4.477  12.629  0.8756  1.1675 -1.1839
 4743SOL     OW25687   4.660   2.308   8.076  0.2644  0.0244  0.5087
 4743SOL    HW125688   4.662   2.372   8.147 -0.4945 -0.0882  0.6349
 4743SOL    HW225689   4.688   2.354   7.998  0.6156 -1.0176  0.0139
 4744SOL     OW25690   0.997   4.633   9.311  0.1881  0.0921 -0.1399
 4744SOL    HW125691   1.065   4.593   9.365  0.8786 -1.0379 -1.8590
 4744SOL    HW225692   0.988   4.717   9.356  0.5995 -0.0103  0.1309
 4745SOL     OW25693   3.569   4.537   4.375  0.4601  0.3209 -0.1880
 4745SOL    HW125694   3.561   4.523   4.470 -1.1194  1.8771 -0.0959
 4745SOL    HW225695   3.580   4.632   4.370 -2.7498  0.7970  1.8474
 4746SOL     OW25696   2.250   4.615  12.080  0.1408  0.9482  0.1027
 4746SOL    HW125697   2.176   4.555  12.081  0.3596  0.6607 -1.1889
 4746SOL    HW225698   2.203   4.697  12.095 -2.2252 -0.0723 -1.7153
 4747SOL     OW25699   4.694   2.479   8.277  0.5739  0.5695  0.6344
 4747SOL    HW125700   0.032   2.552   8.273  0.9597  0.3842  3.0502
 4747SOL    HW225701   0.002   2.433   8.355  4.0749 -1.0310 -1.7354
 4748SOL     OW25702   2.585   1.390  14.901 -0.0649  0.3122  0.0516
 4748SOL    HW125703   2.581   1.298  14.875  0.5791 -0.0169  1.1024
 4748SOL    HW225704   2.536   1.390  14.983  0.6843 -0.9886  0.5015
 4749SOL     OW25705   3.103   2.750   3.881 -0.2974  0.5539  0.2180
 4749SOL    HW125706   3.124   2.687   3.812 -1.4121  0.3882  0.0231
 4749SOL    HW225707   3.033   2.693   3.914 -0.1187  0.1868 -0.0414
 4750SOL     OW25708   4.721   3.183   2.107  0.0066 -0.3514 -0.0508
 4750SOL    HW125709   4.691   3.261   2.061  0.2290  0.2336  0.7921
 4750SOL    HW225710   0.077   3.162   2.059  0.2870  1.1930 -0.2585
 4751SOL     OW25711   0.077   0.248   1.737  0.0142  0.5183 -0.3750
 4751SOL    HW125712   0.024   0.317   1.697  0.5618  0.6711 -0.8380
 4751SOL    HW225713   0.046   0.168   1.695  1.7474 -1.4705  2.1527
 4752SOL     OW25714   3.750   1.313   1.168  0.4346 -0.3363 -0.2385
 4752SOL    HW125715   3.818   1.373   1.198  0.0479 -0.0723  0.1001
 4752SOL    HW225716   3.793   1.288   1.086  1.6019  0.7678  0.0316
 4753SOL     OW25717   3.950   0.216  13.155  0.2914  0.3811 -0.2012
 4753SOL    HW125718   3.882   0.214  13.223 -0.8235  0.8895 -1.3063
 4753SOL    HW225719   3.940   0.295  13.102  0.6186 -0.0969 -0.9648
 4754SOL     OW25720   3.012   2.870   7.519 -0.2872  0.3480  0.6724
 4754SOL    HW125721   2.949   2.867   7.591  0.0726 -2.1930  0.8912
 4754SOL    HW225722   2.958   2.834   7.449  1.8323  0.1816 -0.8731
 4755SOL     OW25723   2.636   3.220   8.163  0.3297  0.5465  0.0812
 4755SOL    HW125724   2.576   3.190   8.095 -1.4418  0.6790  1.5885
 4755SOL    HW225725   2.602   3.304   8.195 -0.9558 -0.5663  1.6759
 4756SOL     OW25726   2.744   4.550  16.969  0.5148 -0.1261 -0.1230
 4756SOL    HW125727   2.663   4.510  17.000 -0.2684  1.4005 -0.2030
 4756SOL    HW225728   2.769   4.502  16.890  0.9352 -1.4674  0.8088
 4757SOL     OW25729   0.631   1.813   2.434 -1.0829  1.2343  0.0253
 4757SOL    HW125730   0.701   1.847   2.490 -0.6439  0.2938  0.0514
 4757SOL    HW225731   0.548   1.851   2.460 -0.3351  3.4649 -0.8218
 4758SOL     OW25732   0.301   4.439   9.631  0.0896 -0.1024 -0.0665
 4758SOL    HW125733   0.230   4.460   9.570 -0.1432  0.1494  0.2905
 4758SOL    HW225734   0.266   4.483   9.708  0.7752  1.0991 -0.4481
 4759SOL     OW25735   2.964   0.993   9.224  0.2068 -0.0429 -0.0265
 4759SOL    HW125736   2.911   0.963   9.150  0.2627 -0.9665  0.3097
 4759SOL    HW225737   2.901   1.046   9.273 -1.1158 -3.6255  2.1526
 4760SOL     OW25738   2.300   1.979   8.842 -0.3801  0.4507  0.3545
 4760SOL    HW125739   2.336   1.966   8.754  0.6869  2.1623  0.5415
 4760SOL    HW225740   2.355   2.054   8.864 -0.5177  0.7144 -0.1780
 4761SOL     OW25741   4.553   1.772   4.729  0.2947  0.0095 -0.8413
 4761SOL    HW125742   4.563   1.694   4.675 -0.7472 -0.8628  0.2464
 4761SOL    HW225743   4.570   1.846   4.670  1.0623  0.2161 -0.3561
 4762SOL     OW25744   0.925   0.566   1.668 -0.1789 -0.5545  0.5101
 4762SOL    HW125745   1.019   0.581   1.666 -0.2835 -0.3046 -2.5477
 4762SOL    HW225746   0.893   0.654   1.686  1.1143  0.1293 -0.5619
 4763SOL     OW25747   2.718   1.124   6.594  0.4474  0.1052 -0.0812
 4763SOL    HW125748   2.735   1.135   6.688 -0.3743  1.1384 -0.0634
 4763SOL    HW225749   2.632   1.083   6.598 -0.2642  1.9396  3.2584
 4764SOL     OW25750   0.006   0.626   8.395 -0.2536 -0.3055 -0.3468
 4764SOL    HW125751   0.020   0.720   8.402 -1.6388 -0.2249  1.1779
 4764SOL    HW225752   4.680   0.635   8.313  0.8119 -1.9510 -1.1749
 4765SOL     OW25753   4.691   2.434   5.199  0.1489  0.6170  0.2259
 4765SOL    HW125754   4.623   2.493   5.166 -0.1306  0.1779  0.0169
 4765SOL    HW225755   4.669   2.415   5.290  0.7421 -2.9808 -0.3844
 4766SOL     OW25756   1.880   3.331   7.424 -0.7325  0.0156  0.1101
 4766SOL    HW125757   1.929   3.413   7.428 -0.1678 -0.1988 -2.1948
 4766SOL    HW225758   1.925   3.290   7.350  1.1633 -1.3680  2.0340
 4767SOL     OW25759   2.676   1.924  13.144  0.2095 -0.5313 -0.2890
 4767SOL    HW125760   2.604   1.878  13.100  0.0903 -1.4353  0.8498
 4767SOL    HW225761   2.721   1.956  13.066 -0.6051  0.8916 -0.1754
 4768SOL     OW25762   2.876   0.133   3.749 -0.3525  0.7290 -0.4357
 4768SOL    HW125763   2.950   0.077   3.725  0.2751  0.9444  1.0055
 4768SOL    HW225764   2.850   0.172   3.666  1.4253  2.0865 -0.3378
 4769SOL     OW25765   1.398   1.006   7.121 -0.1601 -0.1570  0.0072
 4769SOL    HW125766   1.389   0.933   7.060  0.7791 -0.1789 -0.0954
 4769SOL    HW225767   1.381   0.957   7.202 -0.0422  0.4237  0.3841
 4770SOL     OW25768   1.165   4.056   5.611 -0.5019 -0.1201  0.0898
 4770SOL    HW125769   1.239   4.112   5.636 -1.4865  1.8685 -1.4792
 4770SOL    HW225770   1.165   4.003   5.691  1.1567  3.3523  2.4024
 4771SOL     OW25771   0.413   4.189   3.170  0.0951 -0.3265  0.2653
 4771SOL    HW125772   0.500   4.230   3.164  0.2993 -0.5277  1.8430
 4771SOL    HW225773   0.405   4.140   3.088  2.6954 -0.0048 -0.1925
 4772SOL     OW25774   4.389   2.994   0.059 -0.1664 -0.4487 -0.1783
 4772SOL    HW125775   4.295   2.993   0.074 -0.0768 -1.4753  0.3035
 4772SOL    HW225776   4.436   3.021   0.138  1.7000 -0.6180 -1.2340
 4773SOL     OW25777   1.761   0.691   2.818 -0.1707  0.2625  0.3308
 4773SOL    HW125778   1.689   0.748   2.793 -1.0130 -0.6776  0.6115
 4773SOL    HW225779   1.801   0.662   2.736 -0.6530  0.6192 -0.0247
 4774SOL     OW25780   3.411   3.141   1.235 -0.0663 -0.2965 -0.2090
 4774SOL    HW125781   3.393   3.236   1.237 -0.6364 -0.3392 -2.8094
 4774SOL    HW225782   3.428   3.116   1.326 -0.5946  0.1117  0.0036
 4775SOL     OW25783   2.116   3.322   7.241 -0.5999  0.3667 -0.1288
 4775SOL    HW125784   2.153   3.385   7.303 -2.0661  2.3471 -1.3062
 4775SOL    HW225785   2.109   3.380   7.165 -1.3360 -1.5901 -1.5520
 4776SOL     OW25786   0.547   0.197   9.634 -0.7567  0.0530  0.1284
 4776SOL    HW125787   0.620   0.258   9.625  1.1686 -1.9818  1.9605
 4776SOL    HW225788   0.482   0.259   9.665 -0.9378  0.4102 -0.9774
 4777SOL     OW25789   1.320   4.385   8.831  0.3453 -0.4279 -0.5786
 4777SOL    HW125790   1.293   4.324   8.900  1.2677 -0.9997 -0.7307
 4777SOL    HW225791   1.409   4.390   8.866 -0.5969 -0.9185  1.9184
 4778SOL     OW25792   1.570   0.654   7.383 -0.0311 -0.8840  0.1749
 4778SOL    HW125793   1.574   0.559   7.370  1.4134 -0.6600 -0.9532
 4778SOL    HW225794   1.530   0.668   7.469 -0.9091 -1.8316 -0.0805
 4779SOL     OW25795   3.719   1.313   5.435  0.2086  0.4304  0.5865
 4779SOL    HW125796   3.784   1.269   5.380 -1.2679 -0.0673 -0.7604
 4779SOL    HW225797   3.730   1.407   5.418  0.6888  0.0947 -0.9306
 4780SOL     OW25798   1.423   3.727   7.684  0.2371  0.0192 -0.1094
 4780SOL    HW125799   1.439   3.637   7.657  1.7283 -0.2020  1.5115
 4780SOL    HW225800   1.339   3.711   7.726 -0.6536  0.9949 -1.5328
 4781SOL     OW25801   3.799   1.552   0.965 -0.1181 -0.3233 -0.1196
 4781SOL    HW125802   3.849   1.521   1.041 -1.3808  0.2897  0.9736
 4781SOL    HW225803   3.801   1.469   0.917  0.7568 -0.5631  0.3301
 4782SOL     OW25804   4.334   3.240   7.556 -0.1755  0.2987  0.3195
 4782SOL    HW125805   4.357   3.240   7.463 -1.0793  2.4596  0.0845
 4782SOL    HW225806   4.405   3.291   7.595 -0.0936  0.8034 -0.4898
 4783SOL     OW25807   1.550   1.818  14.344  0.4312  0.6121  0.3797
 4783SOL    HW125808   1.627   1.793  14.395  1.6701 -0.6773 -2.0989
 4783SOL    HW225809   1.486   1.754  14.374  1.0187 -1.2342 -2.3162
 4784SOL     OW25810   0.997   3.424   5.149 -0.2773  0.5960  0.6280
 4784SOL    HW125811   0.943   3.500   5.171  0.1599  1.2893 -0.6751
 4784SOL    HW225812   0.953   3.398   5.068  0.5664 -0.8578  0.6327
 4785SOL     OW25813   3.957   1.283  15.341 -0.4907  0.2283  0.1153
 4785SOL    HW125814   3.987   1.192  15.349  0.3848  0.3464 -1.8609
 4785SOL    HW225815   3.904   1.278  15.261 -0.0787 -0.2475 -0.1307
 4786SOL     OW25816   4.173   0.405   2.256  0.2901  0.2962  0.6183
 4786SOL    HW125817   4.259   0.384   2.293  1.3335  2.4786 -0.5476
 4786SOL    HW225818   4.204   0.472   2.194 -0.7583 -0.5920 -0.8658
 4787SOL     OW25819   4.177   2.965   7.713 -0.0984 -0.6099 -0.1268
 4787SOL    HW125820   4.248   2.986   7.652 -1.1321 -0.5617 -1.3283
 4787SOL    HW225821   4.120   3.042   7.709  2.1011  1.0736  0.7483
 4788SOL     OW25822   4.379   4.524  17.661  0.5984 -0.3288 -0.5231
 4788SOL    HW125823   4.357   4.455  17.598  0.2415 -0.5071 -0.2053
 4788SOL    HW225824   4.293   4.544  17.697  0.1125  0.6861 -2.3089
 4789SOL     OW25825   2.660   0.036  15.597  0.4838  0.0125  0.5196
 4789SOL    HW125826   2.646   0.105  15.661  0.5618 -0.1743  0.7408
 4789SOL    HW225827   2.638   0.088  15.520  1.0359 -0.4519  0.0545
 4790SOL     OW25828   4.121   2.092   0.053  0.6405 -0.1609 -0.4937
 4790SOL    HW125829   4.026   2.102   0.046  0.2514 -1.9842  2.0125
 4790SOL    HW225830   4.129   2.021  17.686  2.1655 -0.3541 -0.0735
 4791SOL     OW25831   1.976   4.384   0.695  0.4140 -0.2800 -0.4846
 4791SOL    HW125832   1.930   4.416   0.772 -1.6408 -2.2165 -0.9134
 4791SOL    HW225833   2.001   4.296   0.724  0.0902 -0.2827 -0.2156
 4792SOL     OW25834   2.849   2.645  14.017 -0.4153  0.0857 -0.3945
 4792SOL    HW125835   2.942   2.664  14.027 -0.2097 -0.7335 -0.7590
 4792SOL    HW225836   2.821   2.591  14.091 -1.4396  1.1392 -0.0014
 4793SOL     OW25837   3.893   4.449   9.356 -0.2865  0.0907  0.3748
 4793SOL    HW125838   3.908   4.464   9.262  1.1290 -0.3077  0.5322
 4793SOL    HW225839   3.877   4.355   9.361 -0.9087  0.1660 -0.2420
 4794SOL     OW25840   0.257   3.525  13.925  0.1025 -0.3159 -0.2955
 4794SOL    HW125841   0.256   3.571  14.009 -0.1207 -1.1576  0.1632
 4794SOL    HW225842   0.316   3.585  13.879  0.0751  0.0507  0.1349
 4795SOL     OW25843   4.308   1.100   7.474 -0.1810  0.0897 -0.4688
 4795SOL    HW125844   4.362   1.176   7.497  2.0699 -1.1162 -1.7778
 4795SOL    HW225845   4.328   1.089   7.381 -1.5095 -2.1324 -0.4844
 4796SOL     OW25846   4.060   1.559  13.535 -0.0419 -0.4431 -0.0785
 4796SOL    HW125847   4.093   1.594  13.453 -1.3361 -0.5601 -0.6492
 4796SOL    HW225848   3.994   1.623  13.561 -0.1254 -0.9423  0.9507
 4797SOL     OW25849   0.142   2.589   7.189  0.5916  0.1807 -0.2651
 4797SOL    HW125850   0.085   2.515   7.210 -0.4281  0.4916 -1.9975
 4797SOL    HW225851   0.094   2.665   7.222 -1.3397 -1.1984  0.1234
 4798SOL     OW25852   3.091   0.098  15.585  0.1238  0.2189  0.4528
 4798SOL    HW125853   3.175   0.128  15.620 -0.1355  1.5147 -0.0375
 4798SOL    HW225854   3.079   0.045  15.663  1.3966 -1.2721 -0.3345
 4799SOL     OW25855   2.879   0.527   8.191 -0.1055 -0.5925 -0.0562
 4799SOL    HW125856   2.828   0.468   8.246 -1.2673 -0.6159 -1.1414
 4799SOL    HW225857   2.811   0.576   8.144 -0.6930 -2.5553 -1.2418
 4800SOL     OW25858   1.117   4.394   6.457  0.2797 -0.0036 -0.2029
 4800SOL    HW125859   1.053   4.465   6.462  0.2228 -0.0187 -0.7537
 4800SOL    HW225860   1.114   4.387   6.362  1.5540  1.4431 -0.3414
 4801SOL     OW25861   2.120   2.254   8.412 -0.3720  0.4999  0.5382
 4801SOL    HW125862   2.092   2.169   8.446 -2.0360  2.0553  3.0963
 4801SOL    HW225863   2.191   2.285   8.468 -1.2865 -0.8281  2.4282
 4802SOL     OW25864   1.152   1.233   6.618 -0.1932  0.3298 -0.2926
 4802SOL    HW125865   1.085   1.301   6.609  0.9690  1.4470 -0.5299
 4802SOL    HW225866   1.169   1.223   6.711  1.6246  3.1330 -0.3186
 4803SOL     OW25867   4.143   3.960   5.371 -0.9450 -0.3975 -0.8622
 4803SOL    HW125868   4.107   4.044   5.342 -1.6582 -0.0879  0.8668
 4803SOL    HW225869   4.137   3.970   5.466  0.8352 -1.8194 -0.5980
 4804SOL     OW25870   4.030   4.406  14.679 -0.2814  0.3912  0.0583
 4804SOL    HW125871   4.050   4.318  14.646  0.6928  0.4457  0.4882
 4804SOL    HW225872   3.988   4.381  14.760  0.8135 -3.7092 -0.6354
 4805SOL     OW25873   0.340   3.353   6.540 -0.3714  0.7923 -0.0757
 4805SOL    HW125874   0.281   3.294   6.494  2.8492 -1.8502 -0.8292
 4805SOL    HW225875   0.422   3.304   6.529 -1.0698 -0.5913  0.8168
 4806SOL     OW25876   2.292   2.357   4.171 -0.3419  0.3194  0.0737
 4806SOL    HW125877   2.243   2.277   4.152 -1.5917  0.9338  0.6937
 4806SOL    HW225878   2.317   2.340   4.262 -0.2663 -2.3179 -0.4442
 4807SOL     OW25879   2.683   2.383   1.172 -0.1349  0.8087  0.7068
 4807SOL    HW125880   2.645   2.470   1.179 -0.9098  0.4417  0.9999
 4807SOL    HW225881   2.668   2.338   1.255  2.2662 -0.2949  0.5548
 4808SOL     OW25882   2.653   0.982   4.212  0.2762  0.3369 -0.3590
 4808SOL    HW125883   2.729   0.981   4.270  1.0416 -0.8557 -1.3897
 4808SOL    HW225884   2.663   0.914   4.146 -0.8921  0.7434 -0.9639
 4809SOL     OW25885   0.114   1.126  10.281  0.1492  0.7737  0.1007
 4809SOL    HW125886   0.118   1.085  10.367 -2.8302  1.4448  0.5526
 4809SOL    HW225887   0.112   1.052  10.220  1.5781  0.7758  0.0319
 4810SOL     OW25888   1.568   2.097   5.853 -0.2355  0.0415 -0.2728
 4810SOL    HW125889   1.613   2.032   5.799 -1.2963 -0.2492 -0.8054
 4810SOL    HW225890   1.550   2.060   5.939 -0.4436 -0.6410 -0.6043
 4811SOL     OW25891   3.135   3.974   2.498  0.2227 -0.1480 -0.3746
 4811SOL    HW125892   3.149   4.040   2.431 -0.0029 -0.2715 -0.5418
 4811SOL    HW225893   3.134   4.026   2.578 -0.7666 -0.0259 -0.4663
 4812SOL     OW25894   2.266   1.524  12.071  0.5505 -0.4308  0.1220
 4812SOL    HW125895   2.175   1.516  12.099  1.2419 -0.2090  2.4013
 4812SOL    HW225896   2.248   1.549  11.980  0.2693  1.4718  0.6884
 4813SOL     OW25897   4.026   1.265   8.486 -0.5424 -0.0348  0.2525
 4813SOL    HW125898   4.076   1.293   8.562 -0.5104  3.2526 -0.9999
 4813SOL    HW225899   3.978   1.197   8.534  1.0187 -1.7334 -0.6030
 4814SOL     OW25900   4.155   1.932   5.240  0.3955 -0.0820  0.2743
 4814SOL    HW125901   4.147   1.849   5.192 -0.4124  0.3842 -0.4073
 4814SOL    HW225902   4.223   1.913   5.304 -0.3057 -2.4565  0.3206
 4815SOL     OW25903   3.546   0.655   8.757  0.3599  1.1155 -0.2003
 4815SOL    HW125904   3.638   0.674   8.740  1.2309 -0.2431  3.1002
 4815SOL    HW225905   3.516   0.658   8.666 -3.4387 -0.5902  1.0110
 4816SOL     OW25906   2.477   1.636  11.659 -0.3597 -0.2020  0.2577
 4816SOL    HW125907   2.449   1.679  11.578  0.1758  1.8788  1.1906
 4816SOL    HW225908   2.554   1.685  11.686 -1.4528  0.4468  2.2090
 4817SOL     OW25909   4.503   0.307  13.741 -0.4569  0.4668 -0.0671
 4817SOL    HW125910   4.498   0.402  13.755 -0.0005  0.2979  1.3161
 4817SOL    HW225911   4.569   0.292  13.674 -0.3675 -1.9979  0.5847
 4818SOL     OW25912   4.649   2.247   9.251 -0.2531 -0.8914 -0.3247
 4818SOL    HW125913   4.601   2.165   9.268  0.6268 -0.4991  3.9928
 4818SOL    HW225914   0.013   2.215   9.230  0.9160  2.0422  0.0562
 4819SOL     OW25915   0.772   0.348   7.787  0.3412  0.6570 -0.3338
 4819SOL    HW125916   0.782   0.254   7.774 -0.1511  0.3751  1.2659
 4819SOL    HW225917   0.851   0.375   7.835 -0.0307 -0.2312  0.7708
 4820SOL     OW25918   1.840   1.225   8.404  0.5893 -0.5444 -0.0665
 4820SOL    HW125919   1.905   1.283   8.443 -0.5534  1.2655 -0.8937
 4820SOL    HW225920   1.862   1.136   8.433 -2.2920 -0.9982  0.7853
 4821SOL     OW25921   1.084   1.422   8.850  0.4165 -0.1385  0.1387
 4821SOL    HW125922   1.155   1.388   8.904  0.4709 -1.3036 -0.6612
 4821SOL    HW225923   1.114   1.513   8.853  1.2261 -0.3424 -1.5272
 4822SOL     OW25924   3.170   1.219   3.999  0.1751 -0.0801 -0.3768
 4822SOL    HW125925   3.226   1.296   4.000 -0.9241  0.7359 -1.7936
 4822SOL    HW225926   3.097   1.255   4.049 -1.2240 -2.0218 -1.0064
 4823SOL     OW25927   1.142   3.506   6.609  0.1474  0.0922 -0.5399
 4823SOL    HW125928   1.202   3.452   6.660 -1.9011 -1.7313 -0.0484
 4823SOL    HW225929   1.118   3.445   6.540 -0.7070  0.9204 -0.9778
 4824SOL     OW25930   2.514   3.903   6.005  0.0843  0.5234  0.0815
 4824SOL    HW125931   2.516   3.855   6.088 -2.5496 -2.1000 -1.3371
 4824SOL    HW225932   2.433   3.952   6.019 -0.7113 -1.0641  1.0771
 4825SOL     OW25933   2.123   1.064   4.879 -0.0310  0.0046 -0.4076
 4825SOL    HW125934   2.097   0.974   4.898  2.4406 -0.6418 -0.0962
 4825SOL    HW225935   2.149   1.092   4.967  2.7477  1.4892 -1.7126
 4826SOL     OW25936   3.319   0.814   7.142 -0.3357 -0.3710  0.1587
 4826SOL    HW125937   3.295   0.799   7.051  0.4272 -3.3819  0.4475
 4826SOL    HW225938   3.298   0.728   7.179  0.0455  0.5023  2.4110
 4827SOL     OW25939   4.015   0.861  15.113 -0.5082 -0.0552 -0.6880
 4827SOL    HW125940   4.043   0.863  15.021 -1.0364 -2.8474 -0.9057
 4827SOL    HW225941   3.992   0.768  15.115 -1.4402  0.1776 -0.9514
 4828SOL     OW25942   4.457   2.175   2.294  0.4979 -1.1225 -0.3510
 4828SOL    HW125943   4.488   2.259   2.259 -2.4324  0.8587  1.7905
 4828SOL    HW225944   4.461   2.115   2.219  1.2889 -0.3740 -0.9150
 4829SOL     OW25945   2.740   3.849  11.897  0.5822 -0.1618  0.1545
 4829SOL    HW125946   2.681   3.795  11.844 -0.5665  0.8549  0.4230
 4829SOL    HW225947   2.692   3.871  11.976  2.0996  1.6327  0.5695
 4830SOL     OW25948   0.929   1.512   9.925  0.5476  0.7480 -0.1723
 4830SOL    HW125949   1.003   1.476   9.877 -0.0851  1.6148 -1.7976
 4830SOL    HW225950   0.958   1.498  10.015 -1.1152 -2.8805 -0.2480
 4831SOL     OW25951   1.444   2.975   3.327  0.0076  0.5405  0.6087
 4831SOL    HW125952   1.484   2.920   3.394  0.1072 -1.0184 -0.7237
 4831SOL    HW225953   1.495   2.954   3.249  1.7014 -0.9530  2.1152
 4832SOL     OW25954   0.466   1.833   1.621 -0.5486  0.5941  0.0295
 4832SOL    HW125955   0.524   1.782   1.565 -0.4356 -0.7426  1.3813
 4832SOL    HW225956   0.378   1.818   1.587  0.9142 -3.3938 -1.9047
 4833SOL     OW25957   2.839   2.980   0.337 -0.3924  0.0556  0.5001
 4833SOL    HW125958   2.867   2.952   0.424 -2.7488 -1.4603  0.7615
 4833SOL    HW225959   2.826   2.893   0.298  0.5735  1.0085 -1.9646
 4834SOL     OW25960   2.771   3.268  15.469 -0.7849  0.4106  0.0107
 4834SOL    HW125961   2.711   3.295  15.400 -0.5080  0.1644 -0.3243
 4834SOL    HW225962   2.711   3.231  15.534  0.5752  0.5410  1.3453
 4835SOL     OW25963   2.930   2.929   5.897  0.5629  0.3100 -0.5672
 4835SOL    HW125964   2.929   2.894   5.808 -0.1557  0.9110 -0.7945
 4835SOL    HW225965   2.861   2.872   5.931  0.6570  0.6339  0.1673
 4836SOL     OW25966   4.046   4.535   7.649 -0.7977 -0.3981  0.1552
 4836SOL    HW125967   4.012   4.556   7.737  2.8477 -1.6064  1.8353
 4836SOL    HW225968   4.073   4.443   7.659  0.9076  0.2486  1.4740
 4837SOL     OW25969   1.738   4.123   3.281  0.4354  0.2423 -0.1743
 4837SOL    HW125970   1.829   4.122   3.310  0.2570  2.3572  0.4905
 4837SOL    HW225971   1.694   4.194   3.328 -0.0708 -0.8523  1.0243
 4838SOL     OW25972   3.750   2.022  14.572 -0.2272 -0.4726 -0.3188
 4838SOL    HW125973   3.765   1.995  14.663  1.5608  0.0559 -0.4523
 4838SOL    HW225974   3.657   2.040  14.586 -0.3236 -0.0606 -1.4892
 4839SOL     OW25975   2.867   4.373   6.165  0.3073 -0.6298 -1.1670
 4839SOL    HW125976   2.797   4.343   6.107 -0.0507 -1.7723 -0.1195
 4839SOL    HW225977   2.944   4.394   6.112  0.1325  0.8937 -0.8171
 4840SOL     OW25978   1.480   3.862   5.548  0.2456 -0.2724  0.2637
 4840SOL    HW125979   1.468   3.925   5.477 -1.4120 -0.3340  0.4898
 4840SOL    HW225980   1.486   3.783   5.493 -0.3516 -1.4882  1.9578
 4841SOL     OW25981   3.345   0.767   6.395  0.2372  0.3118 -0.3155
 4841SOL    HW125982   3.381   0.787   6.308  0.3954  1.3639  0.0032
 4841SOL    HW225983   3.293   0.845   6.414 -2.4700 -1.8114  1.0025
 4842SOL     OW25984   4.067   1.247   8.214  0.0404  0.1382  0.0786
 4842SOL    HW125985   4.049   1.247   8.308  0.6667 -1.0076  0.1975
 4842SOL    HW225986   4.004   1.180   8.185 -0.3777  1.3856 -1.9131
 4843SOL     OW25987   4.699   4.263   8.684  0.1380  0.0433  0.5815
 4843SOL    HW125988   4.646   4.218   8.619  1.3463 -0.5014 -0.0268
 4843SOL    HW225989   4.694   4.354   8.653 -0.9307 -0.0035  0.6089
 4844SOL     OW25990   4.572   4.593  15.791  0.2455 -0.0376  0.3862
 4844SOL    HW125991   4.525   4.601  15.708  0.6841  2.0048  0.3274
 4844SOL    HW225992   4.643   4.655  15.775  2.7873 -3.2238 -0.8000
 4845SOL     OW25993   1.026   0.992   9.107 -0.3196  0.3070  0.5897
 4845SOL    HW125994   0.985   0.928   9.049  0.1558  1.5802 -1.1407
 4845SOL    HW225995   0.978   0.982   9.190 -1.4954  1.8215  0.1111
 4846SOL     OW25996   4.159   2.164   5.119 -0.4171  0.2377 -0.3404
 4846SOL    HW125997   4.150   2.069   5.132 -0.5810  0.7278  3.1231
 4846SOL    HW225998   4.216   2.155   5.042  0.5195  1.5928  0.1898
 4847SOL     OW25999   3.324   2.637  12.697 -0.1828 -0.4626  0.2126
 4847SOL    HW126000   3.330   2.711  12.636  0.2176 -0.6410  0.0452
 4847SOL    HW226001   3.315   2.696  12.773  2.0768  0.1579 -0.0091
 4848SOL     OW26002   3.762   3.082   6.422 -0.6762  0.5915 -0.4302
 4848SOL    HW126003   3.781   3.124   6.339  0.9668  0.1255 -0.2961
 4848SOL    HW226004   3.686   3.135   6.448  0.0759  0.4938  1.9931
 4849SOL     OW26005   4.514   1.916  13.222 -0.4610  0.3859 -0.3402
 4849SOL    HW126006   4.557   2.000  13.242  0.4722  0.1632 -1.4440
 4849SOL    HW226007   4.588   1.857  13.213  0.5208  1.4518  0.6520
 4850SOL     OW26008   4.378   2.461   4.736 -0.1838 -0.2655  0.2010
 4850SOL    HW126009   4.365   2.481   4.643  0.8947 -0.1906  0.0648
 4850SOL    HW226010   4.388   2.548   4.776  1.9789  0.2152 -1.3684
 4851SOL     OW26011   2.741   0.245   6.078 -0.1301 -0.4504 -0.1865
 4851SOL    HW126012   2.751   0.183   6.006  0.2887 -1.2995  0.6095
 4851SOL    HW226013   2.815   0.302   6.055 -1.0950  1.5006  1.5461
 4852SOL     OW26014   0.844   1.132   2.910  0.2865  0.4602 -0.3946
 4852SOL    HW126015   0.845   1.097   2.999 -1.4134  0.8276 -0.2224
 4852SOL    HW226016   0.755   1.162   2.894  0.2667  0.5829 -0.0621
 4853SOL     OW26017   4.188   4.497  15.551  0.0453  0.1631 -0.4359
 4853SOL    HW126018   4.229   4.422  15.508 -1.8600 -1.2087  0.1237
 4853SOL    HW226019   4.103   4.495  15.507  0.3016  0.5349 -0.9414
 4854SOL     OW26020   1.202   3.669  14.501 -0.4869  0.3697 -0.1754
 4854SOL    HW126021   1.294   3.653  14.521 -0.3426  0.8231 -0.4814
 4854SOL    HW226022   1.188   3.652  14.407 -0.0723 -1.0934  0.0291
 4855SOL     OW26023   4.046   3.890   5.625 -0.1129 -0.4470 -0.2023
 4855SOL    HW126024   3.974   3.917   5.681 -1.0686 -2.8349 -0.2741
 4855SOL    HW226025   3.994   3.861   5.549 -0.5890 -0.1390  0.0059
 4856SOL     OW26026   0.010   3.298  16.570  0.1957 -0.1873 -0.1506
 4856SOL    HW126027   4.694   3.212  16.585  0.6048  0.0966  2.5039
 4856SOL    HW226028   4.666   3.363  16.588  0.3758 -0.3986  1.2704
 4857SOL     OW26029   2.027   0.833   9.525 -0.1776 -0.3826 -0.6470
 4857SOL    HW126030   1.943   0.877   9.509 -1.5579 -2.9941 -0.6817
 4857SOL    HW226031   2.073   0.916   9.518 -0.3516 -0.2463 -0.1852
 4858SOL     OW26032   3.405   1.789  10.491  0.7678  0.0038 -0.0923
 4858SOL    HW126033   3.495   1.761  10.478  0.7567 -0.9778  2.1149
 4858SOL    HW226034   3.407   1.874  10.446 -2.7136  0.2482  0.1614
 4859SOL     OW26035   3.072   3.156   7.801  0.2613  0.2755  0.1794
 4859SOL    HW126036   3.002   3.220   7.817  0.3969 -0.0706  2.2084
 4859SOL    HW226037   3.061   3.148   7.707 -0.0311  1.5539  0.1076
 4860SOL     OW26038   3.250   0.656   7.841 -0.1454  0.2717 -0.1105
 4860SOL    HW126039   3.314   0.589   7.866  0.5639  1.4538  1.2546
 4860SOL    HW226040   3.265   0.719   7.911  0.4721  0.0327 -0.0301
 4861SOL     OW26041   2.707   3.677   0.856  0.2322 -0.8649  0.7115
 4861SOL    HW126042   2.613   3.685   0.869  0.2685  0.0655  0.3543
 4861SOL    HW226043   2.719   3.598   0.803  1.5941  0.4410 -0.9130
 4862SOL     OW26044   3.848   1.268   0.924  0.3268 -0.3478 -1.1565
 4862SOL    HW126045   3.916   1.201   0.931 -0.5956 -1.5229 -3.5644
 4862SOL    HW226046   3.771   1.214   0.909  0.2427 -1.4119  3.0384
 4863SOL     OW26047   3.093   3.627  17.019  0.2952  0.3178 -0.0334
 4863SOL    HW126048   3.181   3.636  17.056 -1.3452 -0.6370  4.1465
 4863SOL    HW226049   3.072   3.543  17.059  0.4266  0.0409 -0.5411
 4864SOL     OW26050   3.109   1.954   6.276  0.4020 -0.1451 -0.2919
 4864SOL    HW126051   3.100   1.860   6.291 -3.5649 -0.0665 -2.2199
 4864SOL    HW226052   3.181   1.979   6.333  0.2337 -1.3923  0.4583
 4865SOL     OW26053   2.854   2.641   4.745  0.1493  0.5866 -0.6604
 4865SOL    HW126054   2.790   2.570   4.749  0.6229  0.4526  3.8224
 4865SOL    HW226055   2.794   2.705   4.784 -1.2802 -0.6876 -0.7783
 4866SOL     OW26056   3.823   3.910   5.816 -0.1989 -0.1356 -0.0844
 4866SOL    HW126057   3.804   3.942   5.904 -1.2783  1.4579 -0.9072
 4866SOL    HW226058   3.757   3.841   5.808 -1.4064  0.8679  1.1266
 4867SOL     OW26059   2.337   2.858  11.232  0.2154  0.2756 -0.2498
 4867SOL    HW126060   2.328   2.936  11.179  0.7453 -0.0510 -0.8274
 4867SOL    HW226061   2.410   2.882  11.290  0.7552  0.1555 -0.8739
 4868SOL     OW26062   2.702   3.459   4.157 -0.3194  0.2926  0.1104
 4868SOL    HW126063   2.714   3.450   4.251 -1.6740 -0.3597  0.2125
 4868SOL    HW226064   2.789   3.480   4.123 -0.0048  0.2213  0.8785
 4869SOL     OW26065   4.676   1.515  13.843 -0.4881  0.6074 -0.4790
 4869SOL    HW126066   4.669   1.583  13.776 -0.2908  0.6282 -0.4775
 4869SOL    HW226067   0.041   1.539  13.870  0.4122 -3.8941  0.5249
 4870SOL     OW26068   3.949   0.108   3.903 -0.0462 -0.8020  0.4175
 4870SOL    HW126069   3.940   0.150   3.989 -2.5826  0.6565 -0.5550
 4870SOL    HW226070   3.914   0.020   3.918 -1.4647 -0.4894 -1.0212
 4871SOL     OW26071   2.021   0.407   3.812 -0.3619 -0.1254  0.4273
 4871SOL    HW126072   1.958   0.455   3.866  0.4608 -0.6931  1.8910
 4871SOL    HW226073   2.101   0.430   3.860  0.1524 -1.2687  0.1064
 4872SOL     OW26074   1.231   1.179   6.890 -0.2477  0.8282  0.5224
 4872SOL    HW126075   1.224   1.217   6.977  1.3961  0.0658  0.9931
 4872SOL    HW226076   1.182   1.098   6.905  2.6604 -0.8937  0.7421
 4873SOL     OW26077   4.295   1.558  15.781 -0.3907 -0.6249  0.1701
 4873SOL    HW126078   4.352   1.531  15.709 -1.3801 -0.3251 -0.7310
 4873SOL    HW226079   4.323   1.492  15.844 -0.3303  0.6743  1.4976
 4874SOL     OW26080   1.309   3.475   2.729 -0.4248  0.3778 -0.2589
 4874SOL    HW126081   1.369   3.437   2.794  0.3850  2.0200 -0.0445
 4874SOL    HW226082   1.223   3.485   2.770 -1.1566 -1.2093 -1.3972
 4875SOL     OW26083   4.216   1.445   2.643 -0.1276 -0.4780 -0.1449
 4875SOL    HW126084   4.138   1.409   2.601  0.4087 -1.4919 -0.2848
 4875SOL    HW226085   4.169   1.498   2.706  1.6420  0.6253  0.2410
 4876SOL     OW26086   3.568   0.961   7.131  0.1229  0.4428 -0.4057
 4876SOL    HW126087   3.493   0.901   7.132  0.2585  0.2384 -1.6576
 4876SOL    HW226088   3.619   0.905   7.072  1.1438  1.5547 -0.5565
 4877SOL     OW26089   4.363   4.020   0.890  0.0396  0.3252  0.2567
 4877SOL    HW126090   4.336   3.930   0.873  2.8470 -0.7181  1.4144
 4877SOL    HW226091   4.287   4.057   0.935  0.9102  0.3226  1.7193
 4878SOL     OW26092   2.991   4.204  14.303  0.1530  0.2491  0.3210
 4878SOL    HW126093   3.065   4.144  14.315 -2.0116 -2.6609 -0.9449
 4878SOL    HW226094   2.915   4.161  14.342 -0.0510  0.6296  0.3511
 4879SOL     OW26095   1.986   2.564   2.134  0.7608 -0.0354  0.4038
 4879SOL    HW126096   1.904   2.596   2.173 -0.0947  1.5648 -2.7217
 4879SOL    HW226097   2.003   2.493   2.196 -1.1591 -0.4637  0.4404
 4880SOL     OW26098   4.305   3.128  13.790  0.8096 -1.0367 -0.6037
 4880SOL    HW126099   4.330   3.212  13.828  0.6155 -0.2011 -2.3029
 4880SOL    HW226100   4.340   3.066  13.853  0.7729 -0.4831 -0.0419
 4881SOL     OW26101   2.537   1.178   5.224  0.2782  0.4030  0.0797
 4881SOL    HW126102   2.502   1.122   5.293  0.0191  1.3477  0.7126
 4881SOL    HW226103   2.533   1.260   5.274  0.1979 -0.1757  1.0188
 4882SOL     OW26104   2.400   3.691   8.190  0.0258  0.2291 -0.0377
 4882SOL    HW126105   2.325   3.735   8.230  0.5853 -1.0531  2.4461
 4882SOL    HW226106   2.465   3.759   8.205  2.2447 -1.4845 -1.9097
 4883SOL     OW26107   0.351   2.153   8.274  0.4533  0.0028 -0.6835
 4883SOL    HW126108   0.359   2.237   8.319  1.6671 -0.9545  0.8517
 4883SOL    HW226109   0.440   2.129   8.250  0.4375 -0.9990  0.2934
 4884SOL     OW26110   3.737   2.469  10.893  0.1530  0.2663 -0.0821
 4884SOL    HW126111   3.702   2.491  10.979  0.6313 -3.2405  0.9910
 4884SOL    HW226112   3.725   2.374  10.891  0.3237  0.2229  1.6597
 4885SOL     OW26113   1.819   0.257   7.226  1.0035  0.0942  0.1035
 4885SOL    HW126114   1.826   0.304   7.143  1.9780  3.0903  1.8457
 4885SOL    HW226115   1.879   0.316   7.274  0.2836 -0.6470  1.9142
 4886SOL     OW26116   4.378   0.568   1.816  0.7525  0.0462  0.4243
 4886SOL    HW126117   4.444   0.511   1.776  1.6256  1.6434 -0.4105
 4886SOL    HW226118   4.334   0.599   1.737 -1.6141 -0.4626  1.5097
 4887SOL     OW26119   2.898   1.726   2.604 -0.1620 -0.0723  0.0507
 4887SOL    HW126120   2.987   1.697   2.620  0.1468  2.0592  2.2328
 4887SOL    HW226121   2.912   1.774   2.522 -0.0309  1.1139  0.7733
 4888SOL     OW26122   3.147   4.156   7.807 -0.3589  0.5142  0.1037
 4888SOL    HW126123   3.109   4.077   7.846  1.4949 -1.0318 -1.2039
 4888SOL    HW226124   3.179   4.121   7.723 -1.9288 -0.8780  0.1000
 4889SOL     OW26125   4.286   3.269   6.618  0.2312  0.3032 -0.6048
 4889SOL    HW126126   4.344   3.196   6.595  0.1176  0.0723 -0.1597
 4889SOL    HW226127   4.229   3.271   6.542  2.1218  1.0926 -1.9844
 4890SOL     OW26128   1.459   3.175   8.926 -0.0848 -0.0714 -0.3815
 4890SOL    HW126129   1.456   3.146   8.835 -1.3265  1.4715 -0.8288
 4890SOL    HW226130   1.554   3.192   8.930  0.0687 -0.4110 -2.6841
 4891SOL     OW26131   4.046   2.702   7.748  0.4332 -0.7684 -1.0355
 4891SOL    HW126132   3.985   2.711   7.822  0.2986 -0.3372 -1.1954
 4891SOL    HW226133   4.092   2.785   7.763 -0.6400  0.2084 -3.0813
 4892SOL     OW26134   1.251   0.771   5.726 -0.2635  0.6450 -0.1613
 4892SOL    HW126135   1.228   0.702   5.664 -0.9820 -0.2424  1.1010
 4892SOL    HW226136   1.201   0.738   5.800  1.4430 -0.5694  0.4502
 4893SOL     OW26137   0.373   2.468   1.956 -0.1290 -0.1602 -1.0826
 4893SOL    HW126138   0.426   2.535   2.001 -0.2401 -1.3164  0.7697
 4893SOL    HW226139   0.287   2.493   1.989  0.2964  1.5515 -1.2715
 4894SOL     OW26140   1.136   2.977   6.736  0.2988  0.2328  0.0710
 4894SOL    HW126141   1.135   3.043   6.805 -0.1698 -0.2455  0.5221
 4894SOL    HW226142   1.102   2.893   6.768  3.7569 -1.5841 -1.0417
 4895SOL     OW26143   0.192   1.490   6.842 -0.0626  0.5070  0.0577
 4895SOL    HW126144   0.233   1.463   6.760  0.4959  1.1701  0.1195
 4895SOL    HW226145   0.101   1.467   6.828 -0.2251  0.7813  0.6570
 4896SOL     OW26146   2.013   1.992   9.588 -0.0150  0.6367  0.2457
 4896SOL    HW126147   1.925   1.973   9.621 -0.1523  0.6615 -0.1109
 4896SOL    HW226148   2.062   1.994   9.671 -2.3314  0.4386  1.6010
 4897SOL     OW26149   2.785   0.462   9.398  0.0901  0.3172  0.3138
 4897SOL    HW126150   2.779   0.557   9.395 -0.7084  0.2355 -0.6584
 4897SOL    HW226151   2.819   0.440   9.485  0.4577  1.1639  0.3787
 4898SOL     OW26152   2.619   1.380   8.627  0.1574  0.1256  0.5074
 4898SOL    HW126153   2.554   1.449   8.616  0.4397  0.3317  0.1347
 4898SOL    HW226154   2.699   1.409   8.585  0.0892 -1.5533 -0.7989
 4899SOL     OW26155   1.415   2.595  17.591  0.0800 -0.9102  0.3507
 4899SOL    HW126156   1.500   2.626  17.559 -0.8672 -0.8998 -2.1230
 4899SOL    HW226157   1.433   2.501  17.586  0.3861 -1.0051  3.2393
 4900SOL     OW26158   3.870   1.928   6.825 -0.4585  0.1973  0.1135
 4900SOL    HW126159   3.863   1.853   6.766  1.3777 -0.1851  0.3900
 4900SOL    HW226160   3.898   1.888   6.907 -2.0779 -1.5234 -0.1711
 4901SOL     OW26161   4.462   4.518   5.264 -0.4356 -0.8386  0.6676
 4901SOL    HW126162   4.505   4.435   5.286  0.2311  0.2326  3.4306
 4901SOL    HW226163   4.503   4.537   5.179 -1.2820  0.8548  0.6489
 4902SOL     OW26164   2.162   1.599   9.203 -0.1330 -0.4781  0.6309
 4902SOL    HW126165   2.088   1.656   9.227  0.6925  1.4110 -1.3554
 4902SOL    HW226166   2.219   1.654   9.150 -1.9887  0.2484 -0.6353
 4903SOL     OW26167   0.215   2.789   5.714 -0.0366 -0.3066  0.9833
 4903SOL    HW126168   0.259   2.750   5.638 -3.1419 -1.5000 -0.2127
 4903SOL    HW226169   0.180   2.706   5.748  0.4407 -0.1190  1.9257
 4904SOL     OW26170   4.438   1.322   7.128 -0.3247  0.3945 -0.3362
 4904SOL    HW126171   4.450   1.396   7.069 -0.3181  0.0493 -0.7756
 4904SOL    HW226172   4.490   1.257   7.080 -2.3329 -0.3146 -1.5749
 4905SOL     OW26173   3.519   2.038   7.056  0.5604  0.6215 -0.1827
 4905SOL    HW126174   3.496   1.945   7.051  0.5790  0.7006 -2.0412
 4905SOL    HW226175   3.438   2.072   7.093  1.1590 -0.7715  2.4217
 4906SOL     OW26176   1.189   0.640   7.448 -0.1912 -0.4624  0.4403
 4906SOL    HW126177   1.194   0.553   7.410 -2.0444 -0.5691  0.4453
 4906SOL    HW226178   1.245   0.641   7.525 -1.1699  0.2419  1.1453
 4907SOL     OW26179   2.741   3.827   4.289  0.0627  0.0442 -0.0247
 4907SOL    HW126180   2.751   3.763   4.219 -1.8226 -1.0786  0.7323
 4907SOL    HW226181   2.804   3.894   4.261 -0.3485  0.4797  0.1076
 4908SOL     OW26182   3.687   3.100   6.037 -0.1796 -0.5247 -0.0003
 4908SOL    HW126183   3.684   3.192   6.064  0.7272  0.0543 -1.9140
 4908SOL    HW226184   3.640   3.058   6.110 -0.0793  0.9510  0.9080
 4909SOL     OW26185   1.474   4.633  14.818 -0.0493 -0.2876 -0.0454
 4909SOL    HW126186   1.528   4.678  14.883  0.2152  0.9037 -1.0766
 4909SOL    HW226187   1.449   4.549  14.857 -1.2860  0.0398 -0.1116
 4910SOL     OW26188   0.660   0.386   4.975 -0.5081  0.2162  0.5554
 4910SOL    HW126189   0.671   0.307   5.028  0.3375 -0.2155 -0.2692
 4910SOL    HW226190   0.642   0.359   4.885  1.7913  1.3238 -0.2287
 4911SOL     OW26191   4.584   3.979  16.823 -0.3727  0.3118 -0.2755
 4911SOL    HW126192   4.542   3.971  16.908 -0.1712  1.0087 -0.1106
 4911SOL    HW226193   4.612   3.888  16.810 -0.0499  0.5946 -1.5871
 4912SOL     OW26194   1.743   4.353   6.767 -0.6768  0.0011  0.2712
 4912SOL    HW126195   1.704   4.306   6.693  0.7266  0.5398 -0.8170
 4912SOL    HW226196   1.699   4.307   6.838 -0.6285 -1.7857 -0.8460
 4913SOL     OW26197   1.167   1.707   5.684  0.3298  0.0576 -0.2588
 4913SOL    HW126198   1.085   1.756   5.696  1.1088  1.3534 -0.2611
 4913SOL    HW226199   1.191   1.754   5.604 -1.0279  1.6884  0.2893
 4914SOL     OW26200   2.791   4.211   4.418 -0.2787  0.1813 -0.1418
 4914SOL    HW126201   2.850   4.180   4.486  0.5420  2.2302  0.0791
 4914SOL    HW226202   2.732   4.265   4.470 -0.0894  0.0616  0.1962
 4915SOL     OW26203   3.684   0.233   5.157 -0.0098  0.2174 -0.4031
 4915SOL    HW126204   3.688   0.195   5.070 -0.9086  1.6918 -1.0780
 4915SOL    HW226205   3.743   0.178   5.210  1.0352 -0.7058 -2.4983
 4916SOL     OW26206   2.090   1.785   3.098 -0.1699  0.3085  0.3781
 4916SOL    HW126207   2.060   1.744   3.018 -2.2490  0.6442  0.9912
 4916SOL    HW226208   2.007   1.802   3.143  0.7901  1.4532  1.7187
 4917SOL     OW26209   3.369   1.518  15.934 -0.3525 -0.8311  0.7294
 4917SOL    HW126210   3.377   1.494  16.026 -0.4184  0.4450  1.0643
 4917SOL    HW226211   3.454   1.549  15.903 -0.1044 -3.1514 -0.9419
 4918SOL     OW26212   1.089   2.597   7.723  0.6593 -0.0966 -0.1675
 4918SOL    HW126213   1.181   2.601   7.696  1.2883 -1.1912  1.8587
 4918SOL    HW226214   1.077   2.503   7.709  0.6109 -0.0408 -0.4966
 4919SOL     OW26215   1.149   4.279   5.933  0.4688 -0.5196 -0.2297
 4919SOL    HW126216   1.244   4.284   5.930  0.3894  1.5246  0.9561
 4919SOL    HW226217   1.133   4.191   5.968 -2.6568  0.2412  0.3120
 4920SOL     OW26218   3.752   1.938   8.025 -0.1959  0.3302 -0.1335
 4920SOL    HW126219   3.741   1.852   8.066  1.9465  0.3214  0.4079
 4920SOL    HW226220   3.711   1.991   8.094  0.0878 -0.6455  0.7886
 4921SOL     OW26221   1.655   4.651   4.204 -0.4777 -0.0270  0.3429
 4921SOL    HW126222   1.672   4.695   4.287  0.9627  0.3437 -0.1475
 4921SOL    HW226223   1.700   4.713   4.147 -0.1767 -0.0815  0.5176
 4922SOL     OW26224   0.552   1.510  10.490 -0.4389 -0.0061 -0.8319
 4922SOL    HW126225   0.482   1.461  10.532 -1.9345  1.2102 -1.9151
 4922SOL    HW226226   0.616   1.441  10.475  0.4575  1.4443 -3.6345
 4923SOL     OW26227   3.958   2.973   0.719  0.1269  0.5228 -0.0827
 4923SOL    HW126228   3.881   2.950   0.771 -0.1500 -0.0775 -0.7482
 4923SOL    HW226229   3.972   3.064   0.744  1.4630  0.1112  0.6690
 4924SOL     OW26230   0.195   0.538   5.457  0.5402  0.5856  0.0133
 4924SOL    HW126231   0.167   0.619   5.500  1.0018  1.6473 -1.6950
 4924SOL    HW226232   0.289   0.535   5.473  0.7811  0.7478 -1.4232
 4925SOL     OW26233   1.347   3.865   7.212  0.0993 -0.2027  0.0345
 4925SOL    HW126234   1.266   3.898   7.252 -0.6152 -0.4930 -1.1687
 4925SOL    HW226235   1.385   3.938   7.162 -1.2120  2.4186  2.8697
 4926SOL     OW26236   2.831   0.402   7.215 -0.4249 -0.2889 -0.3242
 4926SOL    HW126237   2.803   0.326   7.266  0.0208 -0.8930 -0.9859
 4926SOL    HW226238   2.925   0.390   7.221 -0.2393  0.2728 -2.2451
 4927SOL     OW26239   0.995   2.744   1.296  0.3246 -0.6187  0.3896
 4927SOL    HW126240   0.930   2.710   1.235  0.5447  0.1608 -0.2775
 4927SOL    HW226241   1.026   2.820   1.247  1.8446 -1.0818  0.6214
 4928SOL     OW26242   3.259   1.850   4.102 -0.7664  0.0046  0.1332
 4928SOL    HW126243   3.266   1.901   4.021 -1.5949 -0.4592 -0.2411
 4928SOL    HW226244   3.326   1.891   4.156  0.7784 -0.3579 -1.5146
 4929SOL     OW26245   0.610   3.877   7.081 -0.4965  0.2441  0.1434
 4929SOL    HW126246   0.605   3.804   7.143  4.6366  0.6848  1.0479
 4929SOL    HW226247   0.690   3.919   7.111  0.6615 -0.6248 -1.7241
 4930SOL     OW26248   0.135   3.703   2.246  0.1054 -0.2950 -0.1730
 4930SOL    HW126249   0.067   3.770   2.240  0.2284 -0.1567 -0.0015
 4930SOL    HW226250   0.206   3.737   2.193 -0.5982  0.6264 -0.5099
 4931SOL     OW26251   0.053   3.086   6.940 -0.1394  0.3348  0.3969
 4931SOL    HW126252   0.072   3.143   7.014  1.4106  0.5541 -0.1616
 4931SOL    HW226253   4.700   3.125   6.898  0.5745 -0.7322 -1.9302
 4932SOL     OW26254   1.398   0.395   5.598 -0.0789  0.5994  0.3810
 4932SOL    HW126255   1.337   0.429   5.664 -2.1445 -0.7456 -0.8335
 4932SOL    HW226256   1.438   0.480   5.580  0.1069  0.2183 -1.0404
 4933SOL     OW26257   0.577   3.919   7.515  0.5833  0.4216  0.2179
 4933SOL    HW126258   0.605   3.830   7.533 -1.2776 -0.8639 -3.1865
 4933SOL    HW226259   0.526   3.895   7.437  2.0090 -1.5731 -0.0882
 4934SOL     OW26260   2.506   2.214   7.808  0.0922 -0.4045  0.8070
 4934SOL    HW126261   2.506   2.217   7.712 -1.2254  0.2659  0.8211
 4934SOL    HW226262   2.582   2.268   7.829  0.4665 -0.6848  0.1803
 4935SOL     OW26263   0.232   3.945   9.959 -0.7331  0.2151  0.5167
 4935SOL    HW126264   0.282   3.882   9.906  0.1945  1.1635  0.2655
 4935SOL    HW226265   0.267   4.021   9.913  0.6641  0.6675  2.3289
 4936SOL     OW26266   2.030   0.266   4.116 -0.0177  0.2363  0.7748
 4936SOL    HW126267   1.969   0.329   4.154 -0.7817  0.8757 -1.4982
 4936SOL    HW226268   2.097   0.329   4.090 -1.5151  1.4312 -0.1777
 4937SOL     OW26269   2.681   2.916   2.096  0.1411  0.2339  0.6134
 4937SOL    HW126270   2.647   2.963   2.019 -1.3276  0.2287  1.2649
 4937SOL    HW226271   2.753   2.975   2.117 -1.2050  1.7186  1.0667
 4938SOL     OW26272   2.972   4.077   5.508  0.4734 -0.2538 -0.7297
 4938SOL    HW126273   3.060   4.067   5.472  0.7234  1.1276 -0.5116
 4938SOL    HW226274   2.979   4.161   5.554  1.9952  1.1945 -3.6730
 4939SOL     OW26275   2.291   0.413   5.896  0.0194  0.2349 -0.5735
 4939SOL    HW126276   2.210   0.364   5.883 -0.1796  0.7819 -1.3456
 4939SOL    HW226277   2.340   0.348   5.947 -2.4098 -1.0798  0.0577
 4940SOL     OW26278   2.766   0.203   2.658  0.2844  0.2671 -0.2318
 4940SOL    HW126279   2.847   0.217   2.707  0.6874  0.4454 -0.9518
 4940SOL    HW226280   2.736   0.126   2.707 -0.1674  0.2927 -0.4717
 4941SOL     OW26281   3.156   3.270  16.881  0.4418 -0.6147 -0.2948
 4941SOL    HW126282   3.101   3.309  16.948 -2.7367 -3.1181 -1.4037
 4941SOL    HW226283   3.219   3.341  16.885  1.0201 -1.0559 -1.4828
 4942SOL     OW26284   1.902   1.687   6.376 -0.3779 -0.4887 -0.2338
 4942SOL    HW126285   1.938   1.630   6.443 -0.3026 -0.7642 -0.5099
 4942SOL    HW226286   1.983   1.733   6.352  1.2971 -2.2535  2.1049
 4943SOL     OW26287   3.391   2.063  10.378 -0.2357 -0.0120 -0.1108
 4943SOL    HW126288   3.466   2.051  10.320 -0.6000 -1.7798 -0.2353
 4943SOL    HW226289   3.370   2.156  10.371 -0.8849 -0.0412  1.3356
 4944SOL     OW26290   0.512   1.671  11.473  0.5021 -0.1949  0.4430
 4944SOL    HW126291   0.525   1.657  11.567  0.8128  2.9171  0.8713
 4944SOL    HW226292   0.595   1.718  11.458 -0.2532  1.2434  0.7676
 4945SOL     OW26293   2.318   0.856  15.828 -0.6194  0.4177 -0.0710
 4945SOL    HW126294   2.280   0.790  15.886  2.0359 -1.5451 -0.5541
 4945SOL    HW226295   2.286   0.806  15.753  2.8403  0.1295 -1.3426
 4946SOL     OW26296   0.719   2.233   6.852 -0.1705 -0.3880  0.0676
 4946SOL    HW126297   0.693   2.215   6.762 -1.1896 -0.3497  0.3595
 4946SOL    HW226298   0.790   2.171   6.871  0.9341  0.6183 -0.8064
 4947SOL     OW26299   4.200   1.709   8.652  0.5225 -0.5302  0.4148
 4947SOL    HW126300   4.242   1.772   8.710  0.4700 -0.0200 -0.1035
 4947SOL    HW226301   4.226   1.737   8.564 -2.7016 -0.2885 -0.4570
 4948SOL     OW26302   0.157   3.190   4.041  0.2145  0.4417 -0.6134
 4948SOL    HW126303   0.241   3.189   4.086 -0.1678  1.1538  0.1219
 4948SOL    HW226304   0.149   3.282   4.015 -1.7883 -0.1438 -2.0811
 4949SOL     OW26305   1.530   4.444   9.032 -0.2712  0.4089 -0.1967
 4949SOL    HW126306   1.599   4.377   9.035 -0.6436  0.0611  0.5417
 4949SOL    HW226307   1.477   4.401   9.099  0.5296  1.6375  1.2301
 4950SOL     OW26308   1.463   0.197   2.454  0.4034  0.0739  0.0329
 4950SOL    HW126309   1.419   0.180   2.370 -0.5968 -0.6913  0.7010
 4950SOL    HW226310   1.415   0.127   2.498  1.3940 -0.1024  0.8307
 4951SOL     OW26311   3.340   0.839  13.271 -0.1034  0.1322  0.4232
 4951SOL    HW126312   3.419   0.785  13.264 -1.1644 -1.2930 -0.5079
 4951SOL    HW226313   3.279   0.774  13.307  0.4256 -0.2994  0.5332
 4952SOL     OW26314   4.183   3.591  13.926 -0.4220 -0.7468  0.0096
 4952SOL    HW126315   4.156   3.614  13.837 -1.4320  0.3367  0.5911
 4952SOL    HW226316   4.099   3.593  13.972  0.6193  0.0531  1.8423
 4953SOL     OW26317   4.270   1.340  10.577 -0.3771 -0.4274 -0.1062
 4953SOL    HW126318   4.195   1.392  10.603  0.3777  0.7230 -0.2492
 4953SOL    HW226319   4.253   1.333  10.483  1.0342 -2.8904 -0.1996
 4954SOL     OW26320   3.308   1.967  13.957  0.0047  0.0531 -0.3725
 4954SOL    HW126321   3.223   1.999  13.929  0.0163  0.8456  0.5080
 4954SOL    HW226322   3.312   1.897  13.892 -0.1732  0.5100 -0.8755
 4955SOL     OW26323   0.308   2.176   6.405  0.3016  0.2229 -0.0902
 4955SOL    HW126324   0.301   2.257   6.354 -0.2157  1.3422  1.7528
 4955SOL    HW226325   0.334   2.113   6.338 -3.5890 -1.6579  0.1490
 4956SOL     OW26326   2.925   3.791   3.706 -0.4376  0.5396 -0.3825
 4956SOL    HW126327   2.903   3.783   3.613  2.4268 -2.8554 -0.7638
 4956SOL    HW226328   2.856   3.847   3.742 -0.4833 -0.2410  0.7182
 4957SOL     OW26329   2.822   1.462   7.506  0.1953  0.3522 -0.1570
 4957SOL    HW126330   2.733   1.453   7.473 -1.3749 -1.8120  4.7106
 4957SOL    HW226331   2.863   1.432   7.425 -2.2177 -1.1069 -0.8225
 4958SOL     OW26332   4.516   0.052   9.181  0.1437  0.2463  0.1659
 4958SOL    HW126333   4.456   4.721   9.232 -0.7964  2.0525  0.9706
 4958SOL    HW226334   4.591   0.063   9.240  0.7574  0.8595 -0.7308
 4959SOL     OW26335   3.180   3.113   4.756  0.2110 -0.1351  0.2477
 4959SOL    HW126336   3.268   3.085   4.730  0.4945  1.0177 -0.0153
 4959SOL    HW226337   3.170   3.049   4.827  1.8151 -0.0528  0.5580
 4960SOL     OW26338   2.807   2.632   1.883 -0.2093 -0.4725 -0.0175
 4960SOL    HW126339   2.857   2.608   1.804 -0.2054  2.2637 -0.8511
 4960SOL    HW226340   2.798   2.726   1.872  1.8837 -0.3928 -1.1021
 4961SOL     OW26341   0.624   1.164   3.601  0.1946 -0.3334 -0.0284
 4961SOL    HW126342   0.701   1.199   3.644  0.3221  2.0526 -2.1552
 4961SOL    HW226343   0.644   1.075   3.574  0.1406 -0.8438  1.6600
 4962SOL     OW26344   0.469   1.474   5.310  0.1599  0.1129 -0.2072
 4962SOL    HW126345   0.546   1.479   5.367 -0.8717 -0.4566  1.2106
 4962SOL    HW226346   0.404   1.444   5.373  1.0798  1.0688  1.2033
 4963SOL     OW26347   0.583   4.207   5.774 -0.1789 -0.1251 -0.1211
 4963SOL    HW126348   0.656   4.153   5.746 -1.3403 -0.6123 -2.2083
 4963SOL    HW226349   0.602   4.235   5.864 -0.6251  1.7491 -0.5997
 4964SOL     OW26350   4.391   1.651   4.970 -0.0096  0.1521 -0.9357
 4964SOL    HW126351   4.464   1.595   4.946  0.0956  1.0114 -2.6369
 4964SOL    HW226352   4.427   1.724   4.920 -1.5069  1.7498  0.3154
 4965SOL     OW26353   4.472   3.655   3.411  0.0817  0.4834 -0.3128
 4965SOL    HW126354   4.560   3.668   3.447  0.8914 -0.4051 -1.9932
 4965SOL    HW226355   4.455   3.561   3.419 -1.9832  1.0251  1.7261
 4966SOL     OW26356   2.397   2.023   7.056 -0.0618  0.0074  0.2473
 4966SOL    HW126357   2.381   2.116   7.074 -2.1317 -1.1207  4.1802
 4966SOL    HW226358   2.481   2.008   7.098  0.2478  1.1608  0.0501
 4967SOL     OW26359   0.202   2.372   3.788 -0.3208  0.0159 -0.4507
 4967SOL    HW126360   0.297   2.369   3.801 -0.4618 -2.0400  0.2184
 4967SOL    HW226361   0.180   2.291   3.741 -1.5216 -0.5126  1.0434
 4968SOL     OW26362   1.101   4.686  12.448  0.4413 -0.4335 -0.1099
 4968SOL    HW126363   1.077   4.615  12.507  1.1149 -1.4109 -1.0079
 4968SOL    HW226364   1.086   0.037  12.505  0.5479 -2.0709  2.0533
 4969SOL     OW26365   3.214   0.095   9.263  0.0940  0.7392  0.3169
 4969SOL    HW126366   3.242   0.007   9.238 -1.4880 -0.4113  2.6221
 4969SOL    HW226367   3.144   0.129   9.207 -1.5043 -1.7359  0.8538
 4970SOL     OW26368   4.215   0.257  16.815  0.3877  0.2969 -0.1895
 4970SOL    HW126369   4.266   0.177  16.802  0.1428  0.4760 -2.3050
 4970SOL    HW226370   4.169   0.258  16.731  2.3015 -0.3712 -1.2292
 4971SOL     OW26371   3.409   1.699   1.851  0.1075  0.5623 -0.2281
 4971SOL    HW126372   3.385   1.757   1.779  1.8231  0.3390 -0.9919
 4971SOL    HW226373   3.351   1.726   1.922  0.3206 -0.0880  0.2013
 4972SOL     OW26374   0.153   1.643   1.272  0.2419  0.2319  0.3787
 4972SOL    HW126375   0.072   1.643   1.222 -1.1165  0.8499  2.6087
 4972SOL    HW226376   0.218   1.679   1.211  0.2622  0.2743  0.4253
 4973SOL     OW26377   3.493   2.473   9.382 -0.2372 -0.0838  0.0465
 4973SOL    HW126378   3.462   2.441   9.297 -0.1270  0.5111 -0.2134
 4973SOL    HW226379   3.587   2.457   9.377 -0.4847 -1.6830  0.4107
 4974SOL     OW26380   2.571   4.483   4.413  0.3948  0.0588 -0.5902
 4974SOL    HW126381   2.512   4.553   4.442 -0.1440 -0.6587  0.0241
 4974SOL    HW226382   2.587   4.444   4.498  2.3917 -1.5156 -1.6846
 4975SOL     OW26383   2.760   1.117   2.124 -0.2161  0.0329 -0.3533
 4975SOL    HW126384   2.751   1.156   2.037  1.4198 -1.5015 -1.1882
 4975SOL    HW226385   2.735   1.028   2.101  0.9229  0.0948 -1.8123
 4976SOL     OW26386   3.982   1.370  12.636  0.6301 -0.3408 -0.7087
 4976SOL    HW126387   3.933   1.450  12.621  0.6324 -0.1473  0.2719
 4976SOL    HW226388   4.072   1.400  12.623  0.8869  0.2093  2.2590
 4977SOL     OW26389   1.843   2.702   5.707 -0.2801 -0.5204  0.7637
 4977SOL    HW126390   1.850   2.637   5.777  2.5810 -0.3085  0.6814
 4977SOL    HW226391   1.771   2.755   5.740 -3.0188 -3.2083 -0.9513
 4978SOL     OW26392   0.084   0.010   3.328  0.1476  0.3376  0.3654
 4978SOL    HW126393   0.165   0.024   3.279 -0.3935  1.3741 -0.2270
 4978SOL    HW226394   0.047   4.665   3.273 -0.6505 -1.2819  2.8948
 4979SOL     OW26395   3.979   1.466   5.063 -0.1724  0.5075  0.7161
 4979SOL    HW126396   3.929   1.387   5.081  0.3991 -0.2531 -0.9480
 4979SOL    HW226397   3.907   1.527   5.053  0.4085  0.9535 -0.7486
 4980SOL     OW26398   0.255   1.409   6.585 -0.3645  0.0648  0.6460
 4980SOL    HW126399   0.183   1.452   6.538  0.4053  0.6984  0.0379
 4980SOL    HW226400   0.230   1.318   6.595  3.1405 -0.8984  0.6469
 4981SOL     OW26401   3.376   2.994   3.709  0.5691  0.4824 -0.5254
 4981SOL    HW126402   3.315   3.006   3.636  2.5976  3.1716 -1.7665
 4981SOL    HW226403   3.316   2.972   3.781  0.0479 -0.9651 -1.4201
 4982SOL     OW26404   1.034   1.442  11.925  0.2174  0.4380 -0.1075
 4982SOL    HW126405   1.114   1.444  11.872  0.9262 -1.2486  0.8972
 4982SOL    HW226406   1.077   1.458  12.009  1.2032  0.9015 -0.7038
 4983SOL     OW26407   2.575   0.475   9.642  0.6478 -0.0685  0.0579
 4983SOL    HW126408   2.499   0.462   9.586 -1.2433  1.0612  2.3844
 4983SOL    HW226409   2.614   0.388   9.649  2.5483  0.4530 -4.0459
 4984SOL     OW26410   3.019   4.589  11.848  0.2862  0.2146  0.1612
 4984SOL    HW126411   3.058   4.671  11.880  1.5661 -1.0926  1.9455
 4984SOL    HW226412   3.040   4.595  11.755 -1.1001 -2.3894 -0.3116
 4985SOL     OW26413   1.253   3.218   5.519  0.4797  0.1122  0.1245
 4985SOL    HW126414   1.239   3.294   5.463 -1.0780  0.2796  0.7521
 4985SOL    HW226415   1.169   3.212   5.563 -1.3735  1.1391 -3.2833
 4986SOL     OW26416   2.684   0.242  11.547  0.1456 -0.0877 -0.4005
 4986SOL    HW126417   2.613   0.272  11.604 -0.4161 -0.5885 -0.8452
 4986SOL    HW226418   2.710   0.155  11.577 -0.1256 -0.4743 -1.2731
 4987SOL     OW26419   1.678   4.185   5.432  0.0173 -0.1069  0.3145
 4987SOL    HW126420   1.711   4.114   5.488 -0.1570  1.2891  2.1702
 4987SOL    HW226421   1.739   4.257   5.445  0.0302 -0.1254  0.3581
 4988SOL     OW26422   0.469   2.448   8.005  0.1082 -0.2905 -0.0948
 4988SOL    HW126423   0.482   2.518   7.940 -0.0190  0.5959  0.8313
 4988SOL    HW226424   0.562   2.434   8.026  0.3313  0.4387 -0.5687
 4989SOL     OW26425   0.263   0.044   8.565 -0.3222 -0.0184  0.5418
 4989SOL    HW126426   0.212   0.123   8.583 -1.1448 -0.2870 -0.6212
 4989SOL    HW226427   0.344   0.080   8.602 -1.7431  3.0186  0.7066
 4990SOL     OW26428   3.534   0.204   3.100 -0.7845 -0.1184  0.2139
 4990SOL    HW126429   3.510   0.293   3.126 -0.3351  0.3642 -1.0391
 4990SOL    HW226430   3.468   0.171   3.039 -0.5660 -1.0363  0.4670
 4991SOL     OW26431   1.866   1.684   6.697 -0.0984 -0.2056  0.1011
 4991SOL    HW126432   1.936   1.618   6.694  1.1689  0.9924  2.5268
 4991SOL    HW226433   1.915   1.754   6.740  0.4504 -1.5889  1.7510
 4992SOL     OW26434   0.725   3.829   1.200 -0.1059  0.7280  0.3672
 4992SOL    HW126435   0.711   3.923   1.206 -1.8720  0.4595  0.3020
 4992SOL    HW226436   0.651   3.811   1.142 -0.5730 -0.4711  1.3184
 4993SOL     OW26437   4.719   1.289   7.035 -0.1400 -0.0850  0.6298
 4993SOL    HW126438   0.023   1.316   6.948 -1.0844  2.4920  1.1357
 4993SOL    HW226439   4.686   1.369   7.077  0.0494  0.5740 -0.4941
 4994SOL     OW26440   0.849   1.541   3.322  0.6967  0.1839 -0.5234
 4994SOL    HW126441   0.919   1.579   3.269  1.1467  1.2229  0.8229
 4994SOL    HW226442   0.780   1.536   3.256 -0.0473 -2.3618  0.4531
 4995SOL     OW26443   3.978   3.184   7.280 -0.1142 -0.7158 -0.4055
 4995SOL    HW126444   4.043   3.180   7.210 -0.1207 -1.8659 -0.3414
 4995SOL    HW226445   3.934   3.265   7.255  0.6661  0.2845  1.4591
 4996SOL     OW26446   3.856   3.498  17.597 -0.2397 -0.1302  1.1080
 4996SOL    HW126447   3.929   3.558  17.579 -0.2308 -0.4144  0.1916
 4996SOL    HW226448   3.830   3.530  17.683 -0.5678  0.2976  0.8523
 4997SOL     OW26449   3.782   1.196   9.724 -0.1140 -0.1555 -0.1714
 4997SOL    HW126450   3.839   1.255   9.773 -1.7001  0.0728  1.3791
 4997SOL    HW226451   3.841   1.123   9.710  2.4254  1.6845  0.9003
 4998SOL     OW26452   2.000   3.152  15.553  0.3186  0.7023  0.1483
 4998SOL    HW126453   2.035   3.240  15.543  0.2046  0.9594  2.0252
 4998SOL    HW226454   2.057   3.105  15.615 -1.6311  0.5765  1.8390
 4999SOL     OW26455   2.034   2.699  13.906  0.6390 -0.1217  0.6281
 4999SOL    HW126456   1.982   2.776  13.929  0.4822  0.1182 -0.5507
 4999SOL    HW226457   1.985   2.629  13.949  0.7537 -0.6048 -0.0172
 5000SOL     OW26458   0.981   1.199  11.832 -0.5182 -0.0456  0.5548
 5000SOL    HW126459   0.979   1.286  11.873 -1.0006  0.5582 -0.7526
 5000SOL    HW226460   1.017   1.233  11.750  1.7077  0.3678  1.7065
 5001SOL     OW26461   3.332   3.418   5.444 -0.1188  0.8279  0.0534
 5001SOL    HW126462   3.265   3.375   5.496  1.7583 -3.5838 -1.2070
 5001SOL    HW226463   3.324   3.509   5.473 -1.8626  0.6634  0.0766
 5002SOL     OW26464   0.006   0.283   8.347  0.0793  0.1727  0.1643
 5002SOL    HW126465   4.643   0.314   8.322  0.2213 -1.0429 -1.8410
 5002SOL    HW226466   0.008   0.207   8.289 -0.5427  0.7898 -0.6621
 5003SOL     OW26467   4.351   1.699   7.837 -0.4287 -0.1951 -0.0927
 5003SOL    HW126468   4.410   1.682   7.763 -0.3117 -0.4870  0.0705
 5003SOL    HW226469   4.267   1.653   7.831  0.4955 -1.6872 -1.8835
 5004SOL     OW26470   4.098   1.532  13.899 -0.1086  0.2670 -0.1292
 5004SOL    HW126471   4.087   1.624  13.923  1.3096  0.7911 -1.4308
 5004SOL    HW226472   4.189   1.530  13.929 -0.3918 -0.6935  0.6600
 5005SOL     OW26473   2.183   0.481   2.709 -0.0751  0.0858  0.2724
 5005SOL    HW126474   2.096   0.440   2.710  0.2944 -0.6459  2.1501
 5005SOL    HW226475   2.213   0.465   2.619 -1.9150  1.3052 -0.5693
 5006SOL     OW26476   1.481   1.071   0.875 -0.1246 -0.1063 -0.2965
 5006SOL    HW126477   1.532   1.142   0.837  0.4257  0.0851  0.7996
 5006SOL    HW226478   1.539   1.006   0.834 -2.2455 -0.6322 -2.4400
 5007SOL     OW26479   0.417   0.571  12.243 -0.3995  0.2679 -0.1714
 5007SOL    HW126480   0.462   0.652  12.223 -3.6664  2.3212  0.7292
 5007SOL    HW226481   0.437   0.556  12.336 -0.5215  3.9862  0.4426
 5008SOL     OW26482   2.871   1.852   7.748  0.1756 -0.3288 -0.2118
 5008SOL    HW126483   2.901   1.767   7.717  1.9018  0.0341  0.4571
 5008SOL    HW226484   2.895   1.910   7.677 -0.4410 -1.1364 -1.0786
 5009SOL     OW26485   2.828   2.834   3.457  0.3567  0.3019 -0.0456
 5009SOL    HW126486   2.864   2.871   3.537  1.1770 -1.2627  0.2873
 5009SOL    HW226487   2.751   2.892   3.454  0.6944  0.7995  1.0759
 5010SOL     OW26488   1.205   3.188   2.011  0.0713 -0.0621  0.1263
 5010SOL    HW126489   1.288   3.210   2.052  0.4032 -2.0483  0.5005
 5010SOL    HW226490   1.231   3.133   1.937  0.3650 -1.7695  1.5191
 5011SOL     OW26491   0.740   2.647   3.853  0.1764  0.4156 -0.2321
 5011SOL    HW126492   0.750   2.725   3.799 -1.1372  0.2202 -0.7459
 5011SOL    HW226493   0.651   2.656   3.886  0.9823 -0.6467  2.2420
 5012SOL     OW26494   2.086   2.896   8.068  0.3372 -0.1191  0.2478
 5012SOL    HW126495   2.168   2.944   8.080  1.0188 -1.2333  0.0926
 5012SOL    HW226496   2.079   2.853   8.153  1.8798  0.3118  0.5999
 5013SOL     OW26497   2.668   1.413  16.632 -0.2798  0.5024 -0.4104
 5013SOL    HW126498   2.709   1.378  16.553 -0.8397 -2.6215  0.6760
 5013SOL    HW226499   2.739   1.462  16.674  1.6808 -1.8767 -0.9287
 5014SOL     OW26500   2.397   0.382   9.459 -0.1500 -0.3853  0.5489
 5014SOL    HW126501   2.364   0.456   9.409  0.2983 -1.1533 -0.8644
 5014SOL    HW226502   2.458   0.343   9.397 -0.6921  0.7714 -0.7190
 5015SOL     OW26503   2.069   3.158   5.235 -0.3140 -0.1072 -0.1693
 5015SOL    HW126504   2.077   3.111   5.152 -2.6029 -3.6738  1.6463
 5015SOL    HW226505   2.083   3.087   5.298 -0.7064 -1.4335 -1.5879
 5016SOL     OW26506   0.528   3.250   4.835 -0.1576 -0.2317 -0.1976
 5016SOL    HW126507   0.526   3.241   4.740 -0.1422  1.1453 -0.3287
 5016SOL    HW226508   0.444   3.293   4.853 -0.1288 -1.1764  2.2309
 5017SOL     OW26509   1.745   1.624   7.962 -0.2557 -0.0704  0.3140
 5017SOL    HW126510   1.798   1.570   8.020  2.5014  1.0286 -1.1615
 5017SOL    HW226511   1.735   1.563   7.889  0.6388 -1.4534  1.3384
 5018SOL     OW26512   3.831   1.524   9.435 -0.6306 -0.6466 -0.0622
 5018SOL    HW126513   3.742   1.525   9.469 -0.3521  0.7092  0.6552
 5018SOL    HW226514   3.873   1.505   9.519 -1.8906  2.0240  1.1518
 5019SOL     OW26515   3.737   1.037  10.670  0.5314 -0.3986  0.5184
 5019SOL    HW126516   3.731   1.089  10.750 -0.1003 -1.1404  0.9487
 5019SOL    HW226517   3.832   1.041  10.663  0.6201 -3.6852 -0.2465
 5020SOL     OW26518   0.764   1.745   8.249  0.4299  0.1307 -0.2009
 5020SOL    HW126519   0.805   1.661   8.266  0.2686  0.1931  0.4622
 5020SOL    HW226520   0.763   1.794   8.331  0.7414 -2.0530  1.0885
 5021SOL     OW26521   0.142   4.463   5.581 -0.0475 -0.4087  0.0528
 5021SOL    HW126522   0.135   4.378   5.538  0.0394  0.2403 -1.2517
 5021SOL    HW226523   0.160   4.430   5.669 -0.9799 -0.5546  0.1896
 5022SOL     OW26524   0.338   0.425   2.953  0.0920 -0.1797 -0.6912
 5022SOL    HW126525   0.357   0.380   2.871  0.5428 -0.6678 -0.3212
 5022SOL    HW226526   0.360   0.354   3.014  0.5958  0.3257 -0.2807
 5023SOL     OW26527   1.455   1.717   8.703  0.2321 -0.2070  0.3406
 5023SOL    HW126528   1.427   1.765   8.780 -0.0902  1.9158 -1.1159
 5023SOL    HW226529   1.472   1.629   8.737 -2.0556 -1.0530 -0.6890
 5024SOL     OW26530   2.625   3.037   7.642 -0.5557  0.0285  0.1662
 5024SOL    HW126531   2.553   3.083   7.687  2.3353  2.5852  2.2117
 5024SOL    HW226532   2.647   3.100   7.574 -0.8615  1.2358  1.1709
 5025SOL     OW26533   2.370   2.270   6.060 -0.7138  0.0408 -0.1613
 5025SOL    HW126534   2.432   2.295   6.129 -1.1821 -0.9561  0.6056
 5025SOL    HW226535   2.317   2.346   6.036 -0.3632  0.4927  0.4999
 5026SOL     OW26536   0.543   3.161   3.964  0.0342  0.1236  0.0225
 5026SOL    HW126537   0.569   3.171   3.873 -2.6537  0.1065 -0.7352
 5026SOL    HW226538   0.559   3.070   3.990 -2.8946 -0.0076  1.3393
 5027SOL     OW26539   3.485   2.937   8.598  0.4086 -0.1830 -0.3026
 5027SOL    HW126540   3.524   2.986   8.671 -0.0585 -0.7171  0.3084
 5027SOL    HW226541   3.534   2.971   8.524  0.1318 -2.4405 -1.5287
 5028SOL     OW26542   2.502   2.292   3.472  0.2697 -0.5540  0.0362
 5028SOL    HW126543   2.463   2.273   3.387 -1.3481  2.5547  0.0817
 5028SOL    HW226544   2.581   2.342   3.449 -0.4001  1.1628  1.3922
 5029SOL     OW26545   1.973   1.160   4.678  0.3289 -0.5164  0.3400
 5029SOL    HW126546   1.902   1.215   4.709  1.7117  2.0735 -1.0777
 5029SOL    HW226547   2.020   1.129   4.756 -2.4246 -1.7234  1.4912
 5030SOL     OW26548   2.075   4.227   6.793  0.4498 -0.0019  0.0029
 5030SOL    HW126549   2.093   4.207   6.701 -1.0550 -2.6993  0.2758
 5030SOL    HW226550   1.979   4.227   6.799  0.4534  1.0111 -0.0299
 5031SOL     OW26551   3.389   3.721   2.787 -0.0512 -0.0678  0.4395
 5031SOL    HW126552   3.360   3.739   2.698 -0.1998 -0.2078  0.4606
 5031SOL    HW226553   3.374   3.804   2.834  0.1124  0.0039  0.3648
 5032SOL     OW26554   1.421   0.777   5.029 -0.3940 -0.3399  0.0011
 5032SOL    HW126555   1.499   0.736   5.066 -0.5252  0.1416  0.8285
 5032SOL    HW226556   1.457   0.843   4.972 -1.1710  0.6804  0.6885
 5033SOL     OW26557   3.626   2.652  15.418  0.3693 -0.0676  0.9069
 5033SOL    HW126558   3.582   2.731  15.388 -1.7217 -1.6505 -0.1798
 5033SOL    HW226559   3.629   2.682  15.508  1.0741  1.2038  0.4731
 5034SOL     OW26560   0.231   2.644   8.468 -0.1795  0.0083  0.1277
 5034SOL    HW126561   0.252   2.596   8.548  0.3418 -1.6085 -0.9846
 5034SOL    HW226562   0.284   2.608   8.397 -0.3479 -1.5434  0.7974
 5035SOL     OW26563   2.087   1.746  13.927  0.4371  0.2857 -0.1470
 5035SOL    HW126564   2.149   1.769  13.857  0.2672 -1.7769 -0.9823
 5035SOL    HW226565   2.011   1.800  13.904 -1.4660 -2.0338  0.7214
 5036SOL     OW26566   0.330   4.045   6.037  0.2037 -0.0362  0.0537
 5036SOL    HW126567   0.308   4.111   6.103  0.7851 -0.7880  0.9970
 5036SOL    HW226568   0.298   4.083   5.955 -1.2722 -1.0305  0.1678
 5037SOL     OW26569   0.237   4.270   8.879  0.0588 -0.0716  0.2429
 5037SOL    HW126570   0.332   4.276   8.875  0.0133  1.5908  1.9188
 5037SOL    HW226571   0.209   4.331   8.947  2.3668 -0.4076  1.4978
 5038SOL     OW26572   0.324   0.255  12.547 -0.1194 -0.3969 -0.0462
 5038SOL    HW126573   0.366   0.197  12.483 -0.5191 -2.2509  1.3538
 5038SOL    HW226574   0.235   0.221  12.538 -0.2119 -0.3183  0.5758
 5039SOL     OW26575   1.526   2.501   9.926 -0.2105 -0.2044 -0.3724
 5039SOL    HW126576   1.581   2.501   9.848 -0.2340 -0.9610 -0.3915
 5039SOL    HW226577   1.542   2.408   9.939 -1.4191 -0.3286  0.2325
 5040SOL     OW26578   0.782   3.681   2.738 -0.0078 -0.3351 -0.0982
 5040SOL    HW126579   0.805   3.743   2.668  1.6622  0.0210  0.7738
 5040SOL    HW226580   0.707   3.719   2.783  0.0127 -1.1334  0.5964
 5041SOL     OW26581   4.208   0.598   5.576  0.6626 -0.4067  1.0100
 5041SOL    HW126582   4.133   0.646   5.612  0.9123  0.6156  0.1742
 5041SOL    HW226583   4.267   0.616   5.648 -0.2794  1.8727  1.2335
 5042SOL     OW26584   4.293   3.053   7.936  0.3232 -0.0640  0.6150
 5042SOL    HW126585   4.226   3.029   8.000 -0.8548  0.6739 -0.3237
 5042SOL    HW226586   4.254   3.032   7.851  2.0259  0.0010 -0.1764
 5043SOL     OW26587   3.158   2.172  13.579  0.2235 -0.3194  0.0630
 5043SOL    HW126588   3.181   2.116  13.505 -0.2886 -3.0619  1.9451
 5043SOL    HW226589   3.186   2.258  13.549 -2.5846  0.8796  0.9452
 5044SOL     OW26590   2.307   1.447  12.329 -0.2592 -0.6421  0.3427
 5044SOL    HW126591   2.308   1.537  12.360  0.6423 -0.4929 -0.1250
 5044SOL    HW226592   2.317   1.457  12.234 -0.0435  0.2059  0.4630
 5045SOL     OW26593   0.939   1.279   9.414 -0.5378  0.3293  0.3419
 5045SOL    HW126594   0.933   1.316   9.326 -0.2997 -1.4934 -0.4599
 5045SOL    HW226595   0.913   1.188   9.397 -2.2871  1.1535 -1.3152
 5046SOL     OW26596   4.607   0.431  13.027 -0.2188 -0.0303  0.1524
 5046SOL    HW126597   4.515   0.454  13.043  0.0810 -0.8707  2.9764
 5046SOL    HW226598   4.616   0.337  13.041 -0.2903 -0.1963 -0.9254
 5047SOL     OW26599   4.001   4.701   8.199 -0.4167  0.2305 -0.1177
 5047SOL    HW126600   4.093   4.714   8.176 -0.5693  0.1525 -0.7764
 5047SOL    HW226601   3.962   0.064   8.195 -2.5513 -0.6969  0.1525
 5048SOL     OW26602   4.089   1.567   9.042 -0.1072 -1.2398  0.4552
 5048SOL    HW126603   4.151   1.614   8.987  0.5362  1.1010  3.1525
 5048SOL    HW226604   4.142   1.554   9.120 -0.2805 -0.0210  0.7767
 5049SOL     OW26605   4.168   4.269   6.400  0.0416  0.6568 -1.3048
 5049SOL    HW126606   4.096   4.212   6.426  1.9189 -0.7053  0.9647
 5049SOL    HW226607   4.237   4.244   6.461  1.2606 -0.7550 -3.2368
 5050SOL     OW26608   1.333   3.599   1.732 -0.1172  0.1425  0.0066
 5050SOL    HW126609   1.258   3.657   1.715 -0.5051 -0.7824 -1.4617
 5050SOL    HW226610   1.408   3.657   1.719 -0.3197  0.3636 -0.1821
 5051SOL     OW26611   0.499   2.462   2.644 -0.5094 -0.3863  0.2620
 5051SOL    HW126612   0.469   2.525   2.709  0.1720 -0.4219  0.6144
 5051SOL    HW226613   0.433   2.468   2.576  1.6900 -2.1191 -2.0442
 5052SOL     OW26614   2.158   4.720   1.860 -0.2466 -0.0434  0.3156
 5052SOL    HW126615   2.070   4.697   1.833 -0.1562  0.7291 -0.6376
 5052SOL    HW226616   2.211   4.668   1.799  1.2507  2.8546 -0.8819
 5053SOL     OW26617   1.040   3.310   2.605  0.8717  0.2393 -0.6858
 5053SOL    HW126618   0.997   3.227   2.584 -0.4395  0.8808 -0.5438
 5053SOL    HW226619   1.088   3.333   2.526  1.3390  3.2400  0.4783
 5054SOL     OW26620   4.117   0.754   8.353  0.3507  0.3255  0.4588
 5054SOL    HW126621   4.090   0.753   8.445  1.7995 -2.5106  0.8517
 5054SOL    HW226622   4.205   0.792   8.350 -0.0322  1.2144  0.6613
 5055SOL     OW26623   3.303   1.799   5.093 -0.5478 -0.1778  0.4022
 5055SOL    HW126624   3.220   1.791   5.140 -0.8425 -2.2694 -0.4837
 5055SOL    HW226625   3.321   1.893   5.101  0.4226 -0.0641 -3.2052
 5056SOL     OW26626   4.030   4.477   5.120 -0.3946 -0.4932  0.4176
 5056SOL    HW126627   4.101   4.527   5.160  0.3346 -1.1502 -0.0521
 5056SOL    HW226628   4.075   4.460   5.037  0.1583 -0.6588  0.7505
 5057SOL     OW26629   4.095   4.116   2.797 -0.1778 -0.4287  0.2478
 5057SOL    HW126630   4.117   4.144   2.708 -5.1533 -0.4189 -0.9810
 5057SOL    HW226631   4.181   4.121   2.840  0.6964  0.6535 -1.6498
 5058SOL     OW26632   2.651   2.255   6.530 -0.0279 -0.0781 -0.4303
 5058SOL    HW126633   2.731   2.293   6.568  0.9857 -1.8121 -0.8013
 5058SOL    HW226634   2.635   2.170   6.571  2.8672  0.1761  1.2422
 5059SOL     OW26635   3.409   3.082  14.444 -0.6132 -0.0259  0.7433
 5059SOL    HW126636   3.355   3.003  14.444 -1.1499  0.3389  1.0769
 5059SOL    HW226637   3.475   3.049  14.383 -1.2602  1.1909 -0.6188
 5060SOL     OW26638   3.840   0.735   0.120 -0.3554 -0.5870 -0.0355
 5060SOL    HW126639   3.863   0.738   0.027 -1.1024  2.2571 -0.1321
 5060SOL    HW226640   3.859   0.823   0.153  1.2045 -1.5806  1.7430
 5061SOL     OW26641   1.205   4.614   0.575 -0.6888 -0.3707  0.0535
 5061SOL    HW126642   1.136   4.559   0.612 -0.4196 -1.0876 -0.5257
 5061SOL    HW226643   1.237   4.670   0.646 -0.2137  1.8062 -1.8681
 5062SOL     OW26644   0.888   0.841   1.736 -0.3490 -0.3184  0.3390
 5062SOL    HW126645   0.910   0.931   1.711  3.2114 -1.6113 -1.1729
 5062SOL    HW226646   0.793   0.842   1.750 -0.3547 -0.5106  0.3079
 5063SOL     OW26647   1.302   2.422   1.501  0.5363 -0.7361  0.1165
 5063SOL    HW126648   1.217   2.380   1.509 -0.8580  2.5018  2.2653
 5063SOL    HW226649   1.353   2.341   1.508  0.8875 -0.6644 -1.6391
 5064SOL     OW26650   4.666   3.754  16.117  0.2552  0.2640  0.2302
 5064SOL    HW126651   0.022   3.701  16.114  0.9748  1.3081  0.9717
 5064SOL    HW226652   4.659   3.785  16.027  1.4902 -0.6401 -0.1687
 5065SOL     OW26653   2.622   0.981   8.366  0.6929 -0.0122 -0.2809
 5065SOL    HW126654   2.695   1.007   8.311  0.7047 -3.1185 -1.7389
 5065SOL    HW226655   2.661   0.905   8.410 -2.1018  0.2135  2.6161
 5066SOL     OW26656   2.247   0.861   0.034 -0.4984  0.3904  0.0015
 5066SOL    HW126657   2.290   0.924   0.092 -1.1389 -0.6753  1.6344
 5066SOL    HW226658   2.167   0.842   0.082  0.5897  0.4894  1.8913
 5067SOL     OW26659   1.284   2.808   8.033  0.1547  0.4471 -0.7895
 5067SOL    HW126660   1.229   2.806   8.112 -1.6191  0.4127 -2.0355
 5067SOL    HW226661   1.297   2.713   8.028 -0.4069  0.3680 -0.7645
 5068SOL     OW26662   3.525   2.899   5.505 -0.1688 -0.0809 -0.2590
 5068SOL    HW126663   3.608   2.870   5.467  0.3560  1.0998 -0.0118
 5068SOL    HW226664   3.540   2.976   5.559 -0.8057  1.1834 -1.8607
 5069SOL     OW26665   4.153   3.533   3.888  0.7439  0.5793  0.6002
 5069SOL    HW126666   4.084   3.556   3.950 -1.2587 -0.4268 -1.2584
 5069SOL    HW226667   4.173   3.448   3.926  1.2441  0.3643 -0.1473
 5070SOL     OW26668   3.342   4.605   4.749  0.0789  0.1687 -0.6286
 5070SOL    HW126669   3.279   4.612   4.821 -1.1389  0.0444 -1.6866
 5070SOL    HW226670   3.396   4.530   4.772  0.0291 -0.1309 -1.5053
 5071SOL     OW26671   0.518   4.352   3.789  0.1227  0.1861 -0.5704
 5071SOL    HW126672   0.450   4.405   3.746  0.7322  1.2970 -0.1607
 5071SOL    HW226673   0.533   4.394   3.874  2.0547 -1.8203  0.0678
 5072SOL     OW26674   2.054   2.834   2.092 -0.0473  0.1324 -0.0086
 5072SOL    HW126675   2.149   2.842   2.095  0.0581 -1.4510  1.3016
 5072SOL    HW226676   2.049   2.744   2.124 -1.0577  0.0743 -0.3313
 5073SOL     OW26677   3.723   3.873   3.132 -0.0996 -0.3479 -0.6022
 5073SOL    HW126678   3.664   3.890   3.206 -0.7432 -0.0210 -1.1920
 5073SOL    HW226679   3.807   3.910   3.160 -0.2402  0.5372 -1.3522
 5074SOL     OW26680   3.833   0.658  12.416 -0.0902 -0.2329  0.5673
 5074SOL    HW126681   3.855   0.719  12.487  2.1444  1.7215 -1.8028
 5074SOL    HW226682   3.913   0.608  12.407 -0.2709 -0.3592 -0.2810
 5075SOL     OW26683   2.942   0.526   8.902 -0.7187 -0.0929  0.1659
 5075SOL    HW126684   2.886   0.571   8.965 -1.4882 -1.5687  0.5387
 5075SOL    HW226685   2.898   0.442   8.890  1.6338 -1.1442 -1.1768
 5076SOL     OW26686   4.561   1.918   2.869 -0.4313 -0.6993  0.0274
 5076SOL    HW126687   4.633   1.855   2.860  0.4970  0.5821 -1.4098
 5076SOL    HW226688   4.534   1.933   2.779  1.5601 -1.4920 -0.7054
 5077SOL     OW26689   1.761   0.065   9.981  0.0796 -0.4254  0.4589
 5077SOL    HW126690   1.857   0.066   9.975  0.1148 -0.6760  0.9421
 5077SOL    HW226691   1.751   0.014  10.062  1.1666 -1.2960  0.0410
 5078SOL     OW26692   1.854   2.906   1.779  0.5162 -0.2561 -0.2052
 5078SOL    HW126693   1.926   2.871   1.727 -0.0866 -1.7552 -0.0332
 5078SOL    HW226694   1.788   2.842   1.753 -2.5642  3.6947 -2.0886
 5079SOL     OW26695   3.754   3.808   4.885  0.0797 -0.1275  0.1435
 5079SOL    HW126696   3.739   3.900   4.909  1.1506  0.4103 -1.2752
 5079SOL    HW226697   3.828   3.820   4.826 -0.7214  0.4687 -0.7397
 5080SOL     OW26698   3.463   3.596  16.137 -0.0354 -0.9065  0.0534
 5080SOL    HW126699   3.489   3.584  16.229 -1.2901  0.1778  0.5481
 5080SOL    HW226700   3.370   3.576  16.144 -0.6962  1.7716 -1.0245
 5081SOL     OW26701   0.779   2.189   9.168  0.5866  0.5473 -0.1540
 5081SOL    HW126702   0.770   2.155   9.257  0.6752  0.0370 -0.3398
 5081SOL    HW226703   0.852   2.136   9.136  0.4113  2.1026 -3.0913
 5082SOL     OW26704   2.258   0.424  11.751 -0.4261 -0.0934 -0.2882
 5082SOL    HW126705   2.201   0.478  11.697 -1.1064  0.1812  0.7118
 5082SOL    HW226706   2.333   0.404  11.694  0.7473  0.7944  0.9293
 5083SOL     OW26707   3.693   0.260   2.429 -0.0023  0.1300  0.5461
 5083SOL    HW126708   3.786   0.278   2.416  0.2409 -1.0967  0.5438
 5083SOL    HW226709   3.701   0.181   2.376 -1.7690  0.5527 -0.3634
 5084SOL     OW26710   0.140   0.115   8.861 -0.4583  0.3314  0.1390
 5084SOL    HW126711   0.222   0.073   8.886 -0.7127 -0.0730  0.2923
 5084SOL    HW226712   0.175   0.199   8.831  2.0350 -0.7231  0.0698
 5085SOL     OW26713   3.118   2.698  11.097  0.3268 -0.1890  0.1058
 5085SOL    HW126714   3.174   2.700  11.174 -0.4826  3.1208  0.5960
 5085SOL    HW226715   3.130   2.787  11.065  1.9806 -0.8370 -1.1541
 5086SOL     OW26716   3.830   1.901   0.730 -0.4950 -0.0011  0.2980
 5086SOL    HW126717   3.838   1.983   0.682  1.7468  0.3629  1.2695
 5086SOL    HW226718   3.892   1.841   0.688  0.0349  0.0366  1.0194
 5087SOL     OW26719   2.831   4.026  16.079 -0.4712  0.5229  0.1780
 5087SOL    HW126720   2.919   3.991  16.060 -0.0134  1.3210  0.8358
 5087SOL    HW226721   2.807   4.041  15.988  0.9622 -1.0517 -0.4697
 5088SOL     OW26722   1.806   0.060   5.179 -0.1582  0.5582  0.3439
 5088SOL    HW126723   1.773   0.109   5.104 -1.7912 -2.3260 -0.8190
 5088SOL    HW226724   1.722   0.040   5.220 -0.6764  1.2073 -0.4004
 5089SOL     OW26725   3.067   2.865  14.870 -0.1351  0.5493 -0.0752
 5089SOL    HW126726   3.075   2.952  14.831  0.4060  0.3489 -0.4194
 5089SOL    HW226727   2.972   2.855  14.877 -0.2161  0.7121 -0.9074
 5090SOL     OW26728   3.602   3.948   7.852  0.3661  0.1273  0.1875
 5090SOL    HW126729   3.662   3.931   7.780 -0.9247  1.0247 -1.0923
 5090SOL    HW226730   3.586   3.857   7.879 -0.3470  0.4882  1.0049
 5091SOL     OW26731   2.289   3.985   2.085 -0.0599  0.3557  0.2551
 5091SOL    HW126732   2.238   3.986   2.004  1.1861 -0.2162 -0.5284
 5091SOL    HW226733   2.292   3.891   2.102 -0.5119 -0.1169 -2.3777
 5092SOL     OW26734   1.749   2.617  10.342  0.5111  0.5549 -0.0738
 5092SOL    HW126735   1.655   2.634  10.347  0.3259 -0.2692 -0.7541
 5092SOL    HW226736   1.761   2.603  10.248 -0.3091 -0.8744  0.0339
 5093SOL     OW26737   1.095   1.098   2.761  0.3398  0.3382  0.0889
 5093SOL    HW126738   1.039   1.148   2.821 -0.5466  0.1128 -0.5459
 5093SOL    HW226739   1.130   1.041   2.829  0.3765 -0.1281 -0.3240
 5094SOL     OW26740   4.548   3.416   5.236  0.8898 -0.5373  0.4763
 5094SOL    HW126741   4.475   3.470   5.267  2.4933  0.6097  2.2303
 5094SOL    HW226742   4.535   3.332   5.282  0.4616  0.2618  1.8212
 5095SOL     OW26743   3.420   2.649   6.177  0.2507  0.2843 -0.0819
 5095SOL    HW126744   3.382   2.567   6.146 -0.5826  0.4339  0.5561
 5095SOL    HW226745   3.346   2.697   6.213 -0.3506 -0.3664 -0.4551
 5096SOL     OW26746   3.727   1.869  16.743  0.1953 -0.1186 -0.5824
 5096SOL    HW126747   3.654   1.854  16.683 -0.8834 -2.9723  1.4318
 5096SOL    HW226748   3.691   1.897  16.827 -1.4728 -0.4158 -1.2005
 5097SOL     OW26749   3.419   0.196   9.441  0.7833 -0.8265  0.2757
 5097SOL    HW126750   3.345   0.196   9.380  2.6446  1.8451 -1.9742
 5097SOL    HW226751   3.458   0.112   9.415  0.2366 -0.7178 -0.9055
 5098SOL     OW26752   1.412   1.655   4.470 -0.3312  0.2333 -0.2975
 5098SOL    HW126753   1.456   1.672   4.387  0.2096  1.9671  0.3600
 5098SOL    HW226754   1.328   1.695   4.447  1.1763  3.7497  0.3649
 5099SOL     OW26755   0.684   3.611   8.401  0.2321 -0.5836 -0.6072
 5099SOL    HW126756   0.627   3.629   8.476  0.5088  0.3979 -0.6388
 5099SOL    HW226757   0.743   3.685   8.391  0.2434 -0.3576  1.1337
 5100SOL     OW26758   1.494   3.098   4.649  0.2332 -0.0988 -0.3250
 5100SOL    HW126759   1.509   3.005   4.666 -0.1974  0.6188  4.1087
 5100SOL    HW226760   1.569   3.123   4.703  0.1832  0.7350 -0.6423
 5101SOL     OW26761   1.249   1.886  15.697 -0.5335 -0.2367 -0.2016
 5101SOL    HW126762   1.319   1.928  15.748 -1.1722  0.4056  0.1311
 5101SOL    HW226763   1.186   1.957  15.701 -0.0195  0.0664  2.6538
 5102SOL     OW26764   1.019   0.414   9.525  0.1693 -0.0592 -0.1944
 5102SOL    HW126765   1.113   0.400   9.540 -0.0933 -1.1568  0.4447
 5102SOL    HW226766   1.020   0.506   9.552 -3.1658  0.1043 -0.5931
 5103SOL     OW26767   2.862   2.258   5.815 -0.5304 -0.1206  0.1595
 5103SOL    HW126768   2.892   2.255   5.906  0.7335  1.2995 -0.2101
 5103SOL    HW226769   2.896   2.176   5.781  1.2906  0.2451  1.1073
 5104SOL     OW26770   1.758   4.613  10.195  0.7154 -0.0615 -0.0402
 5104SOL    HW126771   1.745   4.587  10.286  0.8460 -2.8120 -0.8225
 5104SOL    HW226772   1.794   4.531  10.162  1.2848 -0.0804  0.6473
 5105SOL     OW26773   4.499   4.452   8.484 -0.0179  0.3447 -0.0791
 5105SOL    HW126774   4.442   4.469   8.560 -1.2248 -0.2708 -0.8469
 5105SOL    HW226775   4.452   4.476   8.405 -2.3632 -2.9340  0.3183
 5106SOL     OW26776   1.227   2.286  16.726  0.0011  0.5705  0.3333
 5106SOL    HW126777   1.182   2.267  16.808 -2.3486  0.0605 -1.0843
 5106SOL    HW226778   1.166   2.350  16.689 -1.3733 -0.9833 -0.0438
 5107SOL     OW26779   1.294   4.559  14.626 -0.2895 -0.3685  0.6123
 5107SOL    HW126780   1.249   4.643  14.634 -0.8404 -0.8731  2.6486
 5107SOL    HW226781   1.366   4.565  14.689  0.9475  1.4087 -0.9550
 5108SOL     OW26782   0.593   2.646   4.242  0.2413 -0.2958  0.2145
 5108SOL    HW126783   0.592   2.731   4.199 -1.6983 -0.0941  0.6480
 5108SOL    HW226784   0.606   2.661   4.335  0.6575  1.9209 -0.2115
 5109SOL     OW26785   0.128   1.523   7.827  0.3405  0.1018  0.1893
 5109SOL    HW126786   0.099   1.494   7.740  2.4410 -0.7099 -0.2326
 5109SOL    HW226787   0.190   1.593   7.804  1.0630 -0.6203 -0.0366
 5110SOL     OW26788   1.283   2.990  11.284 -0.4460 -0.3128 -0.0386
 5110SOL    HW126789   1.192   2.965  11.268 -0.7357  1.9150 -1.8225
 5110SOL    HW226790   1.339   2.930  11.234  1.0249  2.0328 -1.2011
 5111SOL     OW26791   2.469   2.949   4.433  0.3484 -0.3329 -0.2613
 5111SOL    HW126792   2.502   3.028   4.476  0.6496  0.5569 -2.1324
 5111SOL    HW226793   2.547   2.897   4.453  0.7171 -0.2317 -1.4762
 5112SOL     OW26794   3.651   0.516   2.888 -0.2165 -0.2632  0.2840
 5112SOL    HW126795   3.686   0.572   2.958 -2.2185  0.3607  0.7692
 5112SOL    HW226796   3.708   0.554   2.821  0.3972  2.1216  2.1362
 5113SOL     OW26797   3.865   4.615   8.417  0.7384  0.6101 -0.0745
 5113SOL    HW126798   3.931   4.660   8.469  1.5210  1.0950 -1.4763
 5113SOL    HW226799   3.911   4.620   8.333 -0.7800  0.4081 -0.9120
 5114SOL     OW26800   1.601   1.773   3.820 -0.2893  0.1369  0.5523
 5114SOL    HW126801   1.607   1.868   3.830 -0.2727  0.4621 -2.5448
 5114SOL    HW226802   1.506   1.770   3.808  0.2624 -4.4232 -2.6568
 5115SOL     OW26803   1.353   0.517   2.061 -0.1255  0.4192 -0.2294
 5115SOL    HW126804   1.257   0.514   2.068 -0.2306  0.8689 -1.3877
 5115SOL    HW226805   1.378   0.568   2.138  0.4010 -0.7287  0.3551
 5116SOL     OW26806   4.572   2.430   4.346 -0.0123 -0.1982 -0.5972
 5116SOL    HW126807   4.639   2.476   4.396 -0.6623  1.6149 -1.4100
 5116SOL    HW226808   4.618   2.347   4.359 -0.7619 -0.2565  1.6126
 5117SOL     OW26809   0.251   0.242   3.544 -0.2082  0.5206 -0.2804
 5117SOL    HW126810   0.249   0.306   3.473 -2.0468 -0.1762 -0.8363
 5117SOL    HW226811   0.346   0.228   3.536 -0.4347 -0.9125 -0.3767
 5118SOL     OW26812   3.535   1.487   7.922  0.2007  0.4362 -0.4427
 5118SOL    HW126813   3.548   1.528   8.007  0.1145  0.3625 -0.3935
 5118SOL    HW226814   3.622   1.498   7.883  0.6094 -1.1050  0.0417
 5119SOL     OW26815   1.208   0.680  11.898  0.3086 -0.3151  0.1505
 5119SOL    HW126816   1.224   0.772  11.875 -0.6718  0.1339  1.3082
 5119SOL    HW226817   1.248   0.639  11.821 -1.1338  0.1013 -0.8160
 5120SOL     OW26818   0.389   0.040   8.949  0.1977 -0.3503 -0.2298
 5120SOL    HW126819   0.366   4.698   9.014 -1.4405  0.0846 -0.3644
 5120SOL    HW226820   0.468   0.080   8.985  0.0258 -0.0695 -0.1626
 5121SOL     OW26821   0.533   4.299  16.051  0.1249 -0.0617 -0.0012
 5121SOL    HW126822   0.557   4.311  16.143 -0.8384 -0.3689  0.2922
 5121SOL    HW226823   0.483   4.218  16.056  1.2450 -0.6364  1.9534
 5122SOL     OW26824   0.356   1.836   7.139 -0.6227  0.2366 -0.1911
 5122SOL    HW126825   0.299   1.907   7.168  2.1899  2.6351 -0.4825
 5122SOL    HW226826   0.336   1.827   7.046 -0.8774  2.3873 -0.3449
 5123SOL     OW26827   0.987   0.079  16.622 -0.1314 -0.3068 -0.1765
 5123SOL    HW126828   1.070   0.061  16.666 -1.2714 -1.9283  1.3325
 5123SOL    HW226829   0.951   0.150  16.676 -1.0758 -1.8852  1.2828
 5124SOL     OW26830   3.576   3.034   2.229  0.3057 -0.0287  0.8132
 5124SOL    HW126831   3.487   3.064   2.248  0.0579  0.8549 -1.7954
 5124SOL    HW226832   3.635   3.107   2.246 -0.7778  0.6344  1.7257
 5125SOL     OW26833   0.509   3.457   2.592 -0.4231  0.5481 -0.0132
 5125SOL    HW126834   0.514   3.446   2.687  1.7279 -1.0266 -0.3144
 5125SOL    HW226835   0.449   3.382   2.587  0.1381  0.0194  1.3075
 5126SOL     OW26836   4.270   2.205   9.253 -0.1007 -0.4042  0.1533
 5126SOL    HW126837   4.244   2.286   9.210  0.7467  0.2541  0.8940
 5126SOL    HW226838   4.263   2.220   9.347  1.3741 -1.3247  0.4116
 5127SOL     OW26839   0.530   1.802   4.292  0.2193  0.4880 -0.2291
 5127SOL    HW126840   0.545   1.894   4.269  3.6608  0.1409  0.7416
 5127SOL    HW226841   0.574   1.757   4.220 -0.6837 -0.7244 -0.0197
 5128SOL     OW26842   2.124   0.128   8.494 -0.5870  0.5381  0.0798
 5128SOL    HW126843   2.110   0.141   8.400  1.5978 -3.4918 -0.7969
 5128SOL    HW226844   2.140   0.034   8.492 -1.0235  0.4885 -0.9657
 5129SOL     OW26845   3.671   1.125   7.307  0.0490 -0.3081 -0.6483
 5129SOL    HW126846   3.629   1.070   7.240 -0.7525 -0.4653 -0.0045
 5129SOL    HW226847   3.678   1.064   7.381  2.2861  2.0329  1.0313
 5130SOL     OW26848   3.933   3.863   3.884 -0.0067 -0.1598  0.1135
 5130SOL    HW126849   3.868   3.867   3.814 -0.4228 -0.7830  0.4605
 5130SOL    HW226850   3.929   3.775   3.921  2.1599  0.0373  0.7995
 5131SOL     OW26851   4.547   1.440   2.921 -0.2609 -0.0442 -0.0927
 5131SOL    HW126852   4.546   1.495   2.843  0.5004 -0.7427 -0.5994
 5131SOL    HW226853   4.503   1.498   2.983 -1.2188  0.3317 -1.1267
 5132SOL     OW26854   3.031   3.145   6.029  0.1225 -0.1328 -0.1058
 5132SOL    HW126855   3.111   3.101   6.056  0.3769  0.5033  0.1707
 5132SOL    HW226856   2.991   3.082   5.968  1.6831 -0.7782 -0.4669
 5133SOL     OW26857   4.530   1.489   3.260  0.6675  0.3405  0.1053
 5133SOL    HW126858   4.511   1.423   3.327 -0.1670  2.2459  1.7670
 5133SOL    HW226859   4.618   1.460   3.233  0.5750  0.2939 -0.1446
 5134SOL     OW26860   0.151   1.239   7.773 -0.0084  0.6337 -0.4906
 5134SOL    HW126861   0.201   1.163   7.799 -0.4238  1.2427  2.0489
 5134SOL    HW226862   0.162   1.299   7.847  1.1277 -0.1017 -0.0609
 5135SOL     OW26863   4.245   3.410  14.804  0.1800  0.1953  0.3115
 5135SOL    HW126864   4.181   3.349  14.765 -1.0652  1.4430  0.3892
 5135SOL    HW226865   4.264   3.365  14.886 -0.0424  0.8914  0.7479
 5136SOL     OW26866   2.215   3.333   5.399  0.3002 -0.1017  0.1178
 5136SOL    HW126867   2.157   3.401   5.432  0.9006 -0.0376  1.0342
 5136SOL    HW226868   2.151   3.283   5.349  1.1997  0.2868 -1.4198
 5137SOL     OW26869   4.601   4.210  16.665  0.7199  0.7287 -0.1980
 5137SOL    HW126870   4.655   4.167  16.598 -0.1776 -0.5634 -0.0868
 5137SOL    HW226871   4.574   4.134  16.717  0.7437  2.5021  2.4055
 5138SOL     OW26872   2.254   3.359   3.478  0.4363 -0.2749 -0.5264
 5138SOL    HW126873   2.162   3.334   3.489  0.5393 -0.6456 -0.4865
 5138SOL    HW226874   2.267   3.413   3.556  1.2197 -0.7899 -0.3006
 5139SOL     OW26875   2.037   2.855   5.323  0.2397 -0.5605 -0.0553
 5139SOL    HW126876   1.985   2.886   5.249  0.3361  0.6863  0.3896
 5139SOL    HW226877   1.997   2.774   5.353 -3.7156  1.9484  1.5141
 5140SOL     OW26878   2.253   0.320   3.415 -0.4010 -0.8291  0.2589
 5140SOL    HW126879   2.246   0.224   3.410 -1.5573 -0.6238 -2.0030
 5140SOL    HW226880   2.190   0.344   3.347  0.1075 -0.0314  0.0726
 5141SOL     OW26881   3.034   2.138   3.874  0.1837  0.2663  0.2165
 5141SOL    HW126882   3.007   2.208   3.934 -1.1999 -0.2797  0.2292
 5141SOL    HW226883   3.115   2.112   3.918  1.5142 -2.1388 -3.6722
 5142SOL     OW26884   0.341   1.646  10.323  0.0312 -0.2484  0.1905
 5142SOL    HW126885   0.426   1.602  10.326  0.5256  0.7996  1.5706
 5142SOL    HW226886   0.285   1.574  10.296 -1.3562  1.0669 -0.4231
 5143SOL     OW26887   4.044   2.724  16.148  0.1075  0.0167 -0.3454
 5143SOL    HW126888   4.060   2.752  16.058  0.3289  2.3575  0.4211
 5143SOL    HW226889   3.951   2.705  16.163  0.5672 -0.9618  1.3763
 5144SOL     OW26890   2.445   0.985   1.579  0.1548 -0.2536 -0.9574
 5144SOL    HW126891   2.475   0.947   1.497 -0.2081 -2.3932 -0.0960
 5144SOL    HW226892   2.372   1.042   1.556  0.8908  0.6094 -1.1453
 5145SOL     OW26893   0.034   3.494   4.558  0.1188 -0.0693 -0.2738
 5145SOL    HW126894   0.034   3.552   4.634  0.0947 -0.7888  0.2778
 5145SOL    HW226895   4.679   3.443   4.577 -0.2343  0.1849 -1.0527
 5146SOL     OW26896   3.788   2.389   9.171 -0.1531  0.7042 -0.2720
 5146SOL    HW126897   3.792   2.482   9.151  0.5875  0.5665 -0.7749
 5146SOL    HW226898   3.795   2.392   9.267 -1.6357  0.4466 -0.1533
 5147SOL     OW26899   1.079   3.640   8.423 -0.5506 -0.1155 -0.1040
 5147SOL    HW126900   1.027   3.708   8.382  0.4842  0.8499  0.1783
 5147SOL    HW226901   1.052   3.559   8.380 -1.4824 -0.2479  0.7385
 5148SOL     OW26902   4.133   2.486   3.190 -0.0131 -0.1984 -0.1454
 5148SOL    HW126903   4.076   2.508   3.264 -1.0535  2.1687 -1.6406
 5148SOL    HW226904   4.221   2.502   3.223  0.0929  1.1221 -1.0416
 5149SOL     OW26905   2.792   1.979  11.281  0.0072  0.0420  0.5964
 5149SOL    HW126906   2.709   2.017  11.311 -0.6389 -1.4495  0.7212
 5149SOL    HW226907   2.795   1.890  11.314 -1.6950  0.3462  1.5906
 5150SOL     OW26908   3.937   0.239   8.042 -0.3693 -0.2037 -0.2422
 5150SOL    HW126909   3.936   0.180   7.966  0.0379  0.6479 -0.9148
 5150SOL    HW226910   3.953   0.325   8.002  0.4852  0.1089  0.7768
 5151SOL     OW26911   0.212   2.291   0.471  0.3113 -0.0438 -1.0516
 5151SOL    HW126912   0.193   2.273   0.563  1.5656  0.4438 -0.6878
 5151SOL    HW226913   0.165   2.214   0.439 -0.0806  1.1574 -3.3268
 5152SOL     OW26914   2.592   4.296  15.370 -0.2641  0.0944  0.3622
 5152SOL    HW126915   2.570   4.374  15.421  0.7840  0.8415 -0.3179
 5152SOL    HW226916   2.671   4.333  15.329 -0.2645  0.1933  0.4510
 5153SOL     OW26917   0.039   0.164   6.955  0.3227 -0.0111  0.3686
 5153SOL    HW126918   0.078   0.240   6.999  1.6229 -0.0788 -0.6739
 5153SOL    HW226919   0.019   0.124   7.039 -0.4704 -1.4186 -0.5005
 5154SOL     OW26920   4.530   0.813   1.366  0.1541  0.4431 -0.2891
 5154SOL    HW126921   4.505   0.821   1.458 -0.0522  1.5029 -0.4339
 5154SOL    HW226922   4.466   0.743   1.351 -0.3844  0.6856  0.8626
 5155SOL     OW26923   1.120   1.997   6.460 -0.4492  0.2153 -0.4497
 5155SOL    HW126924   1.207   1.957   6.451 -0.2373  0.5522  0.0839
 5155SOL    HW226925   1.097   2.035   6.375 -1.8667  0.8132  0.2005
 5156SOL     OW26926   3.689   0.722   7.885 -0.2848  0.3800 -0.2062
 5156SOL    HW126927   3.644   0.744   7.967  1.7113  0.9986  0.7114
 5156SOL    HW226928   3.678   0.627   7.887 -1.8505  0.4938 -2.5435
 5157SOL     OW26929   1.714   1.079   3.060 -0.0881  0.0017 -0.0383
 5157SOL    HW126930   1.761   1.053   2.980  0.6838 -1.5852  0.9375
 5157SOL    HW226931   1.757   1.164   3.075 -0.9109  0.3108  0.6061
 5158SOL     OW26932   0.037   0.965  10.582 -0.4121  0.3510 -0.0137
 5158SOL    HW126933   0.074   0.939  10.667  0.5664 -3.2394 -1.5163
 5158SOL    HW226934   0.021   0.883  10.534  1.4429  0.5394 -0.9319
 5159SOL     OW26935   0.769   3.055   5.980 -0.0333  0.1224  0.1372
 5159SOL    HW126936   0.757   3.106   5.900 -2.2023  1.5592  1.3988
 5159SOL    HW226937   0.861   3.068   6.003  0.5203 -1.4278 -1.1139
 5160SOL     OW26938   3.369   0.394   7.944 -0.1027  0.1091  0.0265
 5160SOL    HW126939   3.333   0.311   7.911 -3.1983  0.5449  2.2490
 5160SOL    HW226940   3.372   0.372   8.037  0.8455  0.5732  0.1008
 5161SOL     OW26941   2.232   3.512   7.403  0.1205 -0.5001  0.3010
 5161SOL    HW126942   2.311   3.507   7.348 -1.1540  0.4716 -1.6250
 5161SOL    HW226943   2.269   3.544   7.485 -0.3791  1.8154 -0.3750
 5162SOL     OW26944   4.667   0.795   2.855 -0.2862 -0.6900 -0.3530
 5162SOL    HW126945   0.013   0.748   2.900  1.9793  2.2906 -0.7928
 5162SOL    HW226946   4.713   0.818   2.774  0.5951  2.4990  1.0491
 5163SOL     OW26947   3.024   1.258   6.912  0.4252  0.1366  0.1074
 5163SOL    HW126948   2.990   1.325   6.853  2.1659 -0.6596 -1.7992
 5163SOL    HW226949   3.112   1.294   6.927  0.5341 -0.4491  0.8817
 5164SOL     OW26950   4.142   2.004   4.057 -0.0818 -0.6523  0.1117
 5164SOL    HW126951   4.117   1.919   4.094 -2.3568 -0.9583 -2.1424
 5164SOL    HW226952   4.056   2.033   4.028 -0.8303 -1.5505  1.4130
 5165SOL     OW26953   2.691   0.720   3.762  0.2824  1.2689 -0.5502
 5165SOL    HW126954   2.757   0.675   3.711 -1.0372 -1.6362  0.2797
 5165SOL    HW226955   2.616   0.662   3.747  2.6341 -1.5087 -1.6927
 5166SOL     OW26956   1.348   2.180   4.191 -0.1616  0.0663  0.3755
 5166SOL    HW126957   1.432   2.147   4.223  1.5646  1.8783 -2.3578
 5166SOL    HW226958   1.336   2.130   4.110  0.0132 -0.6797  0.8095
 5167SOL     OW26959   2.929   3.717   6.746  0.3929  0.3195  0.2781
 5167SOL    HW126960   3.006   3.661   6.736  0.0574 -0.2985  1.1292
 5167SOL    HW226961   2.862   3.666   6.700  1.3454  0.8222 -1.6624
 5168SOL     OW26962   3.323   2.582   2.792 -0.6822 -0.3461 -0.2851
 5168SOL    HW126963   3.405   2.631   2.790 -0.6869 -0.3127  0.1827
 5168SOL    HW226964   3.340   2.522   2.719  0.1974 -0.4072 -0.0323
 5169SOL     OW26965   2.257   1.834  13.751  0.4537  0.2654 -0.6985
 5169SOL    HW126966   2.202   1.843  13.673  1.5918  2.8854 -1.2148
 5169SOL    HW226967   2.293   1.922  13.761 -1.2766  0.8174  0.6672
 5170SOL     OW26968   0.681   0.807   2.508 -0.7235  0.4386  0.2059
 5170SOL    HW126969   0.614   0.746   2.477 -0.2843  0.9092 -1.6720
 5170SOL    HW226970   0.673   0.789   2.602  1.3802 -1.0846  0.1107
 5171SOL     OW26971   0.810   2.215   4.138  0.5353  0.2273  1.0105
 5171SOL    HW126972   0.893   2.188   4.100  0.1260  0.8615 -0.3553
 5171SOL    HW226973   0.810   2.305   4.106  0.4512  0.2907  1.1881
 5172SOL     OW26974   2.720   3.038   1.494  0.4045  0.1511  0.2691
 5172SOL    HW126975   2.754   3.127   1.482  0.3829  0.3415  1.6652
 5172SOL    HW226976   2.634   3.050   1.453 -0.0288  0.2487  1.2105
 5173SOL     OW26977   1.804   2.700   6.143 -0.0146 -0.2182 -0.6976
 5173SOL    HW126978   1.807   2.795   6.141  0.4530 -0.2224  0.3881
 5173SOL    HW226979   1.852   2.687   6.224  1.9673  0.3901 -1.7798
 5174SOL     OW26980   3.907   2.773   2.960  0.2287  0.0495 -0.1886
 5174SOL    HW126981   3.892   2.680   2.941 -0.7059  0.3055 -0.6851
 5174SOL    HW226982   3.899   2.800   2.868 -2.7937 -0.1365  0.0330
 5175SOL     OW26983   3.276   3.222   3.262 -0.1558 -0.0752 -0.1719
 5175SOL    HW126984   3.339   3.295   3.262  0.7015 -0.8152 -1.5760
 5175SOL    HW226985   3.286   3.193   3.352 -2.2392 -0.2091  0.0094
 5176SOL     OW26986   1.030   2.041  15.670 -0.6166  0.0037  0.4616
 5176SOL    HW126987   0.991   2.019  15.754 -0.0161 -0.6552  0.5639
 5176SOL    HW226988   0.950   2.060  15.621  0.0207  0.4830 -0.3907
 5177SOL     OW26989   1.581   0.970   1.724 -0.0830 -0.7897  0.7665
 5177SOL    HW126990   1.491   0.962   1.693 -0.7316 -1.9103  2.9497
 5177SOL    HW226991   1.569   0.934   1.812 -0.1696  1.9101  1.8876
 5178SOL     OW26992   0.686   2.209   2.098 -0.2788 -0.9208 -0.2796
 5178SOL    HW126993   0.615   2.222   2.035  0.4181  1.6570 -0.5453
 5178SOL    HW226994   0.643   2.231   2.181 -0.8746 -2.2580 -0.2354
 5179SOL     OW26995   1.425   0.528   2.647 -0.2007  0.0475 -0.3703
 5179SOL    HW126996   1.338   0.490   2.657  0.4828 -1.2225  0.5804
 5179SOL    HW226997   1.456   0.487   2.566 -2.5516  0.3779 -1.4522
 5180SOL     OW26998   3.338   3.662   3.767  0.3101  0.8341 -0.1355
 5180SOL    HW126999   3.429   3.635   3.779 -0.1597 -0.9698 -0.6927
 5180SOL    HW227000   3.306   3.581   3.727  0.0902  1.2052 -0.7197
 5181SOL     OW27001   0.354   4.047   5.725  0.6690 -0.5638  0.1254
 5181SOL    HW127002   0.422   4.104   5.760  1.0811  1.3148 -3.6436
 5181SOL    HW227003   0.279   4.107   5.733 -0.3066 -1.6726 -0.6245
 5182SOL     OW27004   2.618   2.197   1.586  0.0445 -0.2675 -0.4432
 5182SOL    HW127005   2.644   2.106   1.581 -1.3791 -0.7305  0.3727
 5182SOL    HW227006   2.524   2.190   1.569  0.0479 -1.1246 -0.1193
 5183SOL     OW27007   1.287   3.208   8.199  0.0238 -0.0853  0.2257
 5183SOL    HW127008   1.337   3.186   8.120 -1.4751  3.1793 -1.6609
 5183SOL    HW227009   1.209   3.152   8.192 -0.8383  1.2378 -0.8892
 5184SOL     OW27010   3.534   3.207   6.708  0.0156  0.0089  0.2811
 5184SOL    HW127011   3.598   3.166   6.765  1.6348  1.9135 -0.1706
 5184SOL    HW227012   3.469   3.219   6.777  0.9319  3.3372  0.5858
 5185SOL     OW27013   0.505   1.526   8.173 -0.1658  0.6788 -0.4229
 5185SOL    HW127014   0.477   1.609   8.211 -1.2144  1.5900 -3.1652
 5185SOL    HW227015   0.558   1.494   8.246 -0.9155 -0.0926 -0.2132
 5186SOL     OW27016   2.541   4.048   2.060 -0.0163  0.3249  0.3746
 5186SOL    HW127017   2.449   4.025   2.064  1.0571 -3.8551  1.2458
 5186SOL    HW227018   2.547   4.115   1.993  1.2022  1.6286  1.7731
 5187SOL     OW27019   1.040   3.138   7.347 -0.1950  0.2914  0.2562
 5187SOL    HW127020   1.057   3.073   7.414 -1.1467 -1.0252 -0.7952
 5187SOL    HW227021   0.987   3.202   7.393 -1.1269 -0.2125 -0.1260
 5188SOL     OW27022   0.872   2.723   5.495  0.1798  0.0159  0.0422
 5188SOL    HW127023   0.877   2.743   5.402  0.4915  1.1477  0.3031
 5188SOL    HW227024   0.782   2.690   5.494  0.6986 -1.4918  1.7430
 5189SOL     OW27025   1.300   3.180   7.782  0.0370  0.3318  0.1793
 5189SOL    HW127026   1.379   3.232   7.764  0.2507  1.0114  3.0499
 5189SOL    HW227027   1.330   3.098   7.821 -0.5461 -0.1106 -0.3144
 5190SOL     OW27028   2.215   4.584   4.020  0.0622 -0.1782  0.5955
 5190SOL    HW127029   2.302   4.545   4.027  1.0596  1.7541 -0.9332
 5190SOL    HW227030   2.224   4.676   3.998  0.4723 -0.6672 -1.3322
 5191SOL     OW27031   2.000   2.254   6.538 -0.2143 -0.2690  0.4956
 5191SOL    HW127032   2.057   2.320   6.575  1.5663 -0.7961 -1.3109
 5191SOL    HW227033   2.056   2.219   6.469 -0.5888  0.6725 -0.2828
 5192SOL     OW27034   3.847   1.477  14.009 -0.4053 -0.2656  0.6607
 5192SOL    HW127035   3.817   1.475  13.918 -1.0168  1.0014  0.8249
 5192SOL    HW227036   3.941   1.490  13.999 -0.6794  1.3214  0.1457
 5193SOL     OW27037   0.053   0.710   4.191 -0.3344 -0.3311 -0.1470
 5193SOL    HW127038   4.694   0.759   4.190 -0.7325 -1.0709 -3.0430
 5193SOL    HW227039   0.080   0.717   4.282 -2.3094 -2.3542  0.6007
 5194SOL     OW27040   2.664   2.141  14.982 -0.4348  0.1915 -0.3015
 5194SOL    HW127041   2.638   2.080  14.913  1.1243  0.5833 -1.2364
 5194SOL    HW227042   2.634   2.226  14.949  0.7605  0.3405 -1.0435
 5195SOL     OW27043   3.788   2.771   3.918  0.3119  0.1357 -0.1609
 5195SOL    HW127044   3.740   2.794   3.997  0.1421  1.5297 -0.6718
 5195SOL    HW227045   3.723   2.786   3.849  0.4680 -0.4161 -0.4340
 5196SOL     OW27046   2.237   3.859   8.344 -0.4000 -0.0932 -0.2594
 5196SOL    HW127047   2.161   3.815   8.382 -0.2365 -0.1725 -0.0200
 5196SOL    HW227048   2.262   3.922   8.412  1.6790  0.3741 -1.4638
 5197SOL     OW27049   1.282   2.678  14.614  0.1328  0.1792 -0.2543
 5197SOL    HW127050   1.233   2.742  14.667  2.0504  1.9194 -0.5661
 5197SOL    HW227051   1.245   2.592  14.634 -3.9935  1.7830 -0.8808
 5198SOL     OW27052   1.510   4.316  12.609 -0.4907 -0.3713 -0.1006
 5198SOL    HW127053   1.551   4.242  12.654  2.1653  1.4298  0.3973
 5198SOL    HW227054   1.468   4.268  12.537  1.0406  2.0229 -2.5860
 5199SOL     OW27055   2.275   0.369  15.787 -0.2290 -0.1971  0.4191
 5199SOL    HW127056   2.315   0.305  15.728  0.8090 -0.2812  1.2073
 5199SOL    HW227057   2.205   0.314  15.821 -0.2651 -0.5126 -0.1754
 5200SOL     OW27058   0.488   3.546   0.437 -0.5938  0.4711  0.5671
 5200SOL    HW127059   0.533   3.462   0.446 -1.9339 -0.2992  0.1176
 5200SOL    HW227060   0.492   3.548   0.341 -0.7932  0.5562  0.5602
 5201SOL     OW27061   3.018   2.185  12.985  0.2579  0.5157  0.2855
 5201SOL    HW127062   3.045   2.146  12.902 -0.8263  0.1476  0.1086
 5201SOL    HW227063   2.924   2.196  12.971  0.4457  1.9072  0.1369
 5202SOL     OW27064   0.843   0.062  13.387 -0.8627  0.1927  0.6129
 5202SOL    HW127065   0.915   0.034  13.330 -0.7440 -1.7047  1.7092
 5202SOL    HW227066   0.836   4.704  13.436 -0.2528 -0.9549 -1.1905
 5203SOL     OW27067   1.366   2.638   1.072  0.1373  0.0375 -0.4306
 5203SOL    HW127068   1.311   2.608   1.145  0.8013  1.5706  0.6944
 5203SOL    HW227069   1.305   2.695   1.026 -1.8554 -0.9158  1.0488
 5204SOL     OW27070   1.261   1.848   4.338 -0.4750  0.1826 -0.6344
 5204SOL    HW127071   1.297   1.837   4.250  0.4191  0.0649 -0.2558
 5204SOL    HW227072   1.169   1.853   4.315 -0.9785  1.0045  1.5739
 5205SOL     OW27073   3.807   1.622  11.830 -0.0686 -0.3992 -0.3090
 5205SOL    HW127074   3.833   1.540  11.787  0.2954 -0.6341  0.3670
 5205SOL    HW227075   3.892   1.665  11.840  0.7274 -2.1886  0.5501
 5206SOL     OW27076   4.071   2.264   5.350  0.2244  0.1220 -0.2979
 5206SOL    HW127077   4.081   2.212   5.270 -0.7487 -0.7532  0.1396
 5206SOL    HW227078   4.159   2.294   5.370  0.7220 -0.8908 -0.9884
 5207SOL     OW27079   1.550   2.250   6.170 -0.0609  0.4205 -0.5714
 5207SOL    HW127080   1.531   2.207   6.253 -0.3139 -0.1915 -0.9517
 5207SOL    HW227081   1.477   2.227   6.113  0.8994  2.0863 -2.5197
 5208SOL     OW27082   1.513   3.447   5.666  0.1246 -0.1510  0.6515
 5208SOL    HW127083   1.584   3.395   5.704  1.5223 -0.9562 -3.0901
 5208SOL    HW227084   1.520   3.538   5.694 -1.6781  0.1858 -0.0208
 5209SOL     OW27085   1.758   4.638   7.626  0.0324  0.0767 -0.3821
 5209SOL    HW127086   1.768   4.697   7.551 -0.9554  0.1760 -0.4423
 5209SOL    HW227087   1.775   4.705   7.692  2.0886 -0.8646  0.0400
 5210SOL     OW27088   1.865   4.243   5.102 -0.0551  0.1329  0.2656
 5210SOL    HW127089   1.911   4.159   5.112  0.4787  0.3395 -0.4801
 5210SOL    HW227090   1.922   4.290   5.041 -0.2171  1.3540  1.0705
 5211SOL     OW27091   0.512   0.640   7.310  0.3024 -0.7445 -0.1694
 5211SOL    HW127092   0.555   0.725   7.315 -1.8206  0.4183 -1.5906
 5211SOL    HW227093   0.449   0.642   7.381  0.2473 -0.1020 -0.2388
 5212SOL     OW27094   1.388   3.221  13.640 -0.2630  0.0282 -0.1972
 5212SOL    HW127095   1.420   3.193  13.554  2.3481  0.9373  0.4820
 5212SOL    HW227096   1.295   3.211  13.622 -0.5621 -0.0922  1.4745
 5213SOL     OW27097   3.349   0.229   8.231  0.2464 -0.3823  0.4811
 5213SOL    HW127098   3.299   0.290   8.285  2.1200  1.2073  0.4180
 5213SOL    HW227099   3.420   0.208   8.292  2.3083  4.4157 -0.2565
 5214SOL     OW27100   2.700   1.989   4.843 -0.6604 -0.7006 -0.6036
 5214SOL    HW127101   2.788   2.011   4.871 -1.6535  2.3685  0.0592
 5214SOL    HW227102   2.653   2.072   4.850  2.2470  0.9536 -0.6104
 5215SOL     OW27103   0.768   2.956   9.572 -0.5027 -0.5874  0.0816
 5215SOL    HW127104   0.681   2.926   9.598 -1.9375  1.5685 -2.2597
 5215SOL    HW227105   0.753   3.042   9.534 -0.8259  0.4868  2.6483
 5216SOL     OW27106   4.575   0.125   8.915  0.7045 -0.7381  0.0261
 5216SOL    HW127107   4.666   0.145   8.895 -0.6030  1.9040 -3.2997
 5216SOL    HW227108   4.566   0.098   9.007 -0.2054  0.4300  0.2791
 5217SOL     OW27109   2.142   1.157   8.006  0.0197 -0.2636 -0.4990
 5217SOL    HW127110   2.077   1.160   7.936 -1.4554  1.3140  0.9652
 5217SOL    HW227111   2.228   1.159   7.963  0.4236 -0.1381  0.3117
 5218SOL     OW27112   3.663   0.449   7.855 -0.2852 -0.1254  0.3382
 5218SOL    HW127113   3.620   0.393   7.920  1.2361 -1.2970  0.3238
 5218SOL    HW227114   3.676   0.400   7.774 -2.4856  1.1205 -0.7661
 5219SOL     OW27115   0.203   2.938   9.882  0.1518 -0.0378  0.2919
 5219SOL    HW127116   0.236   3.024   9.856 -0.1614 -0.2682 -0.8594
 5219SOL    HW227117   0.250   2.886   9.817  0.8865 -0.2348  0.9771
 5220SOL     OW27118   4.210   1.054  13.809  0.1160 -0.5792  0.0634
 5220SOL    HW127119   4.131   1.097  13.775 -1.0862 -2.0809  0.9593
 5220SOL    HW227120   4.251   1.040  13.724 -1.2139 -0.8384 -0.5480
 5221SOL     OW27121   4.610   2.834   1.633  0.7895 -0.4297  0.2132
 5221SOL    HW127122   4.692   2.785   1.630 -0.2243 -2.1548  0.7813
 5221SOL    HW227123   4.552   2.783   1.576  0.2332  1.5808 -1.0214
 5222SOL     OW27124   2.604   3.414   5.873  0.3269  0.3479  0.2948
 5222SOL    HW127125   2.544   3.439   5.803 -1.3876 -1.6789  1.0365
 5222SOL    HW227126   2.622   3.499   5.913 -1.4632  1.4575 -1.2541
 5223SOL     OW27127   4.019   1.208  14.624  0.3486  0.0684  0.0915
 5223SOL    HW127128   4.097   1.241  14.669 -0.0251 -1.4911  1.8954
 5223SOL    HW227129   3.981   1.156  14.695  0.9255  0.2851  0.5593
 5224SOL     OW27130   3.226   0.752  16.641  0.0261 -0.3381  0.0606
 5224SOL    HW127131   3.220   0.809  16.565 -1.0846  0.4540  0.7301
 5224SOL    HW227132   3.143   0.765  16.687 -0.0185  1.4885 -0.5504
 5225SOL     OW27133   0.484   3.682   8.642  0.4803 -0.8310 -0.5749
 5225SOL    HW127134   0.545   3.756   8.650 -0.9683  0.3382 -0.2956
 5225SOL    HW227135   0.400   3.727   8.648  1.4970  1.3521 -2.6773
 5226SOL     OW27136   4.380   3.870  11.674 -0.4890 -0.3900  0.1533
 5226SOL    HW127137   4.396   3.820  11.754 -2.0519  1.6074  1.7165
 5226SOL    HW227138   4.294   3.844  11.640  0.2487  0.2040 -2.1698
 5227SOL     OW27139   3.648   0.527   4.343  0.3809  0.2534 -0.3879
 5227SOL    HW127140   3.687   0.596   4.396 -1.4911  0.2007  1.0445
 5227SOL    HW227141   3.726   0.472   4.333 -0.7305 -1.3344 -0.3339
 5228SOL     OW27142   2.797   3.272   7.824  0.0356  0.4731 -0.2665
 5228SOL    HW127143   2.802   3.361   7.790 -0.9716  0.7255  0.2536
 5228SOL    HW227144   2.708   3.241   7.813 -0.2271  0.6799  1.2680
 5229SOL     OW27145   1.142   3.330   3.342 -0.3667  0.9734 -0.3993
 5229SOL    HW127146   1.130   3.421   3.315 -0.5597  0.9601 -0.3569
 5229SOL    HW227147   1.099   3.294   3.265 -0.6262  1.9156 -0.6908
 5230SOL     OW27148   4.290   2.492   1.253 -0.2219  0.0805  0.0955
 5230SOL    HW127149   4.317   2.411   1.296  0.3431  0.6456  0.8043
 5230SOL    HW227150   4.202   2.491   1.290  0.0659  0.0268  0.7801
 5231SOL     OW27151   0.627   0.507   2.632 -0.1808 -0.5201 -0.1893
 5231SOL    HW127152   0.566   0.524   2.561 -1.8475  1.8075  1.8135
 5231SOL    HW227153   0.621   0.590   2.680  0.0171  0.2575 -1.5199
 5232SOL     OW27154   0.619   4.574  14.931  0.2426 -0.3391 -0.5097
 5232SOL    HW127155   0.655   4.613  15.010  3.0492 -3.0004 -0.4546
 5232SOL    HW227156   0.688   4.596  14.868  1.3878  0.8604  1.1790
 5233SOL     OW27157   4.207   0.834   8.868 -0.0438 -0.4230  0.5442
 5233SOL    HW127158   4.158   0.860   8.946  1.0120  2.5657  0.2272
 5233SOL    HW227159   4.283   0.892   8.864 -0.1951 -0.2247  0.5221
 5234SOL     OW27160   1.797   1.935  10.529  0.3581 -0.1933  0.0912
 5234SOL    HW127161   1.807   2.029  10.510  1.5766 -0.2178  0.6548
 5234SOL    HW227162   1.775   1.940  10.622  0.5299  0.2659  0.1107
 5235SOL     OW27163   0.048   2.943   4.087 -0.4135 -0.2171  0.1270
 5235SOL    HW127164   0.070   3.036   4.090  1.3112 -0.5955 -1.4206
 5235SOL    HW227165   4.714   2.930   4.163  2.6165 -2.3451  2.0555
 5236SOL     OW27166   2.592   1.128   3.503 -0.3059 -0.6527 -0.7378
 5236SOL    HW127167   2.670   1.091   3.461  0.9910  0.1592  0.9934
 5236SOL    HW227168   2.600   1.073   3.581 -0.3995  2.3846  1.4049
 5237SOL     OW27169   1.371   1.727   5.871 -0.2642 -0.1081  0.5501
 5237SOL    HW127170   1.393   1.634   5.872 -1.1019 -0.3132  0.3047
 5237SOL    HW227171   1.292   1.722   5.817 -0.2556  3.3797  0.1874
 5238SOL     OW27172   2.092   2.709  17.505 -0.0811 -0.1019  0.0620
 5238SOL    HW127173   2.045   2.634  17.541 -0.3656 -0.0346 -0.1716
 5238SOL    HW227174   2.184   2.686  17.520  0.1542  0.4955 -0.4484
 5239SOL     OW27175   1.434   1.274   4.295  0.5601  0.4476 -0.2684
 5239SOL    HW127176   1.528   1.290   4.302  0.3629  1.4362  0.1385
 5239SOL    HW227177   1.423   1.295   4.202 -0.1296 -0.3102 -0.3572
 5240SOL     OW27178   3.462   1.875  12.143  0.0280 -0.3002  0.0017
 5240SOL    HW127179   3.442   1.811  12.074 -2.8481  0.0232  0.5392
 5240SOL    HW227180   3.544   1.838  12.174 -0.1425  0.4066  1.3103
 5241SOL     OW27181   3.296   1.565   8.514 -0.5111 -0.0137  0.0651
 5241SOL    HW127182   3.390   1.548   8.527 -0.5663 -0.2884  0.1013
 5241SOL    HW227183   3.284   1.640   8.571 -1.4550  0.0027 -0.1689
 5242SOL     OW27184   3.530   1.654   9.976  0.8360  0.2654  0.0405
 5242SOL    HW127185   3.478   1.602   9.915  1.9468  0.5260 -1.1328
 5242SOL    HW227186   3.465   1.699  10.029 -0.8490  1.1388 -2.8007
 5243SOL     OW27187   4.281   3.519   4.216  0.0159 -0.0366 -0.6768
 5243SOL    HW127188   4.191   3.489   4.225  0.6637 -1.2792  1.7764
 5243SOL    HW227189   4.320   3.454   4.157  1.6837 -0.8294  1.2861
 5244SOL     OW27190   3.133   1.715   6.428 -0.6188 -0.4219 -0.6129
 5244SOL    HW127191   3.083   1.637   6.405  0.5218 -1.9832  2.1191
 5244SOL    HW227192   3.115   1.732   6.520  0.3516 -1.0470 -0.3004
 5245SOL     OW27193   4.153   2.995   3.526 -0.1313  0.4462 -0.7409
 5245SOL    HW127194   4.123   3.084   3.506  0.2834  0.4771 -1.2222
 5245SOL    HW227195   4.114   2.969   3.610  2.5948 -0.3973  0.2654
 5246SOL     OW27196   1.872   0.562   5.503  0.1033 -0.0236 -0.2437
 5246SOL    HW127197   1.960   0.585   5.475 -0.0478  1.4947  0.4959
 5246SOL    HW227198   1.870   0.466   5.500 -0.0256 -0.0528  0.6696
 5247SOL     OW27199   4.317   2.588   8.665 -0.3730  0.0100 -0.3414
 5247SOL    HW127200   4.348   2.669   8.707  1.9074 -0.6129 -0.8151
 5247SOL    HW227201   4.398   2.538   8.655 -0.4209 -0.5332  1.8392
 5248SOL     OW27202   1.245   0.779   0.840  0.4709 -0.6848 -0.0547
 5248SOL    HW127203   1.283   0.782   0.927  1.8815 -1.1405 -0.6565
 5248SOL    HW227204   1.313   0.821   0.788 -1.5641  1.0975 -1.2944
 5249SOL     OW27205   3.635   3.138   4.329  0.5418  0.8260 -0.1644
 5249SOL    HW127206   3.703   3.127   4.263 -0.6528 -2.5721 -0.8604
 5249SOL    HW227207   3.686   3.157   4.408 -1.3821  0.0816  1.2630
 5250SOL     OW27208   0.156   2.843   9.202  0.5794 -0.5054  0.0665
 5250SOL    HW127209   0.203   2.915   9.243  1.1162  0.6093 -2.4889
 5250SOL    HW227210   0.176   2.770   9.262 -0.0190 -2.9227 -2.6538
 5251SOL     OW27211   1.592   3.220  15.131  0.0653 -0.1050  0.2034
 5251SOL    HW127212   1.656   3.212  15.061  1.0535 -0.8335  1.2003
 5251SOL    HW227213   1.645   3.276  15.187 -1.1719  2.8560 -1.5750
 5252SOL     OW27214   2.673   3.935   7.280 -0.1460 -0.2084  0.1923
 5252SOL    HW127215   2.693   3.950   7.188  0.5210  1.7475  0.6500
 5252SOL    HW227216   2.751   3.891   7.315  1.0417  1.2038 -0.6802
 5253SOL     OW27217   4.373   2.619  16.385  0.0863  0.2286 -0.0635
 5253SOL    HW127218   4.316   2.682  16.429 -0.3547 -0.4937  0.3860
 5253SOL    HW227219   4.462   2.656  16.387  0.7703 -1.5608  1.9542
 5254SOL     OW27220   0.614   0.769   5.800  0.1946  0.2158 -0.0475
 5254SOL    HW127221   0.695   0.719   5.815  0.5349  0.6962 -0.2840
 5254SOL    HW227222   0.552   0.703   5.769  0.2904  0.5658 -0.9973
 5255SOL     OW27223   3.369   0.814  12.419  0.3491 -0.8465 -0.0691
 5255SOL    HW127224   3.275   0.806  12.399 -0.0568  1.4819  0.8423
 5255SOL    HW227225   3.384   0.893  12.367  0.5511 -1.5797 -1.1183
 5256SOL     OW27226   1.754   1.052   6.541  0.3364 -0.4342 -0.2179
 5256SOL    HW127227   1.751   1.140   6.579  0.4563 -0.7513  0.5271
 5256SOL    HW227228   1.663   1.052   6.512  0.6178  0.5746 -1.0868
 5257SOL     OW27229   3.048   2.792  13.791  0.1383  0.0076  0.1200
 5257SOL    HW127230   3.088   2.705  13.789  0.8616  0.3309  0.6996
 5257SOL    HW227231   2.971   2.780  13.847 -0.7072  1.5162 -0.7197
 5258SOL     OW27232   4.036   1.264   3.408 -0.0697  0.3006 -0.8337
 5258SOL    HW127233   4.054   1.300   3.495 -1.9684 -0.3786 -0.1608
 5258SOL    HW227234   4.096   1.189   3.412  1.9313  1.8585 -1.3784
 5259SOL     OW27235   1.869   1.170   9.833 -0.5243 -0.6489 -0.3043
 5259SOL    HW127236   1.801   1.161   9.899 -2.7009  3.2462 -2.0652
 5259SOL    HW227237   1.899   1.079   9.834  0.8501 -0.2144 -1.3370
 5260SOL     OW27238   2.543   3.951   5.486  0.3757  0.5699 -0.1088
 5260SOL    HW127239   2.567   3.999   5.407  1.5320  3.6236  2.0973
 5260SOL    HW227240   2.526   4.028   5.540 -1.7580  1.2447 -1.7594
 5261SOL     OW27241   2.248   4.510   6.763  0.0999  0.3745  0.3103
 5261SOL    HW127242   2.173   4.460   6.795  0.2376 -1.0484 -1.6428
 5261SOL    HW227243   2.319   4.466   6.809 -0.6137  0.6649  1.6910
 5262SOL     OW27244   4.531   0.606   6.459 -0.0234  0.2476  0.1290
 5262SOL    HW127245   4.445   0.631   6.492  0.9490 -1.2636  3.7921
 5262SOL    HW227246   4.514   0.587   6.367 -0.3322  2.5348 -0.2864
 5263SOL     OW27247   1.557   2.095   4.398 -0.4832  0.3127  0.6323
 5263SOL    HW127248   1.553   2.007   4.435 -2.6168  0.4439  0.6985
 5263SOL    HW227249   1.581   2.143   4.477  2.0164  1.5601 -0.9044
 5264SOL     OW27250   0.832   3.238  16.075  0.5382 -0.0713 -0.8263
 5264SOL    HW127251   0.776   3.178  16.124  1.0721  0.4576  0.4640
 5264SOL    HW227252   0.786   3.318  16.100  1.3221  0.1109  0.0387
 5265SOL     OW27253   1.453   3.782   1.148  0.1221  0.5851  0.2349
 5265SOL    HW127254   1.454   3.876   1.133 -1.6330  0.5477 -0.1813
 5265SOL    HW227255   1.544   3.767   1.172 -0.0505  0.7089  0.9660
 5266SOL     OW27256   0.082   0.641   0.262  0.3903 -0.8228 -0.0202
 5266SOL    HW127257   0.055   0.625   0.353  1.3555  0.3334  0.4784
 5266SOL    HW227258   0.174   0.659   0.283  0.2509 -0.6133  0.4132
 5267SOL     OW27259   1.294   0.666   2.949 -0.1119 -0.2610 -0.2257
 5267SOL    HW127260   1.379   0.694   2.915  0.8744 -2.0463  0.7819
 5267SOL    HW227261   1.318   0.574   2.965 -0.5043 -0.3108  0.0721
 5268SOL     OW27262   4.429   4.057   6.123  0.2553 -0.7045 -0.7335
 5268SOL    HW127263   4.501   3.994   6.119  1.9438  1.0989  0.6910
 5268SOL    HW227264   4.467   4.109   6.194 -2.2312 -0.4771  0.4061
 5269SOL     OW27265   1.570   1.273   8.357 -0.1080  0.7595 -0.0660
 5269SOL    HW127266   1.664   1.272   8.376 -0.0660  1.0879 -0.2697
 5269SOL    HW227267   1.558   1.332   8.283 -0.5815  0.8987  0.1265
 5270SOL     OW27268   2.201   4.672   5.516  0.9884 -0.2461 -0.6587
 5270SOL    HW127269   2.221   4.608   5.447  0.9106  0.0764 -0.9800
 5270SOL    HW227270   2.120   4.639   5.555  1.8841 -0.2119  1.2087
 5271SOL     OW27271   4.673   0.244   1.109  0.0177  0.4455  0.1773
 5271SOL    HW127272   0.028   0.295   1.090 -0.4093  0.8639 -0.4772
 5271SOL    HW227273   4.619   0.280   1.038 -0.9054 -0.5814  0.3587
 5272SOL     OW27274   3.858   0.528   5.414 -0.2575  0.4735 -0.5751
 5272SOL    HW127275   3.791   0.526   5.346  0.3728  0.0614 -1.1912
 5272SOL    HW227276   3.940   0.556   5.374 -0.3981 -1.5253 -2.2464
 5273SOL     OW27277   3.028   0.920  10.570 -0.1985  0.8097 -0.2501
 5273SOL    HW127278   3.122   0.911  10.559 -0.0705 -1.6415  2.9473
 5273SOL    HW227279   3.029   0.968  10.653 -1.4184 -0.9120  0.7467
 5274SOL     OW27280   2.397   2.833  13.786 -0.3236 -0.5648 -0.2341
 5274SOL    HW127281   2.473   2.825  13.844  0.8896  3.9572 -1.2184
 5274SOL    HW227282   2.445   2.844  13.704  2.0349  1.9723  1.4851
 5275SOL     OW27283   2.415   0.900   7.251 -0.0983  0.0368  0.0213
 5275SOL    HW127284   2.339   0.869   7.202  1.6069 -2.7175 -0.8552
 5275SOL    HW227285   2.417   0.837   7.322 -1.9830 -0.8574 -0.6938
 5276SOL     OW27286   4.303   2.353   6.908  0.0257  0.2668 -0.2216
 5276SOL    HW127287   4.313   2.317   6.820 -0.9325  0.6545 -0.4911
 5276SOL    HW227288   4.209   2.350   6.924 -0.1942 -0.1147 -1.5735
 5277SOL     OW27289   0.490   0.542   9.247 -0.0074 -0.0760  0.3073
 5277SOL    HW127290   0.572   0.527   9.294  0.3062 -2.7091 -1.0998
 5277SOL    HW227291   0.490   0.637   9.238 -0.2718 -0.3994 -3.2379
 5278SOL     OW27292   0.218   3.743   8.637  0.1257  0.7169  0.6184
 5278SOL    HW127293   0.163   3.807   8.592  1.8310  2.3552  0.8497
 5278SOL    HW227294   0.229   3.796   8.716 -1.1611 -4.4544  4.2693
 5279SOL     OW27295   2.838   4.168   7.593  0.3899  0.0207 -0.3846
 5279SOL    HW127296   2.912   4.215   7.556  1.8911 -2.5787 -0.6706
 5279SOL    HW227297   2.774   4.194   7.526 -0.4387 -1.2204 -0.0865
 5280SOL     OW27298   4.553   0.113   7.852  0.3150  0.0522  0.2232
 5280SOL    HW127299   4.617   0.111   7.923  2.3838 -0.0726 -1.6230
 5280SOL    HW227300   4.510   0.028   7.858 -1.5820  0.8335 -2.2763
 5281SOL     OW27301   1.111   2.236   9.360  0.0223  0.3268 -0.0786
 5281SOL    HW127302   1.108   2.331   9.372 -0.8868  0.1415  1.0905
 5281SOL    HW227303   1.144   2.220   9.448 -0.8464 -1.3870 -0.0769
 5282SOL     OW27304   1.429   4.290   4.896 -0.1726 -0.4636 -0.3587
 5282SOL    HW127305   1.455   4.371   4.940  0.2316 -0.7596 -0.0491
 5282SOL    HW227306   1.366   4.327   4.834 -0.0166 -1.7990 -1.2988
 5283SOL     OW27307   2.941   2.192  13.292  0.1143  0.3322 -0.0696
 5283SOL    HW127308   2.985   2.167  13.211  2.5315  1.4381  0.9211
 5283SOL    HW227309   2.967   2.283  13.305 -0.5001  0.4739  0.1655
 5284SOL     OW27310   1.731   3.719   9.850  0.1567  0.1287  0.0878
 5284SOL    HW127311   1.775   3.801   9.874  1.3010 -0.6950  0.7980
 5284SOL    HW227312   1.798   3.687   9.790  0.9126  2.2449 -0.2087
 5285SOL     OW27313   3.644   0.050   6.587 -0.1285  0.0810  0.4100
 5285SOL    HW127314   3.686   0.133   6.607  0.2050 -0.0668  0.3322
 5285SOL    HW227315   3.632   0.011   6.674 -0.4706  0.8746  0.7120
 5286SOL     OW27316   2.697   0.423   2.411 -0.1984  0.1764  0.1873
 5286SOL    HW127317   2.637   0.432   2.337  0.3267 -1.6669 -0.4567
 5286SOL    HW227318   2.787   0.432   2.378 -0.0645  0.7731  0.7116
 5287SOL     OW27319   0.630   3.363   8.094  0.2353 -0.3003  0.5129
 5287SOL    HW127320   0.672   3.343   8.178 -0.6622 -0.3740  0.9435
 5287SOL    HW227321   0.548   3.388   8.136 -0.5705 -1.2034 -0.5194
 5288SOL     OW27322   3.784   0.284   6.693 -0.1642  0.5920 -0.2012
 5288SOL    HW127323   3.741   0.336   6.760 -1.5541 -1.5354  0.5784
 5288SOL    HW227324   3.785   0.341   6.617  0.5582  3.0967  1.6735
 5289SOL     OW27325   4.400   4.044  14.660 -0.0803  0.6215 -0.1954
 5289SOL    HW127326   4.464   4.099  14.615  0.4239  1.3667  1.4133
 5289SOL    HW227327   4.450   3.963  14.659 -0.8789  0.1086  2.0227
 5290SOL     OW27328   4.050   2.057   4.397  0.0361  0.8131 -0.2957
 5290SOL    HW127329   4.001   2.072   4.317  0.4623 -2.6870 -1.2346
 5290SOL    HW227330   4.117   2.125   4.397 -0.9683  1.8038  0.1396
 5291SOL     OW27331   1.178   4.679  12.205  0.7000  0.1827 -0.8895
 5291SOL    HW127332   1.122   4.604  12.186 -0.0343  0.1832  1.2866
 5291SOL    HW227333   1.169   4.688  12.300  0.1114 -1.1298 -0.8289
 5292SOL     OW27334   2.109   1.979   4.010 -0.8130  0.5703 -0.0780
 5292SOL    HW127335   2.140   2.024   4.089 -0.5059 -0.2820  0.2932
 5292SOL    HW227336   2.089   2.052   3.952  1.9651 -0.7801 -2.7413
 5293SOL     OW27337   3.342   1.445   8.254 -0.0415 -0.6214 -0.5022
 5293SOL    HW127338   3.322   1.482   8.340 -0.1099 -0.8872 -0.4044
 5293SOL    HW227339   3.434   1.471   8.258 -0.2923  0.3242 -0.9003
 5294SOL     OW27340   3.826   3.651  13.128 -0.0080 -0.3871  0.0156
 5294SOL    HW127341   3.897   3.707  13.159 -1.2403  0.9868  0.3553
 5294SOL    HW227342   3.761   3.701  13.176  0.4741  0.1558  0.1084
 5295SOL     OW27343   2.568   2.364   9.267 -0.0754 -0.0295  0.3388
 5295SOL    HW127344   2.482   2.390   9.233  0.3013  0.1655 -0.4836
 5295SOL    HW227345   2.551   2.378   9.360 -1.6153  1.9992 -0.2472
 5296SOL     OW27346   2.618   3.968   3.598 -0.1368  0.2240 -0.2275
 5296SOL    HW127347   2.652   3.966   3.688  1.5633  0.7851 -0.8416
 5296SOL    HW227348   2.537   3.918   3.596  0.8582 -1.2360 -4.6251
 5297SOL     OW27349   3.619   1.889   7.760 -0.3300  0.1793  0.7412
 5297SOL    HW127350   3.631   1.905   7.854 -1.4450 -0.0183  0.9189
 5297SOL    HW227351   3.709   1.868   7.736 -0.3950 -0.6745  1.2392
 5298SOL     OW27352   3.049   4.116  13.336 -0.1495  0.5880 -0.9652
 5298SOL    HW127353   3.067   4.166  13.256  1.5548  0.3255 -0.7541
 5298SOL    HW227354   2.954   4.110  13.348 -0.1292 -2.0311 -2.0377
 5299SOL     OW27355   3.881   4.100  17.380 -0.0791 -0.5782 -0.1727
 5299SOL    HW127356   3.907   4.012  17.350  3.3231  0.0313  1.0929
 5299SOL    HW227357   3.786   4.093  17.388 -0.3802  2.7620 -0.9347
 5300SOL     OW27358   1.457   0.130   4.539  0.9066  0.1861  0.3155
 5300SOL    HW127359   1.540   0.112   4.494  0.7128 -0.0737  0.0669
 5300SOL    HW227360   1.482   0.213   4.579 -3.5800  0.3282  2.7144
 5301SOL     OW27361   1.715   3.642   4.889 -0.2591  0.7136 -0.0240
 5301SOL    HW127362   1.752   3.606   4.809  1.1785  1.7796  0.1667
 5301SOL    HW227363   1.668   3.716   4.849 -0.9967 -0.5148 -1.4324
 5302SOL     OW27364   1.179   4.438   6.162  0.4800 -0.1815 -0.4583
 5302SOL    HW127365   1.125   4.372   6.119  1.5998 -0.9834 -0.6195
 5302SOL    HW227366   1.261   4.396   6.187  0.9471  1.7218  1.2057
 5303SOL     OW27367   1.032   2.084   1.685 -0.3506 -0.1271  0.2658
 5303SOL    HW127368   1.051   2.138   1.609 -0.0260 -0.3917  0.1590
 5303SOL    HW227369   0.938   2.087   1.702 -0.4659  0.8533 -0.5698
 5304SOL     OW27370   4.199   3.710   6.523 -0.3475 -0.0031 -0.2872
 5304SOL    HW127371   4.148   3.684   6.447  1.0426 -1.9643 -0.5501
 5304SOL    HW227372   4.282   3.719   6.476  1.4232 -0.7372  2.7308
 5305SOL     OW27373   2.571   0.306   3.443 -0.1763  0.5292 -0.1790
 5305SOL    HW127374   2.563   0.225   3.394 -0.8219 -0.9396  2.3388
 5305SOL    HW227375   2.487   0.351   3.431 -0.7183 -0.4660 -0.1016
 5306SOL     OW27376   2.784   0.073  12.215 -0.2129 -0.6191 -0.1631
 5306SOL    HW127377   2.812   4.719  12.166 -0.5448  0.6021 -2.3064
 5306SOL    HW227378   2.789   0.047  12.307  0.4002 -0.2162 -0.0734
 5307SOL     OW27379   0.140   3.329   6.007  0.3839  0.2661 -0.2913
 5307SOL    HW127380   0.175   3.418   6.001 -0.0636  0.5187  0.8476
 5307SOL    HW227381   0.124   3.309   5.915  1.9348  1.5140 -0.8295
 5308SOL     OW27382   2.355   3.671   8.669  0.3271 -0.5523  0.2140
 5308SOL    HW127383   2.344   3.760   8.636  0.9108  0.0678  1.6904
 5308SOL    HW227384   2.315   3.618   8.601  0.4631 -1.0735  0.5389
 5309SOL     OW27385   2.969   4.065   3.340 -0.0204 -0.1110  0.4573
 5309SOL    HW127386   2.941   4.147   3.380 -1.2097 -0.2997  0.0290
 5309SOL    HW227387   2.924   4.073   3.256  3.2822  2.3672 -1.0889
 5310SOL     OW27388   3.238   2.521   6.882 -0.3389  0.2778  0.0248
 5310SOL    HW127389   3.171   2.518   6.814  0.3063  0.4414 -0.6164
 5310SOL    HW227390   3.244   2.617   6.891  0.1021  0.3153 -0.7021
 5311SOL     OW27391   1.036   2.512   8.348 -0.2540  0.2061  0.2329
 5311SOL    HW127392   0.956   2.557   8.372 -0.2852  0.7867 -0.9506
 5311SOL    HW227393   1.087   2.575   8.297 -1.2341 -0.9664 -2.2375
 5312SOL     OW27394   3.750   3.594   7.739 -0.2253 -0.0410  0.5929
 5312SOL    HW127395   3.795   3.678   7.742 -0.3129 -0.0103  1.0038
 5312SOL    HW227396   3.658   3.616   7.732 -0.5858 -1.5586  0.5987
 5313SOL     OW27397   2.079   0.720   2.779 -0.7850  0.6418  0.6763
 5313SOL    HW127398   2.085   0.737   2.685 -0.1159  1.1494  0.8084
 5313SOL    HW227399   2.139   0.645   2.784  1.1918  1.8976 -4.1326
 5314SOL     OW27400   1.486   3.474   6.908  0.0744  0.1751 -0.6901
 5314SOL    HW127401   1.580   3.472   6.891  0.0989 -2.1129 -0.3588
 5314SOL    HW227402   1.481   3.499   7.001 -0.0602  0.9816 -0.9176
 5315SOL     OW27403   3.533   2.955  13.276 -0.1027  0.0349 -0.2044
 5315SOL    HW127404   3.553   2.997  13.192 -2.3478 -0.1530 -0.8368
 5315SOL    HW227405   3.549   2.863  13.257 -0.7222 -0.2178  0.4901
 5316SOL     OW27406   4.695   4.438   0.199  0.3571 -0.0822 -0.1009
 5316SOL    HW127407   0.033   4.421   0.270  0.4697  0.2180 -0.1274
 5316SOL    HW227408   4.627   4.372   0.211 -2.2769  2.4319 -1.3184
 5317SOL     OW27409   2.620   3.613   3.958  0.0333  0.5225  0.2649
 5317SOL    HW127410   2.642   3.563   4.036 -1.4507  1.4654  1.2873
 5317SOL    HW227411   2.648   3.700   3.987  0.8011 -0.5005  2.5701
 5318SOL     OW27412   2.965   4.362  11.543 -0.2384 -0.0934 -0.2112
 5318SOL    HW127413   3.058   4.365  11.519  0.1351  2.4127  1.6000
 5318SOL    HW227414   2.947   4.454  11.562  0.7158 -0.2663  1.4783
 5319SOL     OW27415   1.629   4.436   2.095 -0.1062 -0.4849 -0.1451
 5319SOL    HW127416   1.661   4.418   2.007  0.9596 -0.9920  0.3541
 5319SOL    HW227417   1.621   4.531   2.107  1.0658 -0.7842  3.0761
 5320SOL     OW27418   0.299   1.336  11.916  0.0735  0.0022 -0.1841
 5320SOL    HW127419   0.305   1.274  11.989 -0.4063 -0.5246 -0.5962
 5320SOL    HW227420   0.370   1.291  11.870 -0.4866 -0.8389 -0.2241
 5321SOL     OW27421   3.150   2.965  14.095  0.1904 -0.2810 -0.3412
 5321SOL    HW127422   3.174   2.882  14.136 -0.0157  0.2706  0.9184
 5321SOL    HW227423   3.055   2.962  14.109  0.3314  2.8996  1.5735
 5322SOL     OW27424   1.068   2.541   4.097  0.6816  0.5417  0.4879
 5322SOL    HW127425   0.982   2.500   4.097  0.1843  1.6141 -1.8746
 5322SOL    HW227426   1.115   2.480   4.155  0.1832  1.3300  1.7303
 5323SOL     OW27427   3.008   1.658   5.663 -0.6429  0.4682 -0.4594
 5323SOL    HW127428   3.054   1.682   5.582  0.7951  0.5467  0.3769
 5323SOL    HW227429   3.038   1.721   5.728  0.0018 -1.3241  0.9861
 5324SOL     OW27430   2.141   1.977  14.565 -0.2080  0.2357 -0.2089
 5324SOL    HW127431   2.162   2.069  14.550  1.6187 -0.6361 -2.9598
 5324SOL    HW227432   2.059   1.979  14.515  0.5089 -1.6769 -1.4132
 5325SOL     OW27433   4.607   2.670   7.021 -0.1539 -0.2419  0.0442
 5325SOL    HW127434   4.609   2.712   7.108 -4.3305 -4.0312  2.0061
 5325SOL    HW227435   4.685   2.708   6.981 -3.0375  2.0762 -3.3745
 5326SOL     OW27436   0.612   3.819   2.036  0.0529  0.5666 -0.1940
 5326SOL    HW127437   0.613   3.848   1.944 -3.0813 -0.6267 -0.6028
 5326SOL    HW227438   0.619   3.907   2.073 -2.6539  0.7753 -0.2257
 5327SOL     OW27439   0.531   3.709  16.352  0.1243 -0.1806 -0.2525
 5327SOL    HW127440   0.484   3.701  16.269 -1.5312 -1.6605  0.8247
 5327SOL    HW227441   0.482   3.649  16.408  1.2990  0.0208  1.0149
 5328SOL     OW27442   1.785   0.991   8.220 -0.3750  0.9471 -0.4314
 5328SOL    HW127443   1.844   0.970   8.292  0.2892 -2.1717 -1.8981
 5328SOL    HW227444   1.849   0.977   8.150  0.6194  3.5284 -0.0279
 5329SOL     OW27445   2.080   0.802   6.033  0.1866 -0.4003  0.1722
 5329SOL    HW127446   2.066   0.755   6.115 -0.7411 -0.2538  0.0906
 5329SOL    HW227447   2.111   0.886   6.067  1.1927 -1.0166  0.7759
 5330SOL     OW27448   1.699   2.699   6.426  0.3311 -0.4340 -0.1155
 5330SOL    HW127449   1.622   2.743   6.460  0.2281  0.0576 -0.9702
 5330SOL    HW227450   1.661   2.615   6.399 -0.3246 -0.1493 -0.0668
 5331SOL     OW27451   2.446   4.288   6.454  0.1988  0.1716  0.3919
 5331SOL    HW127452   2.481   4.371   6.485 -3.1013  1.9107 -0.4695
 5331SOL    HW227453   2.452   4.236   6.534  1.9889 -0.8662 -0.4147
 5332SOL     OW27454   3.585   0.042   8.016  0.1046  0.1115  0.0985
 5332SOL    HW127455   3.538   4.686   7.990  0.6248  0.2071 -1.1482
 5332SOL    HW227456   3.609   0.013   8.104 -0.5258  0.4200  0.3692
 5333SOL     OW27457   2.949   2.701   2.403 -0.4161 -0.3019 -0.1106
 5333SOL    HW127458   2.953   2.609   2.375  0.4968  0.2010 -1.6022
 5333SOL    HW227459   2.894   2.683   2.480  0.0996  1.1848  0.5970
 5334SOL     OW27460   4.106   1.711   5.585  0.3685 -0.6293 -0.0770
 5334SOL    HW127461   4.149   1.668   5.512  0.6188 -0.7254  0.1259
 5334SOL    HW227462   4.173   1.773   5.614 -1.3263  0.1172  2.2799
 5335SOL     OW27463   1.395   1.203   7.454  0.1185 -0.1396  0.6665
 5335SOL    HW127464   1.471   1.249   7.491 -0.2141 -0.4847  1.7750
 5335SOL    HW227465   1.387   1.245   7.368 -0.1959  1.5461  1.5148
 5336SOL     OW27466   0.173   0.943   5.024  0.0164  0.6300  0.2272
 5336SOL    HW127467   0.258   0.987   5.020  0.2074  0.0316 -1.8654
 5336SOL    HW227468   0.124   0.980   5.098 -0.3516 -1.6697  1.1423
 5337SOL     OW27469   4.521   1.912   5.652 -0.2527  0.2979 -0.0244
 5337SOL    HW127470   4.479   1.997   5.667  1.3237  0.8438  1.2713
 5337SOL    HW227471   4.509   1.858   5.730  0.1441 -0.0839 -0.2264
 5338SOL     OW27472   2.461   3.336   5.115 -0.2472 -0.3843  0.0865
 5338SOL    HW127473   2.367   3.339   5.101 -0.3490  3.9691  1.8255
 5338SOL    HW227474   2.506   3.415   5.086 -0.4951 -0.9283 -1.7618
 5339SOL     OW27475   3.756   2.730   7.527 -0.0131  0.2316 -0.0537
 5339SOL    HW127476   3.774   2.805   7.470  1.9888  0.5570  1.0092
 5339SOL    HW227477   3.731   2.780   7.604 -0.4041 -1.1465  0.7092
 5340SOL     OW27478   3.725   4.247   4.637  0.1507  0.6539  0.6076
 5340SOL    HW127479   3.740   4.226   4.729  0.3149  0.6415  0.5777
 5340SOL    HW227480   3.696   4.338   4.632 -0.9521  0.3334  1.1891
 5341SOL     OW27481   1.814   1.946   2.368  0.2158  0.2257 -0.3576
 5341SOL    HW127482   1.775   1.915   2.449 -0.9812  1.0985 -0.5943
 5341SOL    HW227483   1.764   2.027   2.358  0.4171  0.7080  2.6846
 5342SOL     OW27484   3.894   1.775   3.493  0.0358 -0.1171 -0.3211
 5342SOL    HW127485   3.925   1.773   3.403 -0.6692 -0.4361 -0.5582
 5342SOL    HW227486   3.805   1.744   3.476  0.8831 -2.7713  0.0045
 5343SOL     OW27487   1.374   3.599   0.070  0.3930 -0.4097 -0.6800
 5343SOL    HW127488   1.361   3.508   0.097  1.5943 -0.5407 -0.5471
 5343SOL    HW227489   1.346   3.600  17.676  0.9993 -1.2706 -0.8775
 5344SOL     OW27490   1.023   4.290   9.355 -0.0858  0.4130 -0.5452
 5344SOL    HW127491   0.983   4.217   9.403  0.2960  0.5818  0.0265
 5344SOL    HW227492   1.099   4.308   9.410 -0.1856 -1.4456  0.2117
 5345SOL     OW27493   0.283   4.410  10.069  0.6194  0.2743  0.2769
 5345SOL    HW127494   0.370   4.439  10.040 -0.0430 -0.3207 -2.2828
 5345SOL    HW227495   0.309   4.343  10.133  2.2079  1.0399  0.4474
 5346SOL     OW27496   0.513   1.594  11.182 -0.2991  0.3877  0.3575
 5346SOL    HW127497   0.565   1.591  11.102 -1.6110  1.7425 -0.5604
 5346SOL    HW227498   0.537   1.516  11.232  1.7939  1.7044  1.3986
 5347SOL     OW27499   3.580   0.594   2.133 -0.3124  0.0480  0.1548
 5347SOL    HW127500   3.621   0.641   2.060  2.8274  0.0618  1.9063
 5347SOL    HW227501   3.567   0.669   2.192 -1.3365  0.1447 -0.2087
 5348SOL     OW27502   2.461   0.843   0.297  0.2272  0.1870 -0.2525
 5348SOL    HW127503   2.498   0.823   0.211 -0.2400 -1.0912 -0.1518
 5348SOL    HW227504   2.508   0.926   0.305 -1.3745  0.9518  1.3768
 5349SOL     OW27505   4.481   2.343  11.161  0.1437 -0.0439  0.5072
 5349SOL    HW127506   4.471   2.362  11.254 -0.7883 -0.2381  0.4490
 5349SOL    HW227507   4.417   2.408  11.130  1.3442  0.3749 -1.0785
 5350SOL     OW27508   0.101   1.102  11.220  0.9831 -1.1085  1.0949
 5350SOL    HW127509   0.163   1.045  11.173  1.0804  0.6822 -0.9288
 5350SOL    HW227510   0.159   1.177  11.228  1.1313 -0.8082 -2.5763
 5351SOL     OW27511   2.960   1.899   4.229 -0.2997 -0.1854  0.3165
 5351SOL    HW127512   2.960   1.922   4.322  1.5422  1.1269 -0.0074
 5351SOL    HW227513   3.045   1.856   4.219 -0.9988 -1.5796  0.4540
 5352SOL     OW27514   1.739   0.420  15.117 -0.2615 -0.3974  0.4973
 5352SOL    HW127515   1.799   0.410  15.043 -0.3296 -2.9272  0.7767
 5352SOL    HW227516   1.658   0.395  15.072 -0.3163  0.3457  0.1825
 5353SOL     OW27517   2.278   4.475   0.417  0.0435  0.2502 -0.0390
 5353SOL    HW127518   2.246   4.386   0.402 -0.7446  0.8328 -1.7880
 5353SOL    HW227519   2.284   4.494   0.324 -2.3877  1.5386  0.0779
 5354SOL     OW27520   2.390   4.713  11.866 -0.2176  0.2315 -0.5321
 5354SOL    HW127521   2.477   4.672  11.865 -1.5678 -2.6107  0.1050
 5354SOL    HW227522   2.337   4.654  11.919  1.0010 -0.4222 -0.0200
 5355SOL     OW27523   1.319   2.453   2.526  0.5843 -0.3327  0.3635
 5355SOL    HW127524   1.311   2.543   2.492  0.1407 -0.0867  1.1241
 5355SOL    HW227525   1.310   2.403   2.445 -1.6232 -1.7902  1.5018
 5356SOL     OW27526   4.291   3.140   8.964 -0.0709 -0.6004 -0.1862
 5356SOL    HW127527   4.328   3.151   9.052  1.7824 -1.5746 -0.8447
 5356SOL    HW227528   4.238   3.062   8.982  1.7449 -2.2777 -2.2369
 5357SOL     OW27529   0.817   1.560  17.481  0.0856  0.2441 -0.8788
 5357SOL    HW127530   0.888   1.516  17.527  0.7634  1.4327 -0.7837
 5357SOL    HW227531   0.798   1.489  17.419 -0.6912  1.7338 -2.3507
 5358SOL     OW27532   0.418   3.764   9.874  0.1557  0.2270  0.4499
 5358SOL    HW127533   0.434   3.685   9.926  0.5067  0.7755  1.1853
 5358SOL    HW227534   0.418   3.727   9.785 -1.5996 -1.1603  1.0318
 5359SOL     OW27535   3.824   2.559   5.962 -0.3243  0.0634 -0.1554
 5359SOL    HW127536   3.807   2.645   5.923  0.2882  0.6342  0.8171
 5359SOL    HW227537   3.761   2.565   6.034  0.8430  0.9635  0.8113
 5360SOL     OW27538   2.217   0.833  14.825  0.1695  0.3083 -0.2256
 5360SOL    HW127539   2.269   0.905  14.862  0.8346  0.8574 -2.2520
 5360SOL    HW227540   2.274   0.819  14.750 -0.4094 -1.1253 -0.4054
 5361SOL     OW27541   0.876   1.331  11.004  0.5873 -0.2200 -0.3676
 5361SOL    HW127542   0.801   1.386  10.981  2.0949  0.9761 -2.3904
 5361SOL    HW227543   0.923   1.317  10.922  1.9315 -0.8191  0.5107
 5362SOL     OW27544   4.094   4.552   9.542  0.5285  0.3772 -0.2650
 5362SOL    HW127545   4.092   4.525   9.634  0.4509  0.8314 -0.1361
 5362SOL    HW227546   4.045   4.481   9.501  1.8101  0.2021 -1.5082
 5363SOL     OW27547   1.858   4.005   7.242 -0.2462 -0.3184 -0.3577
 5363SOL    HW127548   1.797   3.986   7.171  1.5459 -2.9753 -1.2098
 5363SOL    HW227549   1.806   4.064   7.295  0.6312  0.6428 -0.5763
 5364SOL     OW27550   4.655   2.624   5.634  0.4169  0.2121  0.1444
 5364SOL    HW127551   0.023   2.615   5.659 -0.1185 -2.1752  1.2344
 5364SOL    HW227552   4.622   2.621   5.724  1.0873  1.9386  0.4332
 5365SOL     OW27553   3.090   1.419   1.219  0.2499  0.5088  0.5299
 5365SOL    HW127554   3.161   1.439   1.158 -0.6762  1.1019 -0.3710
 5365SOL    HW227555   3.076   1.329   1.191 -0.7384  1.5031 -2.2266
 5366SOL     OW27556   3.815   1.426  13.747 -0.3439  0.0853 -0.0058
 5366SOL    HW127557   3.721   1.448  13.749 -0.3532  0.1795 -1.5650
 5366SOL    HW227558   3.856   1.480  13.679 -1.9820 -1.0579 -1.9016
 5367SOL     OW27559   0.582   0.192   0.508  0.0048  0.0199 -0.1046
 5367SOL    HW127560   0.521   0.265   0.504  0.2088  0.2965  1.8922
 5367SOL    HW227561   0.657   0.218   0.561  1.0177  0.6684 -1.8545
 5368SOL     OW27562   1.471   3.921   8.812  0.3726 -1.0144  0.4389
 5368SOL    HW127563   1.390   3.970   8.826  1.6511  0.6708  1.9024
 5368SOL    HW227564   1.540   3.970   8.856  0.1368 -2.3823  2.3013
 5369SOL     OW27565   2.036   0.104  12.072  0.0281 -1.1760  0.2341
 5369SOL    HW127566   2.070   0.158  12.000 -0.0673 -0.6552  0.5762
 5369SOL    HW227567   1.998   0.178  12.121  0.5674  1.0514 -2.6755
 5370SOL     OW27568   0.641   4.503  15.709  0.1902 -0.3427 -0.4692
 5370SOL    HW127569   0.652   4.587  15.665  0.7112 -0.9511 -1.5056
 5370SOL    HW227570   0.546   4.493  15.709  0.1701 -0.0621 -1.8898
 5371SOL     OW27571   1.185   1.638   2.369 -0.6358 -0.2687  0.0900
 5371SOL    HW127572   1.122   1.677   2.308 -0.9448  0.4143  0.8382
 5371SOL    HW227573   1.136   1.637   2.452 -1.1224  0.3721 -0.1838
 5372SOL     OW27574   3.461   4.695  11.840  0.1924 -0.1355 -0.5336
 5372SOL    HW127575   3.510   0.048  11.812  0.5301 -0.5993 -1.1970
 5372SOL    HW227576   3.477   4.641  11.763 -1.6518 -2.0192  0.3771
 5373SOL     OW27577   3.120   1.945   8.523 -0.0123  0.0515  0.4273
 5373SOL    HW127578   3.196   1.910   8.478  0.4100 -0.2634  1.3932
 5373SOL    HW227579   3.162   1.983   8.599 -1.5017 -0.0529  1.3151
 5374SOL     OW27580   0.502   0.697   8.680 -0.1660  0.2887  0.0951
 5374SOL    HW127581   0.416   0.655   8.690  0.2960 -1.1443 -1.9754
 5374SOL    HW227582   0.540   0.656   8.758 -1.8936  3.2963  2.5522
 5375SOL     OW27583   2.631   2.301   3.176  0.3600  0.2593 -0.1926
 5375SOL    HW127584   2.598   2.376   3.126 -2.8187 -0.3897  0.9287
 5375SOL    HW227585   2.591   2.226   3.132 -1.3852  0.2867  1.3523
 5376SOL     OW27586   0.735   4.659  12.630 -0.2166 -0.2396 -0.1215
 5376SOL    HW127587   0.796   4.706  12.572 -0.9536  0.3940 -0.3870
 5376SOL    HW227588   0.794   4.652  12.705 -2.0945  0.8279  1.4380
 5377SOL     OW27589   0.608   0.629  15.472 -0.4465  0.0689 -0.3538
 5377SOL    HW127590   0.558   0.573  15.531  0.2933  2.1706  2.2670
 5377SOL    HW227591   0.537   0.642  15.409 -1.1436 -1.7524  0.0651
 5378SOL     OW27592   2.488   0.450   4.670 -0.0200 -0.2661 -0.3114
 5378SOL    HW127593   2.529   0.536   4.663 -0.3311 -0.2151 -1.5313
 5378SOL    HW227594   2.422   0.452   4.601  1.0116  2.5656 -1.2200
 5379SOL     OW27595   3.056   2.003  12.793 -0.7156 -0.0650  0.1051
 5379SOL    HW127596   3.005   1.934  12.750 -1.1809  0.4349 -0.1439
 5379SOL    HW227597   3.137   2.006  12.742 -2.1691  1.4399 -2.1235
 5380SOL     OW27598   3.982   0.951  15.569  0.6545  0.3043  0.1857
 5380SOL    HW127599   4.066   0.932  15.610  0.7973  0.8722  0.1545
 5380SOL    HW227600   4.011   0.974  15.480  0.2729 -1.3627 -0.3628
 5381SOL     OW27601   1.329   3.340   2.495 -0.0364 -0.5070 -0.0843
 5381SOL    HW127602   1.295   3.369   2.580  1.1697  0.5914  0.0239
 5381SOL    HW227603   1.425   3.347   2.498 -0.2125  2.3233 -1.0435
 5382SOL     OW27604   2.645   0.564   2.979 -0.5822  0.5097 -0.4740
 5382SOL    HW127605   2.685   0.501   2.918  1.5379  0.1046  1.3570
 5382SOL    HW227606   2.558   0.582   2.943 -1.6951 -2.3605  0.8064
 5383SOL     OW27607   3.133   1.231  13.177  0.1328 -0.3617 -0.3829
 5383SOL    HW127608   3.072   1.221  13.250 -0.6949 -2.1319 -1.3333
 5383SOL    HW227609   3.208   1.249  13.234 -1.5396  0.6490  1.5195
 5384SOL     OW27610   0.414   2.662   5.277 -0.4430  0.2037 -0.7060
 5384SOL    HW127611   0.439   2.653   5.185  1.9172  0.7780 -0.1333
 5384SOL    HW227612   0.481   2.724   5.306 -1.2198 -0.0176  1.5447
 5385SOL     OW27613   1.998   2.813   0.081  0.3345  0.3608 -0.0386
 5385SOL    HW127614   2.000   2.782  17.687  0.3160 -1.3971  0.5579
 5385SOL    HW227615   2.070   2.875   0.072  0.5595  0.2501  1.0415
 5386SOL     OW27616   3.359   4.244   6.584  0.5042  0.0604 -0.4509
 5386SOL    HW127617   3.402   4.291   6.513  1.6578  1.8645  1.4548
 5386SOL    HW227618   3.432   4.209   6.635 -0.0457  0.0159  0.2991
 5387SOL     OW27619   4.307   4.189   8.626 -0.3370 -0.0973  0.1772
 5387SOL    HW127620   4.289   4.233   8.543  1.1640 -1.4184 -0.8635
 5387SOL    HW227621   4.385   4.134   8.613 -1.1006 -0.9808 -0.7068
 5388SOL     OW27622   4.456   0.955   3.707 -0.5829  0.1023 -0.5707
 5388SOL    HW127623   4.452   0.878   3.650 -1.9643 -2.5660  3.1718
 5388SOL    HW227624   4.377   0.946   3.759 -0.7040  1.0338 -0.6026
 5389SOL     OW27625   3.454   1.954   7.545 -0.0880 -0.1109  0.5065
 5389SOL    HW127626   3.476   1.941   7.637 -1.1110 -0.1273  0.7528
 5389SOL    HW227627   3.533   1.979   7.497 -1.9932 -0.3037 -2.6800
 5390SOL     OW27628   4.713   3.663   4.784  0.0346  0.6941 -0.0243
 5390SOL    HW127629   4.632   3.695   4.744  0.4686  1.1079 -0.5844
 5390SOL    HW227630   4.690   3.669   4.877 -1.0498  0.1223 -0.2637
 5391SOL     OW27631   3.169   3.187   5.614  1.1320  0.1495 -0.0189
 5391SOL    HW127632   3.165   3.131   5.537  3.0175 -0.1753  0.1306
 5391SOL    HW227633   3.210   3.120   5.669  0.5029  2.4570  3.2633
 5392SOL     OW27634   2.036   2.552  11.342  0.2093  0.4128 -0.3568
 5392SOL    HW127635   1.962   2.560  11.402 -0.4680  0.8918 -1.2511
 5392SOL    HW227636   2.006   2.487  11.278 -0.9911  2.1267 -1.5159
 5393SOL     OW27637   0.908   3.542   9.637  0.1468  0.0964  0.0967
 5393SOL    HW127638   0.892   3.474   9.572 -0.4592 -0.1126  0.4559
 5393SOL    HW227639   0.915   3.489   9.717  1.3385 -0.4610 -0.3775
 5394SOL     OW27640   3.086   0.662  14.623  0.3367 -0.0887  0.0919
 5394SOL    HW127641   3.177   0.690  14.636 -0.0008  1.0808 -0.0853
 5394SOL    HW227642   3.073   0.681  14.530  0.8529  0.6487  0.1628
 5395SOL     OW27643   4.133   4.659   9.151  0.5957  0.4351 -0.1139
 5395SOL    HW127644   4.111   4.567   9.135  0.6817  0.4683 -0.4259
 5395SOL    HW227645   4.109   4.694   9.065  2.5565  0.7243 -0.5396
 5396SOL     OW27646   0.279   1.580   2.996  0.1888 -0.2506 -0.3538
 5396SOL    HW127647   0.348   1.647   3.003 -1.9671  2.1147 -1.6324
 5396SOL    HW227648   0.263   1.582   2.902  0.5526 -1.8456 -0.4477
 5397SOL     OW27649   0.699   1.104   9.506  0.6572  0.5550  0.6556
 5397SOL    HW127650   0.612   1.100   9.545  0.5056  0.1168  0.2655
 5397SOL    HW227651   0.738   1.140   9.586  0.6024  0.6724  0.6300
 5398SOL     OW27652   1.679   3.609  10.691  0.7039 -0.1284 -0.1123
 5398SOL    HW127653   1.635   3.694  10.693 -1.7651 -1.4487  1.2369
 5398SOL    HW227654   1.756   3.635  10.641  0.0580  1.4523 -0.2723
 5399SOL     OW27655   4.342   1.894   5.452  0.0495  0.2023 -0.2316
 5399SOL    HW127656   4.404   1.907   5.524 -0.5271 -1.0371  0.4913
 5399SOL    HW227657   4.361   1.804   5.427 -2.5836 -0.6265  0.6937
 5400SOL     OW27658   0.512   0.071   1.552 -0.1807  0.0516 -0.8000
 5400SOL    HW127659   0.511   4.700   1.538 -1.4681 -0.4852  2.9716
 5400SOL    HW227660   0.605   0.074   1.574 -0.6585 -1.3656  1.4340
 5401SOL     OW27661   0.646   4.281   1.805  0.0666 -0.2679  0.6686
 5401SOL    HW127662   0.581   4.250   1.869 -1.4629 -0.7102 -1.1000
 5401SOL    HW227663   0.616   4.224   1.734 -0.9774  0.6848  0.3475
 5402SOL     OW27664   0.100   2.294   3.332 -0.2585 -0.4727 -0.2396
 5402SOL    HW127665   0.082   2.335   3.417  2.0976 -0.5037  0.2673
 5402SOL    HW227666   0.012   2.270   3.303 -0.6224  0.2064  0.2704
 5403SOL     OW27667   1.825   1.385   7.274 -0.5745 -0.1847  0.1569
 5403SOL    HW127668   1.909   1.367   7.232  0.0109  0.1930  1.1736
 5403SOL    HW227669   1.763   1.362   7.205 -1.5195 -0.5289  1.1384
 5404SOL     OW27670   2.408   3.588  12.763  0.1613 -0.0324 -0.1260
 5404SOL    HW127671   2.463   3.558  12.836 -0.6616 -2.5318 -0.5297
 5404SOL    HW227672   2.340   3.635  12.812  0.2095 -0.1778  0.0840
 5405SOL     OW27673   3.844   2.560  11.601  0.0808 -0.6446 -0.2765
 5405SOL    HW127674   3.927   2.516  11.581  1.0215  1.4855 -1.1367
 5405SOL    HW227675   3.890   2.608  11.671 -0.8054 -1.2480  0.7169
 5406SOL     OW27676   1.814   2.959   6.199 -0.3719  0.4103  0.1041
 5406SOL    HW127677   1.731   2.968   6.246  1.0791 -1.1890  3.0182
 5406SOL    HW227678   1.825   3.049   6.167  0.0329  0.3574  0.0923
 5407SOL     OW27679   4.568   2.879   8.132  0.0098 -0.4331  0.3380
 5407SOL    HW127680   4.633   2.822   8.173  0.2963  0.2986  0.9067
 5407SOL    HW227681   4.494   2.818   8.125  0.6988 -1.1796 -0.4352
 5408SOL     OW27682   2.519   0.732  16.053 -0.4835 -0.3903  0.7113
 5408SOL    HW127683   2.455   0.803  16.068  0.3025  0.2094  1.2145
 5408SOL    HW227684   2.489   0.679  15.979 -2.4353  0.7750  0.6602
 5409SOL     OW27685   1.858   3.358   5.572  0.3647  0.6093  0.3537
 5409SOL    HW127686   1.884   3.404   5.652  0.0906 -0.4121  1.0382
 5409SOL    HW227687   1.920   3.398   5.512  0.4275  0.5132  0.3551
 5410SOL     OW27688   2.437   4.139   0.379  0.3078 -0.2287  0.3795
 5410SOL    HW127689   2.472   4.100   0.299 -2.7770  0.5612 -1.3735
 5410SOL    HW227690   2.349   4.152   0.343  0.6227  1.7481  0.2962
 5411SOL     OW27691   1.349   1.165   9.359 -0.1367 -0.4343 -0.1683
 5411SOL    HW127692   1.285   1.096   9.378  0.3629  0.0293  3.3397
 5411SOL    HW227693   1.340   1.218   9.439  0.5167  0.2150 -0.5299
 5412SOL     OW27694   0.183   4.600  11.060  0.0332  0.1631 -0.0822
 5412SOL    HW127695   0.101   4.591  11.012  0.3024  2.7487 -1.0272
 5412SOL    HW227696   0.154   4.626  11.147  1.6269 -0.5507  0.6476
 5413SOL     OW27697   1.084   3.833   6.567  0.3671  0.8855  0.5462
 5413SOL    HW127698   1.147   3.876   6.625  1.5144  3.0018 -2.2540
 5413SOL    HW227699   1.079   3.742   6.593  1.3744  0.9513  0.9587
 5414SOL     OW27700   0.872   1.214   3.728 -0.3131 -0.1442 -0.2059
 5414SOL    HW127701   0.932   1.149   3.693  0.9701  0.3907  1.0045
 5414SOL    HW227702   0.871   1.278   3.656  1.9244 -0.4935 -0.5535
 5415SOL     OW27703   0.625   2.413   3.061 -0.7011  0.4443  0.3710
 5415SOL    HW127704   0.605   2.343   3.123 -0.7659 -0.2999 -0.4992
 5415SOL    HW227705   0.653   2.366   2.983  0.9345 -0.0415  1.2396
 5416SOL     OW27706   4.205   2.390   9.867  0.2587 -0.6077 -0.2060
 5416SOL    HW127707   4.160   2.451   9.926 -0.2162  0.4649 -1.6549
 5416SOL    HW227708   4.249   2.450   9.806  0.5971  0.0166  0.6566
 5417SOL     OW27709   3.791   1.583   5.345  0.2689 -0.2185 -0.4031
 5417SOL    HW127710   3.745   1.581   5.261  1.5727 -2.0172 -1.0658
 5417SOL    HW227711   3.782   1.677   5.362 -0.3376  0.2358 -3.2662
 5418SOL     OW27712   1.191   0.490   5.750 -0.0116  0.3004  0.6976
 5418SOL    HW127713   1.167   0.431   5.822  2.5801 -0.8765  0.5971
 5418SOL    HW227714   1.117   0.472   5.692  1.0008 -0.5714 -0.3198
 5419SOL     OW27715   1.216   4.420  16.727  0.3355  0.4138 -0.1493
 5419SOL    HW127716   1.230   4.514  16.718 -0.2664  0.6634  1.5815
 5419SOL    HW227717   1.268   4.394  16.803 -1.8582  0.4637  1.3629
 5420SOL     OW27718   3.854   2.829   5.097  0.3719 -0.1615 -0.1514
 5420SOL    HW127719   3.762   2.840   5.076 -0.3206  0.1929  3.1824
 5420SOL    HW227720   3.885   2.909   5.139 -0.4301 -0.9868  1.9794
 5421SOL     OW27721   3.665   2.313   2.231 -0.6853  0.0887 -0.5455
 5421SOL    HW127722   3.724   2.268   2.292 -0.9283  0.5243  0.0102
 5421SOL    HW227723   3.713   2.392   2.208 -0.3293  0.3190  0.9502
 5422SOL     OW27724   3.441   2.563   1.112  0.2142  0.6533  0.0958
 5422SOL    HW127725   3.431   2.630   1.045  0.3893  0.7759  0.1923
 5422SOL    HW227726   3.432   2.628   1.182  0.9184  0.6586  0.1793
 5423SOL     OW27727   0.628   0.188   6.937  0.3728  0.5467 -0.0548
 5423SOL    HW127728   0.610   0.141   6.856 -0.5659  2.0195 -0.6990
 5423SOL    HW227729   0.581   0.268   6.916 -0.6413 -0.0058  0.1374
 5424SOL     OW27730   2.250   2.348   7.772 -0.1096  0.4413 -0.2716
 5424SOL    HW127731   2.325   2.293   7.792 -1.0695 -1.0193 -0.6405
 5424SOL    HW227732   2.265   2.426   7.824  1.5418 -1.6184  2.3242
 5425SOL     OW27733   3.164   0.551  16.336 -0.0248  0.2636  0.3253
 5425SOL    HW127734   3.251   0.582  16.361  0.1204 -0.2009  0.4026
 5425SOL    HW227735   3.202   0.491  16.271  0.8240  0.5811  0.5252
 5426SOL     OW27736   2.592   0.303   9.305  0.4596  0.4889 -0.0080
 5426SOL    HW127737   2.636   0.218   9.311  1.4255  0.9018 -1.1688
 5426SOL    HW227738   2.663   0.360   9.335  0.8306 -0.0778  0.2060
 5427SOL     OW27739   2.877   0.054   6.767  0.3934 -0.0885 -0.0302
 5427SOL    HW127740   2.970   0.048   6.744  0.5102  1.8401  0.0097
 5427SOL    HW227741   2.868   0.149   6.767  0.8740 -0.0415 -0.3789
 5428SOL     OW27742   2.702   2.627  13.124 -0.2353  0.1113  0.6234
 5428SOL    HW127743   2.634   2.669  13.071  1.4432  0.0741 -1.5410
 5428SOL    HW227744   2.781   2.640  13.072 -0.2015 -0.2723  0.5730
 5429SOL     OW27745   0.297   1.552  15.254  0.1750  0.2157  0.3451
 5429SOL    HW127746   0.255   1.490  15.314 -1.3816  1.6065  0.6908
 5429SOL    HW227747   0.315   1.620  15.319  0.5700  1.2414 -0.8560
 5430SOL     OW27748   3.186   3.764  10.915  0.0625  0.4411 -0.1005
 5430SOL    HW127749   3.193   3.709  10.993 -0.5786 -0.9638 -1.0285
 5430SOL    HW227750   3.147   3.848  10.938 -0.5903  0.2885 -0.6210
 5431SOL     OW27751   2.480   3.665   0.391 -0.2028  0.5206 -0.0273
 5431SOL    HW127752   2.458   3.729   0.324  1.8051  0.4030 -0.8091
 5431SOL    HW227753   2.458   3.719   0.467 -2.8477  0.3789 -0.6993
 5432SOL     OW27754   0.099   0.166   4.940  0.1280 -0.3353 -0.0988
 5432SOL    HW127755   0.154   0.103   4.894 -1.2274 -1.0899 -0.6762
 5432SOL    HW227756   0.105   0.135   5.030  0.4805 -1.9906 -0.6963
 5433SOL     OW27757   4.567   3.914   8.994  0.1903 -0.2771  0.0246
 5433SOL    HW127758   4.627   3.989   8.986  0.4216 -0.5908 -1.1619
 5433SOL    HW227759   4.482   3.955   8.976  1.2050  2.2110  0.9278
 5434SOL     OW27760   2.543   4.191   4.809  0.2356 -0.0819  0.1297
 5434SOL    HW127761   2.582   4.105   4.796  2.1298  1.1440 -2.4384
 5434SOL    HW227762   2.498   4.177   4.892 -2.1410  1.4455 -0.9037
 5435SOL     OW27763   3.136   4.597   4.919 -0.0221  0.7282 -0.4657
 5435SOL    HW127764   3.080   4.675   4.924  0.7149  1.3229 -1.6992
 5435SOL    HW227765   3.090   4.526   4.964  0.8976  1.1892  1.2189
 5436SOL     OW27766   0.772   0.121  11.614  0.3289  0.2644  0.0441
 5436SOL    HW127767   0.779   0.215  11.633  1.3325  0.3864 -0.9116
 5436SOL    HW227768   0.756   0.124  11.519  0.9234 -0.5732 -0.0798
 5437SOL     OW27769   2.319   0.561  17.365 -0.0159 -0.0026  0.1875
 5437SOL    HW127770   2.354   0.473  17.381 -0.3947 -0.3828 -1.0785
 5437SOL    HW227771   2.329   0.600  17.451  1.4376  2.8604 -1.3042
 5438SOL     OW27772   4.672   0.643  13.220  0.3620 -0.1678  0.1833
 5438SOL    HW127773   4.598   0.637  13.281  2.0379  0.8934  2.3158
 5438SOL    HW227774   4.676   0.552  13.192  1.6024 -0.3290  0.9143
 5439SOL     OW27775   3.981   2.835   9.253  0.6412 -0.1000 -0.2130
 5439SOL    HW127776   3.905   2.844   9.311  0.6742  0.1094 -0.2002
 5439SOL    HW227777   3.998   2.927   9.232  1.8286 -1.0212 -3.3008
 5440SOL     OW27778   2.606   2.108  14.414  0.7734  0.4604 -0.3275
 5440SOL    HW127779   2.566   2.022  14.426  0.5605  0.5614 -0.3246
 5440SOL    HW227780   2.673   2.091  14.347  0.1560  0.3710 -0.9152
 5441SOL     OW27781   1.413   0.230  17.494 -0.0862 -0.5556  0.0679
 5441SOL    HW127782   1.344   0.169  17.518 -0.9913 -0.1303 -1.3850
 5441SOL    HW227783   1.440   0.271  17.576  1.0485 -1.5589  0.1876
 5442SOL     OW27784   4.461   0.643   9.484 -0.3200 -0.3175 -0.6490
 5442SOL    HW127785   4.435   0.726   9.444 -1.7154  0.0726  1.1129
 5442SOL    HW227786   4.513   0.605   9.413  1.0541  0.9483 -0.3196
 5443SOL     OW27787   1.509   0.700   1.655  0.4463  0.0025 -0.1453
 5443SOL    HW127788   1.546   0.709   1.567  2.6192  0.6134  0.8383
 5443SOL    HW227789   1.450   0.775   1.645  0.2833  0.3600  3.5373
 5444SOL     OW27790   2.135   1.052   5.284  0.3738  0.2636  0.2160
 5444SOL    HW127791   2.195   1.124   5.268  1.9133 -1.1140 -0.2636
 5444SOL    HW227792   2.183   1.003   5.351  0.2469  0.2420  0.2902
 5445SOL     OW27793   1.262   2.382   8.828  0.2306 -0.6382  0.8671
 5445SOL    HW127794   1.272   2.376   8.733  0.6832  1.4733  0.7991
 5445SOL    HW227795   1.271   2.477   8.831  0.1232 -0.5024 -2.4193
 5446SOL     OW27796   0.270   3.071  14.472 -0.3449 -0.5813 -0.8088
 5446SOL    HW127797   0.360   3.074  14.506 -1.0467  1.3333  0.8902
 5446SOL    HW227798   0.285   3.077  14.378  2.0486 -0.1698 -0.4006
 5447SOL     OW27799   3.066   1.085   7.169 -0.5156  0.7817  0.0789
 5447SOL    HW127800   3.092   1.150   7.103  3.2792 -1.0516 -0.1886
 5447SOL    HW227801   3.140   1.069   7.227 -0.4732  2.6221  0.5371
 5448SOL     OW27802   1.004   2.657   0.337  0.3114 -0.2379  0.5020
 5448SOL    HW127803   0.927   2.660   0.394 -0.8264  3.4323 -1.1635
 5448SOL    HW227804   1.046   2.577   0.368  0.0941 -0.6404 -0.2331
 5449SOL     OW27805   1.645   0.259  15.497 -0.0183  0.1564  0.5018
 5449SOL    HW127806   1.555   0.254  15.529  0.4246  2.4855  2.1375
 5449SOL    HW227807   1.684   0.198  15.560 -1.4337 -2.7085 -1.3863
 5450SOL     OW27808   0.432   4.055   2.941 -0.0146 -0.1971 -0.3963
 5450SOL    HW127809   0.464   4.098   2.862  0.5281 -0.6357 -0.4149
 5450SOL    HW227810   0.450   3.963   2.921  2.1680 -0.1728  1.5174
 5451SOL     OW27811   3.868   3.459   5.020  0.0879 -0.2366 -0.2088
 5451SOL    HW127812   3.941   3.518   5.005 -0.7053  0.7815 -0.0302
 5451SOL    HW227813   3.795   3.499   4.973  0.7976  0.5448 -0.6351
 5452SOL     OW27814   3.778   3.453  10.693  0.2294  0.7681  0.4135
 5452SOL    HW127815   3.691   3.482  10.718 -0.4904  0.0350 -1.2676
 5452SOL    HW227816   3.792   3.495  10.608 -2.4319 -2.0346 -1.3926
 5453SOL     OW27817   3.415   1.134   3.437  0.1436 -0.2662  0.1945
 5453SOL    HW127818   3.465   1.212   3.415 -1.1755  1.4081  3.2096
 5453SOL    HW227819   3.401   1.092   3.352  0.5596 -0.4320  0.2065
 5454SOL     OW27820   1.292   4.655   2.502  0.1574  0.2602 -0.3480
 5454SOL    HW127821   1.328   4.598   2.434 -0.4099  1.3939 -1.5902
 5454SOL    HW227822   1.347   4.652   2.581 -1.8720  2.2506  1.1343
 5455SOL     OW27823   3.599   2.733   2.224  0.5290 -0.3274  0.4082
 5455SOL    HW127824   3.602   2.821   2.262  0.1148  1.2729 -3.3067
 5455SOL    HW227825   3.628   2.743   2.133 -0.0288 -2.0061  0.0328
 5456SOL     OW27826   2.126   1.872   6.285  0.1638  0.2947 -0.2425
 5456SOL    HW127827   2.125   1.850   6.378 -1.7559 -1.2112 -0.6404
 5456SOL    HW227828   2.216   1.903   6.277 -0.0498  0.7799 -0.7698
 5457SOL     OW27829   2.740   2.382   5.084  0.5595 -0.2256  0.1253
 5457SOL    HW127830   2.793   2.347   5.012  1.2484 -0.6823  0.8557
 5457SOL    HW227831   2.753   2.304   5.138  0.6069 -1.0002 -1.0028
 5458SOL     OW27832   2.510   2.913   5.220  0.0237 -0.0630  0.0131
 5458SOL    HW127833   2.474   2.990   5.264 -0.2833  0.2519 -0.7835
 5458SOL    HW227834   2.590   2.950   5.181  0.7198  2.5033  3.7902
 5459SOL     OW27835   3.108   0.391   3.977  0.0249  0.4159 -0.0563
 5459SOL    HW127836   3.081   0.383   3.885  0.0979  0.0105 -0.0418
 5459SOL    HW227837   3.140   0.303   3.997  0.7140  1.0042  1.4040
 5460SOL     OW27838   1.558   0.305  10.296 -0.0780 -0.1267 -0.0979
 5460SOL    HW127839   1.516   0.286  10.380  1.1312 -1.8611  0.0909
 5460SOL    HW227840   1.542   0.222  10.252  1.1594 -0.0083 -0.7531
 5461SOL     OW27841   4.397   2.878   4.187 -0.0918 -0.0281 -0.6437
 5461SOL    HW127842   4.423   2.804   4.133  1.9442 -0.2104  0.5952
 5461SOL    HW227843   4.480   2.880   4.235 -0.4955 -0.0078  0.0518
 5462SOL     OW27844   1.522   2.231   8.323  0.0111 -0.1791 -0.0261
 5462SOL    HW127845   1.609   2.216   8.286  0.2959  1.2074  0.0709
 5462SOL    HW227846   1.480   2.269   8.246 -0.4074 -0.1604  0.2102
 5463SOL     OW27847   0.526   0.015   0.006  0.4580 -0.5000  0.1613
 5463SOL    HW127848   0.525   0.032   0.100 -1.7052  1.0505 -0.1186
 5463SOL    HW227849   0.560   0.092  17.656  1.8471 -0.1695  1.7425
 5464SOL     OW27850   0.254   0.164  13.188 -0.1135 -0.2017  0.4980
 5464SOL    HW127851   0.315   0.162  13.114 -0.8817 -1.3358 -0.0956
 5464SOL    HW227852   0.251   0.069  13.201 -2.2491 -0.0317  1.1631
 5465SOL     OW27853   4.282   2.522  11.144  0.1383  0.0365  0.3870
 5465SOL    HW127854   4.290   2.608  11.186  0.0914  0.0319  0.4051
 5465SOL    HW227855   4.245   2.539  11.058 -0.0929  1.0528  0.6844
 5466SOL     OW27856   0.024   0.925   4.780 -0.7333 -0.1534 -0.3042
 5466SOL    HW127857   0.080   0.910   4.855 -0.2888  0.8942 -0.4257
 5466SOL    HW227858   0.017   0.837   4.743 -0.3811  0.2896 -1.4228
 5467SOL     OW27859   4.304   2.403   5.374  0.4042  0.1348 -0.4388
 5467SOL    HW127860   4.393   2.430   5.398 -0.3016  0.5097  1.7106
 5467SOL    HW227861   4.266   2.486   5.343  0.1946  0.2055  0.0150
 5468SOL     OW27862   3.733   0.091   9.144  0.0151  0.0137 -0.5614
 5468SOL    HW127863   3.648   0.136   9.147 -0.2759 -0.6059  0.3704
 5468SOL    HW227864   3.794   0.159   9.113  0.5523 -0.2539 -0.0858
 5469SOL     OW27865   0.155   1.060   7.577  0.2995  0.0546 -0.3392
 5469SOL    HW127866   0.141   1.138   7.630  1.6218 -1.7185  2.6163
 5469SOL    HW227867   0.114   0.999   7.638 -1.1942  0.5379 -0.8607
 5470SOL     OW27868   3.184   0.329   4.716 -0.2172 -0.2557 -0.0634
 5470SOL    HW127869   3.250   0.393   4.690 -1.8430  2.2921  2.1455
 5470SOL    HW227870   3.121   0.379   4.768  0.8562 -0.2608  1.2555
 5471SOL     OW27871   3.284   2.199  13.053 -0.1602  0.2872  0.4198
 5471SOL    HW127872   3.318   2.174  12.967  1.1261  0.1173  0.9742
 5471SOL    HW227873   3.192   2.175  13.042 -0.2655  1.7899 -2.1679
 5472SOL     OW27874   3.288   3.109  11.265 -0.2713 -0.4985 -0.4627
 5472SOL    HW127875   3.257   3.120  11.175 -0.0631 -0.2085 -0.4974
 5472SOL    HW227876   3.323   3.020  11.271 -0.1721 -0.4251  0.0491
 5473SOL     OW27877   3.562   1.576   9.232 -0.7832 -0.4433 -0.7536
 5473SOL    HW127878   3.587   1.551   9.321 -0.4427  0.0363 -0.7149
 5473SOL    HW227879   3.576   1.670   9.241  1.4618 -0.8835  0.4775
 5474SOL     OW27880   0.179   2.133   7.675  0.5647  0.0149  0.5880
 5474SOL    HW127881   0.136   2.114   7.758  0.3196 -1.1616  0.1935
 5474SOL    HW227882   0.132   2.208   7.639  3.1271  0.2910 -2.1868
 5475SOL     OW27883   4.122   2.326  17.403 -0.3941 -0.4308  0.5858
 5475SOL    HW127884   4.036   2.289  17.383 -1.0723  0.3708  2.0366
 5475SOL    HW227885   4.110   2.412  17.362 -1.1088 -0.3613  0.9332
 5476SOL     OW27886   1.684   3.155   3.807  0.7368 -0.3755  0.9917
 5476SOL    HW127887   1.687   3.062   3.783  0.3698  0.0224 -0.5924
 5476SOL    HW227888   1.606   3.161   3.863  0.3709 -1.7766  0.6449
 5477SOL     OW27889   3.032   0.724   5.164 -0.3759 -0.0874 -0.4120
 5477SOL    HW127890   3.112   0.703   5.116  1.3747  1.2939  1.9183
 5477SOL    HW227891   2.957   0.711   5.105  0.8879  1.2989 -2.3454
 5478SOL     OW27892   0.685   1.085   2.611  0.0582  0.3694  0.4256
 5478SOL    HW127893   0.698   1.010   2.553 -1.1361  1.1369 -0.8387
 5478SOL    HW227894   0.775   1.119   2.610  0.7490 -1.5210 -1.7884
 5479SOL     OW27895   4.718   3.915   7.133  0.5001  0.0108 -0.4747
 5479SOL    HW127896   4.703   3.848   7.200 -0.1284 -0.4382 -1.0739
 5479SOL    HW227897   0.049   3.974   7.186 -0.3983  2.0621 -1.8494
 5480SOL     OW27898   3.968   1.947   5.920  0.1614  0.2118 -0.0875
 5480SOL    HW127899   3.917   1.922   5.843  1.8178 -0.0581 -1.0830
 5480SOL    HW227900   4.028   2.014   5.887  0.9141  1.1932  3.2728
 5481SOL     OW27901   1.473   0.912   3.132  0.2451  0.6990  0.2751
 5481SOL    HW127902   1.531   0.948   3.065  0.3737 -0.0536 -0.0095
 5481SOL    HW227903   1.496   0.969   3.206 -1.2208  0.7710  0.6671
 5482SOL     OW27904   3.087   3.357   7.208  0.2248 -0.5418  0.0262
 5482SOL    HW127905   3.022   3.287   7.210  0.4559 -0.7493  0.2227
 5482SOL    HW227906   3.076   3.412   7.130 -0.5222 -3.0983 -1.6660
 5483SOL     OW27907   1.080   1.898   5.219  0.6103  0.0748 -0.2059
 5483SOL    HW127908   1.037   1.945   5.148  0.0571 -3.6943 -2.4190
 5483SOL    HW227909   1.164   1.874   5.179  1.2094  0.1519  1.0101
 5484SOL     OW27910   2.583   1.139  14.184 -0.6029 -0.5870 -0.0708
 5484SOL    HW127911   2.623   1.054  14.205 -3.3236 -2.1196 -1.1332
 5484SOL    HW227912   2.514   1.106  14.126  0.4692 -0.4846 -1.3953
 5485SOL     OW27913   1.618   4.013   4.544 -0.3407  0.2476 -0.0638
 5485SOL    HW127914   1.560   4.088   4.553  1.2201  1.2637  1.5271
 5485SOL    HW227915   1.617   4.001   4.449  3.4882 -1.4474  0.0871
 5486SOL     OW27916   4.327   1.241  17.695  0.2053  0.3072  0.0207
 5486SOL    HW127917   4.409   1.271   0.038 -0.6874  1.6739  0.8036
 5486SOL    HW227918   4.263   1.256   0.067  1.6086 -1.2461  1.6793
 5487SOL     OW27919   2.322   2.110   0.912  0.0255 -0.0184  0.0671
 5487SOL    HW127920   2.369   2.060   0.846  2.9794  1.4814  1.0294
 5487SOL    HW227921   2.282   2.045   0.970 -0.6566  0.0236 -0.3551
 5488SOL     OW27922   3.756   2.022   6.521  0.6265  0.2492  0.1334
 5488SOL    HW127923   3.790   2.025   6.432 -0.7846 -1.6857 -0.4723
 5488SOL    HW227924   3.782   1.938   6.559 -0.5314 -0.7562 -1.2734
 5489SOL     OW27925   3.427   1.586  15.209  1.1739  0.4816 -0.3663
 5489SOL    HW127926   3.522   1.590  15.209  1.1961 -0.1349  0.9098
 5489SOL    HW227927   3.417   1.497  15.173  0.6902  0.6286 -0.5955
 5490SOL     OW27928   0.079   4.471   9.469  0.0265 -0.0108 -0.0659
 5490SOL    HW127929   0.126   4.554   9.462 -0.6760  0.4928  1.2589
 5490SOL    HW227930   4.713   4.501   9.480  1.0813  2.3314  2.4106
 5491SOL     OW27931   1.449   3.753   2.097  1.1197 -0.1575  0.5837
 5491SOL    HW127932   1.423   3.839   2.066  0.1272 -0.0752  1.6381
 5491SOL    HW227933   1.514   3.769   2.166  0.3682  0.6549  1.1053
 5492SOL     OW27934   4.577   0.648   7.379 -0.4820  0.3832 -0.0232
 5492SOL    HW127935   4.631   0.607   7.446 -2.0485 -1.7841 -0.0851
 5492SOL    HW227936   4.538   0.720   7.429  0.6076 -1.4142  3.4272
 5493SOL     OW27937   0.708   4.020  16.664  0.2824 -0.1380 -0.5044
 5493SOL    HW127938   0.679   3.948  16.607 -0.3875 -2.3826  2.6872
 5493SOL    HW227939   0.671   3.996  16.749  1.7131  3.4799  1.1562
 5494SOL     OW27940   4.341   0.919   7.801 -0.1536  0.1133 -0.8318
 5494SOL    HW127941   4.407   0.989   7.805  1.2894 -1.3062  0.0895
 5494SOL    HW227942   4.264   0.953   7.756 -1.2225 -0.3485  0.6256
 5495SOL     OW27943   2.057   4.093   4.928 -0.4281 -0.3775  0.2836
 5495SOL    HW127944   2.151   4.081   4.922 -0.3540  0.3357  0.0599
 5495SOL    HW227945   2.048   4.180   4.889 -1.5064  0.6533  2.8303
 5496SOL     OW27946   4.695   3.435   8.595  0.0252  0.4424  0.4534
 5496SOL    HW127947   4.639   3.371   8.551 -0.7004  1.4282 -0.0502
 5496SOL    HW227948   4.651   3.448   8.679 -2.5687  1.2818 -1.0336
 5497SOL     OW27949   1.477   0.319   6.057  0.6403 -0.4352  0.0837
 5497SOL    HW127950   1.523   0.401   6.074 -0.0220 -0.2962  1.2504
 5497SOL    HW227951   1.525   0.278   5.985 -3.8971 -1.2344 -2.5379
 5498SOL     OW27952   1.761   4.129   6.511  0.1215  0.1907  0.6068
 5498SOL    HW127953   1.786   4.060   6.572  1.5613 -0.6984 -0.9884
 5498SOL    HW227954   1.847   4.168   6.495  0.7417 -0.5595  2.0986
 5499SOL     OW27955   0.066   3.210   3.524  0.3749 -0.1589  0.3209
 5499SOL    HW127956   4.706   3.192   3.568 -0.4556  1.6642 -0.5157
 5499SOL    HW227957   0.124   3.218   3.599  0.2606  0.3216  0.3607
 5500SOL     OW27958   2.794   0.595  17.019 -0.2554 -0.0152 -0.3099
 5500SOL    HW127959   2.766   0.671  17.071 -0.6131  0.2934 -0.9484
 5500SOL    HW227960   2.813   0.632  16.934 -0.0045  0.8635  0.1295
 5501SOL     OW27961   3.451   2.372   3.008 -0.2399 -0.4858  0.3465
 5501SOL    HW127962   3.482   2.435   3.073 -3.5031  0.5815  0.8666
 5501SOL    HW227963   3.458   2.412   2.921  1.0494  1.4439  1.3456
 5502SOL     OW27964   4.038   0.177  11.299  0.5918  0.0696 -0.4312
 5502SOL    HW127965   3.977   0.245  11.329  1.3415  0.1344  0.9695
 5502SOL    HW227966   3.987   0.134  11.230  0.8992 -1.2794  0.1825
 5503SOL     OW27967   2.068   2.917  10.645  0.3219 -0.3973 -0.2709
 5503SOL    HW127968   2.062   2.909  10.740 -0.2608  1.7892 -0.1143
 5503SOL    HW227969   2.141   2.980  10.639  0.6360 -0.7570 -0.2171
 5504SOL     OW27970   2.057   4.651  17.450 -0.4111  0.2852 -0.2896
 5504SOL    HW127971   2.065   4.688  17.362  2.6443 -0.2604 -0.2475
 5504SOL    HW227972   2.132   4.592  17.449  1.0075  2.0611  0.0880
 5505SOL     OW27973   2.802   3.221   0.197  0.7405  0.3357  0.4098
 5505SOL    HW127974   2.838   3.176   0.121  1.3802 -1.7360  1.9306
 5505SOL    HW227975   2.823   3.147   0.255 -0.4796 -0.6510 -0.4024
 5506SOL     OW27976   0.214   3.369   8.976 -0.1234  0.0271 -0.8555
 5506SOL    HW127977   0.285   3.413   9.022 -1.0475  0.0941  0.5216
 5506SOL    HW227978   0.150   3.436   8.951  0.1466  0.3977 -0.5491
 5507SOL     OW27979   0.240   0.636  15.606  0.5420  0.4645  0.6237
 5507SOL    HW127980   0.217   0.671  15.519  2.1728  2.4464  0.9999
 5507SOL    HW227981   0.161   0.643  15.660 -1.0494 -1.2569 -1.4543
 5508SOL     OW27982   3.081   2.551   3.182 -0.2001 -0.6824 -0.2667
 5508SOL    HW127983   3.118   2.470   3.148 -1.2613 -1.5983  0.7525
 5508SOL    HW227984   2.988   2.545   3.159 -0.3016  1.3766 -0.4220
 5509SOL     OW27985   0.935   2.964  14.635 -0.6146 -0.0820  0.7868
 5509SOL    HW127986   0.919   2.986  14.544 -1.0867  3.3311  1.7001
 5509SOL    HW227987   0.921   3.044  14.685 -0.9614  1.0648 -1.1908
 5510SOL     OW27988   2.661   0.181  15.377 -0.2767 -0.1593 -0.3162
 5510SOL    HW127989   2.721   0.255  15.390 -0.4664 -0.0004 -0.3385
 5510SOL    HW227990   2.583   0.230  15.351 -0.9030 -1.1838 -0.3302
 5511SOL     OW27991   4.122   2.620   5.304  0.2323 -0.0293  0.5252
 5511SOL    HW127992   4.068   2.562   5.358  0.6937  0.0471  1.0682
 5511SOL    HW227993   4.156   2.684   5.366  0.1795 -0.7858  1.3398
 5512SOL     OW27994   1.337   4.236  15.774 -0.7277 -0.2255 -0.4650
 5512SOL    HW127995   1.325   4.284  15.692  2.7887  2.4526  0.5971
 5512SOL    HW227996   1.252   4.251  15.816  0.7139 -1.1778  2.7416
 5513SOL     OW27997   3.649   2.031   5.119 -0.1283  0.2726 -0.2104
 5513SOL    HW127998   3.562   2.050   5.157  1.3134 -0.4625  3.5036
 5513SOL    HW227999   3.699   2.107   5.148  0.3591  1.3071 -3.7818
 5514SOL     OW28000   2.039   4.087   8.177 -0.4049  0.1531 -0.1348
 5514SOL    HW128001   2.051   4.154   8.110 -1.1104 -0.8240 -1.2555
 5514SOL    HW228002   2.129   4.063   8.199 -1.0275 -2.2024 -0.1193
 5515SOL     OW28003   1.174   1.105   3.916 -0.1528 -0.0090 -0.0172
 5515SOL    HW128004   1.149   1.043   3.847  2.9795 -3.1106  1.5994
 5515SOL    HW228005   1.245   1.058   3.961 -0.6115 -0.0392  0.6699
 5516SOL     OW28006   2.043   1.135   3.198 -0.2850  0.0455 -0.1240
 5516SOL    HW128007   2.101   1.200   3.236  1.1994 -1.6664  0.5368
 5516SOL    HW228008   2.008   1.194   3.132  1.9226 -0.3985 -1.6656
 5517SOL     OW28009   2.352   3.103   7.354  0.3507  0.2118 -0.5951
 5517SOL    HW128010   2.355   3.149   7.270 -0.1079 -1.7607 -1.6746
 5517SOL    HW228011   2.439   3.065   7.357 -0.6635 -1.8802  2.8602
 5518SOL     OW28012   4.327   2.079   4.940  0.2405  0.0662 -0.0644
 5518SOL    HW128013   4.412   2.121   4.933  0.7536 -0.5600  2.1817
 5518SOL    HW228014   4.355   2.006   4.995  1.8767 -0.1134 -1.1624
 5519SOL     OW28015   2.610   1.219  16.802 -0.1683 -0.5081  0.1659
 5519SOL    HW128016   2.696   1.177  16.795  0.0858 -0.4179  2.7572
 5519SOL    HW228017   2.613   1.282  16.730  0.0319  1.0872  1.5680
 5520SOL     OW28018   1.782   0.620   3.392 -0.5289  0.2103  0.1326
 5520SOL    HW128019   1.835   0.594   3.317 -0.5132 -0.6969  0.4524
 5520SOL    HW228020   1.858   0.653   3.440 -0.3718 -2.2065  1.5748
 5521SOL     OW28021   2.213   4.219   9.226  0.4138 -0.5210  0.2401
 5521SOL    HW128022   2.124   4.217   9.193  0.5977  0.3373 -0.3133
 5521SOL    HW228023   2.224   4.126   9.243 -0.9989 -0.7003  0.0955
 5522SOL     OW28024   0.611   1.490  13.412 -0.0508 -0.3376  0.4347
 5522SOL    HW128025   0.641   1.580  13.413  1.7473 -0.9219 -0.2325
 5522SOL    HW228026   0.603   1.465  13.504  1.1073 -2.2037  0.0461
 5523SOL     OW28027   1.725   3.862  10.972 -0.4673 -0.0726 -0.2230
 5523SOL    HW128028   1.753   3.930  11.033 -0.0361 -2.0373  1.7742
 5523SOL    HW228029   1.736   3.902  10.886  2.5416  1.1399  0.7326
 5524SOL     OW28030   1.629   1.350  16.450 -0.3835  0.4102  0.1735
 5524SOL    HW128031   1.577   1.422  16.485  0.5773  1.1340  0.1210
 5524SOL    HW228032   1.713   1.397  16.446 -0.5117  0.4785 -1.9685
 5525SOL     OW28033   4.445   2.376   9.028  0.2575 -1.0733  0.5983
 5525SOL    HW128034   4.353   2.396   9.048  0.4941 -2.1669  2.8731
 5525SOL    HW228035   4.479   2.377   9.118  2.0300  0.9319 -0.1068
 5526SOL     OW28036   3.463   3.479  11.007  0.3146  0.0169 -0.0306
 5526SOL    HW128037   3.471   3.569  11.039  0.0970  1.2856 -3.5938
 5526SOL    HW228038   3.515   3.486  10.927  0.5678 -0.1923  0.1170
 5527SOL     OW28039   2.447   1.178   4.965 -0.5662 -0.0595  0.2704
 5527SOL    HW128040   2.513   1.194   5.034 -0.9875 -2.1749  1.1772
 5527SOL    HW228041   2.366   1.197   5.012 -1.3771 -1.9131 -0.3836
 5528SOL     OW28042   3.680   2.680   4.819  0.3548  0.6352  0.4072
 5528SOL    HW128043   3.595   2.714   4.792  0.0393  0.4609  1.1617
 5528SOL    HW228044   3.704   2.624   4.745 -3.5790 -0.4205 -0.1253
 5529SOL     OW28045   2.470   2.894   6.651  0.0233 -0.0850  0.0332
 5529SOL    HW128046   2.375   2.891   6.642 -0.1844  2.4874  1.3561
 5529SOL    HW228047   2.498   2.883   6.560  0.1810 -0.2584  0.1015
 5530SOL     OW28048   4.463   4.185  16.343  0.3100  0.2679  0.5558
 5530SOL    HW128049   4.529   4.130  16.385  0.0951 -0.7915 -0.5128
 5530SOL    HW228050   4.497   4.199  16.255  0.5462 -0.5475  0.5216
 5531SOL     OW28051   0.472   4.286   9.171 -0.1633  0.2063  0.2042
 5531SOL    HW128052   0.441   4.356   9.229  1.6824  0.3461  1.0326
 5531SOL    HW228053   0.517   4.222   9.226  0.2028 -0.3092 -0.6967
 5532SOL     OW28054   3.049   2.466   6.653 -0.1446 -0.1578  1.1612
 5532SOL    HW128055   2.955   2.458   6.669 -0.1197  0.7913  1.8004
 5532SOL    HW228056   3.070   2.376   6.626  0.2076 -0.2490  1.7472
 5533SOL     OW28057   4.579   2.236   4.722 -0.6846 -0.7810  0.8299
 5533SOL    HW128058   4.521   2.311   4.723 -1.3961 -1.3168 -0.4740
 5533SOL    HW228059   4.615   2.242   4.811 -0.3758  2.5833  0.4586
 5534SOL     OW28060   4.067   0.265   5.196  0.0653  0.4502 -0.3093
 5534SOL    HW128061   4.114   0.286   5.115  0.1692  2.4300  0.2577
 5534SOL    HW228062   4.119   0.309   5.262 -1.3441 -0.8701  1.6784
 5535SOL     OW28063   0.574   1.637  12.725 -0.3850  0.2195  0.0986
 5535SOL    HW128064   0.486   1.666  12.750 -0.5735  0.1368 -0.4745
 5535SOL    HW228065   0.619   1.667  12.804  0.0661  0.4882 -0.2615
 5536SOL     OW28066   1.297   1.812  14.114 -0.5277 -0.0214 -0.7061
 5536SOL    HW128067   1.317   1.860  14.034  0.0482  2.9775  1.2305
 5536SOL    HW228068   1.210   1.850  14.129 -0.2276  0.5085 -0.3140
 5537SOL     OW28069   4.305   0.398   9.559  0.0479 -0.5309 -0.1679
 5537SOL    HW128070   4.326   0.363   9.473 -0.9937 -0.8074 -0.3176
 5537SOL    HW228071   4.356   0.478   9.573 -0.6832 -0.0996  0.0354
 5538SOL     OW28072   3.586   4.703   2.770  0.4280 -0.2472  0.3297
 5538SOL    HW128073   3.533   4.699   2.850 -0.7052 -1.9693 -0.5024
 5538SOL    HW228074   3.595   0.074   2.760 -0.2498 -0.3194 -0.9498
 5539SOL     OW28075   2.858   0.187   7.950  0.2149 -0.1863  0.0300
 5539SOL    HW128076   2.925   0.237   7.996 -0.2474 -1.5113  2.1468
 5539SOL    HW228077   2.784   0.179   8.009  2.0420 -1.9254  2.1231
 5540SOL     OW28078   3.084   3.344  17.122  0.2143 -0.0075  0.1640
 5540SOL    HW128079   3.093   3.384  17.208 -0.3947 -1.0674  0.7183
 5540SOL    HW228080   3.061   3.253  17.139 -1.8248  0.2888 -1.0466
 5541SOL     OW28081   0.131   1.107   5.247 -0.3421 -0.0087  0.9335
 5541SOL    HW128082   0.039   1.095   5.223 -0.2800  0.8840  0.2517
 5541SOL    HW228083   0.168   1.164   5.180 -0.5959  0.5199  1.2397
 5542SOL     OW28084   2.513   0.313   2.820  0.0127  0.5020 -0.0610
 5542SOL    HW128085   2.426   0.276   2.807 -0.4949  1.2885  1.1285
 5542SOL    HW228086   2.530   0.277   2.907 -1.7706 -2.1040 -0.8003
 5543SOL     OW28087   0.749   0.062   6.521  0.6770  0.3528  0.1429
 5543SOL    HW128088   0.781   0.031   6.437  1.0265  3.2440 -0.7808
 5543SOL    HW228089   0.817   0.026   6.578  0.8861  0.2517 -0.1707
 5544SOL     OW28090   0.357   0.322   6.400 -0.0693  0.6387 -0.2033
 5544SOL    HW128091   0.422   0.329   6.469  0.6646 -0.5385 -0.7615
 5544SOL    HW228092   0.276   0.338   6.448 -0.4331 -1.1703 -0.2012
 5545SOL     OW28093   3.962   3.095   9.220  0.1762  0.3248 -0.5166
 5545SOL    HW128094   3.903   3.165   9.193  0.0297 -0.0140 -1.0710
 5545SOL    HW228095   4.014   3.135   9.289 -1.3423  1.2122  0.0990
 5546SOL     OW28096   1.779   4.616  16.265 -0.4938  0.4862  0.2151
 5546SOL    HW128097   1.723   4.573  16.330 -2.8077  1.7939 -0.9049
 5546SOL    HW228098   1.765   4.551  16.196  2.2747 -1.5400  1.5897
 5547SOL     OW28099   3.186   4.160   8.547  0.0518 -0.1011 -0.1966
 5547SOL    HW128100   3.093   4.156   8.567  0.1436 -0.7404  0.1170
 5547SOL    HW228101   3.181   4.181   8.454 -1.0320 -1.4331 -0.4342
 5548SOL     OW28102   1.836   0.968   5.858 -0.4332 -0.2474 -0.3471
 5548SOL    HW128103   1.807   0.930   5.941  0.7590  0.6103  0.4670
 5548SOL    HW228104   1.837   0.895   5.797 -0.1336  0.3222 -1.0189
 5549SOL     OW28105   0.997   4.526   7.393  0.0776 -0.3619 -0.5728
 5549SOL    HW128106   1.036   4.469   7.460 -1.0891 -3.0859 -2.2060
 5549SOL    HW228107   1.027   4.612   7.423  0.3445 -0.5914 -0.1742
 5550SOL     OW28108   1.333   3.897  12.743  0.2584  0.3920 -0.0371
 5550SOL    HW128109   1.319   3.891  12.649  0.6142 -0.0488 -0.0599
 5550SOL    HW228110   1.343   3.804  12.761  0.2843  0.0166 -2.0590
 5551SOL     OW28111   2.184   1.986   1.134 -0.3045  0.3043 -0.2436
 5551SOL    HW128112   2.132   1.914   1.099 -0.9180 -0.1841  1.6650
 5551SOL    HW228113   2.149   2.002   1.222  0.7125  2.2903 -0.1875
 5552SOL     OW28114   3.027   1.031   3.824 -0.5360 -0.2896  0.4926
 5552SOL    HW128115   3.070   1.095   3.881 -3.6428  2.2646 -0.0348
 5552SOL    HW228116   3.043   0.953   3.878  1.9059  2.4124  3.6285
 5553SOL     OW28117   0.904   3.193  15.811  0.1539  0.3674 -0.0066
 5553SOL    HW128118   0.929   3.280  15.782  2.0226 -0.6151 -1.3641
 5553SOL    HW228119   0.860   3.217  15.892 -0.2468 -3.3649  0.9049
 5554SOL     OW28120   1.283   1.113  13.485  0.3999  0.5698 -0.9229
 5554SOL    HW128121   1.207   1.062  13.513  0.4879  0.7669 -0.3251
 5554SOL    HW228122   1.252   1.148  13.401 -0.6363 -0.3404 -0.9070
 5555SOL     OW28123   0.633   3.015   3.107 -0.4111  0.3420  0.1503
 5555SOL    HW128124   0.551   2.966   3.117  1.8375 -3.1572  1.3717
 5555SOL    HW228125   0.694   2.954   3.150  0.1590 -0.9881 -2.5223
 5556SOL     OW28126   0.874   1.487   2.699  0.3447 -0.1832 -0.3305
 5556SOL    HW128127   0.809   1.417   2.688  1.2414 -1.1311  0.4671
 5556SOL    HW228128   0.883   1.527   2.612 -0.1242  2.0406  0.6546
 5557SOL     OW28129   1.195   0.949   9.436  0.1060  0.4752  0.1216
 5557SOL    HW128130   1.174   0.971   9.527 -2.2920 -1.9717  0.1554
 5557SOL    HW228131   1.109   0.959   9.394  1.3654 -2.4977 -3.1434
 5558SOL     OW28132   1.112   3.836   5.882 -0.5285  0.1447  0.2176
 5558SOL    HW128133   1.161   3.763   5.918 -2.2676 -0.4632  1.3643
 5558SOL    HW228134   1.112   3.902   5.952 -3.1217 -1.7417  2.0095
 5559SOL     OW28135   4.254   1.025   6.166  0.1396  0.0353  0.5071
 5559SOL    HW128136   4.189   1.063   6.106 -0.2165 -3.8235 -1.5154
 5559SOL    HW228137   4.265   0.939   6.125  0.0380 -0.8861  2.4149
 5560SOL     OW28138   3.202   3.476  16.153 -0.0259  0.4592 -0.4576
 5560SOL    HW128139   3.203   3.480  16.249 -1.2540  2.1237 -0.5060
 5560SOL    HW228140   3.135   3.408  16.147  2.6250 -2.2429  0.9097
 5561SOL     OW28141   3.894   0.816  16.562  0.0913 -0.7988  0.4810
 5561SOL    HW128142   3.840   0.756  16.612 -1.4542  0.1994  0.0131
 5561SOL    HW228143   3.887   0.774  16.476  2.2935  1.7080 -0.9475
 5562SOL     OW28144   0.907   0.424   3.583 -0.5959  0.0330  0.1188
 5562SOL    HW128145   0.874   0.393   3.499 -2.1061  0.0624  0.6974
 5562SOL    HW228146   0.853   0.503   3.582 -3.7194 -2.0690  1.1897
 5563SOL     OW28147   0.995   1.392  17.621  0.0635 -0.1120 -0.6110
 5563SOL    HW128148   1.005   1.307  17.664  1.7882  0.0905 -0.5997
 5563SOL    HW228149   1.075   1.434  17.653 -0.3688 -0.5763  1.0958
 5564SOL     OW28150   0.807   3.449   1.377  0.5836 -0.5716  0.1149
 5564SOL    HW128151   0.897   3.417   1.366  0.5787  0.6225 -3.5131
 5564SOL    HW228152   0.831   3.542   1.384  0.6926 -0.4027 -2.3587
 5565SOL     OW28153   3.268   1.394   5.415 -0.2340  0.3465  0.5628
 5565SOL    HW128154   3.257   1.329   5.346  0.3225  1.6334 -0.7299
 5565SOL    HW228155   3.290   1.471   5.362  0.0508  0.2847  0.5926
 5566SOL     OW28156   4.073   3.265  14.648 -0.4350 -0.2257 -0.3454
 5566SOL    HW128157   4.111   3.177  14.648 -1.4917 -0.6766 -0.5147
 5566SOL    HW228158   3.998   3.244  14.593 -0.8209  1.4660 -0.4580
 5567SOL     OW28159   3.662   3.654   5.457  0.0862 -0.9755 -0.1501
 5567SOL    HW128160   3.570   3.680   5.463  0.4344  0.5748 -1.3727
 5567SOL    HW228161   3.664   3.621   5.367  0.4697 -0.8443 -0.1898
 5568SOL     OW28162   3.502   3.629   4.626 -0.0975 -0.5923 -0.1263
 5568SOL    HW128163   3.525   3.692   4.558  0.9022  0.1493  0.9048
 5568SOL    HW228164   3.451   3.575   4.566  1.4146 -1.5200 -0.5631
 5569SOL     OW28165   2.243   2.545   6.068 -0.0653  0.2952 -0.4700
 5569SOL    HW128166   2.317   2.585   6.114  0.9350 -0.9386 -0.9993
 5569SOL    HW228167   2.238   2.604   5.993  1.0930  1.3947  0.2940
 5570SOL     OW28168   2.651   0.475   7.684 -0.2391  0.2969 -0.1050
 5570SOL    HW128169   2.636   0.405   7.621  1.4122  1.5546 -1.8969
 5570SOL    HW228170   2.659   0.548   7.622 -0.0962  1.2619  1.0387
 5571SOL     OW28171   2.277   1.589   2.877 -0.4432 -0.6959  0.4635
 5571SOL    HW128172   2.303   1.506   2.836 -1.2690 -0.0427 -1.3907
 5571SOL    HW228173   2.215   1.562   2.945 -2.7960  2.4902 -0.3910
 5572SOL     OW28174   0.588   0.059  11.080 -0.6394 -0.2259  0.2344
 5572SOL    HW128175   0.654   0.104  11.027 -1.5571 -0.3423 -1.0009
 5572SOL    HW228176   0.614   0.087  11.168 -2.7408 -0.7626  1.0257
 5573SOL     OW28177   0.127   4.203   8.268  0.3095 -0.3048 -0.2121
 5573SOL    HW128178   0.111   4.289   8.307 -2.2873  0.0882 -2.1734
 5573SOL    HW228179   0.182   4.235   8.196 -0.2932 -0.8549 -0.9180
 5574SOL     OW28180   1.036   2.850   9.915 -0.1191  0.2538 -0.2387
 5574SOL    HW128181   0.997   2.834  10.001  0.5217 -2.1402 -0.4001
 5574SOL    HW228182   0.982   2.926   9.894 -0.5158  0.0953  0.1874
 5575SOL     OW28183   4.006   1.133   2.621  0.0409 -0.1849 -0.4127
 5575SOL    HW128184   3.991   1.093   2.535  1.8443  3.1017 -2.2699
 5575SOL    HW228185   4.074   1.079   2.660 -0.0656  0.1971  0.3146
 5576SOL     OW28186   0.766   1.589   7.442 -0.0823  0.3613  0.6675
 5576SOL    HW128187   0.680   1.603   7.482 -0.4731 -0.8630  0.2798
 5576SOL    HW228188   0.748   1.535   7.365 -2.5155  1.7902  0.2436
 5577SOL     OW28189   0.626   4.479   0.929  0.2414  0.4230 -0.3174
 5577SOL    HW128190   0.617   4.545   0.998 -0.5461 -0.8574  0.8028
 5577SOL    HW228191   0.721   4.468   0.937  0.1404 -2.1309 -2.7277
 5578SOL     OW28192   0.424   1.940   5.031  0.0377 -0.4780  0.2579
 5578SOL    HW128193   0.365   1.967   4.961 -0.6622  1.3708  1.5413
 5578SOL    HW228194   0.426   2.023   5.079 -1.9851  0.1734 -0.8129
 5579SOL     OW28195   3.999   1.393  11.169 -0.0292 -0.0142  0.1766
 5579SOL    HW128196   3.923   1.436  11.130 -2.3085 -4.0690  0.1784
 5579SOL    HW228197   4.006   1.324  11.103  0.9953  1.2809 -1.0647
 5580SOL     OW28198   0.863   4.003   6.804  0.2934 -0.5719  0.2020
 5580SOL    HW128199   0.781   4.047   6.828 -1.2255 -2.3567 -1.6489
 5580SOL    HW228200   0.827   3.914   6.795  0.7010 -0.6737 -0.4740
 5581SOL     OW28201   2.509   4.056  11.019  0.2594  0.0408  0.0950
 5581SOL    HW128202   2.603   4.064  11.039  0.3569 -0.4246 -0.1776
 5581SOL    HW228203   2.511   4.064  10.924  0.8960  0.1358  0.1184
 5582SOL     OW28204   1.169   1.237   5.845 -0.1716 -0.2363 -0.5924
 5582SOL    HW128205   1.105   1.181   5.802 -0.6729 -0.9952  1.1814
 5582SOL    HW228206   1.239   1.230   5.779 -0.2305  1.9989 -0.8997
 5583SOL     OW28207   4.558   3.031  16.631 -0.2168  0.5716  0.0014
 5583SOL    HW128208   4.600   3.007  16.713  0.6092  0.4344 -0.4644
 5583SOL    HW228209   4.559   2.949  16.582 -1.2917 -0.6626  2.0415
 5584SOL     OW28210   3.161   0.164   7.044  0.1253 -0.4401  0.5176
 5584SOL    HW128211   3.092   0.231   7.044  0.8335  0.2912  1.0152
 5584SOL    HW228212   3.234   0.216   7.079  1.8738 -3.5527  1.4932
 5585SOL     OW28213   1.300   2.090   5.433  0.5469  0.3389  0.1401
 5585SOL    HW128214   1.225   2.138   5.398  0.0347  0.6168  1.6327
 5585SOL    HW228215   1.351   2.071   5.354 -1.6097  3.8290 -2.0973
 5586SOL     OW28216   3.895   0.382   0.191  0.3508 -0.2219  0.1410
 5586SOL    HW128217   3.977   0.379   0.141  0.3636 -2.3511  0.2957
 5586SOL    HW228218   3.840   0.444   0.143 -0.5559 -0.6090  0.6819
 5587SOL     OW28219   4.382   4.407   9.172  0.2068  0.3059  0.1516
 5587SOL    HW128220   4.326   4.467   9.222 -0.1824  0.9239 -1.0089
 5587SOL    HW228221   4.395   4.467   9.098 -0.8076 -1.3598 -1.3674
 5588SOL     OW28222   2.325   1.284   2.152 -0.2894  0.3818  0.4212
 5588SOL    HW128223   2.411   1.292   2.110 -2.7987 -1.2422 -4.9126
 5588SOL    HW228224   2.322   1.359   2.212 -3.0819  0.9407 -0.4534
 5589SOL     OW28225   3.377   0.306   7.147 -0.2052  0.0723 -0.2620
 5589SOL    HW128226   3.447   0.274   7.091 -0.5983 -0.3944 -0.4907
 5589SOL    HW228227   3.393   0.400   7.154 -0.2829  0.0790 -0.1557
 5590SOL     OW28228   0.640   3.021   8.603  0.1322 -0.1604 -0.5694
 5590SOL    HW128229   0.608   2.980   8.523 -0.4541 -0.2519 -0.2871
 5590SOL    HW228230   0.627   2.951   8.667  0.2614  1.4825  1.2756
 5591SOL     OW28231   2.473   1.483   3.796 -0.0321 -0.1525 -0.2160
 5591SOL    HW128232   2.471   1.538   3.874  1.2319 -0.5632  0.1143
 5591SOL    HW228233   2.561   1.446   3.806 -0.1430 -0.0254  1.2075
 5592SOL     OW28234   3.587   1.361  13.411 -0.2252 -0.2544 -0.0635
 5592SOL    HW128235   3.604   1.266  13.411  0.8146 -0.0547 -2.4482
 5592SOL    HW228236   3.638   1.393  13.485  0.2070 -0.8800 -0.0919
 5593SOL     OW28237   0.799   3.418  10.969  0.1747  0.2258  0.2557
 5593SOL    HW128238   0.784   3.412  10.875  1.8261  2.2557 -0.1379
 5593SOL    HW228239   0.865   3.487  10.980  0.4483 -0.1779  1.1212
 5594SOL     OW28240   4.714   3.977   2.830  0.0478 -0.0879 -0.2280
 5594SOL    HW128241   0.038   3.970   2.747 -1.1475 -0.7708 -0.8559
 5594SOL    HW228242   4.721   4.072   2.837 -0.6410 -0.1260  0.8610
 5595SOL     OW28243   0.792   1.356  17.320  0.1011  0.3601  0.4070
 5595SOL    HW128244   0.756   1.269  17.338  0.7894 -0.0598 -0.2060
 5595SOL    HW228245   0.852   1.334  17.249  0.3910 -0.7310  0.9877
 5596SOL     OW28246   2.187   4.415  10.155 -0.1697 -0.2368  0.6050
 5596SOL    HW128247   2.119   4.374  10.101  1.4729  1.1508 -2.5506
 5596SOL    HW228248   2.248   4.455  10.094 -0.9006 -0.8236 -0.5158
 5597SOL     OW28249   1.240   1.794   5.411  0.1784 -0.3275 -0.2472
 5597SOL    HW128250   1.244   1.887   5.432  1.0800  0.0031 -1.8510
 5597SOL    HW228251   1.159   1.802   5.361 -1.0956 -1.7425  1.6003
 5598SOL     OW28252   3.871   3.249   8.180  0.3605  0.1891 -0.3810
 5598SOL    HW128253   3.867   3.343   8.161  1.9564  0.0094 -1.5378
 5598SOL    HW228254   3.887   3.248   8.274  2.2634 -0.3501 -0.7210
 5599SOL     OW28255   3.162   4.054   8.087  0.1807  0.7516  0.0709
 5599SOL    HW128256   3.144   3.992   8.017  0.4591 -0.2346  0.8678
 5599SOL    HW228257   3.081   4.057   8.138 -0.2829 -0.9194 -0.5880
 5600SOL     OW28258   2.908   3.857   5.013  0.3621  0.3161  0.3886
 5600SOL    HW128259   2.958   3.926   5.057 -0.4662 -0.0290  1.8718
 5600SOL    HW228260   2.896   3.792   5.083 -1.6783 -0.4753 -0.7056
 5601SOL     OW28261   4.343   0.553   2.106  0.2414 -0.0653  0.2407
 5601SOL    HW128262   4.424   0.565   2.156 -0.5806  1.2154  1.2810
 5601SOL    HW228263   4.380   0.562   2.018 -1.1463  2.1404 -0.1173
 5602SOL     OW28264   1.888   3.204   6.058  0.4574  0.7821 -0.5002
 5602SOL    HW128265   1.810   3.231   6.011  1.4316 -2.5458 -4.0305
 5602SOL    HW228266   1.938   3.169   5.984 -0.7262 -1.4233 -0.2462
 5603SOL     OW28267   4.242   4.170   9.077 -0.5103  0.4875 -0.6254
 5603SOL    HW128268   4.266   4.179   9.169 -0.3671 -0.0398 -0.6136
 5603SOL    HW228269   4.294   4.240   9.037  3.0347 -0.8961  1.5269
 5604SOL     OW28270   2.767   1.986   7.970  0.1483 -0.2798  0.2532
 5604SOL    HW128271   2.840   2.043   7.945  0.0903  0.2898  1.3803
 5604SOL    HW228272   2.782   1.904   7.922 -0.1167  0.9652 -1.9448
 5605SOL     OW28273   1.053   2.034   8.242 -0.0417  0.1634 -0.3802
 5605SOL    HW128274   1.017   2.123   8.235  2.2748  1.1862  0.6665
 5605SOL    HW228275   1.136   2.051   8.198  0.5316 -3.8154 -0.8252
 5606SOL     OW28276   3.237   2.475   4.019  0.5422  0.1261 -0.2399
 5606SOL    HW128277   3.284   2.395   4.042 -2.5889 -1.0961  1.8323
 5606SOL    HW228278   3.156   2.432   3.990  0.3072  0.9593 -0.8047
 5607SOL     OW28279   1.944   3.600   0.607  0.0683  0.3968  0.1911
 5607SOL    HW128280   1.893   3.648   0.541  3.2261  3.1686 -0.2386
 5607SOL    HW228281   1.924   3.513   0.573  0.4788  0.6165 -0.6247
 5608SOL     OW28282   3.273   4.613  16.635 -0.2518  0.3442  0.2477
 5608SOL    HW128283   3.180   4.607  16.612 -0.2090  0.8610 -0.0606
 5608SOL    HW228284   3.279   4.618  16.730 -0.5297  2.1069  0.1688
 5609SOL     OW28285   4.448   1.750   6.185  0.1687  0.2831 -0.0935
 5609SOL    HW128286   4.471   1.766   6.277  0.6995  0.3862 -0.2462
 5609SOL    HW228287   4.429   1.842   6.164  2.5466  0.9826  0.8006
 5610SOL     OW28288   0.731   4.684   7.431  0.4739  0.1395 -0.0139
 5610SOL    HW128289   0.754   4.598   7.396  0.2242  0.6852 -1.5038
 5610SOL    HW228290   0.802   4.703   7.493 -0.0138  0.4788  0.4407
 5611SOL     OW28291   2.046   3.698   3.442 -0.0802  0.6445 -0.6115
 5611SOL    HW128292   2.061   3.636   3.514  2.8970  1.2630 -0.6881
 5611SOL    HW228293   1.961   3.676   3.404 -2.0973  0.4791  3.9547
 5612SOL     OW28294   0.079   0.564  12.282  0.0685  0.2293 -0.1720
 5612SOL    HW128295   0.128   0.572  12.200 -0.8119  1.1055 -0.6051
 5612SOL    HW228296   0.091   0.651  12.321  0.8351 -1.1466  2.6343
 5613SOL     OW28297   0.085   2.207   5.617  1.2345  0.1980  0.6167
 5613SOL    HW128298   0.169   2.216   5.573  0.1165  1.5230 -1.2242
 5613SOL    HW228299   0.052   2.127   5.575 -0.5779  0.9641  0.5674
 5614SOL     OW28300   2.631   1.591   2.294 -0.0166 -0.1544 -0.9068
 5614SOL    HW128301   2.581   1.672   2.289  1.9293  1.2520  2.8918
 5614SOL    HW228302   2.666   1.579   2.382  2.2270 -3.1884 -2.1726
 5615SOL     OW28303   2.381   1.138   1.221  0.0956 -0.1960  0.0862
 5615SOL    HW128304   2.330   1.214   1.194  1.5659  0.8086  0.1232
 5615SOL    HW228305   2.343   1.071   1.165  0.5953  0.2883 -0.8302
 5616SOL     OW28306   3.075   0.068  12.561 -0.3069 -0.6515  0.2703
 5616SOL    HW128307   3.061   0.024  12.645 -0.5111 -0.8239  0.1470
 5616SOL    HW228308   2.981   0.066  12.539 -0.7960 -1.2892  2.4107
 5617SOL     OW28309   2.486   3.538   1.792 -0.4483 -0.3335  0.1918
 5617SOL    HW128310   2.472   3.533   1.698 -0.5410 -0.0628  0.1913
 5617SOL    HW228311   2.516   3.628   1.807 -2.9461  0.5458 -0.0740
 5618SOL     OW28312   3.290   4.226   0.045 -0.3605 -0.5943 -0.3572
 5618SOL    HW128313   3.372   4.208   0.001 -2.0855  0.3242 -3.9390
 5618SOL    HW228314   3.319   4.285   0.114  1.8851 -0.0745 -1.7727
 5619SOL     OW28315   2.144   0.114   1.477  0.0783 -0.1998 -0.0696
 5619SOL    HW128316   2.233   0.080   1.471  0.1290  0.1714 -1.3981
 5619SOL    HW228317   2.113   0.125   1.387 -0.8157 -0.8223  0.1611
 5620SOL     OW28318   4.212   4.513   7.199 -0.3530  0.6000 -0.5372
 5620SOL    HW128319   4.133   4.515   7.253  0.2125 -1.8620  0.3678
 5620SOL    HW228320   4.237   4.604   7.216  0.5341  0.6693 -2.1588
 5621SOL     OW28321   2.055   4.452  16.789 -0.3353  0.3415 -0.1946
 5621SOL    HW128322   2.140   4.480  16.821  0.1988 -0.0019 -1.2943
 5621SOL    HW228323   1.997   4.478  16.860 -0.1113  1.1046 -0.3006
 5622SOL     OW28324   3.046   2.272   9.143  0.3213  0.2706  0.3073
 5622SOL    HW128325   3.132   2.230   9.145  0.8071  1.2301 -0.5588
 5622SOL    HW228326   3.015   2.227   9.065 -0.3701  0.3085  0.5552
 5623SOL     OW28327   0.373   3.227  10.142  0.8705  0.0155  0.2190
 5623SOL    HW128328   0.351   3.176  10.220  2.3174  0.8591  1.1782
 5623SOL    HW228329   0.286   3.259  10.118  1.4816  1.1077 -0.5475
 5624SOL     OW28330   4.191   0.939   2.688 -0.6986 -0.2993 -0.0575
 5624SOL    HW128331   4.186   0.867   2.751  0.0052  0.2381  0.6122
 5624SOL    HW228332   4.257   0.891   2.639 -2.7143  0.2317 -3.3697
 5625SOL     OW28333   2.587   1.295   6.412  0.0921  0.3725 -0.3529
 5625SOL    HW128334   2.637   1.254   6.483  0.8358  0.8163 -0.6201
 5625SOL    HW228335   2.627   1.382   6.415 -1.5443  1.1140 -0.6061
 5626SOL     OW28336   4.358   0.684   7.935  0.2576  0.1041  0.0738
 5626SOL    HW128337   4.436   0.659   7.886  2.1862  3.7736  1.3512
 5626SOL    HW228338   4.347   0.771   7.897  0.7656 -0.1790 -0.7418
 5627SOL     OW28339   3.600   3.999   3.350 -0.1260  0.2530  0.2511
 5627SOL    HW128340   3.654   4.075   3.374  2.1910 -0.5211 -2.4825
 5627SOL    HW228341   3.560   3.984   3.436 -1.0757  1.2159 -0.0254
 5628SOL     OW28342   4.249   1.858   1.751 -0.5505  0.7359  0.1678
 5628SOL    HW128343   4.275   1.829   1.838 -2.1250  0.9262  0.6892
 5628SOL    HW228344   4.233   1.777   1.701 -1.5339  0.3233  1.1687
 5629SOL     OW28345   1.237   0.173   4.782 -0.1199  0.1345  0.5216
 5629SOL    HW128346   1.215   0.158   4.874  0.0095  0.2901  0.5776
 5629SOL    HW228347   1.316   0.226   4.796 -0.0445  0.6688 -1.9697
 5630SOL     OW28348   3.856   3.740   8.502 -0.5270  0.2013 -0.3860
 5630SOL    HW128349   3.883   3.813   8.447 -0.8178  1.4439  1.1273
 5630SOL    HW228350   3.801   3.784   8.567 -1.8787  1.4486 -2.3874
 5631SOL     OW28351   2.847   0.289  17.459  0.3458 -0.4214 -0.2307
 5631SOL    HW128352   2.844   0.377  17.498 -1.6672 -0.6314  0.0417
 5631SOL    HW228353   2.846   0.236  17.538  0.5829 -1.8570 -1.2007
 5632SOL     OW28354   3.640   4.638   0.220 -0.6067  0.2393  0.1419
 5632SOL    HW128355   3.687   4.681   0.291 -1.0511 -1.7183  1.6250
 5632SOL    HW228356   3.686   4.663   0.140 -1.5635  0.5592 -0.3130
 5633SOL     OW28357   3.086   0.121   4.003  0.1892 -0.3005  0.3925
 5633SOL    HW128358   3.001   0.092   3.970 -0.2198  0.7384  0.5362
 5633SOL    HW228359   3.078   0.098   4.095 -0.1006  1.4604  0.8172
 5634SOL     OW28360   0.480   1.883   8.473  0.2443  0.4953 -0.0055
 5634SOL    HW128361   0.498   1.943   8.400 -0.0267 -1.0540 -1.3333
 5634SOL    HW228362   0.568   1.847   8.468  0.2084  0.7079 -2.2386
 5635SOL     OW28363   1.155   3.778   1.336  0.4908 -0.6458  0.2686
 5635SOL    HW128364   1.176   3.799   1.427  0.1492 -0.9092  0.4080
 5635SOL    HW228365   1.238   3.793   1.291  0.0204 -0.8924 -0.6778
 5636SOL     OW28366   2.702   2.888   3.764  0.3021  0.4632  0.3217
 5636SOL    HW128367   2.632   2.824   3.775 -1.7621  2.8139  0.7288
 5636SOL    HW228368   2.754   2.845   3.831 -3.5054 -0.7522  2.4892
 5637SOL     OW28369   2.845   3.253  14.116  0.8816 -0.7277  0.3337
 5637SOL    HW128370   2.784   3.237  14.044 -1.2188 -1.4810  2.3034
 5637SOL    HW228371   2.898   3.327  14.086 -1.0704  1.0149  1.1930
 5638SOL     OW28372   0.615   4.722   3.444  0.2501  0.5807 -0.5396
 5638SOL    HW128373   0.658   4.659   3.501  1.3760  0.7319 -1.2092
 5638SOL    HW228374   0.567   4.662   3.388 -1.4792  0.3055  1.2323
 5639SOL     OW28375   0.250   0.060   3.129 -0.2591  0.0760 -0.0544
 5639SOL    HW128376   0.313   0.129   3.150  1.4466 -1.8482  1.0883
 5639SOL    HW228377   0.241   0.081   3.036  1.8846 -0.7904 -0.4687
 5640SOL     OW28378   0.517   3.119   3.386 -0.5081 -0.2824 -0.3260
 5640SOL    HW128379   0.567   3.129   3.305 -1.8293 -1.3060 -1.2678
 5640SOL    HW228380   0.432   3.132   3.345 -0.8571 -0.3750  0.3690
 5641SOL     OW28381   2.035   2.865   1.319  0.0750  0.4838  0.0677
 5641SOL    HW128382   2.067   2.864   1.228 -0.2531  1.1547 -0.0584
 5641SOL    HW228383   2.037   2.769   1.326  0.6183  0.4159 -1.0488
 5642SOL     OW28384   0.597   0.608  11.155  0.1245  0.1977 -0.5905
 5642SOL    HW128385   0.581   0.514  11.149  1.2205  0.0085 -0.5721
 5642SOL    HW228386   0.621   0.637  11.066 -0.1160  0.2715 -0.6304
 5643SOL     OW28387   0.173   1.000   7.969 -0.2715  0.2391  0.2862
 5643SOL    HW128388   0.088   0.959   7.955  0.0825 -0.4508  0.1415
 5643SOL    HW228389   0.185   1.005   8.064  0.8964  0.1494  0.1438
 5644SOL     OW28390   3.025   0.704   8.677 -0.1178  0.2387  0.5445
 5644SOL    HW128391   3.090   0.647   8.637  0.4009  0.6788  0.7577
 5644SOL    HW228392   2.987   0.644   8.741  0.8897  0.9445  1.8056
 5645SOL     OW28393   2.373   2.095   2.813  0.1136 -0.2272 -0.1151
 5645SOL    HW128394   2.360   2.002   2.831 -0.8127 -0.1662 -0.4680
 5645SOL    HW228395   2.303   2.144   2.855 -0.7636 -0.2490 -1.5404
 5646SOL     OW28396   1.766   1.845   2.816  0.1324 -0.2432 -0.3819
 5646SOL    HW128397   1.711   1.851   2.738 -1.3629 -1.4823  0.5780
 5646SOL    HW228398   1.703   1.883   2.877  0.1141 -0.5417 -0.2175
 5647SOL     OW28399   1.409   0.130   2.204 -0.4103  0.2668 -0.8691
 5647SOL    HW128400   1.474   0.071   2.167  1.3884  0.7140  1.6471
 5647SOL    HW228401   1.451   0.206   2.163 -1.1666  0.3915 -1.4197
 5648SOL     OW28402   4.703   2.359  16.791 -0.3540 -0.0728 -0.1120
 5648SOL    HW128403   4.640   2.348  16.862 -1.2188  1.3777 -0.6516
 5648SOL    HW228404   0.047   2.296  16.816  1.9194  3.3930  2.4705
 5649SOL     OW28405   4.679   3.813   5.820  0.1845 -0.7955  0.0743
 5649SOL    HW128406   4.606   3.754   5.838 -1.5372  1.4756  0.6260
 5649SOL    HW228407   4.722   3.804   5.905 -0.1448 -2.0800  0.1072
 5650SOL     OW28408   1.185   2.142  12.823 -0.2685 -0.3329  0.2547
 5650SOL    HW128409   1.092   2.124  12.842 -1.0099  0.2462 -2.8466
 5650SOL    HW228410   1.206   2.212  12.885 -3.4689 -0.0196  1.0272
 5651SOL     OW28411   3.539   2.172   3.466  0.4615  0.2670 -1.0715
 5651SOL    HW128412   3.507   2.190   3.554  0.4598  0.5572 -1.1325
 5651SOL    HW228413   3.466   2.127   3.424  0.6723 -0.3221 -0.8025
 5652SOL     OW28414   0.813   4.251  11.912 -0.3597 -0.1014 -0.3329
 5652SOL    HW128415   0.791   4.284  11.999  1.1538 -0.8142  0.3242
 5652SOL    HW228416   0.840   4.163  11.939  1.2104  0.0648 -1.3061
 5653SOL     OW28417   0.897   0.158   3.878  0.4603 -0.6568 -0.2382
 5653SOL    HW128418   0.809   0.124   3.862  1.2661 -2.0436 -1.6620
 5653SOL    HW228419   0.934   0.148   3.790  2.0526  0.1983  0.3436
 5654SOL     OW28420   0.515   4.653   9.738  0.1975  0.1122 -0.3213
 5654SOL    HW128421   0.535   0.019   9.710  3.7545 -0.7637 -0.6047
 5654SOL    HW228422   0.545   4.606   9.661  1.7334  1.5667 -0.6116
 5655SOL     OW28423   0.165   3.791  13.695 -0.0937 -0.4252  0.3737
 5655SOL    HW128424   0.243   3.752  13.658 -0.2998  0.1288 -0.6460
 5655SOL    HW228425   0.100   3.796  13.625 -0.7767 -0.4789  1.0058
 5656SOL     OW28426   1.431   1.887  16.445  0.1659  0.5090 -0.3065
 5656SOL    HW128427   1.454   1.835  16.368 -1.1988 -0.5251 -0.0148
 5656SOL    HW228428   1.342   1.921  16.431 -0.9114 -1.8595  0.9204
 5657SOL     OW28429   3.118   0.076   8.159  0.3470 -0.3292 -0.3121
 5657SOL    HW128430   3.202   0.078   8.205  1.9976  0.0301 -3.3468
 5657SOL    HW228431   3.102   0.169   8.141  3.5565  0.2022 -0.4773
 5658SOL     OW28432   4.575   0.954   3.038  0.0111  0.0047  0.2303
 5658SOL    HW128433   4.613   0.922   2.957  0.3589  0.2134  0.3120
 5658SOL    HW228434   4.480   0.951   3.026 -0.2962  0.2049  2.4356
 5659SOL     OW28435   2.019   3.543   5.452 -0.4957 -0.4301 -0.1133
 5659SOL    HW128436   2.016   3.585   5.366 -3.1437  0.1448  0.2871
 5659SOL    HW228437   2.018   3.622   5.505  0.7429 -0.5634  0.1185
 5660SOL     OW28438   1.750   1.375   5.950  0.8376  0.6741 -0.0645
 5660SOL    HW128439   1.768   1.418   6.034  1.6969 -1.0959  0.6601
 5660SOL    HW228440   1.826   1.318   5.933  1.1750  0.9682  0.4626
 5661SOL     OW28441   1.463   2.893   6.058  0.5414 -0.4102 -0.2273
 5661SOL    HW128442   1.422   2.807   6.068  0.5355 -0.4948 -0.9675
 5661SOL    HW228443   1.401   2.961   6.086  1.6887  0.9360 -0.9739
 5662SOL     OW28444   0.481   2.656   5.880 -0.2770 -0.1605  0.6535
 5662SOL    HW128445   0.472   2.742   5.919  2.3938 -0.9483  3.0234
 5662SOL    HW228446   0.438   2.599   5.945  2.0465 -2.3473  0.2900
 5663SOL     OW28447   0.071   4.033  12.949 -0.0294  0.1034 -0.3071
 5663SOL    HW128448   0.104   4.002  12.864 -0.6914  1.7088 -1.1562
 5663SOL    HW228449   0.131   3.997  13.014  1.0900  0.5101 -1.1038
 5664SOL     OW28450   1.761   4.114  17.442  0.8594 -0.0023 -0.6419
 5664SOL    HW128451   1.679   4.128  17.393  0.0802 -0.5808  0.4993
 5664SOL    HW228452   1.758   4.020  17.461  0.5280 -0.3584 -2.4040
 5665SOL     OW28453   3.258   2.552  15.311 -0.3135  0.0588 -0.8636
 5665SOL    HW128454   3.219   2.618  15.255  0.5142  1.0721 -0.2431
 5665SOL    HW228455   3.179   2.505  15.337 -0.8680  0.7318 -1.3463
 5666SOL     OW28456   0.827   3.831   8.402 -0.1186 -0.2498 -0.4048
 5666SOL    HW128457   0.905   3.883   8.422 -1.1934  1.1859 -0.0484
 5666SOL    HW228458   0.773   3.863   8.475 -1.2778 -0.5736 -1.1298
 5667SOL     OW28459   0.383   4.068   4.823 -0.3587  0.1689  0.3173
 5667SOL    HW128460   0.403   4.014   4.747 -1.0718 -0.6330  0.7033
 5667SOL    HW228461   0.293   4.041   4.838 -1.3649  2.2527 -1.8485
 5668SOL     OW28462   1.236   0.487   8.043  0.2349 -0.0872 -0.2695
 5668SOL    HW128463   1.222   0.563   8.099  1.5544  0.2083 -0.3305
 5668SOL    HW228464   1.228   0.523   7.954  1.1339 -1.6547 -0.9863
 5669SOL     OW28465   0.500   0.292   6.621  0.1677  0.0757  0.3157
 5669SOL    HW128466   0.515   0.342   6.701  1.2847  0.0153  0.1456
 5669SOL    HW228467   0.496   0.201   6.649 -0.1249  0.0561  0.2186
 5670SOL     OW28468   1.595   0.844   5.307 -0.1835  0.3913 -0.5599
 5670SOL    HW128469   1.676   0.819   5.262  0.4896 -0.5949  1.1974
 5670SOL    HW228470   1.620   0.916   5.365 -1.5599  1.3676 -1.1740
 5671SOL     OW28471   3.847   1.004   9.333 -0.2164  0.4477  0.4971
 5671SOL    HW128472   3.847   0.946   9.409  1.7867 -1.7721 -1.1962
 5671SOL    HW228473   3.913   1.063   9.370 -0.3997 -0.4920  2.3421
 5672SOL     OW28474   0.556   4.008   8.261 -0.4301 -0.5177 -0.4098
 5672SOL    HW128475   0.556   3.914   8.241  1.3216 -0.4338 -0.8455
 5672SOL    HW228476   0.542   4.018   8.355 -2.2710 -3.6165 -0.3370
 5673SOL     OW28477   0.374   1.027   4.244  0.2190  0.1027  0.0836
 5673SOL    HW128478   0.295   1.077   4.226 -0.9974 -1.4196  1.2499
 5673SOL    HW228479   0.372   0.959   4.177 -0.4685 -1.1400  1.3731
 5674SOL     OW28480   4.567   3.354   8.848 -0.5105 -0.1451 -0.0685
 5674SOL    HW128481   4.589   3.283   8.788 -0.6681 -0.0377 -0.2536
 5674SOL    HW228482   4.532   3.303   8.921 -4.1885  1.0740 -0.9726
 5675SOL     OW28483   1.732   1.111   6.167  0.0879 -0.6198 -0.2060
 5675SOL    HW128484   1.699   1.144   6.083  0.8570  0.6391 -0.0057
 5675SOL    HW228485   1.750   1.020   6.143  0.5072 -0.1185 -1.8681
 5676SOL     OW28486   2.945   1.993  13.498  0.0778 -0.5565  0.1725
 5676SOL    HW128487   3.030   1.959  13.523  1.2582  1.2817 -1.3585
 5676SOL    HW228488   2.968   2.063  13.438 -1.8744  1.5643  1.8570
 5677SOL     OW28489   0.786   0.418  15.700 -0.1523 -0.3668  0.2939
 5677SOL    HW128490   0.845   0.369  15.758 -0.8258  0.2847  1.5239
 5677SOL    HW228491   0.699   0.408  15.738  0.1919 -0.4178  1.0784
 5678SOL     OW28492   1.515   0.051   6.380 -0.2591  0.2746  0.5747
 5678SOL    HW128493   1.525   4.680   6.384  0.6011  0.3616  0.5036
 5678SOL    HW228494   1.471   0.052   6.295  1.9396 -1.7653 -0.5817
 5679SOL     OW28495   3.089   3.984   6.361  0.1508  0.1558  0.8946
 5679SOL    HW128496   3.008   4.032   6.375  1.1779  1.8794  0.9486
 5679SOL    HW228497   3.070   3.931   6.284  0.1800  1.9506 -0.3428
 5680SOL     OW28498   0.273   1.516  11.673 -0.0309  0.1104 -0.4488
 5680SOL    HW128499   0.356   1.562  11.686  0.3342 -0.7920  0.4396
 5680SOL    HW228500   0.282   1.464  11.753  1.5866  1.5664  0.3401
 5681SOL     OW28501   1.451   3.172   7.435 -0.2518  0.0289 -0.1405
 5681SOL    HW128502   1.494   3.130   7.510  0.4544 -2.6307 -2.0717
 5681SOL    HW228503   1.395   3.234   7.482 -0.2974 -0.9913  1.1648
 5682SOL     OW28504   1.913   1.389  16.108 -0.6023  0.4336  0.1796
 5682SOL    HW128505   1.880   1.301  16.089 -2.4694  1.5375 -1.6721
 5682SOL    HW228506   1.884   1.439  16.032  0.0198  1.4106  0.5814
 5683SOL     OW28507   0.327   1.131   6.149  0.0551  0.2501  0.5786
 5683SOL    HW128508   0.274   1.198   6.193  0.8069 -0.6284  2.8146
 5683SOL    HW228509   0.318   1.150   6.056 -3.1007 -1.4339  0.5384
 5684SOL     OW28510   1.901   3.101   2.283  0.0851 -0.5443 -0.0832
 5684SOL    HW128511   1.988   3.138   2.265 -0.5694  0.5109 -1.1092
 5684SOL    HW228512   1.916   3.075   2.374  3.0710 -1.3123 -0.7794
 5685SOL     OW28513   2.034   2.806   1.606  0.0416  0.3070  0.3348
 5685SOL    HW128514   2.053   2.712   1.613 -1.8556 -0.2179 -1.7215
 5685SOL    HW228515   2.015   2.813   1.513 -1.2736  0.6757  0.6399
 5686SOL     OW28516   3.821   1.963   8.720  0.1819 -0.6421 -0.3415
 5686SOL    HW128517   3.854   1.893   8.776 -0.0024 -0.3535  0.1340
 5686SOL    HW228518   3.735   1.984   8.756  0.2079 -0.2912 -0.4762
 5687SOL     OW28519   3.436   3.932   5.583 -0.0372  0.7125 -0.4505
 5687SOL    HW128520   3.519   3.927   5.535  0.9995  1.1718  1.3176
 5687SOL    HW228521   3.454   4.006   5.640  0.1455 -0.1608  0.6297
 5688SOL     OW28522   4.138   1.706   5.098 -0.3979  0.5060  0.1963
 5688SOL    HW128523   4.221   1.679   5.058 -1.8895 -1.4313 -1.6124
 5688SOL    HW228524   4.075   1.641   5.068 -1.7765  1.9439 -0.0171
 5689SOL     OW28525   3.965   3.313  10.810 -0.2061  0.3888 -0.2613
 5689SOL    HW128526   3.967   3.233  10.756  2.2340  0.8725 -0.8916
 5689SOL    HW228527   3.893   3.362  10.769 -2.2458 -1.9102  0.5710
 5690SOL     OW28528   3.325   1.447  17.604 -0.1028  0.5676 -0.0775
 5690SOL    HW128529   3.262   1.425  17.672 -0.2444  1.2490  0.0037
 5690SOL    HW228530   3.270   1.494  17.542  1.2626  1.0156 -0.9490
 5691SOL     OW28531   2.714   0.332  15.658 -0.3560  0.1382 -0.3963
 5691SOL    HW128532   2.654   0.407  15.654  0.2797  0.7118  1.1725
 5691SOL    HW228533   2.803   0.359  15.634 -1.3332  3.9619  0.3394
 5692SOL     OW28534   2.052   2.283   0.066 -0.1584 -0.5154 -0.0146
 5692SOL    HW128535   2.024   2.310   0.153 -2.6089 -0.6752 -0.7396
 5692SOL    HW228536   2.142   2.262   0.091 -0.4809 -0.2422  1.3833
 5693SOL     OW28537   0.758   0.926  16.131 -0.2622 -0.3496  0.2119
 5693SOL    HW128538   0.716   1.006  16.099  1.7771  0.5255 -0.3211
 5693SOL    HW228539   0.788   0.958  16.216 -1.8182  1.0225  0.2449
 5694SOL     OW28540   3.025   2.713   2.112  0.6271  0.4707  0.1821
 5694SOL    HW128541   3.007   2.741   2.202 -1.3802  0.6836 -0.2821
 5694SOL    HW228542   3.079   2.784   2.079  1.1171  0.2715  0.5601
 5695SOL     OW28543   2.106   2.011  10.009  0.7048 -0.5069  0.3583
 5695SOL    HW128544   2.097   2.023  10.104 -1.0045 -0.3909  0.1850
 5695SOL    HW228545   2.073   1.921  10.005 -0.5795 -0.0139 -0.3027
 5696SOL     OW28546   0.502   3.871  11.429 -0.2774  0.6239 -0.4382
 5696SOL    HW128547   0.492   3.953  11.381 -0.8667  0.1123 -1.1955
 5696SOL    HW228548   0.446   3.813  11.378 -1.1104  2.4036 -1.5184
 5697SOL     OW28549   0.727   2.507   0.279 -0.3143 -0.0574  0.3659
 5697SOL    HW128550   0.638   2.472   0.281  0.9020 -3.0627  1.6566
 5697SOL    HW228551   0.755   2.484   0.368 -2.2649  0.3961  1.1104
 5698SOL     OW28552   0.313   1.876   0.573  0.1047 -0.1422 -0.6730
 5698SOL    HW128553   0.239   1.842   0.524  0.0106 -0.0241 -0.6118
 5698SOL    HW228554   0.275   1.951   0.619 -1.6217 -0.6751 -1.2353
 5699SOL     OW28555   3.127   0.927   8.887 -0.4889 -0.5629  0.2104
 5699SOL    HW128556   3.094   0.866   8.821 -0.9455  0.7781 -0.8051
 5699SOL    HW228557   3.049   0.972   8.919 -0.2848  1.3785 -2.0057
 5700SOL     OW28558   3.519   2.943   6.228 -0.3547 -0.1190  0.3144
 5700SOL    HW128559   3.516   2.961   6.322 -0.2823 -0.9639  0.4801
 5700SOL    HW228560   3.434   2.974   6.198 -0.5147 -0.5819  0.2923
 5701SOL     OW28561   4.476   0.733   4.600 -0.1571  0.1441 -0.0670
 5701SOL    HW128562   4.381   0.741   4.602 -0.0881  1.3886 -1.0553
 5701SOL    HW228563   4.482   0.722   4.505  0.6210  1.0556 -0.1361
 5702SOL     OW28564   1.957   1.271   6.675 -0.4913  0.4055 -0.2780
 5702SOL    HW128565   1.999   1.239   6.596 -2.5703  0.4314 -1.4092
 5702SOL    HW228566   1.991   1.361   6.678  2.1727 -0.6639  1.0843
 5703SOL     OW28567   1.046   0.849   3.331  0.1981 -0.0819 -0.7122
 5703SOL    HW128568   1.095   0.770   3.311 -0.2673 -0.5149 -0.1667
 5703SOL    HW228569   1.095   0.920   3.289 -0.5830  0.7315 -0.2797
 5704SOL     OW28570   3.588   3.512   6.685  0.1438  0.2745 -0.0853
 5704SOL    HW128571   3.604   3.519   6.779 -0.2693 -3.1537  0.2558
 5704SOL    HW228572   3.550   3.424   6.681 -2.0983  1.3213 -1.7325
 5705SOL     OW28573   3.599   0.096   6.336 -0.4044 -0.0300  0.5647
 5705SOL    HW128574   3.592   0.073   6.429  1.9853  0.1774  0.7895
 5705SOL    HW228575   3.619   0.189   6.343 -0.9570  0.1363 -0.0784
 5706SOL     OW28576   2.957   4.366   9.393  0.0586  0.0741  0.5457
 5706SOL    HW128577   2.989   4.439   9.445  0.0744  0.9627 -0.7072
 5706SOL    HW228578   3.039   4.318   9.388  0.3040  0.6272 -0.8467
 5707SOL     OW28579   2.184   2.019  15.154 -0.2947 -0.4513 -0.4353
 5707SOL    HW128580   2.211   1.967  15.079  0.9445 -1.4006  0.6735
 5707SOL    HW228581   2.190   2.105  15.112  0.8396 -1.3150 -2.0392
 5708SOL     OW28582   2.069   0.026   7.869  0.3423 -0.2894  1.0747
 5708SOL    HW128583   2.084   4.673   7.924  2.8156 -0.6545 -0.1063
 5708SOL    HW228584   2.043   0.090   7.936 -0.0460  1.5659 -0.8553
 5709SOL     OW28585   3.083   3.431  17.374  0.7408  0.3213 -0.2848
 5709SOL    HW128586   3.079   3.523  17.401  1.9757  0.1677  0.4365
 5709SOL    HW228587   3.078   3.386  17.459 -0.1590 -0.8597 -0.9696
 5710SOL     OW28588   0.921   4.251   7.023  0.5362  0.4653  0.1419
 5710SOL    HW128589   0.861   4.308   7.071 -1.9976 -1.4093 -0.8447
 5710SOL    HW228590   1.003   4.282   7.062  0.1619  0.0125  1.2961
 5711SOL     OW28591   2.769   0.360   1.970  0.0901  0.4744 -0.2304
 5711SOL    HW128592   2.783   0.267   1.985  0.1548  0.7095  1.2508
 5711SOL    HW228593   2.801   0.364   1.880  0.0867 -1.3183 -0.3099
 5712SOL     OW28594   0.287   0.041   1.907 -0.0593  0.0947  0.6830
 5712SOL    HW128595   0.343   4.714   1.848 -1.6769 -2.8290  1.6587
 5712SOL    HW228596   0.195   0.025   1.884 -0.0037  0.5753  0.1409
 5713SOL     OW28597   0.663   3.753   0.911 -0.1872  0.7752  0.1779
 5713SOL    HW128598   0.664   3.705   0.828  0.6369 -1.0953  1.2860
 5713SOL    HW228599   0.660   3.845   0.882  0.5676  1.1064  1.1400
 5714SOL     OW28600   0.488   0.461  15.654 -0.2148  0.1352 -0.0135
 5714SOL    HW128601   0.484   0.463  15.750  0.5320  0.9118 -0.0071
 5714SOL    HW228602   0.404   0.503  15.635 -0.9195 -1.0449  0.4959
 5715SOL     OW28603   0.124   4.637  10.070  0.2506 -0.4191 -0.7690
 5715SOL    HW128604   0.158   4.665   9.985  1.8507 -0.3129 -0.1103
 5715SOL    HW228605   0.165   4.550  10.060  0.8041 -0.0647 -1.6051
 5716SOL     OW28606   2.620   2.532   2.698  0.1488  0.7110 -0.0559
 5716SOL    HW128607   2.593   2.441   2.686  0.4223  0.7472 -1.0042
 5716SOL    HW228608   2.560   2.582   2.643  1.1041  1.4368 -0.4369
 5717SOL     OW28609   1.169   2.391   4.561 -0.1448 -0.0475  0.2850
 5717SOL    HW128610   1.106   2.463   4.558 -0.0167  0.0646  0.3249
 5717SOL    HW228611   1.135   2.333   4.491 -0.5458  0.4822  0.0413
 5718SOL     OW28612   0.132   3.284   7.132 -0.0969 -0.1941 -0.6972
 5718SOL    HW128613   0.087   3.350   7.079 -0.4052  1.4390  1.5946
 5718SOL    HW228614   0.099   3.320   7.214 -0.5109 -1.1878 -0.4236
 5719SOL     OW28615   2.849   1.019   0.106  0.0801  0.1309 -0.6588
 5719SOL    HW128616   2.913   1.002   0.037 -0.5254 -2.1890 -0.6261
 5719SOL    HW228617   2.887   0.959   0.170 -1.8439 -0.3676  0.0169
 5720SOL     OW28618   4.129   4.417   4.213 -0.1303  0.1611  0.3477
 5720SOL    HW128619   4.065   4.347   4.201 -0.3416  0.6047 -1.0343
 5720SOL    HW228620   4.192   4.389   4.147 -1.9022 -0.8056 -0.9384
 5721SOL     OW28621   3.981   2.457   5.517  0.1231 -0.2075  0.1035
 5721SOL    HW128622   4.037   2.382   5.500  0.6091  0.0637  0.5136
 5721SOL    HW228623   3.954   2.444   5.608  0.7624 -0.6657  0.2259
 5722SOL     OW28624   2.369   1.498   6.646 -0.1534  0.5486  0.1939
 5722SOL    HW128625   2.365   1.499   6.742  1.1346 -0.8984  0.2471
 5722SOL    HW228626   2.377   1.403   6.644  0.2295  0.5572  1.3108
 5723SOL     OW28627   1.343   4.608   5.504 -0.1352 -0.6725  0.2018
 5723SOL    HW128628   1.264   4.632   5.552 -1.0988 -0.3453 -1.5561
 5723SOL    HW228629   1.349   4.524   5.548 -1.2081 -1.4135 -1.0766
 5724SOL     OW28630   4.196   4.203   3.909 -0.0042  0.0736  0.5645
 5724SOL    HW128631   4.218   4.115   3.877 -1.3395 -0.6489  1.6276
 5724SOL    HW228632   4.100   4.204   3.912 -0.0889 -0.8088 -1.9837
 5725SOL     OW28633   1.766   4.081   1.057  0.0258  0.3335  0.4600
 5725SOL    HW128634   1.722   4.089   0.973 -1.2580 -4.4986  0.6663
 5725SOL    HW228635   1.757   3.987   1.073 -0.0678 -0.1657 -2.6664
 5726SOL     OW28636   0.298   0.790  12.471 -0.0180  0.7084  0.0798
 5726SOL    HW128637   0.377   0.798  12.418  1.0271 -1.3617  1.3230
 5726SOL    HW228638   0.308   0.705  12.514  0.5530  1.3542  1.1958
 5727SOL     OW28639   0.059   3.924   8.194  0.5468 -0.1662  0.1832
 5727SOL    HW128640   4.688   3.936   8.191  0.5555 -0.2326 -0.3406
 5727SOL    HW228641   0.081   4.017   8.201  1.3575 -0.4195  0.9799
 5728SOL     OW28642   0.890   1.158   4.388  0.5241 -0.6382  0.2783
 5728SOL    HW128643   0.927   1.151   4.300  1.1163 -0.5664  0.5214
 5728SOL    HW228644   0.817   1.096   4.391  1.9850 -2.2852  1.8052
 5729SOL     OW28645   3.912   2.628   0.733  0.1473  0.2714 -0.0633
 5729SOL    HW128646   4.004   2.656   0.727  0.5461 -1.1813 -0.7833
 5729SOL    HW228647   3.882   2.654   0.820 -1.4594 -0.9755 -0.2540
 5730SOL     OW28648   4.055   1.792   6.989  0.7021  0.1407 -0.1442
 5730SOL    HW128649   4.041   1.763   7.080  0.4080 -0.2604 -0.3172
 5730SOL    HW228650   4.134   1.842   7.008  1.7980 -1.7082  0.1934
 5731SOL     OW28651   0.429   3.609   6.575 -0.4971  0.5411 -0.7807
 5731SOL    HW128652   0.383   3.525   6.566  0.2144  0.0115  0.5397
 5731SOL    HW228653   0.453   3.602   6.668 -0.2451  1.9378 -0.7432
 5732SOL     OW28654   0.509   1.695   1.334 -0.4265  0.2478  0.0476
 5732SOL    HW128655   0.452   1.706   1.258 -0.8608  0.8135  0.4547
 5732SOL    HW228656   0.588   1.745   1.313  0.0067 -0.5738 -0.2709
 5733SOL     OW28657   3.645   4.721   4.010 -0.8079 -0.2622  0.6949
 5733SOL    HW128658   3.569   0.022   4.063  0.5765 -0.7995  2.9001
 5733SOL    HW228659   3.663   4.637   4.052 -1.5509 -0.5602  0.4102
 5734SOL     OW28660   2.576   2.736   1.331  0.1623  0.2163  0.0195
 5734SOL    HW128661   2.627   2.658   1.352 -2.4866 -1.1445  1.3063
 5734SOL    HW228662   2.509   2.730   1.399  0.8525 -0.0512  0.6864
 5735SOL     OW28663   3.649   1.501  12.270 -0.5594  0.0452  0.4158
 5735SOL    HW128664   3.629   1.409  12.287 -0.4585 -0.0427  0.0493
 5735SOL    HW228665   3.569   1.552  12.278 -0.4561  0.2544  0.1204
 5736SOL     OW28666   2.788   2.061  11.704 -0.2340  0.1881 -0.0057
 5736SOL    HW128667   2.694   2.080  11.700 -0.5498 -1.3821 -0.1846
 5736SOL    HW228668   2.822   2.129  11.646 -0.8942  0.8631  0.4092
 5737SOL     OW28669   1.650   3.328   5.189  0.1956  0.2475 -0.0973
 5737SOL    HW128670   1.635   3.421   5.168 -0.6699  0.4263  1.2869
 5737SOL    HW228671   1.562   3.291   5.192  0.1266  0.4851  0.6510
 5738SOL     OW28672   2.701   2.161   3.894  0.5042  0.1019  0.3336
 5738SOL    HW128673   2.702   2.240   3.948 -0.9423  0.3811 -0.0590
 5738SOL    HW228674   2.790   2.125   3.896  0.6911  0.5530  0.1383
 5739SOL     OW28675   0.264   2.058   4.832 -0.0812 -0.2269  0.1625
 5739SOL    HW128676   0.225   2.127   4.779  0.9252  0.6037  0.5180
 5739SOL    HW228677   0.313   2.013   4.763  0.4846  1.4002 -0.4800
 5740SOL     OW28678   2.413   4.395   5.457 -0.5100 -0.1348  0.4412
 5740SOL    HW128679   2.382   4.306   5.469  0.0952 -0.6443 -1.7647
 5740SOL    HW228680   2.355   4.430   5.390  0.0819  0.6820  0.3460
 5741SOL     OW28681   1.400   2.699  14.279 -0.5090  0.2150  0.3620
 5741SOL    HW128682   1.473   2.741  14.323 -0.0336  0.9038 -1.0903
 5741SOL    HW228683   1.338   2.689  14.352 -1.1419  0.9260 -0.0772
 5742SOL     OW28684   4.025   1.677   9.944  0.3295  0.1190 -0.5259
 5742SOL    HW128685   3.949   1.671  10.002  0.3196  0.1003 -0.5405
 5742SOL    HW228686   4.072   1.598   9.971  0.8928  0.2101 -1.2483
 5743SOL     OW28687   0.041   1.790   6.537  0.4562  0.5356  0.0349
 5743SOL    HW128688   4.702   1.770   6.607 -1.4511  1.8175 -1.3191
 5743SOL    HW228689   0.085   1.866   6.575 -0.2348  0.0931  1.7354
 5744SOL     OW28690   0.163   2.235  11.386  0.5221 -0.6143 -0.2143
 5744SOL    HW128691   0.215   2.240  11.466 -1.0349 -2.4758  0.8979
 5744SOL    HW228692   0.204   2.164  11.338  1.8427  0.3647 -0.5500
 5745SOL     OW28693   3.444   4.293   4.288  0.0786 -0.3789 -0.1928
 5745SOL    HW128694   3.395   4.332   4.215  0.2156  1.8750  0.9179
 5745SOL    HW228695   3.470   4.380   4.318 -0.1344 -0.6612  0.8158
 5746SOL     OW28696   2.494   1.992  13.980 -0.4996  0.5857 -0.0381
 5746SOL    HW128697   2.430   1.984  14.051 -0.1331  0.4455  0.2770
 5746SOL    HW228698   2.432   2.030  13.919  0.1811  1.0063 -0.4691
 5747SOL     OW28699   2.546   2.486   2.963  0.0101  0.2158  0.3399
 5747SOL    HW128700   2.470   2.516   2.914 -1.1548 -1.6329  1.0131
 5747SOL    HW228701   2.609   2.494   2.891  1.1567 -0.6495  1.2448
 5748SOL     OW28702   3.553   2.948   7.377 -0.4745 -0.2727  0.5806
 5748SOL    HW128703   3.470   2.901   7.369 -1.3096  1.1225  1.0659
 5748SOL    HW228704   3.528   3.018   7.437 -1.0936 -0.6352  0.7455
 5749SOL     OW28705   2.317   4.132   2.876  0.2413  0.2782 -0.2138
 5749SOL    HW128706   2.222   4.124   2.861  0.3631  1.1406 -1.4371
 5749SOL    HW228707   2.321   4.103   2.967 -0.7767  1.8288  0.3148
 5750SOL     OW28708   3.212   1.324   8.037  0.1999 -0.0037  0.3822
 5750SOL    HW128709   3.246   1.349   8.124 -0.9771 -4.4807  2.1382
 5750SOL    HW228710   3.175   1.409   8.015 -1.3944 -1.0735 -1.0640
 5751SOL     OW28711   2.136   2.646   7.107  0.1295 -0.2736 -0.0231
 5751SOL    HW128712   2.074   2.717   7.120 -0.6436 -0.7040 -1.4001
 5751SOL    HW228713   2.142   2.654   7.012 -1.2527  0.1493 -0.0720
 5752SOL     OW28714   4.019   2.876   5.555  0.0846 -0.3507  0.6989
 5752SOL    HW128715   4.098   2.867   5.502 -1.7235 -1.3748 -1.7709
 5752SOL    HW228716   4.061   2.864   5.641 -0.5736 -0.0906  1.0538
 5753SOL     OW28717   0.457   1.138  12.847 -0.0758  0.4005  0.1625
 5753SOL    HW128718   0.493   1.063  12.895 -0.2207 -0.6834 -1.4428
 5753SOL    HW228719   0.414   1.186  12.918 -0.3071 -0.4186  0.5702
 5754SOL     OW28720   1.622   2.544   1.634  0.0532 -0.0660  0.1189
 5754SOL    HW128721   1.653   2.629   1.665  0.8837 -0.9303  1.6405
 5754SOL    HW228722   1.529   2.544   1.659 -0.2345  1.7039 -0.9711
 5755SOL     OW28723   1.556   4.665   7.282 -0.7102 -0.3762 -0.1992
 5755SOL    HW128724   1.479   4.708   7.321 -0.8465  0.3306 -1.2531
 5755SOL    HW228725   1.627   4.708   7.329 -0.1317 -0.4130 -1.0550
 5756SOL     OW28726   1.490   0.350  13.981  1.0179  0.6070 -0.0934
 5756SOL    HW128727   1.567   0.406  13.981  0.5663  1.2121  0.9518
 5756SOL    HW228728   1.423   0.417  13.966  2.4949  1.6716 -1.9858
 5757SOL     OW28729   3.215   0.036  17.168 -0.3319 -0.0139 -0.3664
 5757SOL    HW128730   3.210   4.675  17.212  0.0643 -0.4900 -1.2305
 5757SOL    HW228731   3.173   0.087  17.237  0.7138 -0.1023  0.3420
 5758SOL     OW28732   4.392   4.531   8.244  0.2126 -0.5691  0.7768
 5758SOL    HW128733   4.400   4.468   8.173  1.8586 -0.0466  0.4909
 5758SOL    HW228734   4.347   4.603   8.200  1.1115 -0.3369  0.2317
 5759SOL     OW28735   0.976   1.579   1.560 -0.1348 -0.3257 -0.4045
 5759SOL    HW128736   1.069   1.564   1.579  0.0599  0.7118 -0.5392
 5759SOL    HW228737   0.963   1.543   1.473 -1.8967  1.7195 -0.9819
 5760SOL     OW28738   1.827   0.129   5.623  0.3499  0.4824 -0.7113
 5760SOL    HW128739   1.848   0.203   5.681 -0.2460  0.9516 -1.0971
 5760SOL    HW228740   1.732   0.131   5.618  0.4287  1.5858 -1.8056
 5761SOL     OW28741   2.958   1.741   6.660 -0.1361 -0.3643  0.2113
 5761SOL    HW128742   2.902   1.784   6.595 -1.5408 -2.0085  0.3515
 5761SOL    HW228743   2.931   1.798   6.732 -1.2252  0.0559 -0.5269
 5762SOL     OW28744   3.930   0.828   7.850 -0.5062  0.1146 -0.2088
 5762SOL    HW128745   3.840   0.797   7.858 -0.4773  0.4885  1.5142
 5762SOL    HW228746   3.954   0.820   7.942 -0.4241 -0.0662 -0.2463
 5763SOL     OW28747   4.465   4.525   4.076  0.3932  0.2265  0.3987
 5763SOL    HW128748   4.434   4.441   4.108  0.8148  0.6186  1.8703
 5763SOL    HW228749   4.441   4.519   3.984 -1.1720 -1.1827  0.9039
 5764SOL     OW28750   1.784   2.670   5.124  0.3464 -0.1088  0.3361
 5764SOL    HW128751   1.707   2.713   5.161 -1.5636 -2.9842 -0.2639
 5764SOL    HW228752   1.820   2.744   5.076  0.9924 -1.5449 -1.3738
 5765SOL     OW28753   0.609   2.746   8.097  0.1853  0.1808  0.4145
 5765SOL    HW128754   0.594   2.768   8.005 -1.5532  0.2519  0.7232
 5765SOL    HW228755   0.652   2.830   8.116  2.9313 -0.8792 -0.9894
 5766SOL     OW28756   1.257   3.343   8.989  0.0358 -0.0303 -0.2323
 5766SOL    HW128757   1.326   3.282   8.963  0.2599 -0.1587  0.6497
 5766SOL    HW228758   1.309   3.406   9.039 -0.9341  0.1975  0.4913
 5767SOL     OW28759   2.283   4.533   7.092 -0.0941  0.1794 -0.1443
 5767SOL    HW128760   2.188   4.541   7.079  0.4773  2.0603 -3.0156
 5767SOL    HW228761   2.276   4.516   7.186  0.2999 -2.3106 -0.5509
 5768SOL     OW28762   2.647   0.193   4.573  0.2018  0.3883  0.3138
 5768SOL    HW128763   2.671   0.285   4.577 -0.3457  0.5768 -0.8907
 5768SOL    HW228764   2.734   0.155   4.565 -0.0721  0.4491 -2.8335
 5769SOL     OW28765   2.965   0.787  17.465 -0.4014 -0.5639 -0.1845
 5769SOL    HW128766   2.930   0.700  17.487 -0.8034  0.0640  1.6762
 5769SOL    HW228767   2.975   0.821  17.554 -0.1180 -0.4602 -0.2580
 5770SOL     OW28768   3.843   0.492  15.843 -0.3411 -0.2514  0.2662
 5770SOL    HW128769   3.830   0.536  15.759 -0.8801  2.2514  1.6508
 5770SOL    HW228770   3.756   0.493  15.885  0.2939  1.2584  1.5426
 5771SOL     OW28771   1.418   0.704   3.290  0.1242  0.5590  0.2227
 5771SOL    HW128772   1.441   0.785   3.244  2.0494 -0.5632 -0.7632
 5771SOL    HW228773   1.456   0.641   3.229  0.5745 -0.3128  1.3995
 5772SOL     OW28774   0.465   0.936   3.777 -0.1795  0.6425  0.4033
 5772SOL    HW128775   0.457   0.971   3.688 -1.2618 -3.5208 -1.1073
 5772SOL    HW228776   0.374   0.915   3.796 -0.3182  2.4886  1.7886
 5773SOL     OW28777   4.382   4.502   3.566 -0.3569 -0.2878  0.1676
 5773SOL    HW128778   4.471   4.470   3.556 -0.7337 -1.3669  0.2228
 5773SOL    HW228779   4.341   4.423   3.603 -2.3755 -0.6740 -2.8451
 5774SOL     OW28780   2.432   1.272   6.039 -0.0933 -0.1713  0.3172
 5774SOL    HW128781   2.519   1.312   6.049 -0.9001  1.7280 -0.2398
 5774SOL    HW228782   2.440   1.217   5.961 -2.4111 -0.7734  0.5196
 5775SOL     OW28783   4.277   4.619  14.513  0.1318 -0.2954  0.2995
 5775SOL    HW128784   4.340   4.582  14.575  2.1017  0.7457 -1.1175
 5775SOL    HW228785   4.267   4.537  14.464  0.5327 -1.6454  2.4396
 5776SOL     OW28786   3.783   3.892  13.774 -0.2537  0.3628 -0.1908
 5776SOL    HW128787   3.699   3.937  13.783 -1.7702 -2.4290 -0.5075
 5776SOL    HW228788   3.788   3.891  13.678 -0.8358 -2.8634 -0.1869
 5777SOL     OW28789   2.472   4.544   2.735 -0.2439  0.0535  0.2799
 5777SOL    HW128790   2.456   4.452   2.713  2.5276 -0.5725  0.7892
 5777SOL    HW228791   2.380   4.570   2.727 -0.7811 -1.4205  1.7853
 5778SOL     OW28792   4.474   0.181   1.980  0.6384 -0.2055  0.3591
 5778SOL    HW128793   4.379   0.188   1.967  0.4625  0.2031  1.8232
 5778SOL    HW228794   4.493   0.110   1.919  3.8465  1.1111 -0.1803
 5779SOL     OW28795   0.518   3.068   5.195  0.1860 -0.3149  0.4478
 5779SOL    HW128796   0.448   3.068   5.130 -1.3607  0.4620  2.0971
 5779SOL    HW228797   0.578   3.134   5.160  1.6745 -2.0058 -0.1805
 5780SOL     OW28798   3.772   0.164   9.856  0.5990  0.2888 -0.4055
 5780SOL    HW128799   3.789   0.251   9.819 -1.7210  0.7927 -0.2980
 5780SOL    HW228800   3.715   0.124   9.791  2.0448  1.8317 -2.6061
 5781SOL     OW28801   1.850   3.244   0.253 -0.1786 -0.3383 -0.1093
 5781SOL    HW128802   1.907   3.317   0.228 -1.0157  0.1059 -0.7458
 5781SOL    HW228803   1.831   3.200   0.170 -0.9913  0.1353 -0.1834
 5782SOL     OW28804   3.955   2.373   4.248 -0.5294  0.2757 -0.5403
 5782SOL    HW128805   4.032   2.321   4.268 -0.1529  1.3623  0.8446
 5782SOL    HW228806   3.917   2.321   4.178 -3.1632 -0.0457  1.1263
 5783SOL     OW28807   2.206   2.418   6.630  0.6617  0.0145  0.6592
 5783SOL    HW128808   2.218   2.358   6.703  1.3955 -0.9732 -0.2634
 5783SOL    HW228809   2.297   2.435   6.605  0.9473 -1.0902  0.9078
 5784SOL     OW28810   4.511   1.926   8.304 -0.4721  0.0172 -0.2092
 5784SOL    HW128811   4.570   1.990   8.346 -0.8939 -0.5046  1.1933
 5784SOL    HW228812   4.516   1.953   8.213 -1.1623 -1.5277 -0.7018
 5785SOL     OW28813   4.590   4.198  15.715 -0.0646  0.3096 -0.1937
 5785SOL    HW128814   4.636   4.180  15.634  0.7479  1.1607  0.0811
 5785SOL    HW228815   4.511   4.145  15.709  0.2065 -0.1755  0.5133
 5786SOL     OW28816   3.688   4.512   4.675 -0.1786  0.2258 -0.0989
 5786SOL    HW128817   3.678   4.511   4.770 -0.8893  0.7384 -0.1732
 5786SOL    HW228818   3.653   4.595   4.642 -0.5038 -0.0122 -0.3486
 5787SOL     OW28819   1.495   2.128   6.414 -0.5003  0.0163 -0.4709
 5787SOL    HW128820   1.585   2.108   6.440 -0.7074  0.2141  0.3910
 5787SOL    HW228821   1.468   2.164   6.498 -3.1141  0.3079 -1.4325
 5788SOL     OW28822   0.668   2.453  16.788  0.0612  0.3688 -0.0004
 5788SOL    HW128823   0.642   2.528  16.842 -2.4370  0.9095 -1.9979
 5788SOL    HW228824   0.640   2.481  16.701 -1.5582  0.1567  0.4470
 5789SOL     OW28825   2.741   0.156   7.313 -0.5475  0.1265 -0.2389
 5789SOL    HW128826   2.658   0.175   7.357  0.6723 -1.5168  2.7817
 5789SOL    HW228827   2.720   0.069   7.280 -2.5045  0.5927 -0.2241
 5790SOL     OW28828   4.325   2.502   4.439 -0.0427 -0.0621 -0.5839
 5790SOL    HW128829   4.287   2.513   4.352 -0.5426 -1.0343 -0.4896
 5790SOL    HW228830   4.412   2.469   4.416  0.1210 -0.5717  0.7364
 5791SOL     OW28831   1.846   2.899  14.986  0.0858 -0.0619  0.2814
 5791SOL    HW128832   1.850   2.845  14.907 -1.1274 -0.4537  0.4902
 5791SOL    HW228833   1.816   2.984  14.953 -2.2699 -0.3498  1.6935
 5792SOL     OW28834   0.509   3.566   1.140 -0.6697  0.0837  0.1542
 5792SOL    HW128835   0.471   3.645   1.179  1.0493 -0.9563  3.9297
 5792SOL    HW228836   0.538   3.605   1.058  2.2089 -0.1613  1.0638
 5793SOL     OW28837   3.509   4.314   5.456 -0.0113  0.3141 -0.1848
 5793SOL    HW128838   3.483   4.404   5.474  2.0478  1.0145 -0.6591
 5793SOL    HW228839   3.434   4.266   5.490 -0.3242  1.4794  0.7590
 5794SOL     OW28840   2.045   2.841  11.190 -0.3409 -0.1944  0.1584
 5794SOL    HW128841   2.120   2.899  11.195 -1.3486  1.1107  0.0738
 5794SOL    HW228842   2.084   2.762  11.228  1.1731  1.7452  2.5489
 5795SOL     OW28843   4.533   3.262   3.199 -0.0431  1.1091 -0.0986
 5795SOL    HW128844   4.454   3.207   3.196  1.1658 -0.6085 -0.3876
 5795SOL    HW228845   4.538   3.275   3.104  2.2599  1.9398  0.1384
 5796SOL     OW28846   4.670   1.983   3.586 -0.3421 -0.1364 -0.4270
 5796SOL    HW128847   4.654   1.888   3.587 -2.8704  0.3093  0.1763
 5796SOL    HW228848   4.577   2.005   3.594 -1.1615 -2.8511 -2.3419
 5797SOL     OW28849   4.488   0.768   4.319  0.0622  0.0738 -0.3210
 5797SOL    HW128850   4.427   0.832   4.354  0.3399 -0.8751  1.8506
 5797SOL    HW228851   4.484   0.789   4.225 -1.7162 -2.1994 -0.7562
 5798SOL     OW28852   0.456   2.203   5.122  0.2332  0.1329 -0.2827
 5798SOL    HW128853   0.386   2.260   5.089  0.6878  0.2501 -1.0568
 5798SOL    HW228854   0.533   2.260   5.126 -0.2300  0.7996 -0.8231
 5799SOL     OW28855   2.710   3.117   2.385 -0.5154  0.2493  0.4911
 5799SOL    HW128856   2.728   3.041   2.440 -0.8792 -0.1881  0.0143
 5799SOL    HW228857   2.779   3.111   2.320 -0.9467 -2.2495  0.2675
 5800SOL     OW28858   0.097   3.483  17.480  0.0057 -0.4223 -0.2570
 5800SOL    HW128859   0.104   3.565  17.431 -1.2973 -0.3057 -0.2596
 5800SOL    HW228860   0.102   3.526  17.566 -0.9908  0.2955 -0.5578
 5801SOL     OW28861   4.532   4.147   6.880  0.1067 -0.1326 -0.0272
 5801SOL    HW128862   4.540   4.105   6.795 -0.7356  1.1927 -0.7652
 5801SOL    HW228863   4.509   4.069   6.930  0.3600  0.9497  1.7994
 5802SOL     OW28864   1.641   3.871   3.388  0.1438 -0.8405  0.1845
 5802SOL    HW128865   1.680   3.936   3.330  0.2889 -0.7527  0.3795
 5802SOL    HW228866   1.642   3.934   3.460 -0.3019 -2.6396  1.7841
 5803SOL     OW28867   3.181   1.692  12.939  0.5331 -0.3489 -0.5007
 5803SOL    HW128868   3.163   1.599  12.954  0.2546 -0.7906 -3.5098
 5803SOL    HW228869   3.102   1.723  12.984  1.4144 -0.5046  1.1348
 5804SOL     OW28870   4.084   3.753   3.612  0.5768  0.3658 -0.0760
 5804SOL    HW128871   4.150   3.744   3.682  1.9185  0.3625 -1.3416
 5804SOL    HW228872   4.011   3.723   3.666 -0.8624  1.4638 -1.4329
 5805SOL     OW28873   0.131   2.284   8.969 -0.1480 -0.0590  0.2473
 5805SOL    HW128874   0.173   2.236   9.041  1.0372 -1.0101 -1.0743
 5805SOL    HW228875   0.092   2.361   9.009 -1.6627 -1.2963  1.1316
 5806SOL     OW28876   1.277   0.727   4.779 -0.5113  0.6261  0.0451
 5806SOL    HW128877   1.292   0.695   4.868  0.0677  0.0662 -0.2496
 5806SOL    HW228878   1.200   0.783   4.789 -1.9525 -1.2839 -0.1756
 5807SOL     OW28879   1.555   1.286   0.734  0.1535  0.8542 -0.6127
 5807SOL    HW128880   1.607   1.366   0.740 -0.4258  1.2690 -1.1838
 5807SOL    HW228881   1.513   1.294   0.649  1.6602 -0.3108 -1.4591
 5808SOL     OW28882   2.327   2.765  15.825 -0.0613 -0.1783  0.4655
 5808SOL    HW128883   2.279   2.792  15.903 -2.3526 -1.3219 -0.5306
 5808SOL    HW228884   2.272   2.713  15.766  1.3145  0.1699 -1.1162
 5809SOL     OW28885   4.504   2.157   2.986  0.2629  0.0681  0.1889
 5809SOL    HW128886   4.531   2.068   2.966  0.5646 -0.1443  1.5791
 5809SOL    HW228887   4.425   2.169   2.933 -0.5056  0.9459  1.5297
 5810SOL     OW28888   0.002   4.429   4.017 -0.2818 -0.4432  0.1737
 5810SOL    HW128889   4.655   4.438   4.082  1.2392 -1.2833  1.9547
 5810SOL    HW228890   4.696   4.495   3.954 -0.9295  0.0848  1.0240
 5811SOL     OW28891   0.796   4.098   2.606  0.2820  0.3914 -0.0206
 5811SOL    HW128892   0.751   4.042   2.544 -2.2703 -0.0448  2.2452
 5811SOL    HW228893   0.845   4.029   2.651  2.0151  1.4227 -0.3099
 5812SOL     OW28894   0.975   2.462  14.583 -0.3407 -0.1137  0.0422
 5812SOL    HW128895   1.056   2.432  14.623  1.2913  0.9704 -2.4592
 5812SOL    HW228896   0.964   2.543  14.634 -1.2398  1.7271 -3.0691
 5813SOL     OW28897   0.639   3.662   4.893 -0.1150  0.2282  0.4998
 5813SOL    HW128898   0.678   3.631   4.812  0.9581 -0.3823  1.2458
 5813SOL    HW228899   0.559   3.610   4.904  1.4383 -2.4704 -1.0179
 5814SOL     OW28900   3.705   2.431   6.829  0.1519  0.7282  0.3691
 5814SOL    HW128901   3.766   2.472   6.767  1.5057 -2.1435 -0.1951
 5814SOL    HW228902   3.740   2.343   6.845  0.7707  0.5827 -1.8380
 5815SOL     OW28903   0.841   2.636  12.542  0.1497 -0.2682 -0.3111
 5815SOL    HW128904   0.802   2.624  12.629  0.6373  0.3867 -0.0011
 5815SOL    HW228905   0.772   2.690  12.503 -1.2040 -0.5588  1.6939
 5816SOL     OW28906   0.334   2.366   6.171  0.0124 -0.1948 -0.4540
 5816SOL    HW128907   0.325   2.461   6.164  0.8111 -0.0625  0.2686
 5816SOL    HW228908   0.428   2.354   6.160  0.0782 -1.1889  1.2359
 5817SOL     OW28909   3.615   4.568   3.076  0.0065 -0.5636 -0.1998
 5817SOL    HW128910   3.656   4.610   3.152 -1.6415  1.4795 -0.4208
 5817SOL    HW228911   3.689   4.537   3.024  0.3866 -1.9578  1.1699
 5818SOL     OW28912   2.780   3.420   0.726 -0.1091  0.4171  0.0923
 5818SOL    HW128913   2.742   3.411   0.638 -0.0041 -0.7912  0.1597
 5818SOL    HW228914   2.760   3.334   0.763  1.0815  0.8555  1.7838
 5819SOL     OW28915   0.472   2.368   3.914  0.0621 -0.0558  0.0640
 5819SOL    HW128916   0.445   2.278   3.933 -1.6233  0.5427  0.4389
 5819SOL    HW228917   0.454   2.417   3.994  0.8294 -1.8498  1.3356
 5820SOL     OW28918   1.123   4.168   2.108  0.0612 -0.4794 -0.5678
 5820SOL    HW128919   1.065   4.244   2.117 -0.0195 -0.6352  0.2837
 5820SOL    HW228920   1.212   4.200   2.120  0.2726 -0.7040 -1.6171
 5821SOL     OW28921   0.426   0.327   2.683 -0.8779  0.2779 -0.3454
 5821SOL    HW128922   0.472   0.252   2.646  2.3223  1.3866  1.3323
 5821SOL    HW228923   0.496   0.392   2.679 -0.1992 -0.3854  0.7464
 5822SOL     OW28924   1.034   2.934   7.115  0.0220  0.2731 -0.3543
 5822SOL    HW128925   1.064   2.924   7.205  0.6923  1.3240 -0.4544
 5822SOL    HW228926   1.094   3.003   7.087 -0.3324 -0.5469 -3.1864
 5823SOL     OW28927   1.714   0.661   5.032  0.2946  0.4221  0.0087
 5823SOL    HW128928   1.763   0.682   5.111 -0.8850  1.5689  0.4303
 5823SOL    HW228929   1.740   0.740   4.984 -0.9925  0.5452 -0.5126
 5824SOL     OW28930   0.716   0.552   9.047  0.6876 -0.1058 -0.1996
 5824SOL    HW128931   0.637   0.553   9.101 -0.4417 -2.1590 -1.8277
 5824SOL    HW228932   0.705   0.480   8.985 -0.3851 -1.7866  1.9313
 5825SOL     OW28933   3.008   3.115   2.596 -0.3819  0.2872  0.2868
 5825SOL    HW128934   3.050   3.112   2.682  1.5198 -2.1171 -0.7413
 5825SOL    HW228935   2.974   3.204   2.605 -3.4375 -0.9069  0.6501
 5826SOL     OW28936   0.930   1.539  13.542 -0.2363 -0.6894 -0.4415
 5826SOL    HW128937   0.979   1.607  13.496  1.8271 -2.2975 -0.6182
 5826SOL    HW228938   0.899   1.577  13.624 -0.3587 -0.8360 -0.4210
 5827SOL     OW28939   2.425   4.549   5.699  0.0951 -0.5985  0.0661
 5827SOL    HW128940   2.395   4.529   5.788 -0.0131 -2.3197 -0.3680
 5827SOL    HW228941   2.376   4.480   5.655 -0.4958 -0.5656  0.6777
 5828SOL     OW28942   1.569   2.671   2.719 -0.0487 -0.3853  0.4847
 5828SOL    HW128943   1.543   2.734   2.651  1.9721 -0.6340 -0.5241
 5828SOL    HW228944   1.588   2.589   2.674  0.4278  0.8015 -1.4441
 5829SOL     OW28945   2.143   0.030   0.965  0.2188 -0.3031  0.0610
 5829SOL    HW128946   2.176   0.092   1.030  1.9099 -0.7776 -0.3578
 5829SOL    HW228947   2.081   0.090   0.923 -0.2030 -1.3461 -0.7993
 5830SOL     OW28948   1.014   3.716  15.172 -0.9088 -0.0341 -1.0105
 5830SOL    HW128949   1.036   3.623  15.170  0.5616  0.2981 -0.1711
 5830SOL    HW228950   1.048   3.741  15.258 -2.7194 -2.9862  0.5758
 5831SOL     OW28951   1.775   1.105   3.587 -0.3319  0.0947  0.1422
 5831SOL    HW128952   1.804   1.194   3.610 -0.7226  0.3735 -0.4233
 5831SOL    HW228953   1.809   1.083   3.500  1.1698  1.0194  0.5020
 5832SOL     OW28954   1.281   2.020   4.575  0.3290 -0.1092 -0.0276
 5832SOL    HW128955   1.308   1.956   4.640  0.9622 -1.1535 -1.3277
 5832SOL    HW228956   1.352   2.008   4.512 -1.3026  3.3449 -2.5570
 5833SOL     OW28957   2.753   4.548   3.062  0.0379  0.1699  0.2170
 5833SOL    HW128958   2.707   4.487   3.005  0.0604  0.1843  0.1834
 5833SOL    HW228959   2.722   4.511   3.144  1.8583  1.3865  1.4553
 5834SOL     OW28960   3.741   2.177   3.680 -0.6633  0.1542  0.9035
 5834SOL    HW128961   3.828   2.216   3.671 -0.5341 -1.5219 -5.2703
 5834SOL    HW228962   3.713   2.170   3.589  0.3175 -1.5449  0.7341
 5835SOL     OW28963   4.473   4.521  17.349  0.3712  0.1412  0.1863
 5835SOL    HW128964   4.465   4.502  17.255 -1.8808 -1.0456  0.6290
 5835SOL    HW228965   4.402   4.462  17.375  0.2809  1.0759  2.0234
 5836SOL     OW28966   2.976   0.776   8.277  0.5459  0.1159 -0.1963
 5836SOL    HW128967   2.901   0.781   8.336  0.4466  1.9543 -0.4733
 5836SOL    HW228968   2.965   0.683   8.257 -1.1534 -0.1362  1.9588
 5837SOL     OW28969   3.702   1.966  11.892 -0.5605  0.4349  0.0706
 5837SOL    HW128970   3.786   2.000  11.861 -0.5781 -0.8679 -1.4068
 5837SOL    HW228971   3.720   1.917  11.972  2.7260 -0.3346 -1.1554
 5838SOL     OW28972   1.436   2.262  15.563 -0.4009 -0.3926 -0.1162
 5838SOL    HW128973   1.363   2.215  15.523  0.5736 -0.9428 -1.2447
 5838SOL    HW228974   1.432   2.241  15.656 -1.8950 -3.4946 -0.8787
 5839SOL     OW28975   4.374   2.779   3.764 -0.1038  0.0303  0.4339
 5839SOL    HW128976   4.421   2.791   3.847  0.9671  1.2712 -0.3579
 5839SOL    HW228977   4.361   2.684   3.763  0.0106 -0.0154  2.1484
 5840SOL     OW28978   0.532   1.513   5.903  0.2823 -0.3465  0.2596
 5840SOL    HW128979   0.503   1.438   5.852  1.5563 -0.8026  0.1961
 5840SOL    HW228980   0.614   1.489   5.947  0.4028  1.9855  1.3086
 5841SOL     OW28981   3.243   1.896   8.284 -0.4182  0.6348  0.1199
 5841SOL    HW128982   3.336   1.894   8.261  0.3699 -0.2778  3.4294
 5841SOL    HW228983   3.224   1.802   8.287  0.4758  0.3785 -2.1712
 5842SOL     OW28984   4.668   3.078   5.542 -0.0149  0.7369 -0.5041
 5842SOL    HW128985   4.690   3.006   5.482 -4.0568 -2.3342  1.7368
 5842SOL    HW228986   4.656   3.042   5.630  2.5786  1.4837  0.1650
 5843SOL     OW28987   0.658   0.603   1.930 -0.1618 -0.1963 -0.2502
 5843SOL    HW128988   0.687   0.516   1.957 -1.3532 -0.0475  1.4859
 5843SOL    HW228989   0.575   0.579   1.891 -0.4693 -1.8230  1.4126
 5844SOL     OW28990   0.357   2.012   7.511 -0.1921 -0.7001 -0.0044
 5844SOL    HW128991   0.438   2.002   7.561 -0.2893  2.6554  0.8120
 5844SOL    HW228992   0.325   2.083   7.566  0.1934 -0.9018  0.4827
 5845SOL     OW28993   0.097   0.846   2.201 -0.3022 -0.0370 -0.3092
 5845SOL    HW128994   0.022   0.849   2.143 -0.4399  0.2649 -0.1164
 5845SOL    HW228995   0.105   0.751   2.211  0.7614 -0.0599 -1.4925
 5846SOL     OW28996   0.185   2.228   8.675  0.3167  0.1353 -0.5156
 5846SOL    HW128997   0.157   2.221   8.766  0.6490  0.4001 -0.3920
 5846SOL    HW228998   0.239   2.149   8.674  2.5934  1.6993  0.1735
 5847SOL     OW28999   2.681   2.078   9.268  0.3928  0.6759  0.8031
 5847SOL    HW129000   2.631   2.159   9.259  0.4994  0.5276 -1.0583
 5847SOL    HW229001   2.764   2.107   9.230  0.4964 -0.7091 -0.0082
 5848SOL     OW29002   1.134   0.159  11.004  0.3988 -0.0509 -0.1156
 5848SOL    HW129003   1.069   0.218  10.965  1.1610  1.2802  0.6510
 5848SOL    HW229004   1.104   0.140  11.093  2.0289 -1.1592  0.1943
 5849SOL     OW29005   2.736   2.098   6.178  0.1251  0.3298  0.1754
 5849SOL    HW129006   2.657   2.149   6.190 -1.6783 -2.8071  1.5900
 5849SOL    HW229007   2.702   2.011   6.158  0.2911  0.4539 -0.6391
 5850SOL     OW29008   0.844   0.608   5.795  0.4519  0.2446  0.3223
 5850SOL    HW129009   0.869   0.552   5.721 -0.4340  1.2883 -0.7595
 5850SOL    HW229010   0.923   0.656   5.818  1.5327 -0.8553 -1.0290
 5851SOL     OW29011   2.377   3.505   1.303  0.0519 -0.1865  0.3886
 5851SOL    HW129012   2.392   3.469   1.390  2.0977  0.5171  0.3334
 5851SOL    HW229013   2.362   3.421   1.261  1.6344  1.1783 -2.9618
 5852SOL     OW29014   1.131   2.961   1.161  0.1219  0.2550  0.0391
 5852SOL    HW129015   1.183   2.942   1.083  1.1931 -0.5667  0.9536
 5852SOL    HW229016   1.083   3.040   1.136  0.0847  0.2303  0.0320
 5853SOL     OW29017   1.424   2.439   4.217 -0.0656  0.6381 -0.2681
 5853SOL    HW129018   1.477   2.451   4.295 -1.8415  1.6377  0.7920
 5853SOL    HW229019   1.401   2.346   4.214 -1.8963  1.0076  2.3407
 5854SOL     OW29020   1.184   4.662   3.807  0.3059  0.4693 -0.2033
 5854SOL    HW129021   1.127   4.625   3.740 -0.0973 -0.4297  0.6510
 5854SOL    HW229022   1.203   0.023   3.766 -0.4876  0.7448  0.0099
 5855SOL     OW29023   4.076   0.975  16.690 -0.4638 -0.0387 -0.8953
 5855SOL    HW129024   4.014   1.020  16.748 -0.6892  0.3961 -1.4673
 5855SOL    HW229025   4.027   0.902  16.654 -1.9442  1.4817 -1.9846
 5856SOL     OW29026   2.188   4.608   2.662  0.0820 -0.6674  0.2603
 5856SOL    HW129027   2.174   4.514   2.670  0.8825 -0.6940  1.3212
 5856SOL    HW229028   2.130   4.627   2.589  1.4312 -0.8850 -0.8843
 5857SOL     OW29029   2.531   4.710   7.496  0.0033 -0.3887 -0.1034
 5857SOL    HW129030   2.469   4.650   7.539 -1.4522  1.2178  0.0546
 5857SOL    HW229031   2.564   0.039   7.568 -0.4132  0.1240 -0.2875
 5858SOL     OW29032   1.980   4.096   7.487  0.4531 -0.1082  0.4147
 5858SOL    HW129033   2.070   4.123   7.469 -0.4367  0.1473 -3.7326
 5858SOL    HW229034   1.965   4.045   7.408 -2.1513  0.7147  0.3753
 5859SOL     OW29035   2.979   0.356  15.591 -0.9637 -0.2317  0.3611
 5859SOL    HW129036   3.006   0.413  15.519  0.3087 -1.1916  0.0740
 5859SOL    HW229037   3.023   0.273  15.571  0.5058  0.8018 -0.6683
 5860SOL     OW29038   2.665   4.219  17.189 -0.0396  0.3000 -0.1698
 5860SOL    HW129039   2.712   4.268  17.121  1.7660 -1.0363  0.1186
 5860SOL    HW229040   2.728   4.219  17.261 -0.0706 -0.7452 -0.1530
 5861SOL     OW29041   2.747   3.939   3.877 -0.7250 -0.2062  0.2701
 5861SOL    HW129042   2.690   3.959   3.951  0.5748 -1.1038  1.5121
 5861SOL    HW229043   2.827   3.986   3.901 -0.7765 -0.7785  1.5611
 5862SOL     OW29044   2.206   0.794   8.709  0.3876 -0.6952 -0.2710
 5862SOL    HW129045   2.271   0.747   8.762  0.0303  0.5987  1.3326
 5862SOL    HW229046   2.129   0.767   8.760 -0.6302  0.9571 -0.9611
 5863SOL     OW29047   1.798   2.103   5.237 -0.8724  0.0715  0.2265
 5863SOL    HW129048   1.855   2.026   5.231 -1.3771 -0.1462 -1.9545
 5863SOL    HW229049   1.831   2.151   5.312 -0.1396 -0.0596 -0.0095
 5864SOL     OW29050   0.597   4.646   8.067 -0.5967  0.3224  0.7394
 5864SOL    HW129051   0.589   4.680   8.156  0.8000  0.8981  0.6613
 5864SOL    HW229052   0.656   4.572   8.082 -1.7041 -1.1464 -2.3865
 5865SOL     OW29053   0.726   3.176   9.382  0.1021 -0.3734 -0.2861
 5865SOL    HW129054   0.802   3.234   9.374 -0.4796  0.1639 -2.0231
 5865SOL    HW229055   0.661   3.243   9.403 -1.8850 -1.8195 -1.8744
 5866SOL     OW29056   0.542   3.763   6.853 -0.1547 -0.4618  0.3795
 5866SOL    HW129057   0.505   3.683   6.890  1.1255 -1.9595 -1.6162
 5866SOL    HW229058   0.583   3.794   6.933 -1.9448  1.9419  0.3747
 5867SOL     OW29059   2.403   1.873   4.836  0.1719 -0.4361 -0.1565
 5867SOL    HW129060   2.361   1.876   4.922 -1.0696 -0.7866 -0.7540
 5867SOL    HW229061   2.483   1.924   4.851 -0.2807 -0.2816  1.7717
 5868SOL     OW29062   0.399   0.451   5.106  0.6209  0.3032 -0.1642
 5868SOL    HW129063   0.362   0.520   5.051 -3.0803 -1.1348  0.5159
 5868SOL    HW229064   0.481   0.430   5.059  0.3516  1.8268 -1.2927
 5869SOL     OW29065   1.486   0.795   5.868  0.5769  0.1518  0.4575
 5869SOL    HW129066   1.549   0.784   5.797  1.7610  2.2248  1.2000
 5869SOL    HW229067   1.405   0.771   5.823  0.1313  0.1997  1.2200
 5870SOL     OW29068   3.762   4.047  10.163  0.3413 -0.1632 -0.2096
 5870SOL    HW129069   3.693   3.984  10.183  0.2486  0.5696  1.7582
 5870SOL    HW229070   3.749   4.072  10.072 -0.9197 -0.0556  0.0016
 5871SOL     OW29071   1.857   0.049   4.059  0.1577 -0.0120  0.4398
 5871SOL    HW129072   1.904   4.700   4.100 -2.0980 -0.9612  1.3433
 5871SOL    HW229073   1.923   0.118   4.062 -0.4474  0.5554  0.6087
 5872SOL     OW29074   0.698   2.789   0.411  0.3248 -0.0428 -0.4394
 5872SOL    HW129075   0.767   2.743   0.460  0.7235  2.5587  1.4153
 5872SOL    HW229076   0.631   2.721   0.404  0.9938 -0.8117  0.5589
 5873SOL     OW29077   0.035   0.632   0.536  0.5698 -0.5133 -0.1383
 5873SOL    HW129078   0.129   0.651   0.533  0.3839  0.1858 -1.4738
 5873SOL    HW229079   0.021   0.674   0.621  1.2422  0.4423 -0.5008
 5874SOL     OW29080   3.463   2.732   9.339  0.1016  0.2518 -0.6851
 5874SOL    HW129081   3.464   2.644   9.375 -0.7800 -0.0407 -1.3624
 5874SOL    HW229082   3.379   2.739   9.293  0.5448  0.1104 -1.5256
 5875SOL     OW29083   1.703   0.122   2.718  0.0381 -0.3503  0.1481
 5875SOL    HW129084   1.776   0.060   2.715 -0.2585 -0.7305  0.8042
 5875SOL    HW229085   1.689   0.129   2.812 -0.9642  2.0214 -0.1827
 5876SOL     OW29086   0.527   1.336  10.075 -0.2150  0.3226 -0.6471
 5876SOL    HW129087   0.447   1.296  10.042 -0.0484  1.0238 -1.9311
 5876SOL    HW229088   0.520   1.287  10.156  1.1889 -1.2244 -1.4664
 5877SOL     OW29089   1.635   3.910   7.669 -0.0149  0.3187 -0.2714
 5877SOL    HW129090   1.569   3.841   7.683 -1.1095  1.5434  0.6711
 5877SOL    HW229091   1.670   3.865   7.592 -1.3362 -2.0414  0.5023
 5878SOL     OW29092   0.295   0.687   0.497 -0.7595 -0.5363  0.2662
 5878SOL    HW129093   0.323   0.755   0.435  0.5389  0.7543  2.2588
 5878SOL    HW229094   0.350   0.711   0.571 -0.8178 -1.4701  0.6114
 5879SOL     OW29095   0.896   3.865   9.399  0.6445 -0.1902  0.6769
 5879SOL    HW129096   0.885   3.931   9.330  0.8226 -0.0896  0.7432
 5879SOL    HW229097   0.981   3.836   9.367  0.1140  0.5051 -1.3401
 5880SOL     OW29098   2.019   0.303   4.570  0.2564 -0.3307 -0.0937
 5880SOL    HW129099   1.940   0.321   4.519  0.2805  0.2061  0.0551
 5880SOL    HW229100   1.999   0.343   4.655  0.9695 -0.7999  0.2988
 5881SOL     OW29101   3.178   3.764   7.512  0.3544  0.2157  0.3133
 5881SOL    HW129102   3.193   3.811   7.431  2.4338 -2.6626 -0.9496
 5881SOL    HW229103   3.203   3.828   7.578  0.3071 -0.0597  0.6014
 5882SOL     OW29104   3.068   2.803   0.865  0.2994  0.0027  0.1197
 5882SOL    HW129105   3.076   2.898   0.863  0.9766 -0.0674 -0.7609
 5882SOL    HW229106   3.139   2.768   0.810 -0.4875  2.0166 -2.1760
 5883SOL     OW29107   1.031   2.436   0.538 -1.1252  0.2617 -0.3213
 5883SOL    HW129108   1.058   2.363   0.482  1.0542 -0.6085  1.8449
 5883SOL    HW229109   1.053   2.393   0.620 -0.5679  0.8245 -0.1703
 5884SOL     OW29110   3.850   2.451   0.564  0.1245 -0.3148  0.0919
 5884SOL    HW129111   3.889   2.514   0.626  0.3322  0.9505 -1.3336
 5884SOL    HW229112   3.761   2.467   0.596  0.3103  0.4541  0.2311
 5885SOL     OW29113   3.141   2.682  14.105  0.1328 -0.0510  0.0970
 5885SOL    HW129114   3.213   2.711  14.049  1.4837  1.1111  2.4364
 5885SOL    HW229115   3.183   2.607  14.147  0.6407  0.7183  0.9425
 5886SOL     OW29116   2.060   2.173  10.259  0.2505  0.4795  0.3234
 5886SOL    HW129117   1.968   2.163  10.236  0.2408 -0.1171  0.6383
 5886SOL    HW229118   2.053   2.203  10.350  0.0037  1.5142 -0.0386
 5887SOL     OW29119   2.908   0.489   4.401  0.2925 -0.2907  0.3288
 5887SOL    HW129120   2.849   0.428   4.358 -0.2919 -0.0636  0.8167
 5887SOL    HW229121   2.989   0.473   4.352  0.1738 -3.1119  1.0730
 5888SOL     OW29122   4.040   0.396   7.730  0.4285 -0.3765  0.3675
 5888SOL    HW129123   3.996   0.416   7.813  0.3906 -0.7254  0.4332
 5888SOL    HW229124   3.967   0.393   7.668 -0.8160 -0.3240  1.8185
 5889SOL     OW29125   2.149   2.617   3.160 -0.3063  0.3264 -0.2860
 5889SOL    HW129126   2.103   2.682   3.107 -0.7940 -1.5030 -2.0757
 5889SOL    HW229127   2.145   2.665   3.243  0.8059 -0.0433 -0.0188
 5890SOL     OW29128   2.951   2.052   5.652 -0.3262  0.5803 -0.4156
 5890SOL    HW129129   3.005   1.980   5.685 -0.5266  0.8165  0.4093
 5890SOL    HW229130   2.862   2.023   5.634  0.1319 -1.1143  0.0088
 5891SOL     OW29131   0.159   4.300   0.357 -0.1777  1.4876 -0.2158
 5891SOL    HW129132   0.103   4.252   0.418  2.1116  1.9958  2.2839
 5891SOL    HW229133   0.241   4.284   0.403 -1.1318  0.7786  1.2233
 5892SOL     OW29134   0.091   0.931  10.846  0.5259 -0.4465  0.4889
 5892SOL    HW129135   0.026   0.962  10.909  1.2426  0.3090  0.8506
 5892SOL    HW229136   0.160   0.900  10.905  1.2744 -0.7536 -0.5538
 5893SOL     OW29137   4.323   2.285   7.592 -0.7677  0.0579 -0.4466
 5893SOL    HW129138   4.376   2.227   7.537 -0.6253 -1.1160  0.9277
 5893SOL    HW229139   4.235   2.266   7.558 -1.2717 -0.5707  1.2240
 5894SOL     OW29140   3.664   2.058  10.266 -0.1033 -0.6491 -0.1735
 5894SOL    HW129141   3.749   2.075  10.307 -1.3659 -0.4633  2.3856
 5894SOL    HW229142   3.638   2.148  10.247  0.2508 -0.7733 -1.2385
 5895SOL     OW29143   4.035   2.558  11.343 -0.2407 -0.1040  0.0823
 5895SOL    HW129144   4.044   2.495  11.415  0.5065 -0.8265 -0.6439
 5895SOL    HW229145   4.111   2.616  11.352  0.6476 -1.3079  0.3569
 5896SOL     OW29146   2.339   1.855   4.500 -0.1879  0.1058 -0.1941
 5896SOL    HW129147   2.310   1.824   4.414 -0.1419 -0.9489  0.1786
 5896SOL    HW229148   2.420   1.900   4.477 -0.3608  0.4247 -0.1803
 5897SOL     OW29149   1.623   1.236   2.440 -0.1173  1.1266 -0.3498
 5897SOL    HW129150   1.609   1.300   2.370  2.6306 -1.2671 -3.0854
 5897SOL    HW229151   1.540   1.254   2.484  0.2110  0.5924  0.4813
 5898SOL     OW29152   0.544   2.013   8.799 -0.1905  0.1851 -0.2551
 5898SOL    HW129153   0.611   2.050   8.741  1.4461 -2.1540  0.1767
 5898SOL    HW229154   0.527   2.086   8.858 -0.6303 -0.6623  0.6504
 5899SOL     OW29155   1.577   4.166  10.859 -0.0500  0.2242 -0.0978
 5899SOL    HW129156   1.620   4.233  10.912 -0.2195 -0.7249  1.2394
 5899SOL    HW229157   1.613   4.186  10.773 -0.8867  0.7597 -0.3269
 5900SOL     OW29158   0.487   0.314  13.388 -0.3916  0.1047  0.2820
 5900SOL    HW129159   0.578   0.308  13.360  0.0134 -0.4219  1.7144
 5900SOL    HW229160   0.507   0.253  13.459  1.7033 -2.1169 -2.1924
 5901SOL     OW29161   1.442   1.352  11.191 -0.5465 -0.1318 -0.0903
 5901SOL    HW129162   1.499   1.286  11.150  1.3528  0.1768  2.0621
 5901SOL    HW229163   1.497   1.393  11.257 -1.3686  1.0227 -0.1140
 5902SOL     OW29164   2.368   0.118  15.600 -0.0139 -0.1038 -0.7311
 5902SOL    HW129165   2.392   0.188  15.539 -1.2833  0.2864 -0.7851
 5902SOL    HW229166   2.275   0.103  15.580  0.3757 -2.5890 -0.6866
 5903SOL     OW29167   1.216   4.270  10.860 -0.2542  0.3789  0.1900
 5903SOL    HW129168   1.150   4.244  10.795  0.5349  2.7664 -1.5742
 5903SOL    HW229169   1.268   4.332  10.809  2.7851 -1.7166  0.7643
 5904SOL     OW29170   0.729   1.565   5.433  0.2785  0.6649  0.0764
 5904SOL    HW129171   0.727   1.657   5.457 -0.0262  1.3758 -2.6647
 5904SOL    HW229172   0.754   1.560   5.341  0.3886  0.3478  0.1222
 5905SOL     OW29173   0.712   0.381   3.039  0.8915  0.3051  0.0892
 5905SOL    HW129174   0.720   0.302   2.986 -0.6171  1.0344 -1.2163
 5905SOL    HW229175   0.774   0.354   3.107 -0.1763 -1.9533  0.1772
 5906SOL     OW29176   2.216   3.791   6.999  0.4659 -0.2651 -0.3589
 5906SOL    HW129177   2.179   3.867   7.045 -2.3115 -2.0723  0.3914
 5906SOL    HW229178   2.263   3.833   6.927  2.3311  1.4208  1.8401
 5907SOL     OW29179   0.350   1.195   3.394 -0.3877  0.4743  0.4683
 5907SOL    HW129180   0.305   1.124   3.347 -1.8261  1.2447  0.6787
 5907SOL    HW229181   0.319   1.257   3.328 -2.1940 -0.3292  0.5444
 5908SOL     OW29182   1.277   4.647  10.391 -0.2015  0.1311  0.6747
 5908SOL    HW129183   1.240   0.006  10.422  0.5805  0.8836 -0.4064
 5908SOL    HW229184   1.331   4.609  10.461 -2.2451 -0.6778  1.7988
 5909SOL     OW29185   1.644   3.659   2.841 -0.1341  0.2778  0.2957
 5909SOL    HW129186   1.662   3.565   2.847  2.1425  0.6960  0.2943
 5909SOL    HW229187   1.701   3.682   2.767 -0.6806  0.0839 -0.1887
 5910SOL     OW29188   4.378   0.957   5.573 -0.4866  0.1826  0.2841
 5910SOL    HW129189   4.471   0.941   5.590 -0.5614 -0.6441 -0.0720
 5910SOL    HW229190   4.329   0.880   5.602  0.6326 -0.7007 -0.1468
 5911SOL     OW29191   0.189   1.260   2.413  0.0057 -0.3989  0.3934
 5911SOL    HW129192   0.134   1.198   2.461 -2.4081 -0.1545 -2.0681
 5911SOL    HW229193   0.164   1.245   2.322  0.8767  1.7081 -0.1711
 5912SOL     OW29194   0.448   3.337  16.117 -0.0768 -0.0092 -0.5247
 5912SOL    HW129195   0.358   3.304  16.124  0.1340 -0.7483 -1.3027
 5912SOL    HW229196   0.492   3.269  16.067 -0.1722  0.0835 -0.7340
 5913SOL     OW29197   0.067   2.456  11.907  0.3422  0.4497 -0.0902
 5913SOL    HW129198   0.141   2.412  11.865  0.7549  0.2351  0.8603
 5913SOL    HW229199   0.011   2.460  11.829  0.4362  0.9268 -0.1306
 5914SOL     OW29200   2.585   2.590   6.744  0.1396 -0.5504  0.4618
 5914SOL    HW129201   2.573   2.531   6.818 -0.7701  0.1391  0.8541
 5914SOL    HW229202   2.515   2.570   6.682  1.3892 -0.2020 -1.0784
 5915SOL     OW29203   0.063   1.124  15.350  0.1154  0.1366  0.4294
 5915SOL    HW129204   0.047   1.117  15.256 -0.4706  0.1984  0.5232
 5915SOL    HW229205   0.157   1.138  15.352  0.3673 -1.6699  1.1886
 5916SOL     OW29206   0.566   2.088   6.566  0.1739  0.0000 -0.3992
 5916SOL    HW129207   0.517   2.078   6.648 -1.2037  0.6401 -1.1358
 5916SOL    HW229208   0.499   2.061   6.503  0.4798 -0.9243 -0.3236
 5917SOL     OW29209   4.062   1.100   5.108 -0.3648 -0.0526  0.3568
 5917SOL    HW129210   4.120   1.169   5.139  0.2621 -0.0563 -0.8292
 5917SOL    HW229211   3.989   1.150   5.072 -0.4423 -0.0266  0.5514
 5918SOL     OW29212   1.448   4.502   5.044  0.1386 -0.2155  0.0417
 5918SOL    HW129213   1.529   4.482   5.091  0.3065  1.6609  0.5166
 5918SOL    HW229214   1.389   4.500   5.120  0.4000 -0.6126  0.2384
 5919SOL     OW29215   3.212   4.352   3.142 -0.0486  0.2987 -0.0350
 5919SOL    HW129216   3.143   4.353   3.076  0.6890  3.0438 -0.7534
 5919SOL    HW229217   3.270   4.427   3.127  0.6990 -0.3416 -0.3606
 5920SOL     OW29218   0.895   0.197   4.903  0.5767  0.0379 -0.2286
 5920SOL    HW129219   0.912   0.166   4.815 -0.4542 -2.1941  0.3357
 5920SOL    HW229220   0.807   0.163   4.919 -0.1664  1.6808 -0.7884
 5921SOL     OW29221   4.156   0.771   6.067  0.0650  0.2056 -0.0469
 5921SOL    HW129222   4.144   0.686   6.108 -0.4687  0.5036  0.4232
 5921SOL    HW229223   4.065   0.803   6.069 -0.0573 -0.0278 -1.9890
 5922SOL     OW29224   1.018   0.366   4.591  0.7266  0.0230 -0.7319
 5922SOL    HW129225   1.016   0.270   4.586 -0.4373  0.0433 -0.6868
 5922SOL    HW229226   1.108   0.381   4.562  0.9086 -1.1814 -0.7831
 5923SOL     OW29227   0.048   3.325  14.240 -0.0402  0.3294 -0.5602
 5923SOL    HW129228   4.711   3.365  14.178  1.9581  1.6134 -1.6757
 5923SOL    HW229229   4.717   3.313  14.318  1.1377 -1.2485  0.0253
 5924SOL     OW29230   1.137   3.166   6.941  0.0911  0.0636  0.0131
 5924SOL    HW129231   1.048   3.192   6.918 -0.8253 -0.3201  3.0841
 5924SOL    HW229232   1.164   3.238   6.998 -1.0950  2.1819 -2.1006
 5925SOL     OW29233   0.668   2.722   6.978  0.2711 -0.1985  0.1220
 5925SOL    HW129234   0.689   2.802   7.026  0.9466  0.4038 -1.1874
 5925SOL    HW229235   0.623   2.660   7.035  0.8864  0.5326  1.3933
 5926SOL     OW29236   1.155   1.642   8.590 -0.1219 -0.0200  0.2104
 5926SOL    HW129237   1.154   1.669   8.682  1.5848  0.9658 -0.0629
 5926SOL    HW229238   1.238   1.678   8.559 -1.4573  1.9132 -1.0754
 5927SOL     OW29239   4.462   0.366  16.589  0.4141 -0.0869  0.2239
 5927SOL    HW129240   4.524   0.435  16.612  1.0602 -1.2367  2.0098
 5927SOL    HW229241   4.447   0.381  16.496 -0.6666  2.8376  0.8709
 5928SOL     OW29242   2.267   4.134   5.295 -0.4688  0.0199 -0.2954
 5928SOL    HW129243   2.200   4.172   5.352 -0.0452 -1.1772  0.9878
 5928SOL    HW229244   2.217   4.067   5.250 -0.2064  0.2463 -0.9267
 5929SOL     OW29245   2.297   2.560   2.833 -0.8396  0.3294 -0.2735
 5929SOL    HW129246   2.222   2.518   2.875 -1.1750  0.5496 -0.6509
 5929SOL    HW229247   2.284   2.537   2.741 -1.9994 -1.3102  0.3064
 5930SOL     OW29248   1.688   0.380   5.206  0.2144  0.1278 -0.4920
 5930SOL    HW129249   1.629   0.308   5.226 -0.6880  0.6050 -1.4381
 5930SOL    HW229250   1.754   0.366   5.274 -0.2234  0.9803  0.1095
 5931SOL     OW29251   0.200   0.207   7.539  0.2262 -0.9306 -0.7466
 5931SOL    HW129252   0.214   0.122   7.497  4.0365 -0.7606  0.1887
 5931SOL    HW229253   0.268   0.256   7.493  0.1495 -0.1461  0.0032
 5932SOL     OW29254   3.442   4.082  14.813 -0.0801  0.0857  0.0617
 5932SOL    HW129255   3.495   4.070  14.892  0.6271  1.8642 -0.1439
 5932SOL    HW229256   3.367   4.130  14.848  0.2077  0.6662 -0.1292
 5933SOL     OW29257   0.223   1.866   4.473  0.2075 -0.4627 -0.0820
 5933SOL    HW129258   0.171   1.845   4.550  1.0314  0.5252  0.7498
 5933SOL    HW229259   0.246   1.776   4.449  0.8939  0.3020 -2.3176
 5934SOL     OW29260   0.988   1.265  14.279  0.2239 -0.0411  0.3740
 5934SOL    HW129261   0.936   1.186  14.262 -0.3527 -0.3408  3.4819
 5934SOL    HW229262   0.923   1.334  14.285  0.2488  0.0798 -0.7222
 5935SOL     OW29263   2.195   2.968  17.691 -0.1329 -0.7269  0.1779
 5935SOL    HW129264   2.234   2.881   0.001  1.5622  0.1348  1.7012
 5935SOL    HW229265   2.220   2.982  17.600 -0.8489 -1.9542 -0.2074
 5936SOL     OW29266   2.345   0.622   3.140 -0.3291 -0.1537 -0.1399
 5936SOL    HW129267   2.360   0.642   3.047  0.0123  1.2420  0.2155
 5936SOL    HW229268   2.265   0.671   3.157 -0.7826 -0.0473 -2.5347
 5937SOL     OW29269   1.626   4.312   3.732  0.2309  0.3719  0.5718
 5937SOL    HW129270   1.675   4.287   3.810  0.9086 -0.5010 -0.1196
 5937SOL    HW229271   1.669   4.394   3.708 -1.1388  0.3600 -1.9867
 5938SOL     OW29272   0.859   4.332   7.289 -0.4168  0.1428  0.4015
 5938SOL    HW129273   0.892   4.263   7.346  0.3455  0.6584  0.5802
 5938SOL    HW229274   0.909   4.404   7.327  0.6501 -0.2017 -0.3577
 5939SOL     OW29275   3.352   1.535   6.267 -0.1638 -0.4008 -0.0044
 5939SOL    HW129276   3.302   1.608   6.303  1.2577  1.5230 -1.9164
 5939SOL    HW229277   3.410   1.578   6.204 -0.9859  1.1465  0.2956
 5940SOL     OW29278   2.000   2.352   2.328 -0.1112 -0.0921 -0.7666
 5940SOL    HW129279   1.951   2.325   2.406 -0.8390  1.4634 -0.6901
 5940SOL    HW229280   1.948   2.309   2.260 -0.0223 -0.9435 -0.2997
 5941SOL     OW29281   0.849   1.585   4.839 -0.0695  0.5674  0.5153
 5941SOL    HW129282   0.811   1.501   4.865  0.5086 -0.1785 -1.0816
 5941SOL    HW229283   0.796   1.608   4.762 -0.6865  0.8242  1.0136
 5942SOL     OW29284   2.223   4.129   7.406  0.1292  0.4088 -0.1951
 5942SOL    HW129285   2.305   4.099   7.444  0.5969  2.3653  0.3356
 5942SOL    HW229286   2.231   4.079   7.324  2.5769  0.4529  0.0338
 5943SOL     OW29287   0.770   0.179  17.254 -0.0170  0.6169 -0.4246
 5943SOL    HW129288   0.774   0.161  17.160  0.7033  0.5813 -0.3828
 5943SOL    HW229289   0.704   0.118  17.286 -1.0627  1.2540 -1.3558
 5944SOL     OW29290   0.846   0.876   5.518 -0.2983  0.0491  0.6083
 5944SOL    HW129291   0.870   0.828   5.439  0.6298  2.6099 -0.6626
 5944SOL    HW229292   0.802   0.955   5.486  0.9636  0.4767 -0.0563
 5945SOL     OW29293   3.087   4.122  12.433  0.2427 -0.1812  0.1402
 5945SOL    HW129294   3.000   4.162  12.425  0.9055  0.9307 -1.6356
 5945SOL    HW229295   3.091   4.116  12.528  0.1078 -0.6626  0.1170
 5946SOL     OW29296   4.673   1.515  17.666  0.6586  0.0350 -0.1219
 5946SOL    HW129297   4.599   1.574  17.679  0.3944 -0.8599  2.4252
 5946SOL    HW229298   0.027   1.571  17.676 -0.8188  2.2411 -1.0250
 5947SOL     OW29299   0.016   1.136  15.060 -0.2456 -0.0166 -0.3815
 5947SOL    HW129300   4.681   1.196  15.016 -0.4421 -0.4002 -0.6421
 5947SOL    HW229301   4.711   1.057  15.015  0.5376 -1.2473  1.2626
 5948SOL     OW29302   0.757   2.670  14.478 -0.3463 -0.1164 -0.1599
 5948SOL    HW129303   0.760   2.578  14.504 -1.3673  0.0988  0.7518
 5948SOL    HW229304   0.796   2.673  14.391  0.9279 -1.2365  0.3752
 5949SOL     OW29305   4.091   0.198   6.034 -0.3080  0.4342 -0.5566
 5949SOL    HW129306   4.052   0.124   5.988  0.5145 -1.1099  1.1869
 5949SOL    HW229307   4.030   0.212   6.107  0.9566  1.8801  0.2216
 5950SOL     OW29308   4.606   3.656   5.024  0.1878 -0.2054  0.0032
 5950SOL    HW129309   4.566   3.704   5.097 -0.6376 -1.4822  0.3941
 5950SOL    HW229310   4.643   3.582   5.074  2.7799  1.0037 -0.1030
 5951SOL     OW29311   1.777   4.016   5.624 -0.0187 -0.5087  1.0846
 5951SOL    HW129312   1.783   4.098   5.673  2.4288 -1.1215  1.7908
 5951SOL    HW229313   1.763   3.956   5.697  0.4140 -1.4655  0.3779
 5952SOL     OW29314   3.209   3.049  15.705  0.7412  0.3890 -0.7190
 5952SOL    HW129315   3.133   3.073  15.652 -0.0234  0.7981  0.5776
 5952SOL    HW229316   3.266   2.995  15.649  0.9845  1.2291 -1.2736
 5953SOL     OW29317   3.091   4.509   5.442 -0.1339 -0.4120  0.4278
 5953SOL    HW129318   3.178   4.536   5.413  0.2236  0.7748  2.6135
 5953SOL    HW229319   3.034   4.561   5.385  0.0285 -2.0411 -1.2270
 5954SOL     OW29320   2.527   0.354   9.984 -0.1127  0.2116 -0.1347
 5954SOL    HW129321   2.514   0.341  10.078 -2.9830 -0.2835 -0.6000
 5954SOL    HW229322   2.613   0.316   9.967 -0.0451  0.7527 -1.0095
 5955SOL     OW29323   3.366   3.875   3.493 -0.0024  0.1450 -0.2773
 5955SOL    HW129324   3.435   3.860   3.428 -1.7878  1.9396 -2.5556
 5955SOL    HW229325   3.298   3.899   3.430 -2.7954 -1.1596  2.2410
 5956SOL     OW29326   4.155   2.733  14.995  0.5763  1.0685  0.6713
 5956SOL    HW129327   4.063   2.735  15.022  0.3208 -1.5641  0.0625
 5956SOL    HW229328   4.158   2.786  14.915  0.6981 -1.4672 -1.0137
 5957SOL     OW29329   0.412   1.684   4.671 -1.1721 -0.0411 -0.3479
 5957SOL    HW129330   0.389   1.641   4.589 -0.7312 -0.9732  0.0224
 5957SOL    HW229331   0.324   1.694   4.707 -0.6939  4.2871 -0.3654
 5958SOL     OW29332   2.540   2.535  12.793 -0.0261  0.0986 -0.2117
 5958SOL    HW129333   2.491   2.610  12.828 -0.4386 -0.6346  0.7749
 5958SOL    HW229334   2.531   2.569  12.704  1.0475 -1.2404 -0.8179
 5959SOL     OW29335   3.438   3.626  12.471  0.5431  0.3622 -0.3001
 5959SOL    HW129336   3.464   3.542  12.436  0.6519  0.6972 -1.0172
 5959SOL    HW229337   3.506   3.646  12.535 -0.8064  1.7836  0.7033
 5960SOL     OW29338   4.659   2.541   3.241 -0.6183  0.5898  0.2523
 5960SOL    HW129339   0.029   2.559   3.244 -0.6898  0.9155  0.5327
 5960SOL    HW229340   4.626   2.621   3.200 -2.5962 -1.6871 -2.5916
 5961SOL     OW29341   3.559   0.072   0.589 -0.0658  0.5398  0.4352
 5961SOL    HW129342   3.554   0.009   0.661 -0.7451  2.9089  2.4460
 5961SOL    HW229343   3.511   0.026   0.521  0.1031 -1.0109  1.3644
 5962SOL     OW29344   1.854   4.649   4.677  0.5073 -0.3641 -0.3898
 5962SOL    HW129345   1.817   4.620   4.760  1.1218  0.1260  0.0623
 5962SOL    HW229346   1.919   4.713   4.708 -0.3322  0.0072  0.5738
 5963SOL     OW29347   2.890   4.540  17.211 -0.3952 -0.3337  0.0409
 5963SOL    HW129348   2.881   4.531  17.116 -2.0694  0.0792  0.1533
 5963SOL    HW229349   2.887   4.636  17.212  3.0464 -0.2492  0.8633
 5964SOL     OW29350   4.615   1.653   8.604  0.1091 -0.4117  0.0878
 5964SOL    HW129351   4.703   1.622   8.581 -0.7220 -0.9869 -2.3527
 5964SOL    HW229352   4.614   1.736   8.556  0.2887 -0.7232 -0.4589
 5965SOL     OW29353   1.156   1.987  16.140 -0.2712 -0.1613 -0.2943
 5965SOL    HW129354   1.173   1.939  16.222 -0.9920  0.1670  0.0468
 5965SOL    HW229355   1.090   1.926  16.106  0.1353 -0.1037 -1.1778
 5966SOL     OW29356   2.290   4.114  14.004  0.6912 -0.3869  0.1349
 5966SOL    HW129357   2.248   4.030  13.985  0.6509 -0.2856 -0.2223
 5966SOL    HW229358   2.241   4.166  13.940  0.5340 -0.8428 -0.1194
 5967SOL     OW29359   2.739   3.147   4.609  0.3132 -0.3881 -0.2407
 5967SOL    HW129360   2.648   3.156   4.582  0.3361  2.6169  0.6730
 5967SOL    HW229361   2.737   3.230   4.657  0.7949 -0.5174  0.0019
 5968SOL     OW29362   0.991   0.755  10.301  0.0379  0.1560  0.4476
 5968SOL    HW129363   0.943   0.784  10.223 -0.6690  0.4261  0.9790
 5968SOL    HW229364   1.013   0.841  10.338  1.6826 -0.7208  1.5085
 5969SOL     OW29365   2.142   3.934   6.370 -0.3412 -0.0363 -0.2034
 5969SOL    HW129366   2.237   3.937   6.382 -0.0797  1.0256 -2.4330
 5969SOL    HW229367   2.117   3.865   6.308  1.4168  0.2727 -1.2497
 5970SOL     OW29368   3.746   4.234   8.090  0.5232  0.4298  0.1973
 5970SOL    HW129369   3.711   4.219   8.178 -0.0708  3.9778  0.5877
 5970SOL    HW229370   3.746   4.142   8.066 -2.3756 -0.0650  2.0801
 5971SOL     OW29371   2.998   3.613   2.951  0.0558  0.4689 -0.1217
 5971SOL    HW129372   2.950   3.531   2.942 -0.8471  0.5009  4.1348
 5971SOL    HW229373   3.072   3.605   2.892  2.2188  4.4267  2.0392
 5972SOL     OW29374   2.275   1.527   7.489  0.4652 -0.1478  0.1639
 5972SOL    HW129375   2.232   1.442   7.492 -0.0587  0.0954 -0.3700
 5972SOL    HW229376   2.210   1.569   7.432  3.2938  0.9928 -2.2176
 5973SOL     OW29377   0.972   1.615   7.161  0.1937 -0.0027  0.3289
 5973SOL    HW129378   1.055   1.583   7.198  0.8261  1.6545  0.3388
 5973SOL    HW229379   0.970   1.570   7.076 -2.7247 -0.1354  0.4724
 5974SOL     OW29380   2.313   2.737   8.385  0.2061  0.3792  0.0941
 5974SOL    HW129381   2.323   2.666   8.322 -3.1717 -1.2385  1.3813
 5974SOL    HW229382   2.402   2.723   8.418  0.3435 -0.5073 -0.6363
 5975SOL     OW29383   3.837   1.098   8.125  0.2756 -0.1491  0.3519
 5975SOL    HW129384   3.780   1.030   8.161 -0.6358  0.5427  0.2197
 5975SOL    HW229385   3.773   1.152   8.078  1.7667  0.5777 -0.8479
 5976SOL     OW29386   3.310   2.416  14.752  0.2017  0.5895  0.8596
 5976SOL    HW129387   3.341   2.437  14.840 -0.4984 -0.4839  1.3648
 5976SOL    HW229388   3.260   2.496  14.736  2.2227  1.5039 -0.8878
 5977SOL     OW29389   2.576   3.228   3.238  0.1140  0.2568  0.0112
 5977SOL    HW129390   2.612   3.290   3.174  1.6000 -1.2796 -0.6630
 5977SOL    HW229391   2.557   3.274   3.319 -1.0872 -0.3385  0.0755
 5978SOL     OW29392   3.327   1.569   2.902 -0.3910 -0.6163 -0.0338
 5978SOL    HW129393   3.392   1.539   2.838  1.6442 -1.7890  2.5661
 5978SOL    HW229394   3.382   1.637   2.942 -0.7214 -0.6789  0.5241
 5979SOL     OW29395   2.046   0.472   6.349 -0.4117  0.1298  0.5400
 5979SOL    HW129396   2.081   0.560   6.336  0.1693 -0.1639  0.1182
 5979SOL    HW229397   2.128   0.423   6.341 -0.3474  0.1369  1.1159
 5980SOL     OW29398   0.893   3.713   1.384 -0.4778 -0.1647 -0.8366
 5980SOL    HW129399   0.968   3.757   1.345  1.1004 -3.1806 -1.2398
 5980SOL    HW229400   0.833   3.744   1.316  0.5582  1.0017 -1.1986
 5981SOL     OW29401   4.541   0.230  15.281 -0.0251 -0.4486 -0.7601
 5981SOL    HW129402   4.481   0.189  15.343  0.6207  1.0252  0.8539
 5981SOL    HW229403   4.481   0.283  15.228 -1.9559 -1.7435  0.1255
 5982SOL     OW29404   4.091   3.322   2.960 -0.7838 -0.4729 -0.2482
 5982SOL    HW129405   4.095   3.355   3.050  1.5364 -1.3903 -0.0143
 5982SOL    HW229406   4.057   3.398   2.912 -1.5370 -0.9141 -0.4162
 5983SOL     OW29407   0.985   2.079   3.021  0.5929 -0.0946  0.3475
 5983SOL    HW129408   0.929   2.153   3.000 -0.4510 -1.4388 -1.5884
 5983SOL    HW229409   0.923   2.007   3.034  1.1359 -0.6271 -0.0220
 5984SOL     OW29410   2.854   4.512  15.530 -0.4680  0.2838 -0.1721
 5984SOL    HW129411   2.772   4.560  15.537  0.0055  1.1030 -0.2600
 5984SOL    HW229412   2.885   4.536  15.618 -0.0393 -0.3467 -0.1521
 5985SOL     OW29413   4.060   2.237   6.517  0.3309  0.1828 -0.7342
 5985SOL    HW129414   4.079   2.178   6.444  0.5768 -1.8516  0.9631
 5985SOL    HW229415   4.028   2.317   6.477  1.8379  1.0208 -0.2352
 5986SOL     OW29416   3.512   0.918   5.113 -0.0116  0.1151 -0.5389
 5986SOL    HW129417   3.551   0.859   5.178 -0.6656  0.7190  0.3946
 5986SOL    HW229418   3.539   1.001   5.153 -2.0040 -0.7156  2.5239
 5987SOL     OW29419   0.121   4.188   3.466 -0.4723 -0.3943  0.0395
 5987SOL    HW129420   0.082   4.108   3.432 -0.7429  0.7471 -2.3200
 5987SOL    HW229421   0.214   4.167   3.454 -0.5319  0.3578 -1.6336
 5988SOL     OW29422   2.369   3.193   8.078 -0.1741 -0.0015 -0.5613
 5988SOL    HW129423   2.349   3.156   8.164 -2.2113  0.8254 -0.6978
 5988SOL    HW229424   2.341   3.284   8.091  0.6936 -0.0392  1.5980
 5989SOL     OW29425   1.808   2.317   1.671  0.0404 -0.0621 -0.1952
 5989SOL    HW129426   1.817   2.358   1.757  1.1443  2.0632 -1.3332
 5989SOL    HW229427   1.749   2.379   1.628 -0.0393 -1.0997 -1.5983
 5990SOL     OW29428   1.949   0.167   1.749 -0.2636 -0.1226 -0.0774
 5990SOL    HW129429   1.976   0.083   1.712  2.0762  1.0325 -1.0392
 5990SOL    HW229430   2.019   0.227   1.723 -0.4916 -0.1973 -0.8569
 5991SOL     OW29431   1.074   1.040   9.680  0.6465  0.0914  0.0272
 5991SOL    HW129432   0.987   1.051   9.719  0.3150 -1.7165 -0.2140
 5991SOL    HW229433   1.115   1.124   9.700  0.3219  0.4762 -0.9044
 5992SOL     OW29434   2.209   1.451   5.907 -0.6091 -0.5771  0.1550
 5992SOL    HW129435   2.156   1.504   5.966  1.0366  1.2029  0.0384
 5992SOL    HW229436   2.248   1.395   5.973  0.3975 -0.0617  0.0089
 5993SOL     OW29437   2.538   2.136  11.681  0.1494  0.1653  0.6490
 5993SOL    HW129438   2.476   2.073  11.645  0.4048  1.5051 -2.1368
 5993SOL    HW229439   2.518   2.137  11.775 -1.2456 -0.1581  0.3530
 5994SOL     OW29440   0.746   0.302  14.338 -0.0205  0.1347 -0.4757
 5994SOL    HW129441   0.666   0.288  14.287 -0.9866 -0.8584  1.3273
 5994SOL    HW229442   0.750   0.216  14.379  0.8222  0.6202  0.4652
 5995SOL     OW29443   0.636   4.184   4.838 -0.1498  0.2609 -0.0102
 5995SOL    HW129444   0.663   4.170   4.928  1.3460 -2.3843 -0.8717
 5995SOL    HW229445   0.543   4.169   4.854 -0.3050  0.8723 -0.3388
 5996SOL     OW29446   0.287   0.157   5.538 -0.2491 -0.3510  0.6107
 5996SOL    HW129447   0.316   0.234   5.488 -2.9557  1.5482  1.9864
 5996SOL    HW229448   0.319   0.087   5.481 -0.6047 -0.0443  0.0306
 5997SOL     OW29449   4.020   3.297   4.497 -0.1988  0.1366  0.7926
 5997SOL    HW129450   4.032   3.357   4.571  0.3138  2.5251 -1.2387
 5997SOL    HW229451   4.107   3.260   4.483 -0.8180 -1.3461  0.8383
 5998SOL     OW29452   0.979   1.747   4.647 -0.7131  0.6469 -0.0568
 5998SOL    HW129453   0.958   1.685   4.717 -0.9739 -0.7253 -1.3543
 5998SOL    HW229454   1.070   1.766   4.667  0.1690 -2.4680 -1.1356
 5999SOL     OW29455   1.053   0.872   4.778  0.3828 -0.7536 -0.0235
 5999SOL    HW129456   1.044   0.921   4.696  2.2532 -0.3503  0.0076
 5999SOL    HW229457   0.979   0.811   4.782 -0.3935  0.2750  1.6944
 6000SOL     OW29458   0.767   4.335  15.885  0.1042 -0.2359 -0.0391
 6000SOL    HW129459   0.707   4.336  15.960  0.8985  1.1754  0.5794
 6000SOL    HW229460   0.732   4.393  15.818  1.9171 -1.3957 -1.9968
 6001SOL     OW29461   4.053   1.748  11.835 -0.2218 -0.4116  0.0453
 6001SOL    HW129462   4.041   1.838  11.807  2.1800 -0.6227 -1.6108
 6001SOL    HW229463   4.142   1.749  11.871 -0.0833  2.1965 -0.4428
 6002SOL     OW29464   2.194   3.656  17.333  0.4811 -0.8611  0.2512
 6002SOL    HW129465   2.249   3.580  17.354 -0.1094 -1.1881  0.5952
 6002SOL    HW229466   2.220   3.671  17.242 -0.9376  0.9821  0.1620
 6003SOL     OW29467   0.521   1.641  11.745  0.4007  0.1750 -0.1314
 6003SOL    HW129468   0.583   1.581  11.787  0.6242  1.8069  1.8392
 6003SOL    HW229469   0.491   1.693  11.819 -0.4768  0.3811 -0.6363
 6004SOL     OW29470   3.823   3.970   4.238 -0.0653  0.1980 -1.2607
 6004SOL    HW129471   3.767   4.035   4.196 -1.3126  0.6388  1.1096
 6004SOL    HW229472   3.777   3.893   4.205 -0.7891  0.0357  0.1504
 6005SOL     OW29473   2.492   2.902   2.606 -0.3598  0.2297  0.3596
 6005SOL    HW129474   2.584   2.898   2.632 -0.1185  1.2838 -0.3510
 6005SOL    HW229475   2.505   2.899   2.512 -0.2886 -1.7652  0.4381
 6006SOL     OW29476   2.692   4.364   5.456 -0.6902  0.2041 -0.6392
 6006SOL    HW129477   2.688   4.439   5.516  1.5318 -2.1861  2.5215
 6006SOL    HW229478   2.603   4.337   5.433 -0.9491  0.7935 -0.3201
 6007SOL     OW29479   2.136   4.532   3.461 -0.2292 -0.5807  1.0798
 6007SOL    HW129480   2.188   4.454   3.445 -1.9809 -1.0780 -2.1590
 6007SOL    HW229481   2.135   4.528   3.556  0.0196 -0.4929  1.0866
 6008SOL     OW29482   2.446   3.149   2.349  0.3903  0.3916  0.1622
 6008SOL    HW129483   2.453   3.197   2.266  1.5433 -1.0920 -0.6160
 6008SOL    HW229484   2.538   3.129   2.367  0.2964  0.9078  1.1673
 6009SOL     OW29485   0.099   0.367   7.123 -0.2982  0.5025  0.0334
 6009SOL    HW129486   0.191   0.388   7.137 -0.0038 -1.9738  1.8554
 6009SOL    HW229487   0.068   0.412   7.044  2.5273 -1.4595 -2.1635
 6010SOL     OW29488   3.239   2.806   8.603 -0.2541  0.0946  0.7761
 6010SOL    HW129489   3.302   2.877   8.613 -1.4718  1.0498  1.7556
 6010SOL    HW229490   3.171   2.851   8.552  0.0808  0.3883  0.5859
 6011SOL     OW29491   4.514   4.108  12.617  0.1144 -0.2038 -0.1397
 6011SOL    HW129492   4.477   4.051  12.550 -2.7418  0.2639  1.0615
 6011SOL    HW229493   4.553   4.050  12.683  0.2648 -0.0437 -0.0876
 6012SOL     OW29494   3.293   1.653   9.618 -0.7422 -0.2638  0.0632
 6012SOL    HW129495   3.348   1.623   9.690 -0.9348  0.6957  0.6019
 6012SOL    HW229496   3.204   1.638   9.651 -1.9212  1.5266 -2.2519
 6013SOL     OW29497   1.156   2.847   5.076  0.0102  0.0166  0.0840
 6013SOL    HW129498   1.209   2.876   5.002 -0.2631  0.0100 -0.1137
 6013SOL    HW229499   1.106   2.772   5.044  0.9748 -1.2515  1.5586
 6014SOL     OW29500   1.206   2.687  13.101  0.1731  0.4965 -0.5275
 6014SOL    HW129501   1.283   2.631  13.105 -0.5600 -0.4013  0.9776
 6014SOL    HW229502   1.247   2.772  13.121  0.4842  0.5657 -1.4591
 6015SOL     OW29503   0.640   0.811   4.840  0.3134  0.3161 -0.2661
 6015SOL    HW129504   0.661   0.747   4.908  0.4371  0.9815  0.3239
 6015SOL    HW229505   0.678   0.762   4.767  1.9943  1.4549 -0.1515
 6016SOL     OW29506   3.681   2.881   0.757 -0.8818 -0.2546 -0.1523
 6016SOL    HW129507   3.674   2.956   0.698  0.5306  0.0502  0.0507
 6016SOL    HW229508   3.731   2.821   0.702 -2.1148 -1.1920 -0.2499
 6017SOL     OW29509   0.353   1.627   4.409 -0.0588 -0.2031 -0.3005
 6017SOL    HW129510   0.407   1.689   4.360 -1.7393  0.9271 -0.7171
 6017SOL    HW229511   0.374   1.549   4.358  0.1678  0.5834 -1.4034
 6018SOL     OW29512   3.057   4.502   2.453  0.3842  0.0477  0.9225
 6018SOL    HW129513   3.115   4.444   2.405 -1.2073  0.2752 -1.2840
 6018SOL    HW229514   2.982   4.496   2.394  2.1414 -0.8710 -1.2071
 6019SOL     OW29515   2.748   0.831   5.965 -0.2538  0.8693  0.6185
 6019SOL    HW129516   2.771   0.924   5.960  0.3930  0.6789 -0.0917
 6019SOL    HW229517   2.819   0.785   5.920 -1.2786  0.3954 -0.5265
 6020SOL     OW29518   3.958   1.469  17.137  0.2127 -0.1815 -0.0634
 6020SOL    HW129519   3.919   1.438  17.056 -0.1482 -0.2616  0.1394
 6020SOL    HW229520   4.001   1.390  17.169 -0.0309  0.5463  2.1043
 6021SOL     OW29521   0.894   4.137   5.517 -0.1390  0.5007 -0.5887
 6021SOL    HW129522   0.984   4.113   5.537 -0.4646  0.0981  0.3805
 6021SOL    HW229523   0.844   4.089   5.583  1.9025 -0.3777  0.3079
 6022SOL     OW29524   1.725   4.589   6.115  0.0908 -0.7388  0.1379
 6022SOL    HW129525   1.758   4.676   6.138  0.7123 -1.0195  0.2911
 6022SOL    HW229526   1.761   4.538   6.187  2.4544  1.5150  0.5379
 6023SOL     OW29527   2.781   3.356   4.759  0.4952 -0.0525  0.1426
 6023SOL    HW129528   2.854   3.418   4.766  0.0709  0.2036  2.3423
 6023SOL    HW229529   2.790   3.311   4.843 -1.2982  1.0789  0.9367
 6024SOL     OW29530   0.162   0.161   6.104 -0.1141 -0.0639  0.6056
 6024SOL    HW129531   0.185   0.253   6.096 -0.7056  0.2405  2.4054
 6024SOL    HW229532   0.213   0.148   6.184  0.6683 -2.8122 -0.3507
 6025SOL     OW29533   4.371   0.333  15.102  0.0496  0.3902  0.4487
 6025SOL    HW129534   4.393   0.275  15.029 -1.9177  0.5404 -0.2590
 6025SOL    HW229535   4.307   0.381  15.051  1.7373 -1.1582 -3.0900
 6026SOL     OW29536   0.687   1.486  10.901  0.5968 -0.2393  0.4177
 6026SOL    HW129537   0.608   1.522  10.861  0.6741 -0.9477 -0.3617
 6026SOL    HW229538   0.735   1.569  10.905 -0.7337  0.6466 -2.7689
 6027SOL     OW29539   3.711   4.536   2.524  0.0791  0.0507 -0.5666
 6027SOL    HW129540   3.772   4.543   2.451 -1.9783  0.7905 -2.2205
 6027SOL    HW229541   3.627   4.552   2.480  0.8360 -0.9420 -2.3208
 6028SOL     OW29542   1.511   2.450   8.459 -0.0951 -0.0149  0.0650
 6028SOL    HW129543   1.529   2.365   8.420 -2.2028  0.4716 -1.9498
 6028SOL    HW229544   1.423   2.432   8.493  0.0682 -0.3677  0.3037
 6029SOL     OW29545   2.366   0.679   6.178  0.1119  0.0012 -0.1585
 6029SOL    HW129546   2.358   0.748   6.112 -1.1738  0.4084  0.4368
 6029SOL    HW229547   2.281   0.678   6.222 -1.0575  0.7663 -2.4050
 6030SOL     OW29548   0.614   0.245  17.607  0.0112 -0.5448  0.1875
 6030SOL    HW129549   0.654   0.294  17.535 -0.3733 -0.3161  0.1334
 6030SOL    HW229550   0.572   0.320  17.649  3.0449  1.0017  0.4518
 6031SOL     OW29551   0.514   3.072   8.309  0.1319  0.5247 -0.0219
 6031SOL    HW129552   0.428   3.106   8.333  0.3926 -0.7318  2.7028
 6031SOL    HW229553   0.568   3.126   8.366 -0.4912 -0.1773  1.2500
 6032SOL     OW29554   0.989   2.317   8.142  0.5290  0.2887 -0.7460
 6032SOL    HW129555   1.007   2.368   8.221 -0.6916 -0.3031 -0.0970
 6032SOL    HW229556   0.923   2.376   8.104  0.8786  2.1637  1.5668
 6033SOL     OW29557   0.382   4.395  15.844 -0.4134  0.6341 -0.3732
 6033SOL    HW129558   0.441   4.344  15.899 -0.3256  0.3841 -0.6971
 6033SOL    HW229559   0.322   4.333  15.802  1.3999 -0.4100 -1.4448
 6034SOL     OW29560   4.074   1.598  14.225  0.0360 -0.0739 -0.0291
 6034SOL    HW129561   4.133   1.529  14.195  0.4849 -0.1670  1.0564
 6034SOL    HW229562   4.131   1.673  14.209  1.6516 -0.7225  2.5933
 6035SOL     OW29563   3.528   4.188   7.715 -0.3709  0.2711  0.2503
 6035SOL    HW129564   3.489   4.242   7.784 -2.3865 -1.0283  0.1045
 6035SOL    HW229565   3.552   4.114   7.770  2.5273  1.6230  0.7999
 6036SOL     OW29566   3.692   2.012   2.732  0.4899 -0.4399 -0.1513
 6036SOL    HW129567   3.612   2.007   2.680  1.8063  1.6296 -2.3641
 6036SOL    HW229568   3.698   1.926   2.775 -3.7277 -0.5978  0.0782
 6037SOL     OW29569   3.317   1.941   5.505  0.1114  0.1432  0.1728
 6037SOL    HW129570   3.408   1.932   5.531  0.3526 -1.5321 -1.3213
 6037SOL    HW229571   3.279   1.881   5.569  1.2951  0.1286  0.8446
 6038SOL     OW29572   4.651   3.969   6.315  0.2864 -0.3645  0.3968
 6038SOL    HW129573   4.707   3.896   6.340 -0.9918 -0.8261  1.8897
 6038SOL    HW229574   4.707   4.035   6.274 -2.0282  1.2060 -0.2446
 6039SOL     OW29575   0.438   1.135   9.358  0.4140 -0.0995  0.6197
 6039SOL    HW129576   0.434   1.122   9.452 -0.1276 -3.0488  0.1723
 6039SOL    HW229577   0.500   1.208   9.353  1.5632 -1.1211 -0.0178
 6040SOL     OW29578   2.993   1.964  17.342 -0.3801 -0.8064  0.7357
 6040SOL    HW129579   2.907   1.997  17.364 -0.3352 -1.5837  2.0587
 6040SOL    HW229580   3.009   1.985  17.250  1.1338  0.5287  1.2908
 6041SOL     OW29581   3.274   0.170   3.554 -0.5109 -0.1586  0.1428
 6041SOL    HW129582   3.296   0.250   3.602  0.1060  0.7555 -1.6647
 6041SOL    HW229583   3.363   0.140   3.534  0.6114  3.4800 -0.1916
 6042SOL     OW29584   0.884   4.354   2.620 -0.4541 -0.2380  0.0537
 6042SOL    HW129585   0.934   4.362   2.538 -1.7227 -0.1955 -0.7142
 6042SOL    HW229586   0.852   4.266   2.604  1.4727 -0.5291 -2.3238
 6043SOL     OW29587   4.582   1.639   2.745 -0.6850 -0.0959  0.4373
 6043SOL    HW129588   4.645   1.672   2.809 -1.0824  0.5577  0.4924
 6043SOL    HW229589   4.637   1.636   2.667  2.4371 -1.3775  2.7096
 6044SOL     OW29590   2.628   1.574   6.535 -0.3109  0.0112 -0.8829
 6044SOL    HW129591   2.540   1.553   6.564 -0.2039  0.4289 -0.2691
 6044SOL    HW229592   2.667   1.602   6.617  0.8423  2.3354 -2.2174
 6045SOL     OW29593   0.044   2.643   2.705 -0.2278 -0.1010  0.1920
 6045SOL    HW129594   4.710   2.702   2.753  1.3547  0.3933  1.4817
 6045SOL    HW229595   0.089   2.608   2.781  1.7448  3.5944  0.7524
 6046SOL     OW29596   3.500   2.655   8.527 -1.1417  0.3042  0.1255
 6046SOL    HW129597   3.467   2.733   8.572  1.3181  1.8201 -0.6802
 6046SOL    HW229598   3.595   2.653   8.540 -1.0439 -0.7078 -0.7139
 6047SOL     OW29599   1.470   2.330   0.771 -0.5039 -0.5343 -0.4733
 6047SOL    HW129600   1.462   2.424   0.787 -0.0893 -0.8444  1.6284
 6047SOL    HW229601   1.552   2.333   0.721 -0.4580  1.4788 -0.2466
 6048SOL     OW29602   3.811   2.000   3.893  0.0832 -0.2091 -0.8957
 6048SOL    HW129603   3.786   2.063   3.826 -1.2177 -1.8302 -1.9306
 6048SOL    HW229604   3.865   1.943   3.838  0.1800 -1.8619  0.9393
 6049SOL     OW29605   4.277   1.602  16.154  0.4419  0.1471 -0.0570
 6049SOL    HW129606   4.339   1.626  16.222 -0.0580  0.8479  0.1561
 6049SOL    HW229607   4.228   1.684  16.155  1.7380  0.9366 -1.7458
 6050SOL     OW29608   0.663   1.205   3.919 -0.4963  0.0638  0.1046
 6050SOL    HW129609   0.623   1.149   3.852 -1.1963  0.8140 -0.1119
 6050SOL    HW229610   0.738   1.233   3.866 -1.9431  1.9425 -0.9697
 6051SOL     OW29611   0.095   1.830   8.784 -0.0756 -0.2542  0.1421
 6051SOL    HW129612   0.025   1.892   8.805  0.0831  0.4647 -1.4987
 6051SOL    HW229613   0.163   1.883   8.742 -2.1798  1.6469 -0.8540
 6052SOL     OW29614   4.351   1.321   7.931 -0.0386 -0.1799 -0.1412
 6052SOL    HW129615   4.423   1.375   7.963  0.6604  0.4026 -2.7031
 6052SOL    HW229616   4.329   1.363   7.847 -0.3554  3.5922  1.8332
 6053SOL     OW29617   1.212   3.257  17.506 -0.1506 -0.1328  0.2049
 6053SOL    HW129618   1.242   3.188  17.446  5.2718  1.5756  0.8933
 6053SOL    HW229619   1.201   3.327  17.442  1.2589  0.9878  1.1993
 6054SOL     OW29620   1.894   3.381   7.977 -0.3492  0.2987 -0.3892
 6054SOL    HW129621   1.968   3.353   7.923  0.6771  3.7261 -0.7491
 6054SOL    HW229622   1.831   3.314   7.949 -1.0998  0.3251  1.1947
 6055SOL     OW29623   4.552   4.081   3.551  0.3101  0.2837  0.0060
 6055SOL    HW129624   4.584   3.994   3.526  1.1035 -0.2769  2.8934
 6055SOL    HW229625   4.581   4.088   3.642 -1.0479 -1.5905  0.5912
 6056SOL     OW29626   4.035   4.528   5.852 -0.3060  0.1519 -0.9159
 6056SOL    HW129627   4.046   4.438   5.885  1.2339  0.5981 -0.2458
 6056SOL    HW229628   4.120   4.569   5.862 -0.2115 -0.1031 -0.6708
 6057SOL     OW29629   2.518   3.401   6.486  0.0235 -0.2260  0.3718
 6057SOL    HW129630   2.514   3.305   6.484 -1.0733 -0.1794  0.4639
 6057SOL    HW229631   2.594   3.399   6.428 -0.4855  0.0910 -0.2932
 6058SOL     OW29632   3.060   0.339   5.293  0.2511  0.3650  0.5256
 6058SOL    HW129633   3.020   0.350   5.207  0.1479 -0.0451  0.5171
 6058SOL    HW229634   3.110   0.258   5.283  0.1517  0.5002 -1.0505
 6059SOL     OW29635   3.882   1.727   9.173 -0.2008  0.2493 -0.2347
 6059SOL    HW129636   3.882   1.675   9.253  1.1437  1.5229  0.5820
 6059SOL    HW229637   3.971   1.717   9.140  0.0999  3.4788 -0.3697
 6060SOL     OW29638   3.317   3.955   4.234 -0.0941 -0.0963  0.1921
 6060SOL    HW129639   3.262   4.018   4.281  1.5305  1.2700  0.2955
 6060SOL    HW229640   3.374   3.928   4.305  0.7637  1.7914  0.2177
 6061SOL     OW29641   0.290   3.030  10.343 -0.0470  0.1862 -0.0126
 6061SOL    HW129642   0.263   2.960  10.284 -0.9197 -0.9051  1.6858
 6061SOL    HW229643   0.349   2.982  10.401  0.7930 -1.7390 -2.4551
 6062SOL     OW29644   0.925   0.877  10.068  0.2011 -0.3561 -0.3044
 6062SOL    HW129645   0.991   0.939  10.039  0.9461 -0.8268  0.3763
 6062SOL    HW229646   0.870   0.871   9.990  0.5994 -1.2736 -0.5157
 6063SOL     OW29647   4.677   0.801   3.282  0.1715  0.3396  0.0869
 6063SOL    HW129648   4.649   0.710   3.279 -2.5384  1.1592  0.8657
 6063SOL    HW229649   4.637   0.834   3.201  0.4988  0.1195 -0.1621
 6064SOL     OW29650   1.699   2.749  14.295 -0.0109 -0.6831 -0.1381
 6064SOL    HW129651   1.657   2.829  14.263  0.9552 -0.3376 -0.5291
 6064SOL    HW229652   1.661   2.744  14.383  0.4480  1.3124  0.1640
 6065SOL     OW29653   0.270   0.949   4.596 -0.0289  0.0325  0.3981
 6065SOL    HW129654   0.202   1.001   4.639  0.4615 -0.9236  2.3103
 6065SOL    HW229655   0.347   0.971   4.649 -0.3381  1.4623  0.2569
 6066SOL     OW29656   3.851   2.278   8.750 -0.1156  0.7980 -0.1886
 6066SOL    HW129657   3.914   2.209   8.728 -1.4992 -0.3544 -0.4895
 6066SOL    HW229658   3.921   2.343   8.744 -1.1668  2.0882  1.4950
 6067SOL     OW29659   2.237   4.303   2.587 -0.0844 -0.3059  0.6165
 6067SOL    HW129660   2.166   4.292   2.523  0.4819 -1.7541  0.2429
 6067SOL    HW229661   2.212   4.252   2.664  1.2954  1.2298  2.0788
 6068SOL     OW29662   3.809   2.068  15.664  0.3027 -0.6242  0.0255
 6068SOL    HW129663   3.868   2.144  15.663 -2.0620  1.2323  1.6051
 6068SOL    HW229664   3.850   2.000  15.611  0.7789  0.6249 -1.2046
 6069SOL     OW29665   4.718   2.575   8.749 -0.2060 -0.2994 -0.0652
 6069SOL    HW129666   4.638   2.526   8.768  0.6113 -2.3015 -1.8557
 6069SOL    HW229667   0.018   2.594   8.840  1.0383 -0.2340 -0.4010
 6070SOL     OW29668   2.223   2.142  11.361  0.7282  0.3822  0.4027
 6070SOL    HW129669   2.279   2.065  11.348  0.4055  0.5060 -1.7558
 6070SOL    HW229670   2.149   2.093  11.397 -1.1865  2.1028 -1.1930
 6071SOL     OW29671   3.657   3.479   8.577  0.1705  0.6882 -0.1359
 6071SOL    HW129672   3.739   3.528   8.566  0.2473  0.5959  0.0229
 6071SOL    HW229673   3.695   3.408   8.629  0.5501  1.4044  0.5619
 6072SOL     OW29674   1.138   0.194  11.889  0.1228  0.3438 -0.4120
 6072SOL    HW129675   1.173   0.119  11.937  0.4135  0.4079 -0.5279
 6072SOL    HW229676   1.145   0.175  11.795 -1.5859  0.7380 -0.6262
 6073SOL     OW29677   1.335   2.881  13.698 -0.2896  0.5578  0.4151
 6073SOL    HW129678   1.347   2.855  13.606 -0.1837 -2.3710  1.2391
 6073SOL    HW229679   1.240   2.889  13.707 -0.4756 -2.2467  1.0591
 6074SOL     OW29680   0.770   4.565   3.633 -0.3577 -0.4806  0.2700
 6074SOL    HW129681   0.865   4.555   3.638 -0.2011  0.9417  0.2560
 6074SOL    HW229682   0.747   4.472   3.635  1.1459 -0.8939 -1.5323
 6075SOL     OW29683   1.355   3.664   2.518  0.4864  0.2590  0.1161
 6075SOL    HW129684   1.361   3.601   2.591 -1.0083  1.1671  1.0191
 6075SOL    HW229685   1.262   3.664   2.498  0.6533  0.1048 -0.6554
 6076SOL     OW29686   1.183   2.811   4.161 -0.7066  0.8103 -0.1760
 6076SOL    HW129687   1.123   2.839   4.230 -0.3262 -1.3125  0.9953
 6076SOL    HW229688   1.137   2.738   4.121  0.5767  0.4964 -1.0869
 6077SOL     OW29689   4.215   1.066   3.344  0.2426  0.0257  0.8747
 6077SOL    HW129690   4.309   1.049   3.352  0.6063  2.5275  1.9191
 6077SOL    HW229691   4.181   1.003   3.280  1.4673  0.2746 -0.0167
 6078SOL     OW29692   2.773   3.493   1.721  0.4072 -0.0809 -0.0288
 6078SOL    HW129693   2.732   3.478   1.806 -1.1596  1.0392 -0.5875
 6078SOL    HW229694   2.860   3.526   1.744 -0.2737  1.3723  0.4992
 6079SOL     OW29695   3.240   3.064   1.709 -0.5206 -0.8662 -0.6837
 6079SOL    HW129696   3.152   3.081   1.676  0.4666  0.5647 -2.5827
 6079SOL    HW229697   3.251   2.974   1.678  0.4795 -1.9199  2.6838
 6080SOL     OW29698   3.058   0.215  16.877  0.1625  0.3355  0.4095
 6080SOL    HW129699   3.151   0.199  16.861  0.1245  1.2487 -0.7083
 6080SOL    HW229700   3.017   0.213  16.790  0.0456 -1.4962  0.4986
 6081SOL     OW29701   2.003   0.591   4.970  0.2218  0.0377  0.0593
 6081SOL    HW129702   2.056   0.512   4.969 -1.1401 -0.8886  1.5464
 6081SOL    HW229703   1.915   0.557   4.986 -0.8370  1.9859 -1.4911
 6082SOL     OW29704   2.685   0.999   3.709  0.1415  1.1968 -0.2023
 6082SOL    HW129705   2.704   0.908   3.733  0.6894  1.6445  1.0653
 6082SOL    HW229706   2.759   1.051   3.740 -0.6542  2.5387 -0.5745
 6083SOL     OW29707   1.478   1.888   7.979  0.0548 -0.1782  0.7306
 6083SOL    HW129708   1.483   1.810   8.035 -0.2641  0.2012  1.2891
 6083SOL    HW229709   1.400   1.926   8.019 -1.8704 -2.4394 -0.8282
 6084SOL     OW29710   3.560   0.035   4.659  0.1893  0.1581  0.0306
 6084SOL    HW129711   3.558   0.108   4.596  1.6191 -0.5832 -0.8952
 6084SOL    HW229712   3.470   0.030   4.689 -0.1129  1.7687 -0.5851
 6085SOL     OW29713   2.948   2.869  15.282 -0.4702  0.2498  0.1861
 6085SOL    HW129714   3.036   2.900  15.263 -0.8696  0.0326 -1.9922
 6085SOL    HW229715   2.933   2.923  15.360 -1.3935  2.2348 -1.3756
 6086SOL     OW29716   1.767   2.816   0.488  0.0167 -0.4748  0.0230
 6086SOL    HW129717   1.694   2.818   0.426  0.7786  2.2206 -0.8177
 6086SOL    HW229718   1.840   2.784   0.435  0.1909 -0.1374  0.0556
 6087SOL     OW29719   1.208   1.705   7.702 -0.0144  0.1148  0.3551
 6087SOL    HW129720   1.189   1.633   7.641  0.7581 -1.4550  1.9539
 6087SOL    HW229721   1.128   1.757   7.697  0.3905  0.7710  0.7193
 6088SOL     OW29722   3.044   4.307  16.151  0.2710 -0.2000 -0.2389
 6088SOL    HW129723   3.009   4.224  16.119  2.6163 -1.9311  1.7322
 6088SOL    HW229724   2.968   4.363  16.165  0.4752  0.2617 -0.9519
 6089SOL     OW29725   0.489   1.559  14.699  0.6437 -0.4841  0.5961
 6089SOL    HW129726   0.496   1.511  14.616  1.5380 -0.0816  0.4446
 6089SOL    HW229727   0.519   1.648  14.683 -0.4561 -0.6662 -2.5973
 6090SOL     OW29728   0.632   0.053   4.089 -0.1651  0.4302  0.4265
 6090SOL    HW129729   0.659   0.085   4.003 -2.2855  1.4542  0.1300
 6090SOL    HW229730   0.543   0.019   4.077  1.3694 -3.1840 -0.6600
 6091SOL     OW29731   3.932   2.013   7.836  0.7849 -0.0971  0.7842
 6091SOL    HW129732   3.867   1.991   7.903 -0.9680 -0.2487 -0.9586
 6091SOL    HW229733   4.013   2.001   7.885 -1.0950 -1.6760  3.5005
 6092SOL     OW29734   4.362   4.574   0.253  0.9623 -0.3269  0.6530
 6092SOL    HW129735   4.362   4.670   0.243 -0.8056 -0.3300  0.5692
 6092SOL    HW229736   4.377   4.551   0.161 -2.7115 -1.0858  0.2478
 6093SOL     OW29737   4.600   0.870   1.112 -0.1314  1.0505 -0.0475
 6093SOL    HW129738   4.519   0.853   1.065  1.6299 -1.3476 -2.1787
 6093SOL    HW229739   4.575   0.848   1.202  0.3487  1.0979  0.0977
 6094SOL     OW29740   0.878   2.728   3.472  0.8591 -0.6944  0.5550
 6094SOL    HW129741   0.964   2.765   3.491 -0.1928  0.5340  3.0111
 6094SOL    HW229742   0.902   2.636   3.470  2.0736 -0.3651 -0.5661
 6095SOL     OW29743   3.393   3.854  14.201  0.4560 -0.2749  0.2542
 6095SOL    HW129744   3.353   3.856  14.115  1.2179  0.3999 -0.0812
 6095SOL    HW229745   3.486   3.855  14.178  0.5015 -2.3314  0.3373
 6096SOL     OW29746   0.339   4.213   6.297  0.1249  0.3486 -0.4824
 6096SOL    HW129747   0.336   4.167   6.380 -0.2721  0.6720 -0.3219
 6096SOL    HW229748   0.433   4.225   6.284  0.7140  0.7584  4.1187
 6097SOL     OW29749   1.769   3.703   8.557  0.0163 -0.5254  0.4108
 6097SOL    HW129750   1.805   3.634   8.502 -1.3207 -0.5396 -0.4421
 6097SOL    HW229751   1.678   3.711   8.529 -0.2256 -2.1722  0.7676
 6098SOL     OW29752   0.093   1.578   6.385 -0.5206  0.5924  0.3468
 6098SOL    HW129753   0.160   1.595   6.318  0.6445 -0.7517  1.1616
 6098SOL    HW229754   0.076   1.664   6.423  0.6156  0.6018  0.8597
 6099SOL     OW29755   1.676   2.345   5.881 -0.1735 -0.3711  0.8133
 6099SOL    HW129756   1.616   2.358   5.955 -2.4476  0.3689 -1.1576
 6099SOL    HW229757   1.636   2.274   5.831 -1.9932 -0.9307  3.0624
 6100SOL     OW29758   4.525   3.680   6.132 -0.2872 -0.0447 -0.1891
 6100SOL    HW129759   4.479   3.660   6.051  1.3687  2.7176 -1.7983
 6100SOL    HW229760   4.618   3.684   6.110 -0.5871 -1.7743 -1.6988
 6101SOL     OW29761   0.212   2.761   3.446 -0.0745 -0.4487  0.4816
 6101SOL    HW129762   0.203   2.679   3.397 -0.4902 -1.1949  1.8292
 6101SOL    HW229763   0.121   2.787   3.440  0.3800  0.8955 -0.6272
 6102SOL     OW29764   0.699   1.941   9.338 -0.0585 -0.3326  0.2604
 6102SOL    HW129765   0.687   1.893   9.420  1.4185 -1.0193  0.0698
 6102SOL    HW229766   0.618   1.937   9.287 -0.1508  2.9569  0.1463
 6103SOL     OW29767   4.328   3.090  16.957 -0.2342 -0.0966 -0.1063
 6103SOL    HW129768   4.264   3.144  16.910  4.4158  3.7612 -1.9725
 6103SOL    HW229769   4.395   3.150  16.989  2.7979 -3.3467 -0.3637
 6104SOL     OW29770   0.288   0.939   2.981  0.0203 -0.3709 -0.3439
 6104SOL    HW129771   0.276   1.033   2.973  0.3701 -0.3123 -0.1935
 6104SOL    HW229772   0.256   0.905   2.898 -2.4107 -2.4911  1.4421
 6105SOL     OW29773   0.297   1.341   3.173 -0.4930  0.0610  0.5583
 6105SOL    HW129774   0.294   1.420   3.120  1.1261 -0.6023 -0.5365
 6105SOL    HW229775   0.221   1.297   3.134  0.3407 -0.7761 -0.1346
 6106SOL     OW29776   1.633   1.175   5.095  0.4939  0.3101 -0.0271
 6106SOL    HW129777   1.564   1.232   5.130 -0.4694 -1.2910  0.6815
 6106SOL    HW229778   1.689   1.149   5.168 -1.8501 -0.8329  1.3502
 6107SOL     OW29779   2.750   1.818  13.404 -0.5492  0.1056  0.2929
 6107SOL    HW129780   2.758   1.845  13.312  0.3398 -2.5912 -0.4299
 6107SOL    HW229781   2.801   1.883  13.452 -0.2025  0.1077 -0.0762
 6108SOL     OW29782   4.139   1.155   6.384  0.6196 -0.3918 -0.1378
 6108SOL    HW129783   4.049   1.133   6.360  0.8066 -1.8024  0.4009
 6108SOL    HW229784   4.189   1.121   6.309  0.2197 -2.0272  0.3309
 6109SOL     OW29785   3.631   3.269  14.258 -0.1724  0.0709 -0.4846
 6109SOL    HW129786   3.662   3.272  14.349 -1.1513 -0.7254 -0.1112
 6109SOL    HW229787   3.611   3.361  14.243 -0.9577 -0.4898 -2.7768
 6110SOL     OW29788   0.225   3.141  14.192  0.6176  0.3060 -0.6003
 6110SOL    HW129789   0.218   3.161  14.099 -0.7600  0.6038 -0.4227
 6110SOL    HW229790   0.158   3.204  14.217 -1.3593 -2.7660  1.8544
 6111SOL     OW29791   0.990   1.428   2.949  0.6630 -0.3233  0.7513
 6111SOL    HW129792   0.971   1.459   2.861  1.3418 -1.7237  0.1133
 6111SOL    HW229793   0.903   1.397   2.977 -0.6151  1.7707 -0.9331
 6112SOL     OW29794   1.598   3.398   1.726  0.3181  0.2561 -0.2543
 6112SOL    HW129795   1.633   3.320   1.683  2.6531  1.6751 -0.9252
 6112SOL    HW229796   1.503   3.383   1.729  0.4038 -0.6501 -1.7615
 6113SOL     OW29797   3.742   2.722   9.643 -0.1799  0.2723 -0.2699
 6113SOL    HW129798   3.680   2.756   9.707  0.7172  1.2979  0.0489
 6113SOL    HW229799   3.830   2.750   9.667  0.3677 -0.8795 -0.9005
 6114SOL     OW29800   3.825   2.027   4.571  0.1486 -0.0016 -0.1686
 6114SOL    HW129801   3.784   2.112   4.551 -1.9497 -1.0364 -0.3196
 6114SOL    HW229802   3.897   2.044   4.511  1.4790 -1.6789  0.9679
 6115SOL     OW29803   1.409   1.554  14.269  0.5483 -0.4472 -0.1725
 6115SOL    HW129804   1.434   1.601  14.190 -0.8632 -1.2155 -1.0584
 6115SOL    HW229805   1.339   1.503  14.229  2.6268 -2.6318 -1.0223
 6116SOL     OW29806   2.284   3.124   4.574 -0.0676  0.5452 -0.2599
 6116SOL    HW129807   2.291   3.073   4.493  1.6572  2.9445 -1.6185
 6116SOL    HW229808   2.361   3.180   4.568  1.4855 -1.4605  1.0739
 6117SOL     OW29809   4.564   2.714  12.593 -0.4934 -0.2102  0.3061
 6117SOL    HW129810   4.576   2.637  12.537  0.4012 -1.5695  2.3611
 6117SOL    HW229811   4.522   2.683  12.673 -0.3908 -2.7842 -0.6320
 6118SOL     OW29812   4.153   1.931   2.224  0.1164  0.3693  0.4325
 6118SOL    HW129813   4.123   1.880   2.148  3.4063  0.0853 -0.6914
 6118SOL    HW229814   4.245   1.940   2.199  0.2450 -3.7693 -0.5308
 6119SOL     OW29815   1.190   4.676   6.044 -0.0705  0.1066  0.1949
 6119SOL    HW129816   1.156   4.592   6.076  1.0077 -0.2520  0.3825
 6119SOL    HW229817   1.278   4.653   6.015 -0.8467 -0.6026 -1.6166
 6120SOL     OW29818   1.019   3.290   4.596  0.3673 -0.1852  0.1447
 6120SOL    HW129819   0.945   3.283   4.536 -0.6374 -3.6148  1.7551
 6120SOL    HW229820   1.090   3.320   4.539  0.0998  0.1954  0.0129
 6121SOL     OW29821   2.552   0.580  10.164  0.0913  0.3932 -0.0954
 6121SOL    HW129822   2.607   0.546  10.093 -1.0352 -1.4314 -0.0723
 6121SOL    HW229823   2.478   0.520  10.171  1.0938 -0.8765 -0.2454
 6122SOL     OW29824   2.787   0.934   2.772 -0.1374 -0.0800  0.5461
 6122SOL    HW129825   2.769   0.998   2.841  4.3948  1.9980 -0.2297
 6122SOL    HW229826   2.775   0.977   2.688 -0.6598 -2.7572 -0.7409
 6123SOL     OW29827   1.954   2.684   9.629  0.3500 -0.7577  0.0331
 6123SOL    HW129828   1.967   2.775   9.656 -0.3022 -0.2397 -1.4044
 6123SOL    HW229829   2.022   2.637   9.677 -0.1115  1.2564  2.6614
 6124SOL     OW29830   3.095   1.400   0.363  0.3772  0.4047  0.5719
 6124SOL    HW129831   3.041   1.479   0.364  0.8286  0.6726  2.3165
 6124SOL    HW229832   3.181   1.440   0.377 -0.4310  1.2029  3.2849
 6125SOL     OW29833   0.152   2.983   6.138 -0.2097 -0.1279  0.4913
 6125SOL    HW129834   0.188   3.060   6.094  0.7611 -1.8171 -1.6597
 6125SOL    HW229835   0.230   2.930   6.157  0.0449 -0.0302 -0.3013
 6126SOL     OW29836   2.612   2.587  15.878  0.1072  0.1941 -0.2920
 6126SOL    HW129837   2.601   2.573  15.784  0.8999 -1.2186 -0.1598
 6126SOL    HW229838   2.521   2.618  15.888  0.4282  1.4955 -1.4887
 6127SOL     OW29839   3.520   1.422   5.008 -0.2697  0.0126  0.0762
 6127SOL    HW129840   3.495   1.511   4.982  0.3051  0.5175  1.2721
 6127SOL    HW229841   3.452   1.418   5.075 -1.0216 -1.2759 -0.7612
 6128SOL     OW29842   3.018   2.992   8.489  0.0530  0.2113  0.2885
 6128SOL    HW129843   3.032   3.065   8.429 -1.8432 -0.7478 -1.3030
 6128SOL    HW229844   2.926   3.000   8.512 -0.4131 -0.6076 -1.2967
 6129SOL     OW29845   0.660   3.016   1.627 -0.1428  0.2239  0.0816
 6129SOL    HW129846   0.621   2.952   1.687  3.7406  0.1655  2.5137
 6129SOL    HW229847   0.655   3.096   1.678 -0.3543 -0.9222  1.8812
 6130SOL     OW29848   0.493   1.756   3.029  0.3598  0.1964 -0.6037
 6130SOL    HW129849   0.484   1.842   3.070 -2.4346 -1.1368  1.5465
 6130SOL    HW229850   0.517   1.786   2.941  0.2348  0.4827 -0.5387
 6131SOL     OW29851   3.411   2.917   7.746 -0.0581 -0.5272 -0.7055
 6131SOL    HW129852   3.386   2.901   7.655 -2.0039  2.4587 -0.7187
 6131SOL    HW229853   3.479   2.984   7.736 -0.4547 -0.1881 -1.1308
 6132SOL     OW29854   0.240   1.846  12.295 -0.2372 -0.3851  0.1516
 6132SOL    HW129855   0.330   1.876  12.301 -0.3839  0.1487 -0.3306
 6132SOL    HW229856   0.209   1.909  12.231  0.7808 -0.9330 -0.8658
 6133SOL     OW29857   4.256   3.646   7.041  0.3682  0.0518  0.1013
 6133SOL    HW129858   4.243   3.606   7.127 -1.4911  1.4382  0.4654
 6133SOL    HW229859   4.190   3.607   6.983 -0.0886  1.4400 -0.3068
 6134SOL     OW29860   3.201   0.635  13.373  0.2399  0.1623 -0.1889
 6134SOL    HW129861   3.169   0.569  13.310 -4.1715  1.8638  0.2938
 6134SOL    HW229862   3.239   0.574  13.436 -0.1705 -1.2387 -1.2853
 6135SOL     OW29863   0.847   1.652   7.996  0.4352 -0.5441 -0.2948
 6135SOL    HW129864   0.819   1.664   8.087  2.4053  1.0758  0.0954
 6135SOL    HW229865   0.941   1.668   7.996  0.5487 -1.2698 -3.9396
 6136SOL     OW29866   1.346   1.172  11.607  0.1600 -0.1764  0.4065
 6136SOL    HW129867   1.324   1.085  11.641  1.2570 -0.9252 -0.8211
 6136SOL    HW229868   1.360   1.147  11.516  0.1830  0.7364  0.1613
 6137SOL     OW29869   4.536   3.022   0.290 -0.7418  0.4091  0.0007
 6137SOL    HW129870   4.536   3.063   0.377 -1.8071  0.2293  0.0870
 6137SOL    HW229871   4.619   3.043   0.248 -0.9486  2.1418  0.4468
 6138SOL     OW29872   2.657   0.093  16.616  0.2836 -0.0834 -0.3412
 6138SOL    HW129873   2.665   4.724  16.595  2.2672 -0.4101  1.8634
 6138SOL    HW229874   2.672   0.098  16.710 -1.8570  0.9982 -0.0593
 6139SOL     OW29875   0.615   2.630   6.734 -0.4034 -0.9610 -0.3680
 6139SOL    HW129876   0.643   2.662   6.820 -0.4119 -0.8421 -0.4090
 6139SOL    HW229877   0.562   2.557   6.766  1.8610 -2.0067  0.9576
 6140SOL     OW29878   2.836   1.818  15.743  0.1832  0.1035 -1.0970
 6140SOL    HW129879   2.779   1.884  15.704 -1.5545 -1.4686 -1.2034
 6140SOL    HW229880   2.789   1.746  15.701  1.7292 -0.9500 -1.0062
 6141SOL     OW29881   2.185   1.296   4.525  0.0293 -0.3516 -0.2833
 6141SOL    HW129882   2.111   1.239   4.545 -1.1473  0.4335 -2.2845
 6141SOL    HW229883   2.248   1.227   4.542  1.0120  0.7124  0.4349
 6142SOL     OW29884   1.667   0.573  10.483 -0.2749 -0.2458 -0.2221
 6142SOL    HW129885   1.611   0.651  10.481  0.3415  0.1607 -1.2977
 6142SOL    HW229886   1.607   0.499  10.495  0.2324 -0.6560 -0.2185
 6143SOL     OW29887   4.721   3.276  11.613  0.6162  0.0312 -0.3567
 6143SOL    HW129888   0.046   3.300  11.691  1.8216  0.4566 -1.2447
 6143SOL    HW229889   0.060   3.236  11.553  1.4234 -0.2467  0.6829
 6144SOL     OW29890   3.510   2.505   7.357  0.1404  0.3437 -0.0174
 6144SOL    HW129891   3.594   2.499   7.401  0.6152 -1.1567 -1.1225
 6144SOL    HW229892   3.528   2.569   7.288  0.3826  0.4520  0.1514
 6145SOL     OW29893   4.059   0.177   3.327  0.9828  0.7631  0.1661
 6145SOL    HW129894   4.090   0.087   3.340 -0.9389 -0.1534 -1.8391
 6145SOL    HW229895   4.022   0.171   3.240  2.2099 -0.6861 -0.2497
 6146SOL     OW29896   2.542   1.591   3.004 -0.4064  0.8894 -0.4882
 6146SOL    HW129897   2.454   1.566   3.032 -0.4542 -0.0797 -1.5082
 6146SOL    HW229898   2.534   1.555   2.915  0.2165 -2.9534  1.0271
 6147SOL     OW29899   2.921   3.486  15.517 -0.2228 -0.2233 -0.4227
 6147SOL    HW129900   2.862   3.412  15.502 -1.4925  0.4335  1.4509
 6147SOL    HW229901   2.878   3.538  15.584  0.2949  0.6937 -0.8076
 6148SOL     OW29902   3.968   2.750   8.387  0.3759 -0.4051 -0.5490
 6148SOL    HW129903   3.903   2.820   8.381  2.5411  1.8325  2.2921
 6148SOL    HW229904   3.922   2.683   8.437 -2.1147  3.0376  1.8015
 6149SOL     OW29905   3.248   0.137  13.192 -0.1459 -0.1592 -0.3554
 6149SOL    HW129906   3.202   0.207  13.238  1.3299  1.4922 -1.3887
 6149SOL    HW229907   3.214   0.058  13.234 -2.9585  0.5604 -1.2397
 6150SOL     OW29908   1.320   2.913   0.947  0.2592  0.5944 -0.2250
 6150SOL    HW129909   1.407   2.903   0.986 -0.6367  0.9885  1.8962
 6150SOL    HW229910   1.321   3.005   0.920  1.8616  0.9555  1.0230
 6151SOL     OW29911   2.068   2.432   0.554 -0.3639 -0.7703 -0.4012
 6151SOL    HW129912   1.990   2.376   0.557 -1.7959  1.3134  1.8602
 6151SOL    HW229913   2.024   2.504   0.599  0.7030  0.0212 -0.6504
 6152SOL     OW29914   0.282   0.494  11.389 -1.1623  0.1001  0.2534
 6152SOL    HW129915   0.225   0.426  11.352  1.1257 -1.3732 -0.5489
 6152SOL    HW229916   0.229   0.544  11.452 -0.3204  1.5569 -0.2084
 6153SOL     OW29917   4.011   4.396   9.099  0.0923  0.1036 -0.0370
 6153SOL    HW129918   4.070   4.321   9.090 -1.1721 -0.9554  0.5817
 6153SOL    HW229919   3.937   4.367   9.045  0.8645  0.9151 -1.5328
 6154SOL     OW29920   0.302   1.870   3.827  0.3734  0.4964 -0.1380
 6154SOL    HW129921   0.259   1.815   3.762 -0.5567  0.8382  0.1964
 6154SOL    HW229922   0.386   1.885   3.784  1.9463 -1.6665  2.1741
 6155SOL     OW29923   1.698   3.899   7.047 -0.4505 -0.6711  0.3162
 6155SOL    HW129924   1.747   3.820   7.026  0.8007  0.1739  0.0701
 6155SOL    HW229925   1.656   3.918   6.962 -0.6079 -1.7252  0.1589
 6156SOL     OW29926   2.389   4.670   1.662  0.2464  0.4479  0.4138
 6156SOL    HW129927   2.474   4.680   1.618 -0.8619 -0.9486 -2.0678
 6156SOL    HW229928   2.398   4.717   1.745  1.1016 -1.6634  1.5140
 6157SOL     OW29929   1.846   2.666   7.321  0.0487 -0.5344 -1.2254
 6157SOL    HW129930   1.906   2.593   7.306 -0.0882 -0.9532  0.2420
 6157SOL    HW229931   1.777   2.658   7.255 -0.5587 -4.4587 -0.1427
 6158SOL     OW29932   3.200   3.705  11.176 -0.0480  0.2940 -0.4061
 6158SOL    HW129933   3.139   3.730  11.246 -0.7698 -0.5435 -0.7418
 6158SOL    HW229934   3.249   3.638  11.224 -0.8361 -0.0397 -0.0596
 6159SOL     OW29935   0.144   1.744   4.726  0.3510  0.2463 -0.0880
 6159SOL    HW129936   0.157   1.669   4.784 -2.6053  0.1362  0.4556
 6159SOL    HW229937   0.048   1.745   4.727  0.3514 -0.7631  0.6551
 6160SOL     OW29938   1.034   1.726   6.120 -0.4780  0.2586  0.2593
 6160SOL    HW129939   1.080   1.787   6.177 -1.0598  1.6287 -0.7549
 6160SOL    HW229940   1.098   1.688   6.059 -0.2276  1.2736 -0.1031
 6161SOL     OW29941   1.191   1.255  12.688  0.4940  0.7877  0.2520
 6161SOL    HW129942   1.277   1.215  12.673 -0.6207 -1.6340  0.3480
 6161SOL    HW229943   1.137   1.216  12.619  0.5975  1.2986 -0.1248
 6162SOL     OW29944   0.740   1.559   5.147  0.3112  0.0119 -0.8144
 6162SOL    HW129945   0.754   1.477   5.100  0.9498  0.5591 -1.5638
 6162SOL    HW229946   0.700   1.608   5.075  0.0460  0.4046 -0.4037
 6163SOL     OW29947   1.069   3.162  15.272  0.5720 -0.4398  0.1142
 6163SOL    HW129948   1.150   3.153  15.222 -0.6371 -1.8710 -1.5751
 6163SOL    HW229949   1.044   3.070  15.268 -0.5480 -0.1607  0.7392
 6164SOL     OW29950   3.612   0.727   6.405 -0.6832  0.4065 -0.6912
 6164SOL    HW129951   3.617   0.817   6.438  0.2135 -0.2338  0.8978
 6164SOL    HW229952   3.517   0.718   6.402 -0.6176 -0.6141  0.4472
 6165SOL     OW29953   0.341   0.985  10.434  0.0408  0.1496  0.4708
 6165SOL    HW129954   0.411   0.945  10.384 -1.3150  0.7411 -1.9109
 6165SOL    HW229955   0.326   0.908  10.490  1.9367 -0.2577  0.4046
 6166SOL     OW29956   0.362   1.004  11.357 -0.5908  0.1806 -0.4622
 6166SOL    HW129957   0.317   1.084  11.384  0.6838  0.9520 -0.6024
 6166SOL    HW229958   0.361   0.957  11.440 -2.1026  0.9023 -0.0814
 6167SOL     OW29959   1.089   4.202   8.046  0.1806 -0.1046  0.1086
 6167SOL    HW129960   1.099   4.111   8.017  0.1770  0.3699 -1.4197
 6167SOL    HW229961   1.009   4.204   8.098  1.1328 -0.8071  1.5791
 6168SOL     OW29962   3.782   1.934   7.497 -0.3123 -0.0410 -0.0703
 6168SOL    HW129963   3.752   1.979   7.418 -0.4534  0.8114  0.4620
 6168SOL    HW229964   3.816   2.008   7.548  0.1198 -0.6180  0.4752
 6169SOL     OW29965   2.905   2.943   4.667 -0.0571  0.1568 -0.3449
 6169SOL    HW129966   2.854   3.018   4.636 -2.1838  0.0200  2.7743
 6169SOL    HW229967   2.988   2.934   4.620 -0.3583  0.8396 -1.0148
 6170SOL     OW29968   2.497   1.583  16.916  0.3356  0.5845  0.0217
 6170SOL    HW129969   2.412   1.602  16.957  0.4261  2.2336 -0.5364
 6170SOL    HW229970   2.532   1.506  16.960 -1.2938 -0.3460 -0.3371
 6171SOL     OW29971   0.222   1.963   9.064 -0.3379  0.2680 -0.4284
 6171SOL    HW129972   0.143   1.980   9.014 -0.3996  0.3641 -0.2964
 6171SOL    HW229973   0.220   2.028   9.133 -1.2646 -0.4593  0.2193
 6172SOL     OW29974   4.168   1.610   4.765 -0.1951 -0.1652  0.5974
 6172SOL    HW129975   4.233   1.652   4.820  0.9239 -2.4712  1.0211
 6172SOL    HW229976   4.135   1.689   4.720 -1.3606 -1.9098 -1.6592
 6173SOL     OW29977   1.646   3.643   2.505 -0.3335 -0.5342 -0.2510
 6173SOL    HW129978   1.637   3.563   2.454  0.5712 -1.2089  0.6636
 6173SOL    HW229979   1.553   3.657   2.520 -0.3233  1.4249 -1.8879
 6174SOL     OW29980   4.620   0.057   7.199 -0.6085 -0.2996  0.2074
 6174SOL    HW129981   4.659   0.127   7.251  1.9380 -1.2624 -0.4201
 6174SOL    HW229982   4.545   0.031   7.253 -2.2539  2.9974 -0.4931
 6175SOL     OW29983   2.016   3.251   1.516 -0.0549 -0.3322 -0.1234
 6175SOL    HW129984   2.026   3.160   1.545 -0.3555  0.3192  2.0229
 6175SOL    HW229985   1.925   3.253   1.490 -0.5167 -1.1599  1.3832
 6176SOL     OW29986   0.062   3.027   7.514  0.0476 -0.2753  0.4760
 6176SOL    HW129987   0.015   3.061   7.438  0.4743 -0.5968  0.0655
 6176SOL    HW229988   0.001   2.965   7.553 -1.3359 -0.6823 -2.3258
 6177SOL     OW29989   3.142   2.311   8.689 -0.3444  0.1233  0.2593
 6177SOL    HW129990   3.111   2.401   8.698 -0.5271  0.0618  0.2326
 6177SOL    HW229991   3.064   2.274   8.648  0.3666 -0.9033 -0.1593
 6178SOL     OW29992   1.799   4.330   8.163 -0.8256  0.1042 -0.0837
 6178SOL    HW129993   1.742   4.275   8.216  0.2921 -1.7195 -0.7914
 6178SOL    HW229994   1.800   4.277   8.084  0.4372 -0.2208  0.1478
 6179SOL     OW29995   1.249   2.674   3.417  0.2685 -0.1930 -0.3909
 6179SOL    HW129996   1.212   2.734   3.482  0.3546  0.8036 -1.2686
 6179SOL    HW229997   1.319   2.728   3.381 -0.0561  0.0508 -0.6506
 6180SOL     OW29998   2.229   3.494   3.879 -0.2223  0.3706 -0.2330
 6180SOL    HW129999   2.295   3.451   3.935  0.8722  1.8490 -0.4062
 6180SOL    HW230000   2.146   3.455   3.907  0.7688 -0.1288  2.0188
 6181SOL     OW30001   3.906   2.642   4.309  0.1647 -0.3120  0.1912
 6181SOL    HW130002   3.996   2.662   4.334 -0.2622  0.4984  1.0726
 6181SOL    HW230003   3.908   2.551   4.280 -0.2130 -0.6971  1.3473
 6182SOL     OW30004   1.940   3.263  16.211  0.0470  0.3396 -0.5387
 6182SOL    HW130005   1.874   3.332  16.210 -1.0263 -0.6966 -0.4277
 6182SOL    HW230006   1.960   3.246  16.303 -2.2053 -3.9543 -0.8526
 6183SOL     OW30007   2.428   1.671  10.069  0.3982 -0.8791 -0.1657
 6183SOL    HW130008   2.486   1.745  10.049  0.0782 -1.0084 -1.5787
 6183SOL    HW230009   2.389   1.694  10.153  1.1512  0.4469 -0.1881
 6184SOL     OW30010   1.830   3.697   2.202  0.0618 -0.6083 -0.0553
 6184SOL    HW130011   1.908   3.687   2.257  0.3143 -2.7464 -0.7907
 6184SOL    HW230012   1.864   3.683   2.114 -0.5468 -2.5856  0.0131
 6185SOL     OW30013   3.914   1.751  15.763  0.1140 -0.0399  0.2444
 6185SOL    HW130014   3.834   1.798  15.741  0.4857 -0.2240 -1.5374
 6185SOL    HW230015   3.937   1.722  15.675  1.4948  0.2778  0.4988
 6186SOL     OW30016   1.163   1.341   4.365 -0.1331 -0.2044 -0.6938
 6186SOL    HW130017   1.134   1.371   4.279 -0.9422  0.9239 -0.0266
 6186SOL    HW230018   1.229   1.276   4.341  0.6301 -0.4769  2.0460
 6187SOL     OW30019   2.864   2.056  11.984  0.1176  0.5631 -0.4154
 6187SOL    HW130020   2.831   2.145  11.971 -0.4337  0.1640 -1.8482
 6187SOL    HW230021   2.870   2.032  11.891 -0.7492 -0.6846 -0.1515
 6188SOL     OW30022   3.797   0.708   2.766  0.0253  0.1717  0.7539
 6188SOL    HW130023   3.809   0.797   2.735 -1.7547 -0.0748 -0.6272
 6188SOL    HW230024   3.801   0.719   2.861 -1.9919  0.9440  0.7529
 6189SOL     OW30025   4.264   1.804   2.918 -0.1155  0.1704  0.0554
 6189SOL    HW130026   4.288   1.736   2.980 -1.0201  0.7917  1.1029
 6189SOL    HW230027   4.344   1.856   2.921 -1.3579  2.1135  0.2876
 6190SOL     OW30028   2.611   2.288   5.421 -0.1070 -0.1486  0.4482
 6190SOL    HW130029   2.701   2.320   5.412 -0.1561 -0.4857 -1.2006
 6190SOL    HW230030   2.615   2.207   5.370  0.2973  0.3674 -0.3464
 6191SOL     OW30031   1.292   0.177   9.892 -0.0925 -0.4218  0.0058
 6191SOL    HW130032   1.367   0.220   9.933  0.1677  0.1925 -1.1041
 6191SOL    HW230033   1.273   0.109   9.957  2.1032 -0.5254  0.5405
 6192SOL     OW30034   1.274   0.843  11.664 -0.5256 -0.0079  0.1089
 6192SOL    HW130035   1.185   0.877  11.655 -0.4442  0.7943  2.3718
 6192SOL    HW230036   1.277   0.793  11.582  0.8184 -1.8355  1.2773
 6193SOL     OW30037   1.204   2.044   2.824 -0.7163  0.0936  0.2825
 6193SOL    HW130038   1.142   2.062   2.895  0.9421  1.1812  1.4440
 6193SOL    HW230039   1.166   2.096   2.754  0.3794 -1.1461 -1.2443
 6194SOL     OW30040   0.071   3.266  11.171  0.6364 -0.0624  0.0939
 6194SOL    HW130041   0.128   3.297  11.242  0.8024 -0.8198  0.2846
 6194SOL    HW230042   0.131   3.274  11.097  0.2543  1.3093 -0.0690
 6195SOL     OW30043   0.717   3.072   0.432  0.1249 -0.3771 -0.5391
 6195SOL    HW130044   0.732   2.979   0.421 -0.1182 -0.5067  0.1774
 6195SOL    HW230045   0.653   3.077   0.504  0.0588  3.1334 -0.7990
 6196SOL     OW30046   0.182   1.424  10.269  0.7650  0.1870  0.4550
 6196SOL    HW130047   0.159   1.336  10.297 -1.5054  0.5330 -0.3322
 6196SOL    HW230048   0.166   1.415  10.175  0.5096 -1.6844  0.6901
 6197SOL     OW30049   0.812   0.681  15.657  0.8293 -0.3868 -0.3860
 6197SOL    HW130050   0.807   0.585  15.663 -1.1275 -0.2071  0.6893
 6197SOL    HW230051   0.748   0.699  15.588  0.2076  0.5240  0.4259
 6198SOL     OW30052   4.566   1.651   6.883 -0.1611  0.1052 -0.8592
 6198SOL    HW130053   4.575   1.744   6.864 -2.1627  0.6559  0.8271
 6198SOL    HW230054   4.569   1.607   6.798 -0.6800  0.8825 -1.2699
 6199SOL     OW30055   3.788   0.908   2.428 -0.1739 -0.3963  0.3300
 6199SOL    HW130056   3.750   0.978   2.481  0.4399  0.9993 -1.0666
 6199SOL    HW230057   3.859   0.960   2.390  1.1601 -3.6454 -1.5801
 6200SOL     OW30058   2.157   1.366   5.396  0.2260 -0.2052 -0.2237
 6200SOL    HW130059   2.074   1.410   5.377  1.0473  0.8446 -1.3244
 6200SOL    HW230060   2.150   1.348   5.490 -1.8832 -0.1145 -0.3548
 6201SOL     OW30061   2.929   3.966   8.436 -0.3729 -0.1160 -0.4299
 6201SOL    HW130062   2.953   3.984   8.345 -1.2042  0.8689 -0.4502
 6201SOL    HW230063   2.941   4.053   8.474  2.8342 -1.5155  1.6974
 6202SOL     OW30064   1.673   0.741   4.005  0.6660 -0.4139  0.0962
 6202SOL    HW130065   1.628   0.721   4.088 -1.6039 -0.4594 -1.1427
 6202SOL    HW230066   1.721   0.817   4.039  0.8990 -0.6037  0.1872
 6203SOL     OW30067   4.339   1.913   9.614 -0.1228 -0.4311 -0.8616
 6203SOL    HW130068   4.432   1.891   9.603  0.3122  1.4969 -1.0022
 6203SOL    HW230069   4.342   1.986   9.676 -0.0685  1.4390 -3.0712
 6204SOL     OW30070   4.243   4.548  16.536 -0.4760  0.0108  0.2003
 6204SOL    HW130071   4.323   4.599  16.552  0.1458 -0.6216 -0.8922
 6204SOL    HW230072   4.235   4.559  16.442 -1.0166 -1.1829  0.1003
 6205SOL     OW30073   0.565   0.309   3.693 -0.0132 -0.4581 -0.1970
 6205SOL    HW130074   0.611   0.389   3.667  1.1987 -0.7130  1.1310
 6205SOL    HW230075   0.578   0.313   3.788 -1.9451  2.1551 -0.0206
 6206SOL     OW30076   2.530   1.391  10.098  0.4140  0.2451  0.0677
 6206SOL    HW130077   2.469   1.385  10.025 -1.9043  0.4594  2.0062
 6206SOL    HW230078   2.497   1.474  10.133 -0.4836  0.1458 -0.5515
 6207SOL     OW30079   3.642   0.860   2.017 -0.4216 -0.1044  0.1920
 6207SOL    HW130080   3.646   0.916   1.939 -0.9326 -1.0768 -0.5404
 6207SOL    HW230081   3.735   0.837   2.023 -0.5895 -0.5438  1.0005
 6208SOL     OW30082   0.794   4.038   5.759  0.4621 -0.1271 -0.0718
 6208SOL    HW130083   0.753   3.952   5.746  0.4483 -0.2212  0.5662
 6208SOL    HW230084   0.814   4.024   5.852 -1.4875 -0.9287  0.2129
 6209SOL     OW30085   3.038   4.114  17.397 -0.0733  0.2743 -0.1120
 6209SOL    HW130086   3.064   4.029  17.362  1.8510  0.1667  1.5606
 6209SOL    HW230087   3.009   4.086  17.484 -0.6947  0.3524 -0.2943
 6210SOL     OW30088   3.144   2.824   2.773 -0.1490 -0.0562  0.1469
 6210SOL    HW130089   3.197   2.747   2.795 -1.0345 -0.1606  1.8763
 6210SOL    HW230090   3.133   2.800   2.681  0.8471 -0.5407  0.1519
 6211SOL     OW30091   3.287   0.076   1.906 -0.2247  0.2038 -0.0711
 6211SOL    HW130092   3.355   0.144   1.909  2.0737 -2.1536  1.1462
 6211SOL    HW230093   3.285   0.068   1.811 -2.5397  2.7873 -0.2691
 6212SOL     OW30094   1.813   0.576  13.099  0.0665 -0.3274 -0.1886
 6212SOL    HW130095   1.842   0.657  13.141  1.9555  0.0093 -2.1490
 6212SOL    HW230096   1.896   0.545  13.063 -0.2716  0.4528 -1.6445
 6213SOL     OW30097   1.374   0.829   7.322 -0.0306  0.5112  0.2033
 6213SOL    HW130098   1.314   0.758   7.345  0.7865  0.2609  1.5556
 6213SOL    HW230099   1.456   0.781   7.309 -0.5454 -0.4179  0.4036
 6214SOL     OW30100   2.870   4.177   6.355 -0.2304  0.0353  0.0167
 6214SOL    HW130101   2.884   4.220   6.439 -2.5198  1.7296 -0.4674
 6214SOL    HW230102   2.854   4.254   6.300  1.2429  0.4923  0.2315
 6215SOL     OW30103   2.512   1.338  12.800  0.1260  0.1664 -0.2516
 6215SOL    HW130104   2.423   1.337  12.835  0.2244 -0.2834 -0.0133
 6215SOL    HW230105   2.563   1.371  12.874 -0.2592  0.8487 -0.2895
 6216SOL     OW30106   1.149   2.220   2.611  0.3456  0.3087  0.3060
 6216SOL    HW130107   1.109   2.288   2.557 -2.8435 -1.8569 -0.0942
 6216SOL    HW230108   1.236   2.258   2.604 -0.1152  0.8566 -2.2821
 6217SOL     OW30109   3.533   4.474   8.080 -0.2527 -0.2990 -0.2169
 6217SOL    HW130110   3.529   4.381   8.060 -1.4090 -0.3200  0.1343
 6217SOL    HW230111   3.610   4.478   8.137  0.5003  2.2973 -1.4092
 6218SOL     OW30112   2.270   1.310   9.955  0.2117  0.4062 -0.4169
 6218SOL    HW130113   2.335   1.297   9.886  0.8223 -0.9948  0.4202
 6218SOL    HW230114   2.246   1.221   9.983 -1.1778  0.4548 -1.4619
 6219SOL     OW30115   1.432   1.509   3.633 -0.1583 -0.2935  0.4614
 6219SOL    HW130116   1.344   1.489   3.601  0.6463 -3.0351 -0.0075
 6219SOL    HW230117   1.481   1.526   3.553 -1.4285 -2.3000 -0.7244
 6220SOL     OW30118   4.304   0.152   0.330 -0.0955  0.0737 -0.2733
 6220SOL    HW130119   4.363   0.187   0.264 -0.3152  1.9455  0.5304
 6220SOL    HW230120   4.224   0.154   0.278 -0.0479  1.6214 -0.2840
 6221SOL     OW30121   3.582   0.940  15.719 -0.1611 -0.2433  0.6559
 6221SOL    HW130122   3.656   0.922  15.776 -1.4901  1.7224  3.0112
 6221SOL    HW230123   3.632   0.972  15.644  1.3675 -0.7527  1.4689
 6222SOL     OW30124   0.741   3.291   9.679  0.1137 -0.3581  0.0835
 6222SOL    HW130125   0.689   3.217   9.711 -0.3042  0.5210  1.4574
 6222SOL    HW230126   0.707   3.305   9.591  0.9021  2.2537  0.1934
 6223SOL     OW30127   0.515   4.355  12.273  0.1381 -0.4994  0.1363
 6223SOL    HW130128   0.534   4.432  12.326 -0.0521  0.2283 -0.8549
 6223SOL    HW230129   0.425   4.375  12.248  0.3999  0.3745 -0.1141
 6224SOL     OW30130   3.157   0.988   6.437 -0.5355  0.2914  0.1504
 6224SOL    HW130131   3.063   0.998   6.421 -0.5493 -0.1872 -0.0477
 6224SOL    HW230132   3.165   1.055   6.506 -2.6637 -0.6572  1.3315
 6225SOL     OW30133   0.635   0.384   8.007  0.1161 -0.5364  0.0550
 6225SOL    HW130134   0.696   0.370   7.935  1.4274  0.7856  0.9027
 6225SOL    HW230135   0.673   0.465   8.042 -0.9203 -1.2813  2.9173
 6226SOL     OW30136   1.186   1.390   2.499 -0.3458 -0.0330 -0.0051
 6226SOL    HW130137   1.187   1.468   2.444 -0.4590  0.2801  0.4409
 6226SOL    HW230138   1.093   1.380   2.519  0.0630  0.0587  2.0013
 6227SOL     OW30139   4.249   4.222   9.982  0.2903  0.0659 -0.4162
 6227SOL    HW130140   4.276   4.166  10.054  0.7597  0.6901 -0.1060
 6227SOL    HW230141   4.329   4.234   9.931  0.3139 -1.2837 -0.6880
 6228SOL     OW30142   0.569   1.153   8.353  0.1809 -0.1755  0.2383
 6228SOL    HW130143   0.610   1.089   8.411  1.6863  0.4423 -0.1374
 6228SOL    HW230144   0.500   1.186   8.410  1.1332 -0.1672  1.3860
 6229SOL     OW30145   2.837   0.666   5.421 -0.1697  0.1245 -0.1080
 6229SOL    HW130146   2.861   0.749   5.461  1.0759  0.1536 -0.8975
 6229SOL    HW230147   2.904   0.668   5.352 -1.5485 -1.9237 -1.5241
 6230SOL     OW30148   3.318   1.733   0.637  0.0009 -0.1370 -0.3050
 6230SOL    HW130149   3.293   1.785   0.714 -0.3918 -0.6313 -0.0975
 6230SOL    HW230150   3.412   1.717   0.643 -0.3528 -2.0779 -0.0301
 6231SOL     OW30151   1.724   2.101   9.464  0.2067  0.2101  0.8775
 6231SOL    HW130152   1.689   2.016   9.491  0.3021 -0.7023 -1.7944
 6231SOL    HW230153   1.808   2.077   9.424 -1.1562  0.8977 -2.3777
 6232SOL     OW30154   0.531   0.421   6.892  0.5326  0.1394  0.3756
 6232SOL    HW130155   0.599   0.479   6.926  0.1094 -0.2193  1.8007
 6232SOL    HW230156   0.466   0.491   6.902 -0.9158 -0.8296 -2.1900
 6233SOL     OW30157   3.155   1.688   5.449 -0.1765  0.2860  0.0452
 6233SOL    HW130158   3.123   1.702   5.360  1.2379 -2.0032 -0.8204
 6233SOL    HW230159   3.246   1.711   5.432 -0.7402  0.9036 -2.1254
 6234SOL     OW30160   3.255   3.729   3.142  0.3216  0.2340  0.0604
 6234SOL    HW130161   3.192   3.672   3.186  0.5708 -0.6073 -0.6749
 6234SOL    HW230162   3.212   3.811   3.168 -1.0246 -0.0088 -1.3906
 6235SOL     OW30163   2.442   0.581   3.680  0.2210  0.0987 -0.5491
 6235SOL    HW130164   2.352   0.551   3.663 -0.3875  1.0153  1.1097
 6235SOL    HW230165   2.484   0.553   3.598 -0.4600 -0.7238 -0.6177
 6236SOL     OW30166   3.641   2.322   3.925 -0.7756 -0.6118 -0.4645
 6236SOL    HW130167   3.663   2.339   3.834  0.6644 -1.3417 -0.2535
 6236SOL    HW230168   3.671   2.404   3.964 -0.6526 -1.8768  2.1680
 6237SOL     OW30169   0.822   3.480  10.691 -0.0083  0.2931 -0.4844
 6237SOL    HW130170   0.738   3.456  10.652  0.6736 -0.0415 -1.7420
 6237SOL    HW230171   0.851   3.546  10.629  2.0859 -1.4386 -1.3489
 6238SOL     OW30172   3.979   3.306   0.430  0.2650 -0.4968  0.0144
 6238SOL    HW130173   3.964   3.224   0.383  1.2980  0.2601 -1.5965
 6238SOL    HW230174   3.918   3.289   0.502  1.2012  2.6613  1.5840
 6239SOL     OW30175   0.774   2.086   2.393 -0.0830 -0.1212 -0.5225
 6239SOL    HW130176   0.697   2.063   2.341 -0.7081 -1.0982  0.8315
 6239SOL    HW230177   0.754   2.173   2.428  0.5457 -0.0127 -0.4408
 6240SOL     OW30178   4.528   2.145  11.652 -0.4641  0.4641  0.5454
 6240SOL    HW130179   4.437   2.117  11.665 -0.1460 -1.9674 -2.3634
 6240SOL    HW230180   4.558   2.148  11.742  3.2974  2.8108 -0.7746
 6241SOL     OW30181   1.115   2.071   4.988 -0.5152  0.7081  0.2603
 6241SOL    HW130182   1.110   2.129   4.912  0.3253 -1.1027 -1.1622
 6241SOL    HW230183   1.100   1.984   4.952 -0.4275  1.2191 -1.0327
 6242SOL     OW30184   0.362   2.320   7.094  0.4758 -0.1207  0.1184
 6242SOL    HW130185   0.429   2.273   7.143  2.3255  1.3162 -1.0311
 6242SOL    HW230186   0.348   2.382   7.166  0.2002 -2.1630  1.8297
 6243SOL     OW30187   4.680   2.781   3.701  0.2013 -0.1959  0.0093
 6243SOL    HW130188   4.689   2.776   3.606  1.3766 -2.0280  0.2186
 6243SOL    HW230189   4.680   2.688   3.723  0.9743 -0.5195 -1.3530
 6244SOL     OW30190   2.055   3.457   2.762  0.0433  0.1515 -0.2181
 6244SOL    HW130191   2.078   3.537   2.714 -0.5991 -0.1930 -1.1030
 6244SOL    HW230192   2.104   3.469   2.843  2.4267 -2.6022 -1.2522
 6245SOL     OW30193   0.498   0.064  17.078 -0.5645 -0.0631 -0.2859
 6245SOL    HW130194   0.414   0.065  17.032 -0.0312  1.3032 -1.2383
 6245SOL    HW230195   0.547   4.712  17.047  0.3588  1.0295 -1.5113
 6246SOL     OW30196   1.545   0.393  16.639 -0.1384 -0.0927 -0.0007
 6246SOL    HW130197   1.637   0.371  16.622 -0.6656 -0.3286 -2.6515
 6246SOL    HW230198   1.543   0.342  16.720 -1.4941  1.3449  0.8564
 6247SOL     OW30199   3.750   3.507  12.330 -0.8608 -0.3117  0.4590
 6247SOL    HW130200   3.700   3.571  12.280  0.1253  0.8573  0.9542
 6247SOL    HW230201   3.731   3.525  12.422 -0.6937 -1.7415  0.7651
 6248SOL     OW30202   1.850   2.139   0.907  0.0460 -0.2353 -0.4044
 6248SOL    HW130203   1.868   2.225   0.868 -1.6170  1.0847  1.7062
 6248SOL    HW230204   1.810   2.169   0.989  0.5903 -1.9397  0.4640
 6249SOL     OW30205   2.279   0.744   6.589 -0.1942  0.1411  0.1795
 6249SOL    HW130206   2.194   0.704   6.572  0.5406 -0.9663 -0.9326
 6249SOL    HW230207   2.247   0.832   6.611 -2.3250  0.3064 -3.4372
 6250SOL     OW30208   0.121   0.536   2.139  0.0479 -0.0205  0.3361
 6250SOL    HW130209   0.116   0.575   2.052  0.2352  1.3028  0.9111
 6250SOL    HW230210   0.147   0.451   2.104  0.7176 -0.3653  1.6949
 6251SOL     OW30211   2.501   4.336   7.174  0.4609  0.4639  0.6762
 6251SOL    HW130212   2.437   4.357   7.106  1.1316 -0.1813 -0.1707
 6251SOL    HW230213   2.548   4.419   7.183 -2.1878  2.0695 -0.2709
 6252SOL     OW30214   4.409   3.057   1.680  0.1077 -0.1003 -0.0751
 6252SOL    HW130215   4.451   3.064   1.765 -1.5190 -0.5926  0.7601
 6252SOL    HW230216   4.476   2.998   1.643 -2.7928 -2.0059 -2.2889
 6253SOL     OW30217   3.482   1.920   1.047  0.6402 -0.0265  0.0709
 6253SOL    HW130218   3.530   1.855   0.996  1.1964 -1.2598  2.1691
 6253SOL    HW230219   3.458   1.867   1.123  0.4416 -0.3360 -0.2093
 6254SOL     OW30220   1.758   1.834   9.963  0.3453  0.4070  0.2209
 6254SOL    HW130221   1.721   1.784  10.035  0.6141  0.0427  0.1081
 6254SOL    HW230222   1.781   1.764   9.902  1.1037  1.3577 -0.5978
 6255SOL     OW30223   4.395   4.282   7.630 -0.3658 -0.0528  0.1385
 6255SOL    HW130224   4.399   4.220   7.558  2.3192  1.5095 -1.0738
 6255SOL    HW230225   4.452   4.355   7.603 -1.7431  1.5677  1.6196
 6256SOL     OW30226   2.729   3.322   5.632  0.3517 -0.3009 -0.2197
 6256SOL    HW130227   2.818   3.299   5.658  0.6103 -0.1885 -1.0155
 6256SOL    HW230228   2.688   3.331   5.718 -1.7360 -2.9801 -0.9198
 6257SOL     OW30229   3.413   0.767   5.406 -0.5518 -0.0358  0.0544
 6257SOL    HW130230   3.346   0.713   5.364 -0.9558  0.8763 -0.4703
 6257SOL    HW230231   3.497   0.742   5.368  0.4539  1.7444  1.1205
 6258SOL     OW30232   3.023   4.492   2.945 -0.0822  0.2093  0.2792
 6258SOL    HW130233   2.935   4.492   2.982 -0.4065 -1.2401 -0.4943
 6258SOL    HW230234   3.011   4.505   2.851  0.1538  4.1510  0.7799
 6259SOL     OW30235   4.255   0.427   5.371 -0.3022  0.1238 -0.5483
 6259SOL    HW130236   4.317   0.360   5.399  0.2150  0.7960 -0.0633
 6259SOL    HW230237   4.251   0.495   5.439 -1.3302 -0.1924 -0.3071
 6260SOL     OW30238   3.417   0.012   0.342 -0.1470 -0.9178 -0.0288
 6260SOL    HW130239   3.494   4.686   0.314 -0.0094  1.3980 -3.7966
 6260SOL    HW230240   3.431   0.090   0.287 -0.2101  1.0799  2.8122
 6261SOL     OW30241   4.526   4.065   0.696  0.1781 -0.3528  0.5194
 6261SOL    HW130242   4.471   4.062   0.774 -0.3075  2.7994  0.3004
 6261SOL    HW230243   4.556   3.975   0.703  0.6807 -0.0338  2.5769
 6262SOL     OW30244   1.354   4.588   1.536  0.5665  0.2275 -0.2152
 6262SOL    HW130245   1.438   4.548   1.512  0.9093 -0.0239  1.3760
 6262SOL    HW230246   1.391   4.667   1.576 -0.2998  0.7761 -0.5067
 6263SOL     OW30247   4.211   2.587   6.702  0.0595  0.1239 -0.6531
 6263SOL    HW130248   4.182   2.637   6.778 -0.7993  1.6727 -1.9677
 6263SOL    HW230249   4.294   2.633   6.686 -1.9353  3.9984  0.0759
 6264SOL     OW30250   3.940   0.315   3.537  0.3588 -0.0958 -0.2561
 6264SOL    HW130251   3.993   0.271   3.470  1.8441  3.1900 -1.2043
 6264SOL    HW230252   3.862   0.258   3.540 -0.4889  1.1742  1.8110
 6265SOL     OW30253   3.195   1.159  16.922 -1.0476 -0.1551  0.2892
 6265SOL    HW130254   3.121   1.169  16.862  0.1676 -1.1938 -1.3838
 6265SOL    HW230255   3.198   1.063  16.930  0.8347 -0.2400 -1.3056
 6266SOL     OW30256   3.703   1.096   0.526  0.3252 -0.2374  0.2809
 6266SOL    HW130257   3.649   1.076   0.603 -1.0301 -1.7781 -1.0626
 6266SOL    HW230258   3.693   1.192   0.521  1.0770 -0.1814 -0.0698
 6267SOL     OW30259   1.344   4.521   2.936 -0.0152  0.3293  0.3160
 6267SOL    HW130260   1.404   4.456   2.974 -2.3558 -1.3906  1.0567
 6267SOL    HW230261   1.287   4.461   2.887  1.7014  0.3715 -1.7480
 6268SOL     OW30262   0.293   1.131   5.874 -0.0357  0.0908 -0.0074
 6268SOL    HW130263   0.233   1.171   5.811  1.7469  0.5300 -1.4138
 6268SOL    HW230264   0.233   1.066   5.910 -0.4773 -0.3083 -1.4420
 6269SOL     OW30265   1.133   1.502  13.319  0.5719 -0.3013  0.3444
 6269SOL    HW130266   1.067   1.509  13.249  0.2603  0.9801  0.7602
 6269SOL    HW230267   1.152   1.409  13.315  0.3942 -0.3325  0.1737
 6270SOL     OW30268   1.704   4.064   8.900 -0.0313  0.6766  0.2681
 6270SOL    HW130269   1.709   4.101   8.988  1.2569 -0.0150  0.4877
 6270SOL    HW230270   1.769   3.994   8.896 -0.1393  0.7107 -2.0310
 6271SOL     OW30271   3.270   1.591   4.217  0.6768 -0.1599  0.3669
 6271SOL    HW130272   3.176   1.592   4.237  0.3554 -0.8218 -1.1473
 6271SOL    HW230273   3.273   1.677   4.175  2.9433 -0.3456  0.1952
 6272SOL     OW30274   1.796   2.156   3.551  0.1508  0.0153 -0.0889
 6272SOL    HW130275   1.707   2.134   3.522  0.2560 -2.7163  1.6662
 6272SOL    HW230276   1.799   2.247   3.521 -0.0546 -0.5542 -1.8350
 6273SOL     OW30277   1.810   4.256   2.256 -0.1922  0.5268  0.3326
 6273SOL    HW130278   1.799   4.233   2.163  0.8720  0.1919  0.2959
 6273SOL    HW230279   1.722   4.246   2.292 -0.3393  0.0621 -0.1399
 6274SOL     OW30280   4.428   0.165   9.853  0.2774  0.6465 -0.1082
 6274SOL    HW130281   4.435   0.167   9.758 -0.6929 -1.6671 -0.2265
 6274SOL    HW230282   4.474   0.083   9.872  1.7144  1.3188 -0.6395
 6275SOL     OW30283   3.416   1.145  15.751  0.1784  0.3318 -0.0677
 6275SOL    HW130284   3.486   1.087  15.720 -0.1947 -0.2093  0.1035
 6275SOL    HW230285   3.463   1.227  15.736  2.0503 -1.3795 -3.4911
 6276SOL     OW30286   3.793   3.029   3.112 -0.2306 -0.1855  0.0092
 6276SOL    HW130287   3.834   2.980   3.183 -3.0071 -0.9795  1.0871
 6276SOL    HW230288   3.815   2.963   3.047  0.8054 -0.9059  1.0884
 6277SOL     OW30289   0.792   1.289   6.955  0.4946 -0.8751 -0.2892
 6277SOL    HW130290   0.869   1.346   6.954 -0.7609  0.8767  3.6876
 6277SOL    HW230291   0.828   1.227   7.020 -0.0815 -1.2135 -0.2965
 6278SOL     OW30292   1.340   2.461   2.829 -0.1773  0.2214 -0.7712
 6278SOL    HW130293   1.331   2.465   2.733  3.5563 -2.5338 -1.2265
 6278SOL    HW230294   1.403   2.525   2.862 -1.1760 -0.2508  2.0354
 6279SOL     OW30295   1.592   1.730   9.625 -0.1770 -0.0777 -0.3388
 6279SOL    HW130296   1.578   1.647   9.580 -0.0431  0.4647 -1.3786
 6279SOL    HW230297   1.612   1.701   9.714  2.7486 -1.4546 -1.4225
 6280SOL     OW30298   3.888   1.857   5.668 -0.1941  0.2561  0.3618
 6280SOL    HW130299   3.957   1.800   5.635  2.2070  1.9737  2.3951
 6280SOL    HW230300   3.885   1.924   5.600 -0.7011 -0.3400 -0.2037
 6281SOL     OW30301   2.297   4.240   4.657 -0.3052  0.1850  0.6027
 6281SOL    HW130302   2.254   4.155   4.652  0.2945  0.0232 -1.8342
 6281SOL    HW230303   2.382   4.219   4.696 -1.1272 -1.8421  1.3213
 6282SOL     OW30304   0.711   2.645   2.702 -0.0687 -0.3750  0.2018
 6282SOL    HW130305   0.652   2.573   2.680 -3.5816  2.3909  0.6469
 6282SOL    HW230306   0.681   2.687   2.782  0.0236 -0.1201  0.1033
 6283SOL     OW30307   4.694   2.215  15.542  0.3173 -0.0379 -0.4446
 6283SOL    HW130308   4.652   2.136  15.576  1.0824 -0.8985 -1.4902
 6283SOL    HW230309   4.687   2.201  15.447 -1.2492 -0.2230 -0.3017
 6284SOL     OW30310   0.244   0.818   8.429 -0.0010 -0.2131 -0.1508
 6284SOL    HW130311   0.293   0.870   8.365  2.0185 -0.3847  1.2470
 6284SOL    HW230312   0.295   0.737   8.437  0.8089  0.1799 -1.4087
 6285SOL     OW30313   3.699   3.151   0.864  0.1905  0.0429 -0.1789
 6285SOL    HW130314   3.664   3.085   0.924  0.2463  0.9664  0.8914
 6285SOL    HW230315   3.715   3.223   0.926 -1.3516 -1.9027  2.4870
 6286SOL     OW30316   2.959   4.504   2.699  0.0845 -0.2649 -0.0355
 6286SOL    HW130317   2.876   4.497   2.652  0.7089  0.6810 -1.3026
 6286SOL    HW230318   3.013   4.504   2.620 -0.1516  0.4568 -0.1955
 6287SOL     OW30319   0.568   3.215   6.507  0.1063 -0.1830  0.2889
 6287SOL    HW130320   0.630   3.191   6.574  0.9493  0.3927 -0.2843
 6287SOL    HW230321   0.499   3.148   6.512 -0.7588  0.6011 -0.9342
 6288SOL     OW30322   0.383   0.682   3.568 -0.3473 -0.4875 -0.2692
 6288SOL    HW130323   0.469   0.695   3.529  0.0402 -0.5841  0.5517
 6288SOL    HW230324   0.359   0.773   3.588  1.3285 -0.0920 -0.0005
 6289SOL     OW30325   3.025   0.686   9.704  0.3680 -0.1549 -0.1624
 6289SOL    HW130326   3.086   0.664   9.775  0.5837  1.2538  0.0908
 6289SOL    HW230327   2.992   0.603   9.670  2.9745 -0.6721 -1.4154
 6290SOL     OW30328   1.186   2.772   1.862  0.8080  0.2381 -0.1926
 6290SOL    HW130329   1.238   2.797   1.938 -1.0380 -0.2209  1.2338
 6290SOL    HW230330   1.245   2.739   1.795  3.3304 -1.1679  2.7073
 6291SOL     OW30331   1.910   0.839   6.437 -0.1367  0.0946  0.1298
 6291SOL    HW130332   1.840   0.781   6.467 -1.4130  0.1348 -2.7189
 6291SOL    HW230333   1.877   0.929   6.445 -2.3898 -0.8082  0.8884
 6292SOL     OW30334   1.626   3.089   3.064  0.1847 -0.4714  0.1835
 6292SOL    HW130335   1.678   3.084   2.984 -1.0154  1.7391 -0.7530
 6292SOL    HW230336   1.698   3.107   3.125  1.0545 -2.4388 -0.2732
 6293SOL     OW30337   1.739   1.522   8.598 -0.0446 -0.0789 -0.0757
 6293SOL    HW130338   1.650   1.498   8.624 -0.1056 -0.2574 -0.4426
 6293SOL    HW230339   1.788   1.469   8.661 -1.0830  0.3823  1.1152
 6294SOL     OW30340   0.714   1.567   4.398 -0.1436 -0.1062  0.0049
 6294SOL    HW130341   0.712   1.629   4.325  0.6870  2.1437  1.8993
 6294SOL    HW230342   0.744   1.488   4.354 -1.3238 -0.7053  0.2622
 6295SOL     OW30343   2.612   1.931  14.800  0.2669  0.5838 -0.0352
 6295SOL    HW130344   2.652   1.907  14.716 -2.6234 -1.0590 -0.9567
 6295SOL    HW230345   2.580   1.847  14.834  0.3626  0.7998  0.5845
 6296SOL     OW30346   4.357   4.650   5.702 -0.1717  0.8255 -0.1466
 6296SOL    HW130347   4.422   4.632   5.634 -1.3160  1.8577 -1.5225
 6296SOL    HW230348   4.359   4.565   5.745 -2.5383  0.9743  0.2799
 6297SOL     OW30349   3.618   2.763  10.460  1.0861  0.0218 -0.0560
 6297SOL    HW130350   3.588   2.715  10.383  1.7390  0.9122 -0.8574
 6297SOL    HW230351   3.536   2.776  10.508  1.6563  3.4022 -0.0581
 6298SOL     OW30352   2.808   3.364   3.659  0.0494  0.5094 -0.2100
 6298SOL    HW130353   2.718   3.353   3.630  0.7078 -0.6597 -1.8103
 6298SOL    HW230354   2.818   3.280   3.704  0.5100  2.0290  2.5468
 6299SOL     OW30355   1.976   2.439   0.279  0.2772  0.5088  0.0651
 6299SOL    HW130356   1.999   2.526   0.311 -0.7109  0.9356 -0.3888
 6299SOL    HW230357   1.953   2.396   0.361  0.7224 -0.7575 -0.4809
 6300SOL     OW30358   1.032   2.078   9.158 -0.5499 -0.3566 -0.0034
 6300SOL    HW130359   1.044   2.125   9.241 -0.6244 -1.2604  0.5176
 6300SOL    HW230360   1.052   2.153   9.101 -4.2939  0.8628  0.2847
 6301SOL     OW30361   1.609   4.478   1.516 -0.4361  0.1823  0.0850
 6301SOL    HW130362   1.696   4.498   1.482 -0.2334  0.8470  1.0009
 6301SOL    HW230363   1.590   4.396   1.470 -0.9754  1.1552 -1.4105
 6302SOL     OW30364   2.886   1.613   3.535  0.1104  0.3167  0.8264
 6302SOL    HW130365   2.834   1.669   3.593 -2.1103  0.9015 -1.7530
 6302SOL    HW230366   2.819   1.567   3.484 -2.7268  3.9204  1.3058
 6303SOL     OW30367   2.700   2.414   4.020 -0.6435  0.0593 -0.2699
 6303SOL    HW130368   2.611   2.442   3.999 -0.2592  1.1778 -0.4258
 6303SOL    HW230369   2.718   2.439   4.111  2.3320  2.3055 -1.4431
 6304SOL     OW30370   2.566   1.647   7.919  0.3058 -0.1772 -0.5404
 6304SOL    HW130371   2.557   1.729   7.870 -0.6220 -0.2830 -0.5603
 6304SOL    HW230372   2.589   1.678   8.007 -4.5218 -1.7659  1.2827
 6305SOL     OW30373   3.565   3.406   6.031 -0.1403  0.0295 -0.3615
 6305SOL    HW130374   3.561   3.422   5.936 -2.2073 -0.2544 -0.3052
 6305SOL    HW230375   3.621   3.478   6.062  0.6062 -0.9176  0.4707
 6306SOL     OW30376   2.336   4.089   3.399 -0.0406 -0.2792  0.1060
 6306SOL    HW130377   2.367   4.028   3.467  2.6829 -1.7441 -2.4463
 6306SOL    HW230378   2.279   4.143   3.454  2.2884  0.1600  2.0929
 6307SOL     OW30379   2.254   1.264   5.146 -0.3771 -0.4847  0.0025
 6307SOL    HW130380   2.186   1.324   5.115 -0.2134 -0.5760 -0.5469
 6307SOL    HW230381   2.277   1.317   5.222  0.7843 -2.1001  0.7790
 6308SOL     OW30382   4.499   1.589   8.276 -0.1450 -0.5010 -0.1904
 6308SOL    HW130383   4.575   1.645   8.288 -0.2892 -0.6294  1.2312
 6308SOL    HW230384   4.453   1.647   8.215  0.7285  0.0146 -0.3566
 6309SOL     OW30385   0.262   0.001   7.758  0.3354  0.5134 -0.0011
 6309SOL    HW130386   0.353   4.693   7.759  0.1654  0.0353  0.6076
 6309SOL    HW230387   0.261   0.071   7.693 -0.8379 -0.9808 -1.5977
 6310SOL     OW30388   3.531   3.395   3.969 -0.7514 -0.4462 -0.3429
 6310SOL    HW130389   3.581   3.316   3.987 -0.6149 -0.1602  0.5829
 6310SOL    HW230390   3.461   3.375   4.031  0.9926  2.2198  2.5315
 6311SOL     OW30391   3.444   2.121   3.086  0.4640  0.2833 -0.4058
 6311SOL    HW130392   3.438   2.156   3.175  0.0080  2.6695 -1.3570
 6311SOL    HW230393   3.463   2.204   3.041 -1.3798 -0.1210 -1.9312
 6312SOL     OW30394   3.609   3.964   3.906  0.4826  0.6410 -0.3597
 6312SOL    HW130395   3.675   3.953   3.837  0.4850 -0.9034 -0.1100
 6312SOL    HW230396   3.545   3.898   3.879  1.5137 -0.0376 -1.1594
 6313SOL     OW30397   2.031   3.312   6.390 -0.0254 -0.0090 -0.1339
 6313SOL    HW130398   2.052   3.289   6.299  0.2513  3.6955 -1.0202
 6313SOL    HW230399   2.065   3.234   6.433  2.7205  1.4225  0.2974
 6314SOL     OW30400   3.935   3.838  14.823  0.7575  0.7488 -0.2956
 6314SOL    HW130401   3.997   3.832  14.750 -1.0769 -0.1243 -1.7848
 6314SOL    HW230402   3.868   3.773  14.801 -0.6038  2.3072 -0.7324
 6315SOL     OW30403   1.077   0.563   2.119 -0.3837 -0.4803 -0.1103
 6315SOL    HW130404   1.004   0.614   2.084 -0.7428 -1.5698 -0.9239
 6315SOL    HW230405   1.038   0.510   2.188 -0.5348 -0.3563 -0.1008
 6316SOL     OW30406   0.793   2.192   6.384  0.0113 -0.5843 -0.0044
 6316SOL    HW130407   0.733   2.254   6.426  1.3843  1.6837 -1.4231
 6316SOL    HW230408   0.809   2.134   6.458  1.0088 -0.1416  0.1204
 6317SOL     OW30409   3.632   2.245   4.268 -0.5015  0.5496  0.2758
 6317SOL    HW130410   3.639   2.261   4.362 -3.1946 -2.0549  0.9019
 6317SOL    HW230411   3.613   2.152   4.269 -1.0762  0.6560 -1.8627
 6318SOL     OW30412   1.630   1.032  17.245  0.5481  0.1518  0.4924
 6318SOL    HW130413   1.599   1.099  17.183  1.3389  1.5064  1.5606
 6318SOL    HW230414   1.556   1.028  17.305  0.6930 -1.2166  0.5823
 6319SOL     OW30415   4.682   1.016   2.599  0.1370  0.1005 -0.1545
 6319SOL    HW130416   0.052   0.997   2.598  0.0212 -0.6424  1.8177
 6319SOL    HW230417   4.671   1.026   2.694  1.2103  0.7152 -0.0915
 6320SOL     OW30418   3.201   0.300  12.630 -0.2196 -0.1759 -0.0362
 6320SOL    HW130419   3.162   0.214  12.616 -0.3757  0.1083 -1.3661
 6320SOL    HW230420   3.121   0.352  12.633  1.6027  2.7334 -1.6032
 6321SOL     OW30421   0.505   1.917  12.333  1.4045 -0.5739  0.0715
 6321SOL    HW130422   0.575   1.854  12.352  0.1065 -2.2022 -0.5587
 6321SOL    HW230423   0.561   1.992  12.312 -0.1763  0.7691  0.6563
 6322SOL     OW30424   1.326   4.167  12.780 -0.6588  0.6142 -0.1965
 6322SOL    HW130425   1.410   4.171  12.827  0.1909 -2.1904 -1.4917
 6322SOL    HW230426   1.313   4.074  12.765  1.2395  0.3159  0.0268
 6323SOL     OW30427   0.787   0.054  14.408  0.0976 -0.0707  0.2605
 6323SOL    HW130428   0.861   0.015  14.361 -0.3491 -0.4519 -0.1222
 6323SOL    HW230429   0.797   0.027  14.500  0.4475 -1.5383 -0.2006
 6324SOL     OW30430   4.019   3.816   4.740 -0.3825 -0.1496  0.2447
 6324SOL    HW130431   4.091   3.870   4.705 -0.7940  0.3093  0.1097
 6324SOL    HW230432   4.031   3.750   4.672 -1.3682  1.4608 -1.5002
 6325SOL     OW30433   0.868   0.900   3.570 -0.0126  0.6070  0.2096
 6325SOL    HW130434   0.932   0.884   3.501  0.9092  3.5737  0.4123
 6325SOL    HW230435   0.917   0.892   3.652  0.4940 -2.9566 -0.4173
 6326SOL     OW30436   4.464   2.725  17.662 -0.4411  0.0002  0.0611
 6326SOL    HW130437   4.409   2.690   0.035  1.0879 -0.5354  0.9933
 6326SOL    HW230438   4.453   2.819  17.680 -0.8140 -0.1355  0.5407
 6327SOL     OW30439   4.116   0.726   7.227 -0.6230  0.9859 -0.3895
 6327SOL    HW130440   4.095   0.677   7.148 -3.4285  1.4886  0.0419
 6327SOL    HW230441   4.211   0.712   7.237 -0.8780 -2.1909 -2.2330
 6328SOL     OW30442   2.836   3.850   6.220  0.2569  0.2477  0.7225
 6328SOL    HW130443   2.910   3.864   6.161 -2.0120  1.7643 -1.7673
 6328SOL    HW230444   2.873   3.783   6.277  2.1633  0.9105  0.2721
 6329SOL     OW30445   4.379   0.484   8.549  0.6692 -0.3410  0.2089
 6329SOL    HW130446   4.447   0.547   8.573 -0.7187  1.3794 -0.4313
 6329SOL    HW230447   4.382   0.424   8.624 -0.0109 -1.7104 -0.8372
 6330SOL     OW30448   4.120   3.221  16.315 -0.1184  0.8435 -0.0971
 6330SOL    HW130449   4.036   3.230  16.360  1.2900  3.3448  1.9833
 6330SOL    HW230450   4.117   3.125  16.306 -2.4255  1.2326 -3.5184
 6331SOL     OW30451   4.027   2.647   7.415  0.4156  0.3375  0.5021
 6331SOL    HW130452   4.052   2.728   7.461 -0.2579  0.8652 -0.0809
 6331SOL    HW230453   3.987   2.593   7.483 -1.3986 -0.1921 -0.9896
 6332SOL     OW30454   3.387   0.975   1.566 -0.2848  0.7286 -0.0642
 6332SOL    HW130455   3.335   0.905   1.605 -0.9235  1.1575 -0.1498
 6332SOL    HW230456   3.469   0.932   1.540 -0.2970  0.4277  0.3824
 6333SOL     OW30457   0.270   0.499   3.783  0.2960 -0.1685 -0.1803
 6333SOL    HW130458   0.340   0.437   3.801  0.7391  0.1629 -0.7355
 6333SOL    HW230459   0.301   0.546   3.705 -2.1384  0.0169 -1.0489
 6334SOL     OW30460   1.571   0.850  11.588  0.0454  0.5053 -0.5799
 6334SOL    HW130461   1.573   0.863  11.493 -1.3319  1.0363 -0.5408
 6334SOL    HW230462   1.636   0.783  11.606 -0.4197  0.9318  2.6729
 6335SOL     OW30463   0.919   1.536  11.565 -0.4771  0.4468 -0.2445
 6335SOL    HW130464   0.987   1.495  11.619  0.5233 -2.4540 -3.6870
 6335SOL    HW230465   0.957   1.515  11.479  0.1912 -2.2022  0.6991
 6336SOL     OW30466   4.493   3.848   2.980 -1.0407 -0.0256  0.0308
 6336SOL    HW130467   4.546   3.897   2.916 -1.4140 -2.3271 -2.0160
 6336SOL    HW230468   4.562   3.823   3.040 -1.4993 -0.2338  0.4709
 6337SOL     OW30469   0.742   3.865  16.396  0.8074  0.4609  0.4286
 6337SOL    HW130470   0.747   3.887  16.303  1.6190 -3.3513 -0.4423
 6337SOL    HW230471   0.663   3.811  16.389  0.3838  1.0975  0.3573
 6338SOL     OW30472   4.270   4.275   8.364 -0.7473 -0.3842  0.0024
 6338SOL    HW130473   4.301   4.361   8.334 -1.1156  0.1095  1.0626
 6338SOL    HW230474   4.194   4.256   8.310 -0.7602  1.6847 -0.7292
 6339SOL     OW30475   1.732   2.904   8.589  0.5127  0.4392 -0.4959
 6339SOL    HW130476   1.662   2.843   8.610  1.0649  0.0446  0.1998
 6339SOL    HW230477   1.730   2.914   8.493 -2.2364  0.4567 -0.4370
 6340SOL     OW30478   2.028   1.420   4.978  0.4353  0.2426 -0.3410
 6340SOL    HW130479   1.968   1.357   4.938 -0.0904  1.1037 -0.9210
 6340SOL    HW230480   2.068   1.447   4.895  1.0727 -2.3552 -0.8941
 6341SOL     OW30481   4.195   2.402   3.510 -0.0957  0.4364  0.1939
 6341SOL    HW130482   4.112   2.439   3.481 -0.4696 -1.8767 -1.7076
 6341SOL    HW230483   4.247   2.479   3.533  0.3114  0.7384 -1.7042
 6342SOL     OW30484   0.837   3.909  12.981 -0.0328 -0.2316 -0.3000
 6342SOL    HW130485   0.929   3.884  12.977 -0.6374 -2.3311 -0.9734
 6342SOL    HW230486   0.847   3.982  12.919  0.2107  0.6741  0.8042
 6343SOL     OW30487   0.831   0.698   4.686  0.3940 -0.1930  0.1738
 6343SOL    HW130488   0.871   0.627   4.737 -1.1037  0.1767  1.8780
 6343SOL    HW230489   0.778   0.649   4.624 -0.4363  1.1154 -0.1387
 6344SOL     OW30490   3.001   2.933   3.691  0.1516  0.0143 -0.0071
 6344SOL    HW130491   3.030   2.877   3.763 -1.5356 -0.3806  0.3494
 6344SOL    HW230492   2.920   2.969   3.727 -0.8755 -0.4041 -1.8954
 6345SOL     OW30493   4.676   3.578   3.573 -0.1601 -0.5835 -0.0065
 6345SOL    HW130494   4.647   3.519   3.643 -0.3005  0.2243  0.6200
 6345SOL    HW230495   4.676   3.509   3.507  1.6859 -1.4732  0.9280
 6346SOL     OW30496   4.433   2.483   7.417  0.3195 -0.3789  0.5197
 6346SOL    HW130497   4.374   2.448   7.350 -0.7967 -0.8885  1.7636
 6346SOL    HW230498   4.414   2.423   7.490  2.4099 -3.3421 -1.3898
 6347SOL     OW30499   0.365   3.161   9.518 -0.2072  0.6165 -0.3146
 6347SOL    HW130500   0.419   3.086   9.542 -0.7145  0.2749 -0.2555
 6347SOL    HW230501   0.371   3.155   9.422 -0.3239 -1.7229 -0.1703
 6348SOL     OW30502   0.288   3.236   8.425 -0.1406 -0.3132 -0.2378
 6348SOL    HW130503   0.218   3.174   8.446 -1.7353  1.7538  0.5257
 6348SOL    HW230504   0.284   3.303   8.493  0.7755 -1.3984  0.8922
 6349SOL     OW30505   0.901   4.531   4.129  0.1422  0.1335  0.2399
 6349SOL    HW130506   0.972   4.513   4.191  3.1959  1.0499 -2.9686
 6349SOL    HW230507   0.931   4.607   4.078  1.5060  0.8138  2.0349
 6350SOL     OW30508   0.433   4.376   8.642  0.5091 -0.1277 -0.1717
 6350SOL    HW130509   0.497   4.326   8.591  0.1427 -0.3165 -0.4523
 6350SOL    HW230510   0.463   4.378   8.732 -1.7516  1.0301  0.5472
 6351SOL     OW30511   2.803   2.783  13.644  0.1116 -0.7147 -0.2809
 6351SOL    HW130512   2.841   2.871  13.654  1.1788 -1.3785  1.4894
 6351SOL    HW230513   2.752   2.799  13.564  0.5191  0.9785 -0.2100
 6352SOL     OW30514   2.914   1.834  10.813  0.4735 -0.7558  0.0523
 6352SOL    HW130515   2.898   1.900  10.880  1.7381 -0.5802  0.1790
 6352SOL    HW230516   2.988   1.876  10.770 -1.1000 -0.0563 -1.9350
 6353SOL     OW30517   3.382   0.139   4.049 -0.2885 -0.3138 -0.3535
 6353SOL    HW130518   3.303   0.131   3.995 -0.7356  0.3542  0.1988
 6353SOL    HW230519   3.343   0.149   4.136 -0.8025  0.5111 -0.6735
 6354SOL     OW30520   4.246   3.149   8.375 -0.0968  0.1844 -0.1879
 6354SOL    HW130521   4.172   3.134   8.316 -2.1235  0.5081  2.2718
 6354SOL    HW230522   4.314   3.144   8.308  1.9758  1.7370  1.7896
 6355SOL     OW30523   4.257   2.261  11.843  0.6023 -0.0666 -0.1631
 6355SOL    HW130524   4.293   2.349  11.829 -2.7503  1.3469 -0.0274
 6355SOL    HW230525   4.340   2.217  11.825  0.8666 -1.0389  3.4124
 6356SOL     OW30526   2.408   3.468   0.220 -0.0939  0.0192 -0.2077
 6356SOL    HW130527   2.314   3.461   0.234  0.2808 -4.1383  0.4166
 6356SOL    HW230528   2.428   3.540   0.279 -0.3668  0.3762 -0.5548
 6357SOL     OW30529   4.696   0.554   8.669 -0.5683  0.2219  0.3478
 6357SOL    HW130530   4.611   0.591   8.694  0.0861  2.2717 -0.4267
 6357SOL    HW230531   4.699   0.568   8.574  1.4349 -0.0255  0.3830
 6358SOL     OW30532   1.260   1.474  11.768  0.2490 -0.5023 -0.6142
 6358SOL    HW130533   1.287   1.563  11.746  1.0645 -0.4758  0.4630
 6358SOL    HW230534   1.345   1.440  11.798  0.6253 -0.0944 -1.2120
 6359SOL     OW30535   4.317   1.464   8.438  0.0307 -0.0943  0.2228
 6359SOL    HW130536   4.281   1.404   8.373 -1.1666  1.1652 -0.2958
 6359SOL    HW230537   4.387   1.521   8.406 -1.9407  2.0409 -0.3243
 6360SOL     OW30538   0.113   3.211  12.114  0.6408 -0.0948  0.0362
 6360SOL    HW130539   0.062   3.246  12.187  0.1144  1.7067 -1.1936
 6360SOL    HW230540   0.194   3.254  12.140  0.3142  0.9137 -0.5927
 6361SOL     OW30541   0.095   1.163  17.414 -1.0142 -0.0794  0.1900
 6361SOL    HW130542   0.114   1.138  17.504  0.5743 -2.0136 -0.7011
 6361SOL    HW230543   0.020   1.222  17.421 -1.0358 -0.0686 -0.1220
 6362SOL     OW30544   4.368   2.045   6.657  0.6183 -0.1620 -0.0442
 6362SOL    HW130545   4.329   2.015   6.575  0.0278 -2.5708  1.1044
 6362SOL    HW230546   4.347   2.138   6.657 -0.5984 -0.4327  0.6085
 6363SOL     OW30547   0.791   3.592  13.452 -0.0687 -0.2087 -0.0650
 6363SOL    HW130548   0.841   3.526  13.403  0.7195  0.7616 -0.5917
 6363SOL    HW230549   0.742   3.635  13.383 -0.9363  0.7150  1.1317
 6364SOL     OW30550   1.065   0.458   2.955 -0.7856 -0.2505 -0.1630
 6364SOL    HW130551   1.073   0.367   2.986 -4.6903 -0.2276  0.9270
 6364SOL    HW230552   1.119   0.472   2.877  0.0863 -2.4139  0.0306
 6365SOL     OW30553   2.266   1.989   3.091 -0.0693 -0.4576  0.0459
 6365SOL    HW130554   2.216   1.911   3.118  0.4530 -0.7387  0.2013
 6365SOL    HW230555   2.342   1.955   3.044 -0.5595 -0.7045 -0.5735
 6366SOL     OW30556   1.475   3.897   6.200 -0.1619 -0.3534  0.1704
 6366SOL    HW130557   1.431   3.893   6.285 -0.0591  0.5550  0.2734
 6366SOL    HW230558   1.505   3.807   6.189 -2.5524 -0.8476 -2.0079
 6367SOL     OW30559   4.156   0.892   5.247  0.0570 -0.7288  0.2223
 6367SOL    HW130560   4.149   0.949   5.323 -1.8784  0.9803 -1.2451
 6367SOL    HW230561   4.146   0.955   5.176  1.3977  1.5235  2.0287
 6368SOL     OW30562   3.231   0.462  14.772 -0.3927  0.4576  0.3421
 6368SOL    HW130563   3.227   0.380  14.723 -0.1367  0.0812  0.9527
 6368SOL    HW230564   3.179   0.523  14.719 -0.1790 -0.4456 -0.8896
 6369SOL     OW30565   1.467   1.139   5.413  0.0790 -0.4941 -0.1955
 6369SOL    HW130566   1.471   1.212   5.351  0.5296  0.2019  0.6426
 6369SOL    HW230567   1.392   1.093   5.376  0.7749 -0.6625 -1.4009
 6370SOL     OW30568   3.821   3.037   8.021 -0.4073 -0.1858  0.3409
 6370SOL    HW130569   3.855   3.121   8.051  1.1548 -1.2264  1.5002
 6370SOL    HW230570   3.731   3.060   7.999  0.5051  2.0073 -1.1408
 6371SOL     OW30571   3.214   1.143   1.494  0.0532  0.0230 -0.6597
 6371SOL    HW130572   3.292   1.090   1.510 -0.0394 -0.3037 -1.3095
 6371SOL    HW230573   3.252   1.228   1.470  1.1453 -0.4538 -0.5976
 6372SOL     OW30574   2.838   2.852   5.459  0.1266 -0.1810  0.1450
 6372SOL    HW130575   2.775   2.921   5.436  1.4595  0.5426 -1.3184
 6372SOL    HW230576   2.804   2.810   5.538  1.4190 -1.2427  0.1315
 6373SOL     OW30577   4.139   1.823   8.965 -0.2464  0.1604  0.5546
 6373SOL    HW130578   4.120   1.914   8.984 -2.0760 -0.1244  0.1706
 6373SOL    HW230579   4.230   1.822   8.936 -0.6465 -1.7575 -0.7362
 6374SOL     OW30580   0.817   2.574   0.560 -0.1796 -0.1015  0.2266
 6374SOL    HW130581   0.782   2.543   0.643 -1.7120  0.3459 -0.2579
 6374SOL    HW230582   0.902   2.530   0.560  0.2169  0.6470 -1.2477
 6375SOL     OW30583   1.045   0.714   7.930 -0.1857 -0.1547 -0.3038
 6375SOL    HW130584   0.989   0.759   7.993  0.3939 -0.4349  0.4024
 6375SOL    HW230585   1.095   0.786   7.891  0.3839 -1.9541 -2.8649
 6376SOL     OW30586   1.792   4.403   0.906  0.5079 -0.4044 -0.3861
 6376SOL    HW130587   1.722   4.428   0.967  2.2175 -1.9195  2.2003
 6376SOL    HW230588   1.864   4.442   0.956  0.0525  0.3020 -0.2603
 6377SOL     OW30589   4.476   0.604   2.966 -0.0466 -0.2764 -0.5826
 6377SOL    HW130590   4.483   0.593   3.061  2.0995  0.9705 -0.6062
 6377SOL    HW230591   4.558   0.646   2.940 -0.3428  0.6343 -0.0657
 6378SOL     OW30592   3.890   2.151   7.600 -0.1222  0.3752 -0.1374
 6378SOL    HW130593   3.897   2.134   7.694 -3.0574 -0.3399 -0.0294
 6378SOL    HW230594   3.962   2.209   7.577  1.4898 -1.0047  1.4507
 6379SOL     OW30595   3.892   3.821   6.630  0.0791 -0.0319 -0.0779
 6379SOL    HW130596   3.800   3.845   6.633  0.2791  0.4902  2.1053
 6379SOL    HW230597   3.902   3.809   6.536 -1.0095  0.0929 -0.2044
 6380SOL     OW30598   0.546   2.911  13.315 -0.3878  0.6498  0.0252
 6380SOL    HW130599   0.485   2.848  13.354  0.7790  0.6805  1.9004
 6380SOL    HW230600   0.509   2.920  13.227  0.8542  2.0607 -0.3490
 6381SOL     OW30601   1.421   4.135   0.804 -0.1946 -0.4314 -0.1677
 6381SOL    HW130602   1.346   4.083   0.776 -0.6612  0.3623 -0.4122
 6381SOL    HW230603   1.390   4.224   0.786 -2.4742 -1.2683 -0.4233
 6382SOL     OW30604   0.642   4.715  13.077  0.1586  0.1778  0.3558
 6382SOL    HW130605   0.624   4.623  13.097 -0.3328  0.3404  0.6721
 6382SOL    HW230606   0.556   0.033  13.087 -1.0123 -1.6152 -2.0402
 6383SOL     OW30607   3.758   2.529   7.087  0.9434  0.7696 -0.0404
 6383SOL    HW130608   3.717   2.518   7.002  2.1911  1.1074 -0.6892
 6383SOL    HW230609   3.699   2.595   7.123 -1.8278 -0.9912 -1.3384
 6384SOL     OW30610   3.565   3.585   6.981 -0.3702 -0.1514  0.2544
 6384SOL    HW130611   3.596   3.518   7.042  0.5438 -0.2052 -0.2660
 6384SOL    HW230612   3.600   3.672   7.001 -3.1830  0.8538  0.8851
 6385SOL     OW30613   3.053   2.395  11.277 -0.2705  0.8295  0.1710
 6385SOL    HW130614   3.032   2.311  11.317 -2.4371  0.2253 -2.2360
 6385SOL    HW230615   3.146   2.400  11.300 -0.3200 -1.8672  0.9510
 6386SOL     OW30616   2.318   0.496   1.518 -0.0347  0.1177 -0.1774
 6386SOL    HW130617   2.284   0.475   1.431 -0.5170  0.1453  0.0053
 6386SOL    HW230618   2.307   0.591   1.515  0.4156  0.2155  1.1896
 6387SOL     OW30619   0.241   0.412  13.310  0.5915 -0.3782  0.1192
 6387SOL    HW130620   0.183   0.342  13.280  1.5466 -0.4136 -1.6354
 6387SOL    HW230621   0.319   0.362  13.334  1.6985  0.9777 -0.6061
 6388SOL     OW30622   2.322   3.440  16.769  0.0268 -0.0415  0.1386
 6388SOL    HW130623   2.247   3.382  16.786 -0.2003  0.4319  0.7534
 6388SOL    HW230624   2.282   3.523  16.792 -0.3637 -0.1151 -0.2618
 6389SOL     OW30625   1.999   0.460   6.867 -0.5884  0.2283  0.0285
 6389SOL    HW130626   2.009   0.527   6.799 -3.1903 -0.1440 -0.7337
 6389SOL    HW230627   2.014   0.387   6.807 -0.9241  1.4492 -1.5444
 6390SOL     OW30628   3.666   4.363   0.939 -0.3020 -0.5781  0.4964
 6390SOL    HW130629   3.637   4.453   0.949  0.4861  0.0039 -2.4706
 6390SOL    HW230630   3.716   4.346   1.019  0.7563  2.1495  0.3956
 6391SOL     OW30631   3.398   3.260  15.949 -0.4345  0.2439 -0.2778
 6391SOL    HW130632   3.393   3.208  15.869 -1.7064  1.1801 -0.8101
 6391SOL    HW230633   3.335   3.332  15.943 -1.8038 -0.7716  1.9975
 6392SOL     OW30634   4.290   2.023  11.696 -0.5247 -0.4604 -0.2947
 6392SOL    HW130635   4.304   1.928  11.702  0.3444 -0.4476 -2.1594
 6392SOL    HW230636   4.280   2.033  11.601 -0.2174  5.9675  0.3885
 6393SOL     OW30637   3.998   4.628   6.355  0.9034 -0.2452  0.0414
 6393SOL    HW130638   4.039   4.578   6.425 -0.6814  0.0428  1.1803
 6393SOL    HW230639   4.065   4.628   6.287  0.4386 -0.9622 -0.4140
 6394SOL     OW30640   0.443   1.975   5.484  0.3004  0.0394  0.0816
 6394SOL    HW130641   0.524   1.975   5.434  0.7509 -0.4847  0.8310
 6394SOL    HW230642   0.401   1.897   5.448 -1.7862  0.8857  0.6485
 6395SOL     OW30643   1.570   0.636   3.052  0.0265 -0.0773  0.2770
 6395SOL    HW130644   1.550   0.721   3.091 -0.6409 -0.0621 -0.0990
 6395SOL    HW230645   1.623   0.663   2.977 -0.3264  0.5723  0.2579
 6396SOL     OW30646   2.419   0.660   7.748 -0.0175 -0.0466 -0.3963
 6396SOL    HW130647   2.489   0.594   7.756 -0.3720 -0.5547 -1.4091
 6396SOL    HW230648   2.425   0.691   7.838 -1.6417 -0.7333 -0.0593
 6397SOL     OW30649   0.348   3.908  15.844 -0.1024 -0.0338 -0.3721
 6397SOL    HW130650   0.283   3.963  15.888  1.9711  1.0306  1.3856
 6397SOL    HW230651   0.287   3.840  15.817 -2.8091  2.4281 -0.4641
 6398SOL     OW30652   3.620   1.332  15.620 -0.0148  0.0153  0.5798
 6398SOL    HW130653   3.591   1.417  15.653  0.8247  0.4228  0.2348
 6398SOL    HW230654   3.585   1.337  15.531 -0.4901 -0.1077  0.7592
 6399SOL     OW30655   2.845   0.622   1.838  0.3263  0.4485 -0.0469
 6399SOL    HW130656   2.752   0.609   1.858  0.3811 -2.3744 -1.6875
 6399SOL    HW230657   2.837   0.656   1.749 -2.7205 -1.4775 -0.5071
 6400SOL     OW30658   1.745   2.543   9.753 -0.2251  0.0491 -0.4565
 6400SOL    HW130659   1.786   2.469   9.709  1.8716  1.0694 -0.2363
 6400SOL    HW230660   1.800   2.607   9.706  1.0761 -1.4735 -1.0149
 6401SOL     OW30661   4.326   2.081  17.328 -0.4474 -0.4686 -0.0986
 6401SOL    HW130662   4.259   2.135  17.371 -2.0615 -1.9737 -0.7032
 6401SOL    HW230663   4.279   2.054  17.249 -0.1199 -1.1865 -0.0516
 6402SOL     OW30664   0.688   1.358   2.540 -0.3221 -0.1071 -1.6016
 6402SOL    HW130665   0.608   1.392   2.499 -1.2283  0.6425  0.8191
 6402SOL    HW230666   0.655   1.273   2.567 -3.5134  2.1487  1.6419
 6403SOL     OW30667   0.903   0.408  15.228  0.4585 -0.1905  0.1623
 6403SOL    HW130668   0.972   0.434  15.167  0.0267 -1.1357 -0.7238
 6403SOL    HW230669   0.875   0.493  15.261 -3.2315 -1.3353  0.0109
 6404SOL     OW30670   0.578   3.188  15.336 -0.7373  0.1212 -0.5106
 6404SOL    HW130671   0.523   3.199  15.259 -1.3738 -1.1985 -0.2465
 6404SOL    HW230672   0.639   3.252  15.301 -0.4861  1.5701  2.5971
 6405SOL     OW30673   1.521   0.818  16.543 -0.1925 -0.1506  0.1145
 6405SOL    HW130674   1.598   0.770  16.574 -1.2740 -1.3199  0.9856
 6405SOL    HW230675   1.449   0.769  16.582 -1.1372  2.5617  1.8243
 6406SOL     OW30676   0.314   3.489   7.605 -0.2079 -0.7775 -0.2639
 6406SOL    HW130677   0.244   3.480   7.670 -0.6135 -0.6274 -0.6732
 6406SOL    HW230678   0.359   3.559   7.652 -0.9639 -0.4767  0.0077
 6407SOL     OW30679   0.243   2.606   4.942  0.1193  0.1469  0.2458
 6407SOL    HW130680   0.220   2.669   4.874  0.6700  1.0351  0.8612
 6407SOL    HW230681   0.329   2.632   4.976 -1.1578  3.0118  1.3165
 6408SOL     OW30682   1.619   0.575  14.054 -0.2098 -0.1783 -0.0700
 6408SOL    HW130683   1.670   0.649  14.088 -1.1320 -0.8800  2.7779
 6408SOL    HW230684   1.534   0.615  14.069 -0.1263 -0.1936  0.4335
 6409SOL     OW30685   1.672   3.012  15.397 -0.2850  0.3302  0.6576
 6409SOL    HW130686   1.638   2.964  15.321 -1.4769 -1.0666  2.0906
 6409SOL    HW230687   1.635   2.960  15.468  0.1940  0.9576  1.3692
 6410SOL     OW30688   4.425   2.271   3.857 -0.7134 -0.4939  0.1896
 6410SOL    HW130689   4.359   2.205   3.838 -1.4981  0.2567  0.2854
 6410SOL    HW230690   4.426   2.265   3.952  0.3013  1.7830  0.3436
 6411SOL     OW30691   3.624   3.204   0.320  0.1709 -0.1882  0.1715
 6411SOL    HW130692   3.712   3.170   0.305  0.1872  0.7950 -2.1062
 6411SOL    HW230693   3.594   3.140   0.384  1.5646  0.2297  1.2456
 6412SOL     OW30694   3.686   3.671   5.741  0.3408 -0.3807 -0.0639
 6412SOL    HW130695   3.636   3.593   5.766  2.7118 -0.4733  4.3297
 6412SOL    HW230696   3.696   3.664   5.646  2.0113 -0.9360  0.1523
 6413SOL     OW30697   1.930   3.144  10.518 -0.2532  0.4659 -0.6727
 6413SOL    HW130698   1.915   3.050  10.508 -1.7329  0.4878  1.3999
 6413SOL    HW230699   1.989   3.142  10.593 -1.9088 -0.1588  0.6155
 6414SOL     OW30700   4.653   4.628   8.265 -0.1791 -0.2413 -0.3394
 6414SOL    HW130701   4.565   4.596   8.245 -1.0861  2.3139 -0.3277
 6414SOL    HW230702   4.700   4.546   8.284 -3.0359 -0.8679  4.1443
 6415SOL     OW30703   1.177   2.490   5.048 -0.0278  0.4172 -0.4257
 6415SOL    HW130704   1.229   2.417   5.014 -1.7258 -0.2623 -1.5411
 6415SOL    HW230705   1.233   2.520   5.120  0.2242  0.9691 -0.8468
 6416SOL     OW30706   2.878   1.548   8.788  0.2435 -0.6702 -0.2044
 6416SOL    HW130707   2.853   1.548   8.881 -1.4286 -0.0287 -0.6677
 6416SOL    HW230708   2.792   1.548   8.747  0.9711 -2.9830 -1.7478
 6417SOL     OW30709   0.960   1.513  12.349  0.2726 -0.2380 -0.4590
 6417SOL    HW130710   1.029   1.447  12.341  0.4514  0.0115 -0.9811
 6417SOL    HW230711   0.971   1.530  12.442  0.1692 -0.5268 -0.3949
 6418SOL     OW30712   2.613   3.604  11.178 -0.2051 -0.5044  0.5796
 6418SOL    HW130713   2.619   3.605  11.273  0.1702  1.4718  0.5176
 6418SOL    HW230714   2.674   3.673  11.151 -2.4691  1.0480 -0.5736
 6419SOL     OW30715   0.926   0.792   4.410 -0.0095  0.5626  0.1319
 6419SOL    HW130716   0.870   0.786   4.487  0.6512 -0.5839  0.5175
 6419SOL    HW230717   0.881   0.733   4.349  2.6293 -0.8932 -0.4229
 6420SOL     OW30718   2.732   2.358   8.642 -0.2572 -0.0143 -0.4032
 6420SOL    HW130719   2.751   2.435   8.589  1.2939 -0.9564 -1.2281
 6420SOL    HW230720   2.805   2.298   8.625 -0.6255  0.0420 -2.1288
 6421SOL     OW30721   2.135   4.193   1.410 -0.3115  0.0160 -0.0668
 6421SOL    HW130722   2.119   4.103   1.440 -0.9830  0.0458 -0.3242
 6421SOL    HW230723   2.089   4.254   1.467  2.1777 -0.2976  2.2948
 6422SOL     OW30724   0.981   4.499   5.630 -0.0510 -0.1265 -0.0160
 6422SOL    HW130725   0.918   4.459   5.689  1.7883  0.6605  2.4982
 6422SOL    HW230726   0.989   4.432   5.562  1.1144  0.3498 -0.3618
 6423SOL     OW30727   3.436   1.028   4.628  0.2128  0.2529  0.1542
 6423SOL    HW130728   3.508   0.969   4.605  1.1774  1.2629  0.6109
 6423SOL    HW230729   3.483   1.106   4.657  0.5850 -0.0970  0.4890
 6424SOL     OW30730   3.125   0.722   4.576  0.0868 -0.2431 -0.7829
 6424SOL    HW130731   3.114   0.741   4.482  3.0347  1.2292 -0.8194
 6424SOL    HW230732   3.208   0.674   4.573  0.7563  0.9391 -1.1316
 6425SOL     OW30733   1.852   4.247   3.895  0.0226 -0.8543 -0.2014
 6425SOL    HW130734   1.883   4.183   3.959 -0.1775 -0.5788  0.1760
 6425SOL    HW230735   1.897   4.324   3.930 -0.0036 -1.4687  1.1792
 6426SOL     OW30736   3.581   0.286   2.707 -0.5481 -0.1976 -0.2056
 6426SOL    HW130737   3.599   0.368   2.753 -1.0717 -2.1539  3.4572
 6426SOL    HW230738   3.649   0.280   2.640 -1.7327  2.4670 -1.6392
 6427SOL     OW30739   4.719   3.394  12.330 -0.1674  0.0246 -0.3068
 6427SOL    HW130740   4.661   3.335  12.378  2.1953 -1.6436  0.5369
 6427SOL    HW230741   4.684   3.482  12.326  0.4340  0.2183 -1.2669
 6428SOL     OW30742   4.567   3.218   6.804  0.5028  0.1435 -0.1756
 6428SOL    HW130743   4.554   3.271   6.725  0.4837 -0.8368 -0.8193
 6428SOL    HW230744   4.481   3.215   6.846  1.0025 -1.6004  0.7253
 6429SOL     OW30745   0.756   2.644   8.423  0.2246 -0.3996  0.2172
 6429SOL    HW130746   0.695   2.583   8.466  0.5933 -0.0265  1.2777
 6429SOL    HW230747   0.695   2.716   8.412  2.1430  1.3154  0.6232
 6430SOL     OW30748   0.220   2.548  10.567  0.1790 -0.1224  0.5630
 6430SOL    HW130749   0.217   2.482  10.636 -0.7962 -1.2805 -0.5648
 6430SOL    HW230750   0.126   2.561  10.556 -0.2519 -2.4765  1.5353
 6431SOL     OW30751   4.606   2.313   5.756  0.0332 -0.2457  0.2696
 6431SOL    HW130752   4.610   2.403   5.787 -1.2741 -0.2493  0.4454
 6431SOL    HW230753   4.694   2.285   5.733  0.3417 -0.2747  1.4877
 6432SOL     OW30754   3.712   4.237   3.288 -0.3221 -0.1597 -0.3445
 6432SOL    HW130755   3.784   4.271   3.342 -0.3985  0.2966 -0.5314
 6432SOL    HW230756   3.753   4.215   3.204  3.1055  3.2712  0.4041
 6433SOL     OW30757   0.686   3.721  13.222 -0.0539  0.4978 -0.1136
 6433SOL    HW130758   0.609   3.774  13.242 -0.1929  0.3708 -0.3089
 6433SOL    HW230759   0.699   3.743  13.129 -0.4642 -1.7007 -0.7114
 6434SOL     OW30760   2.923   1.278   9.084 -0.1643  0.6326  0.2854
 6434SOL    HW130761   2.872   1.247   9.159 -0.6161 -0.4764 -0.4634
 6434SOL    HW230762   2.930   1.372   9.097 -2.9200  0.8641  0.2330
 6435SOL     OW30763   0.196   1.908  17.432 -0.1373  0.1849 -0.3000
 6435SOL    HW130764   0.190   1.855  17.512 -1.5342 -1.2562 -1.3566
 6435SOL    HW230765   0.290   1.927  17.436  0.0757 -0.9052  0.0714
 6436SOL     OW30766   3.522   2.071   8.253 -0.4887  0.0456 -0.2999
 6436SOL    HW130767   3.578   2.060   8.330 -1.8099 -0.9885  0.5054
 6436SOL    HW230768   3.529   1.981   8.220  1.0265 -0.0886  0.3632
 6437SOL     OW30769   0.593   3.538   8.832 -0.0910 -0.6941  0.9886
 6437SOL    HW130770   0.550   3.460   8.797 -2.4586  0.2672  1.7812
 6437SOL    HW230771   0.537   3.593   8.777 -0.5251 -1.0697  1.0572
 6438SOL     OW30772   3.064   3.894   6.102  0.8608 -0.3507 -0.2199
 6438SOL    HW130773   3.082   3.958   6.033 -0.3260  1.0272  0.7699
 6438SOL    HW230774   3.082   3.814   6.051 -0.5991 -1.1772  0.5480
 6439SOL     OW30775   3.825   0.744   8.721 -1.2372  0.5088 -0.1412
 6439SOL    HW130776   3.906   0.779   8.686 -1.0578  1.4786  1.2395
 6439SOL    HW230777   3.777   0.818   8.757  0.3630  1.3383  0.2850
 6440SOL     OW30778   2.081   4.042   3.589  0.3216 -0.5302  0.7855
 6440SOL    HW130779   2.012   3.975   3.592 -0.1425 -0.0818  0.1167
 6440SOL    HW230780   2.159   3.998   3.623  1.5629 -0.7482 -2.3338
 6441SOL     OW30781   4.218   4.574   9.853  0.4156 -0.7103  0.0190
 6441SOL    HW130782   4.136   4.623   9.864  0.3987 -1.2215  2.3326
 6441SOL    HW230783   4.248   4.567   9.944 -0.4447  1.3835  0.4681
 6442SOL     OW30784   4.616   1.291  13.643 -0.5145  0.2685  0.4901
 6442SOL    HW130785   4.629   1.342  13.723 -1.4355  0.2238  0.6673
 6442SOL    HW230786   4.558   1.221  13.673 -1.4174  0.7117 -0.2183
 6443SOL     OW30787   2.714   1.703  16.841 -0.2825  0.3020  0.4992
 6443SOL    HW130788   2.697   1.736  16.753 -0.1981  0.4713  0.5455
 6443SOL    HW230789   2.644   1.641  16.860  1.0327 -1.6452 -1.1640
 6444SOL     OW30790   3.491   1.290   2.809 -0.3598  0.5943  0.3465
 6444SOL    HW130791   3.551   1.319   2.878  0.9368 -0.8268 -0.1848
 6444SOL    HW230792   3.519   1.342   2.734  2.5781 -0.1785  0.9192
 6445SOL     OW30793   4.299   1.235  15.295  0.9070  0.2416 -0.0305
 6445SOL    HW130794   4.233   1.191  15.242  0.5056 -0.6292  1.1828
 6445SOL    HW230795   4.251   1.253  15.376  0.5887 -0.5998 -0.0252
 6446SOL     OW30796   2.030   2.736   2.905  0.0377  0.1261  0.2039
 6446SOL    HW130797   2.013   2.691   2.823  0.7903 -1.1861  0.7651
 6446SOL    HW230798   2.103   2.786   2.868  1.1247 -0.9371  0.9154
 6447SOL     OW30799   1.542   2.278   0.279  0.1036 -0.3370  0.5240
 6447SOL    HW130800   1.521   2.186   0.263 -2.2142  0.5409 -1.4977
 6447SOL    HW230801   1.457   2.304   0.315 -0.0853 -2.3594  1.5647
 6448SOL     OW30802   1.019   3.240  10.001  0.0196  0.1057  0.0037
 6448SOL    HW130803   0.954   3.293  10.046 -1.7257 -2.5111  0.5634
 6448SOL    HW230804   1.052   3.295   9.930 -1.1311  1.1517  0.2775
 6449SOL     OW30805   2.427   3.022   4.175 -0.0588 -0.4424  0.1988
 6449SOL    HW130806   2.436   3.006   4.269 -0.3190 -0.1289  0.2770
 6449SOL    HW230807   2.395   2.938   4.144 -1.7942 -0.2780  1.5232
 6450SOL     OW30808   0.355   2.535   4.101  0.3483  0.0169 -0.3873
 6450SOL    HW130809   0.278   2.523   4.155  0.9860  0.8829  0.7126
 6450SOL    HW230810   0.422   2.560   4.165  0.2165 -0.8231  0.0719
 6451SOL     OW30811   1.328   4.547   1.998 -0.2860  0.7293 -0.8209
 6451SOL    HW130812   1.272   4.553   1.921 -0.1711  1.3096 -0.8584
 6451SOL    HW230813   1.403   4.603   1.979 -0.0804  0.5122 -0.6482
 6452SOL     OW30814   2.346   2.248   6.790 -0.0088  0.4872 -0.3384
 6452SOL    HW130815   2.427   2.282   6.828 -1.8061  1.0978  2.8600
 6452SOL    HW230816   2.276   2.255   6.855  0.7552  0.2904  0.5046
 6453SOL     OW30817   4.368   3.979   3.876  0.2817 -0.1397 -0.0842
 6453SOL    HW130818   4.361   3.905   3.816 -2.0764 -0.0346  0.0507
 6453SOL    HW230819   4.346   3.929   3.955  0.2615 -0.5860 -0.3721
 6454SOL     OW30820   0.417   1.067   7.000  0.3855 -0.6598 -0.5204
 6454SOL    HW130821   0.424   1.147   7.051  0.8358 -0.6502 -0.5978
 6454SOL    HW230822   0.470   1.089   6.923 -0.7425  1.7663 -0.6074
 6455SOL     OW30823   2.941   4.162  12.023 -0.4630 -0.3251  0.4312
 6455SOL    HW130824   2.919   4.242  12.071 -1.5972  1.6265 -3.3940
 6455SOL    HW230825   2.925   4.196  11.935 -1.0793 -0.7943  0.3599
 6456SOL     OW30826   2.111   2.313   5.338 -0.5748  0.4486  0.4815
 6456SOL    HW130827   2.080   2.355   5.258 -1.6254 -0.5952  0.3429
 6456SOL    HW230828   2.200   2.348   5.340 -0.7789  0.8870  1.5317
 6457SOL     OW30829   1.008   3.194   4.091 -0.2728  0.1653  0.1417
 6457SOL    HW130830   1.077   3.129   4.079 -0.9135 -0.4766 -0.0320
 6457SOL    HW230831   1.047   3.278   4.066  1.0854 -0.8146 -1.0202
 6458SOL     OW30832   3.306   3.249   1.885 -0.2702  0.2371  0.5008
 6458SOL    HW130833   3.295   3.196   1.806 -1.1129  1.1518  0.0133
 6458SOL    HW230834   3.399   3.267   1.871 -0.3834  2.5257  2.7027
 6459SOL     OW30835   3.096   2.308  11.587  0.1735 -0.1447  0.2114
 6459SOL    HW130836   3.143   2.276  11.664 -0.5159 -2.8074 -0.5041
 6459SOL    HW230837   3.175   2.310  11.533 -1.3111 -1.4575 -1.9915
 6460SOL     OW30838   3.987   1.685  15.274 -0.1385 -0.5265 -0.4787
 6460SOL    HW130839   3.898   1.707  15.248  0.0019 -0.4759 -0.9100
 6460SOL    HW230840   4.035   1.702  15.193  0.8944 -0.2101  0.1898
 6461SOL     OW30841   4.350   1.165   0.956  0.2506  0.3217 -0.2329
 6461SOL    HW130842   4.399   1.192   1.033 -0.2142  0.7907 -0.1019
 6461SOL    HW230843   4.420   1.121   0.908  0.0886 -0.0564 -0.1245
 6462SOL     OW30844   4.351   0.582   7.258  0.0563 -0.4639  0.2374
 6462SOL    HW130845   4.395   0.597   7.175  0.2886  2.0196  0.7987
 6462SOL    HW230846   4.422   0.598   7.320 -1.4374  0.8830  1.6255
 6463SOL     OW30847   1.359   0.553   9.216  0.2233  0.2109  0.7260
 6463SOL    HW130848   1.294   0.596   9.272  0.5729  1.5642  0.0775
 6463SOL    HW230849   1.426   0.520   9.276  0.2289  0.6312  0.9528
 6464SOL     OW30850   3.170   2.337   3.056  0.1794  0.3483  0.1476
 6464SOL    HW130851   3.264   2.323   3.066 -0.0972 -0.2783  1.9170
 6464SOL    HW230852   3.158   2.275   2.983 -0.0439 -1.7514  1.9635
 6465SOL     OW30853   3.056   3.524   4.278  0.3258  0.0140 -0.2754
 6465SOL    HW130854   2.986   3.505   4.215  0.8511 -0.7090 -0.6531
 6465SOL    HW230855   3.124   3.509   4.211  1.1442  1.4517  0.2409
 6466SOL     OW30856   4.139   3.407   7.919 -0.1912  0.7524  0.0665
 6466SOL    HW130857   4.180   3.409   8.006 -1.7584 -0.5370  0.8516
 6466SOL    HW230858   4.053   3.368   7.937 -0.3816  1.8220  1.5156
 6467SOL     OW30859   0.524   2.305   2.306 -0.1148 -0.4772 -0.4153
 6467SOL    HW130860   0.431   2.297   2.331 -0.1514 -1.3975 -0.8436
 6467SOL    HW230861   0.572   2.315   2.388 -1.1694  3.5722 -0.3000
 6468SOL     OW30862   3.123   2.671  15.557 -0.3470  0.0022  0.2007
 6468SOL    HW130863   3.062   2.681  15.630 -1.4557 -0.9247 -0.6136
 6468SOL    HW230864   3.088   2.598  15.506 -2.2358 -0.8630  2.6899
 6469SOL     OW30865   3.530   2.976  14.917 -0.0412 -0.1474  0.2111
 6469SOL    HW130866   3.539   2.914  14.989 -0.8878 -1.0439 -0.4491
 6469SOL    HW230867   3.461   3.035  14.948 -0.5552 -0.7957  0.3073
 6470SOL     OW30868   0.295   0.720   6.346  0.0328  0.2524  0.8012
 6470SOL    HW130869   0.200   0.718   6.356 -0.0976 -1.5769 -0.8648
 6470SOL    HW230870   0.333   0.713   6.434 -0.7364  0.3392  1.1396
 6471SOL     OW30871   4.626   1.061   6.562  0.0609 -0.1154  0.5117
 6471SOL    HW130872   4.615   1.074   6.468  1.5612 -0.5036  0.2876
 6471SOL    HW230873   4.533   1.061   6.585  0.2741 -0.2749  1.3871
 6472SOL     OW30874   3.893   3.250   6.170 -0.4464 -0.1854 -0.2593
 6472SOL    HW130875   3.876   3.302   6.248 -0.0723  1.7578 -1.4782
 6472SOL    HW230876   3.879   3.310   6.097  2.1973 -0.1283 -0.7171
 6473SOL     OW30877   0.323   4.470   3.649  0.1177  0.0147  0.0448
 6473SOL    HW130878   0.242   4.426   3.677  0.7869 -1.1362  0.1584
 6473SOL    HW230879   0.295   4.483   3.558 -1.0377 -0.2192  0.3627
 6474SOL     OW30880   1.150   3.107  10.193 -0.0543 -0.1992 -0.0960
 6474SOL    HW130881   1.082   3.146  10.138 -1.8667 -1.5086  1.2090
 6474SOL    HW230882   1.108   3.036  10.242  1.4924 -1.2453 -0.3014
 6475SOL     OW30883   2.023   2.274  10.523  0.4819 -0.0270  0.3785
 6475SOL    HW130884   1.969   2.353  10.528  0.4550 -0.0925  1.2233
 6475SOL    HW230885   1.989   2.229  10.600 -1.7624 -0.2967 -0.7710
 6476SOL     OW30886   2.553   0.179   9.617 -0.8110 -0.3982  0.4861
 6476SOL    HW130887   2.458   0.192   9.619 -1.0232 -1.6879 -1.0716
 6476SOL    HW230888   2.574   0.089   9.642  1.9249  0.0623 -0.1683
 6477SOL     OW30889   4.485   3.554   6.893  0.5511  0.4711  0.0280
 6477SOL    HW130890   4.436   3.557   6.975 -2.8390 -1.0095 -1.9109
 6477SOL    HW230891   4.416   3.527   6.831  1.7746 -0.0091 -1.1226
 6478SOL     OW30892   0.651   1.623   6.296  0.2985 -0.0481 -0.6395
 6478SOL    HW130893   0.654   1.641   6.203 -0.9121 -0.2199 -0.7146
 6478SOL    HW230894   0.602   1.541   6.301  0.2932  0.0070  0.2423
 6479SOL     OW30895   2.281   3.824   5.445  0.5676 -0.2374 -0.3286
 6479SOL    HW130896   2.373   3.838   5.465  0.7004 -2.6867  0.7488
 6479SOL    HW230897   2.251   3.915   5.441 -1.8439 -1.1009 -1.7384
 6480SOL     OW30898   3.317   3.990   2.758 -0.4152  0.1543 -0.1161
 6480SOL    HW130899   3.300   4.076   2.719 -1.8016 -0.2049 -0.2844
 6480SOL    HW230900   3.402   4.014   2.796 -1.7688  3.5524  0.8582
 6481SOL     OW30901   1.572   1.500   1.669 -0.1661 -0.3063 -0.0700
 6481SOL    HW130902   1.508   1.470   1.603 -1.2717  0.8267  0.4881
 6481SOL    HW230903   1.589   1.423   1.723 -1.7457 -0.2155  0.5561
 6482SOL     OW30904   1.706   0.887  16.346 -0.3192  0.7408  0.5333
 6482SOL    HW130905   1.705   0.978  16.314  1.8442 -0.2032 -2.2279
 6482SOL    HW230906   1.636   0.887  16.411  1.4995  1.6389  2.4918
 6483SOL     OW30907   1.684   2.638  17.621  0.0284  0.5142  0.4960
 6483SOL    HW130908   1.720   2.574  17.682 -0.4078 -0.7323 -0.5599
 6483SOL    HW230909   1.739   2.623  17.544 -0.2956  1.8940 -0.0032
 6484SOL     OW30910   3.156   3.854   0.427 -0.0959 -0.1691 -0.6251
 6484SOL    HW130911   3.160   3.866   0.522  1.0967  2.1092 -0.9565
 6484SOL    HW230912   3.083   3.913   0.407 -0.5667 -0.5544 -0.0301
 6485SOL     OW30913   2.155   2.875   2.676 -0.0810  0.2416  0.2653
 6485SOL    HW130914   2.186   2.838   2.593 -2.3066 -1.3435  0.1396
 6485SOL    HW230915   2.238   2.901   2.715 -0.7908  0.8878  1.3285
 6486SOL     OW30916   1.056   1.150  10.019  0.6330  0.1505  0.0926
 6486SOL    HW130917   1.074   1.216   9.953  2.1601 -0.5655 -0.2160
 6486SOL    HW230918   0.962   1.158  10.032  0.3188  0.6747 -2.4942
 6487SOL     OW30919   0.595   1.467   1.451  0.0810 -0.1610 -0.7212
 6487SOL    HW130920   0.572   1.547   1.404  2.6380  0.2097 -1.3316
 6487SOL    HW230921   0.519   1.446   1.505  2.6987 -1.2756  2.5300
 6488SOL     OW30922   2.989   1.615   7.657 -0.4666 -0.5335 -0.1206
 6488SOL    HW130923   2.943   1.577   7.583 -3.4909  1.4567  0.7376
 6488SOL    HW230924   3.077   1.588   7.631 -1.0915 -1.5770 -1.1510
 6489SOL     OW30925   3.405   3.634   7.621 -0.4424  0.8904 -0.1833
 6489SOL    HW130926   3.456   3.697   7.571  0.4550 -0.2593 -0.7321
 6489SOL    HW230927   3.339   3.694   7.656 -0.5697  0.8158 -0.2939
 6490SOL     OW30928   2.805   4.375  16.763  0.3005  0.0806  0.0043
 6490SOL    HW130929   2.878   4.333  16.809  0.1651 -1.6064 -1.3396
 6490SOL    HW230930   2.743   4.304  16.780 -0.2394  0.3574 -0.8232
 6491SOL     OW30931   1.832   3.431   8.485  0.2616 -0.0287  0.1330
 6491SOL    HW130932   1.785   3.406   8.406  0.0241 -0.1894  0.3265
 6491SOL    HW230933   1.802   3.355   8.535  0.2643 -0.3435 -0.3445
 6492SOL     OW30934   3.361   0.440  11.459  0.4333 -0.4987 -0.0675
 6492SOL    HW130935   3.275   0.450  11.498 -0.0407 -4.7439 -0.0495
 6492SOL    HW230936   3.392   0.531  11.465  0.7448 -0.6864  1.3548
 6493SOL     OW30937   2.174   0.346   8.894 -0.0682 -0.1867 -0.1760
 6493SOL    HW130938   2.206   0.333   8.804  2.2060 -0.3167  0.6642
 6493SOL    HW230939   2.097   0.398   8.871 -0.8619 -0.0068  2.8568
 6494SOL     OW30940   0.588   0.731   2.775 -0.0219 -0.1973 -0.5012
 6494SOL    HW130941   0.672   0.755   2.814 -1.1072  1.1569  0.9830
 6494SOL    HW230942   0.532   0.769   2.842 -0.7101 -0.4113 -0.9551
 6495SOL     OW30943   3.219   1.783   7.103 -0.6473 -0.2992 -0.0503
 6495SOL    HW130944   3.236   1.694   7.072 -1.9217 -0.0741 -1.4254
 6495SOL    HW230945   3.276   1.793   7.179 -2.6376  2.4231  1.0997
 6496SOL     OW30946   4.155   2.617   5.037  0.1129 -0.1518  0.1970
 6496SOL    HW130947   4.148   2.521   5.035 -1.4529  0.0054 -1.9141
 6496SOL    HW230948   4.143   2.631   5.130 -0.8973  0.4159 -0.0219
 6497SOL     OW30949   0.556   3.251   7.612  0.1243 -0.7095 -0.6377
 6497SOL    HW130950   0.525   3.240   7.701  1.1125 -0.1167 -0.2188
 6497SOL    HW230951   0.642   3.290   7.629  0.7822 -1.1738 -2.7881
 6498SOL     OW30952   2.025   3.361   6.861  0.2728 -1.0354  0.1236
 6498SOL    HW130953   1.968   3.288   6.834 -0.9089 -0.4714  1.1113
 6498SOL    HW230954   2.082   3.367   6.784 -0.1494  0.2285 -0.0937
 6499SOL     OW30955   3.289   4.558   6.012 -0.1070 -0.4571  0.1251
 6499SOL    HW130956   3.292   4.476   6.061  0.1022 -1.9556 -2.3855
 6499SOL    HW230957   3.359   4.611   6.050 -3.1462  2.1092  2.2271
 6500SOL     OW30958   3.489   2.071  11.735  0.8289  0.6039 -0.2884
 6500SOL    HW130959   3.492   2.152  11.785 -0.2307  1.6388 -1.9247
 6500SOL    HW230960   3.541   2.017  11.795 -0.2809 -0.2520 -0.0906
 6501SOL     OW30961   1.702   1.315  11.387  0.4781  0.4527  0.2103
 6501SOL    HW130962   1.736   1.391  11.340 -0.9429  0.3787 -0.9012
 6501SOL    HW230963   1.662   1.364  11.458 -1.6227  0.1833 -0.7888
 6502SOL     OW30964   4.581   4.235  14.566  0.2462 -0.2608 -0.7595
 6502SOL    HW130965   4.531   4.304  14.608 -1.8524 -2.8878  1.0344
 6502SOL    HW230966   4.604   4.276  14.483  1.8238  1.6566  0.6242
 6503SOL     OW30967   3.673   2.591   6.185  0.2360  0.2941  0.3841
 6503SOL    HW130968   3.585   2.624   6.198 -0.6275 -1.6485 -0.5236
 6503SOL    HW230969   3.659   2.501   6.213  0.0455  0.1019 -0.3176
 6504SOL     OW30970   1.139   1.216   7.381  0.2983 -0.3644  0.5156
 6504SOL    HW130971   1.061   1.215   7.436 -0.7689  2.4945 -0.9361
 6504SOL    HW230972   1.209   1.200   7.444 -2.1374 -0.9084  3.0429
 6505SOL     OW30973   1.228   0.962   8.355 -0.0797 -0.1543  0.0346
 6505SOL    HW130974   1.252   0.966   8.448  0.0768 -3.1457  0.1321
 6505SOL    HW230975   1.306   0.991   8.309  0.7739 -0.9451  0.9680
 6506SOL     OW30976   1.715   0.807   6.918  0.4742 -0.0160  0.2820
 6506SOL    HW130977   1.739   0.860   6.994  0.7299 -0.7324  0.6980
 6506SOL    HW230978   1.658   0.744   6.964  2.5435  0.3602  3.3565
 6507SOL     OW30979   3.437   1.675   5.307 -0.2321 -0.0723 -0.0696
 6507SOL    HW130980   3.514   1.729   5.323 -0.2511  0.1077 -0.5891
 6507SOL    HW230981   3.419   1.697   5.216  1.5084 -1.0240 -0.6355
 6508SOL     OW30982   3.139   0.096   5.206 -0.4667 -0.0669 -0.4484
 6508SOL    HW130983   3.203   0.030   5.232  0.0170  0.4456 -0.3433
 6508SOL    HW230984   3.187   0.138   5.135 -2.3870  1.3954 -0.8740
 6509SOL     OW30985   1.065   0.312   8.282  0.0147 -0.0824  0.4422
 6509SOL    HW130986   1.070   0.391   8.228  0.6093  0.1443  0.8372
 6509SOL    HW230987   1.145   0.311   8.334 -1.6682  1.1592  3.0892
 6510SOL     OW30988   4.101   0.916   0.877 -0.5498 -0.4543  0.7323
 6510SOL    HW130989   4.024   0.907   0.821 -0.8825  0.1997  1.0883
 6510SOL    HW230990   4.082   0.987   0.938  2.6020 -0.5428  1.8391
 6511SOL     OW30991   2.225   2.381  11.543  0.8572 -0.7421  0.1406
 6511SOL    HW130992   2.298   2.357  11.601  0.9950  3.2818  1.5909
 6511SOL    HW230993   2.211   2.301  11.493  1.0783 -0.5449 -0.2347
 6512SOL     OW30994   4.341   4.686   6.701  0.2035  0.1615  0.2275
 6512SOL    HW130995   4.370   4.681   6.792 -0.1297  0.0482  0.3240
 6512SOL    HW230996   4.427   4.690   6.657 -0.1352  1.7778 -0.2937
 6513SOL     OW30997   4.015   0.163   7.217 -0.5316  0.2018 -0.1255
 6513SOL    HW130998   4.105   0.140   7.239 -0.5437 -1.4915 -1.8723
 6513SOL    HW230999   4.023   0.255   7.242  0.6127  0.0130  0.2006
 6514SOL     OW31000   0.631   4.244   6.057 -0.1525 -0.3801 -0.0423
 6514SOL    HW131001   0.716   4.270   6.093 -0.9448 -1.3583  2.5207
 6514SOL    HW231002   0.611   4.173   6.118  0.8326  1.0811  1.9964
 6515SOL     OW31003   2.344   2.519   7.574  0.2143 -0.2186  0.1902
 6515SOL    HW131004   2.431   2.548   7.601  0.5523 -1.3386  0.3058
 6515SOL    HW231005   2.322   2.448   7.634  1.8077 -0.7076  0.1965
 6516SOL     OW31006   3.121   0.087   8.470  0.5438 -0.5084 -0.4409
 6516SOL    HW131007   3.156   0.030   8.401  2.2999 -0.3778  0.3214
 6516SOL    HW231008   3.055   0.031   8.510  1.2049 -0.1945  1.1030
 6517SOL     OW31009   1.521   1.657   1.416  0.1980 -0.0935 -0.5589
 6517SOL    HW131010   1.490   1.572   1.445  2.9609 -0.8845  0.0496
 6517SOL    HW231011   1.548   1.639   1.326  0.8857  3.5618 -1.0753
 6518SOL     OW31012   4.462   0.330   0.661 -0.1725 -0.2327 -0.5283
 6518SOL    HW131013   4.370   0.328   0.635 -0.3319  0.3398 -0.0243
 6518SOL    HW231014   4.502   0.336   0.574  0.8612  1.4899  0.0552
 6519SOL     OW31015   1.081   1.532  15.256 -0.2087 -0.3214  0.1466
 6519SOL    HW131016   1.008   1.484  15.217 -0.1384  0.1987 -0.6112
 6519SOL    HW231017   1.037   1.611  15.287 -0.7855  0.1507 -1.8967
 6520SOL     OW31018   0.673   3.713   5.207  0.2027 -0.0445 -0.3132
 6520SOL    HW131019   0.666   3.730   5.113 -2.2304 -0.2006 -0.1693
 6520SOL    HW231020   0.632   3.797   5.228  0.6565 -0.5663  2.6741
 6521SOL     OW31021   0.345   3.829   6.404  0.3469  0.3778 -0.4891
 6521SOL    HW131022   0.382   3.774   6.473  0.2992  2.4721  1.2082
 6521SOL    HW231023   0.389   3.911   6.426  2.3293 -0.7069 -0.4180
 6522SOL     OW31024   4.669   4.514   5.994  0.4897  0.6025  0.0796
 6522SOL    HW131025   4.591   4.461   6.012  0.3054  1.0919  0.7092
 6522SOL    HW231026   4.637   4.604   5.992 -1.9849 -0.2885  0.0689
 6523SOL     OW31027   1.793   0.330   6.282  0.2950 -0.0765 -0.2635
 6523SOL    HW131028   1.763   0.274   6.353  1.0575  1.4996  1.3132
 6523SOL    HW231029   1.853   0.393   6.322  0.2943  0.6527 -1.3795
 6524SOL     OW31030   1.064   3.138  10.980 -0.3502 -0.5308 -0.0036
 6524SOL    HW131031   1.012   3.062  10.956 -0.2556 -0.4645 -0.4083
 6524SOL    HW231032   1.033   3.148  11.070  1.0472  0.0935  0.4087
 6525SOL     OW31033   1.264   1.578   9.830  0.3298  0.1684 -0.0055
 6525SOL    HW131034   1.359   1.572   9.829  0.2142 -1.8557  1.6756
 6525SOL    HW231035   1.244   1.570   9.923 -2.4009  1.7761 -0.4524
 6526SOL     OW31036   0.804   1.341   5.018  0.3299  0.3579 -0.0256
 6526SOL    HW131037   0.799   1.273   5.085 -3.7235  0.7696  0.1014
 6526SOL    HW231038   0.886   1.324   4.973 -0.1673  1.1071 -1.2165
 6527SOL     OW31039   0.324   3.005   0.758 -0.8024 -0.0872 -0.0390
 6527SOL    HW131040   0.265   3.081   0.753 -0.0756  0.2934 -2.7364
 6527SOL    HW231041   0.354   2.999   0.848 -2.9843 -0.4732  0.6725
 6528SOL     OW31042   3.363   3.428   6.894  0.4864  0.2412  0.2129
 6528SOL    HW131043   3.296   3.443   6.961  0.4316 -0.0858  0.2306
 6528SOL    HW231044   3.424   3.501   6.908 -0.0957  0.9735 -1.0602
 6529SOL     OW31045   0.054   0.763   1.628 -0.0630  0.0753  0.5364
 6529SOL    HW131046   0.085   0.827   1.564  0.5991 -1.9082 -1.1263
 6529SOL    HW231047   0.075   0.680   1.584 -0.6995  0.5914 -0.7308
 6530SOL     OW31048   1.735   3.551   1.896  0.5001  0.3254 -0.6800
 6530SOL    HW131049   1.677   3.488   1.853  2.2151 -0.5241 -1.7540
 6530SOL    HW231050   1.763   3.508   1.977 -0.8886  3.0097  1.1952
 6531SOL     OW31051   0.239   0.459   3.348 -0.5382 -0.0137 -0.5001
 6531SOL    HW131052   0.272   0.490   3.264 -3.3965  1.3762 -1.1240
 6531SOL    HW231053   0.270   0.520   3.415  0.3350 -1.6952  0.6084
 6532SOL     OW31054   3.279   0.739   5.028  0.5704  0.4261 -0.1428
 6532SOL    HW131055   3.348   0.804   5.019 -0.6424  1.7924  0.3822
 6532SOL    HW231056   3.230   0.763   4.949  1.9242  0.3366 -0.9988
 6533SOL     OW31057   0.829   2.286   9.435  0.0983 -0.3889 -0.3568
 6533SOL    HW131058   0.763   2.347   9.402  1.8922  0.2706 -2.6700
 6533SOL    HW231059   0.911   2.335   9.438  0.0746 -0.3966  0.4987
 6534SOL     OW31060   4.202   3.647   8.989  0.1051 -0.1573  0.4000
 6534SOL    HW131061   4.213   3.572   8.930  0.1861 -1.5108  2.1170
 6534SOL    HW231062   4.262   3.711   8.950 -0.0473  0.7009  1.6113
 6535SOL     OW31063   1.738   3.148   5.388  0.3320 -0.1575 -0.2302
 6535SOL    HW131064   1.694   3.195   5.317 -1.5529 -1.7462 -0.1040
 6535SOL    HW231065   1.767   3.225   5.438 -0.1773 -0.5441  0.6641
 6536SOL     OW31066   0.662   3.925   8.589 -0.0874 -0.0673 -0.1611
 6536SOL    HW131067   0.571   3.950   8.571  0.0797 -0.8969 -2.1825
 6536SOL    HW231068   0.691   4.006   8.631 -0.2887  0.5542 -1.2137
 6537SOL     OW31069   1.409   3.673  14.953  0.4935  0.1081  0.3311
 6537SOL    HW131070   1.420   3.726  15.033 -1.3400 -2.3925  2.2485
 6537SOL    HW231071   1.445   3.587  14.973  0.8637  0.0762 -0.5052
 6538SOL     OW31072   1.781   0.299   9.694 -0.8018  0.1010  0.4800
 6538SOL    HW131073   1.705   0.355   9.710 -0.6023  1.3456 -2.8335
 6538SOL    HW231074   1.741   0.213   9.710 -1.4274  0.4549  0.8429
 6539SOL     OW31075   1.623   1.847   7.754 -0.1576 -0.4308 -0.1019
 6539SOL    HW131076   1.577   1.878   7.832  1.2185 -1.6146  1.1606
 6539SOL    HW231077   1.593   1.757   7.750 -2.5327  0.1123  5.9027
 6540SOL     OW31078   1.809   1.248   4.882  0.5390 -0.5222 -0.0370
 6540SOL    HW131079   1.766   1.198   4.952  0.2990 -0.0818  0.1334
 6540SOL    HW231080   1.734   1.250   4.823  0.9318 -0.1333 -0.5240
 6541SOL     OW31081   1.897   1.427  16.499 -0.0307  0.2332 -0.0204
 6541SOL    HW131082   1.972   1.379  16.534 -0.2719  1.4117  2.0773
 6541SOL    HW231083   1.921   1.519  16.508 -0.6876  0.4109 -0.1061
 6542SOL     OW31084   2.206   2.505   7.300 -0.6764 -0.3835  0.1601
 6542SOL    HW131085   2.196   2.561   7.223  2.1581 -1.3876 -0.9501
 6542SOL    HW231086   2.272   2.547   7.357 -0.1025  0.6718 -1.2779
 6543SOL     OW31087   0.021   2.982  14.446  0.6349  0.6969  0.1417
 6543SOL    HW131088   4.717   3.072  14.431 -1.5698 -0.1321 -0.7695
 6543SOL    HW231089   0.116   2.985  14.435  0.8951 -1.4027  1.8904
 6544SOL     OW31090   3.000   1.588   2.152  0.5655 -0.8386 -0.5594
 6544SOL    HW131091   3.005   1.675   2.112  1.0281  0.3567  2.1297
 6544SOL    HW231092   3.050   1.609   2.230 -0.1420 -0.0738 -0.3165
 6545SOL     OW31093   2.733   4.499  15.228 -0.1042  0.1914 -0.0667
 6545SOL    HW131094   2.795   4.546  15.285 -0.5631 -0.3161  0.8502
 6545SOL    HW231095   2.663   4.563  15.223  0.8854  1.2930  0.1408
 6546SOL     OW31096   3.275   1.741  14.246 -0.3401 -0.1089 -0.0623
 6546SOL    HW131097   3.352   1.701  14.286 -0.4661 -0.0346  0.2506
 6546SOL    HW231098   3.228   1.663  14.275  1.0452 -0.9768 -0.1548
 6547SOL     OW31099   2.824   3.818   1.098 -0.4154  0.2940  0.3125
 6547SOL    HW131100   2.860   3.730   1.112  0.5570  0.3129 -2.0197
 6547SOL    HW231101   2.777   3.801   1.017 -1.0606 -0.7833  0.9188
 6548SOL     OW31102   1.473   0.344  10.016  0.0592  0.1256  0.4614
 6548SOL    HW131103   1.548   0.301  10.058  0.4522 -1.5520 -1.8998
 6548SOL    HW231104   1.448   0.391  10.095  0.1768  0.9952 -0.0252
 6549SOL     OW31105   1.221   1.401   4.808 -0.2446  0.1805 -0.6116
 6549SOL    HW131106   1.150   1.456   4.774 -0.7690  0.1430  0.4219
 6549SOL    HW231107   1.202   1.411   4.901 -3.4434  0.2465 -1.2776
 6550SOL     OW31108   2.430   4.582   0.677  0.1667 -0.2974 -0.1200
 6550SOL    HW131109   2.389   4.504   0.716 -0.8430 -0.2929 -1.1795
 6550SOL    HW231110   2.396   4.578   0.588 -0.1770 -0.3332  0.0108
 6551SOL     OW31111   0.606   2.086   4.790 -0.0821 -0.5256 -0.2382
 6551SOL    HW131112   0.586   2.056   4.701 -0.0048 -0.4487 -0.2811
 6551SOL    HW231113   0.562   2.171   4.791 -0.5972 -0.7833 -0.8823
 6552SOL     OW31114   2.044   1.119   1.738 -0.0932  0.5092 -0.5306
 6552SOL    HW131115   2.046   1.187   1.672  2.0461  0.5676 -0.3990
 6552SOL    HW231116   1.976   1.058   1.708  1.1814 -0.0255 -2.2560
 6553SOL     OW31117   4.115   0.069   1.107 -0.1150 -0.8927  0.6046
 6553SOL    HW131118   4.030   0.025   1.095 -0.2204 -0.6309  0.4073
 6553SOL    HW231119   4.105   0.148   1.055  2.8747 -0.2802  0.9842
 6554SOL     OW31120   2.905   0.766   6.712  0.1168 -0.3920  0.6401
 6554SOL    HW131121   2.945   0.851   6.694  1.4251 -0.4347  3.4621
 6554SOL    HW231122   2.845   0.780   6.785 -1.4115 -1.3726 -0.4163
 6555SOL     OW31123   4.173   3.231   6.132 -0.1501 -0.1013  0.5460
 6555SOL    HW131124   4.204   3.292   6.066  0.3380 -0.3531  0.5405
 6555SOL    HW231125   4.085   3.205   6.104 -0.6645  1.2615  0.9114
 6556SOL     OW31126   3.153   2.128   1.056  0.0257 -0.2159  0.1122
 6556SOL    HW131127   3.171   2.204   1.000 -0.2006  0.5255  1.0491
 6556SOL    HW231128   3.100   2.072   0.999 -0.5447  0.9333 -0.4696
 6557SOL     OW31129   0.830   2.377   2.818 -0.4910  1.1329 -0.3086
 6557SOL    HW131130   0.916   2.392   2.855 -0.8124 -0.1781  0.9515
 6557SOL    HW231131   0.801   2.465   2.791  1.3813  1.5091 -1.0498
 6558SOL     OW31132   0.107   1.123   2.172  0.3640 -0.0118 -0.3650
 6558SOL    HW131133   0.024   1.113   2.125 -0.4026 -1.7411  1.3898
 6558SOL    HW231134   0.125   1.031   2.189  0.0034 -0.2056 -1.0219
 6559SOL     OW31135   1.769   1.818  15.549 -0.0534  0.4383  0.1003
 6559SOL    HW131136   1.821   1.743  15.576  1.2404  1.1151 -0.5310
 6559SOL    HW231137   1.828   1.873  15.498 -1.2237  0.4329 -1.2834
 6560SOL     OW31138   3.265   3.040  13.665 -0.0484 -0.3527  0.0568
 6560SOL    HW131139   3.318   3.061  13.588 -0.6469  1.5940  0.1772
 6560SOL    HW231140   3.181   3.084  13.654 -0.6731 -1.1051  1.8759
 6561SOL     OW31141   0.078   3.861   9.112  0.1069 -0.2841 -0.6091
 6561SOL    HW131142   4.713   3.871   9.078  1.6262  2.1615 -3.9191
 6561SOL    HW231143   0.081   3.946   9.154  1.9372 -1.2684  1.2777
 6562SOL     OW31144   1.346   0.034   7.454  0.7400 -0.0470 -0.0526
 6562SOL    HW131145   1.342   4.668   7.421  4.7790 -0.4923  0.5841
 6562SOL    HW231146   1.300   0.080   7.383  0.0348 -2.4109 -1.1256
 6563SOL     OW31147   1.451   4.501   7.081  0.0316  0.0634 -0.8695
 6563SOL    HW131148   1.479   4.582   7.125 -1.8244 -0.9493  2.1459
 6563SOL    HW231149   1.526   4.443   7.092  1.2538  2.1111  1.8142
 6564SOL     OW31150   2.084   0.382   9.562  0.7657  0.2328 -0.0440
 6564SOL    HW131151   2.170   0.347   9.582  1.9102  3.4027  0.5586
 6564SOL    HW231152   2.064   0.354   9.472  2.0341 -2.1625  0.4162
 6565SOL     OW31153   3.782   0.276   8.836  0.1472  0.1819 -0.1750
 6565SOL    HW131154   3.812   0.340   8.900 -1.1167  0.0492  0.5474
 6565SOL    HW231155   3.809   0.330   8.762 -0.1334 -2.2360 -2.0682
 6566SOL     OW31156   1.546   3.139   4.078  0.1278  0.4141 -0.8338
 6566SOL    HW131157   1.474   3.083   4.049 -0.8237  1.0662  0.2790
 6566SOL    HW231158   1.514   3.228   4.061 -2.0032  0.0363  1.1390
 6567SOL     OW31159   4.397   3.690  11.877  0.2267  0.0170  0.5378
 6567SOL    HW131160   4.422   3.627  11.809  0.6024  2.0123 -1.1839
 6567SOL    HW231161   4.393   3.631  11.952  0.0310  0.7046  1.0681
 6568SOL     OW31162   2.934   1.740   8.500 -0.0514 -0.5407  0.3422
 6568SOL    HW131163   2.994   1.812   8.519 -0.2270  0.1176 -1.5756
 6568SOL    HW231164   2.879   1.781   8.433 -0.7262 -2.1293 -0.0569
 6569SOL     OW31165   4.023   0.573   3.438  0.0259  0.3642 -0.2812
 6569SOL    HW131166   3.977   0.489   3.440 -0.2364  0.5273  1.0893
 6569SOL    HW231167   3.949   0.630   3.417 -1.0876 -1.2612 -0.8324
 6570SOL     OW31168   4.319   0.381   9.994 -0.0839 -0.2191 -0.5101
 6570SOL    HW131169   4.351   0.303   9.949 -0.4304 -0.8084  0.2593
 6570SOL    HW231170   4.331   0.353  10.085  1.7643 -1.0085 -1.0034
 6571SOL     OW31171   0.761   1.153   6.386  0.1056  0.1407  0.3713
 6571SOL    HW131172   0.715   1.076   6.354 -3.2223  2.1978  0.2027
 6571SOL    HW231173   0.844   1.112   6.411  1.0858  0.7672 -1.8413
 6572SOL     OW31174   4.386   1.983   3.183  0.3995  0.2373  0.0488
 6572SOL    HW131175   4.445   2.046   3.142  0.9646  0.8953  1.8916
 6572SOL    HW231176   4.352   2.047   3.246 -0.3995 -2.3749  2.2412
 6573SOL     OW31177   3.375   1.434  12.913  0.0258  0.4952  0.1816
 6573SOL    HW131178   3.282   1.436  12.936 -0.7053  0.9311 -2.8837
 6573SOL    HW231179   3.414   1.399  12.994 -1.1110  0.0964  0.5546
 6574SOL     OW31180   2.002   3.826  12.299  0.0083  0.7136  0.5030
 6574SOL    HW131181   2.038   3.826  12.387 -1.4136 -0.9721  1.0939
 6574SOL    HW231182   1.920   3.876  12.305  0.1665  0.8576  1.3596
 6575SOL     OW31183   1.638   1.254   1.798  0.0357 -0.1498  0.5554
 6575SOL    HW131184   1.709   1.232   1.858 -0.4230 -0.0847  1.1199
 6575SOL    HW231185   1.614   1.175   1.751 -2.1970  1.1487 -0.4798
 6576SOL     OW31186   4.313   1.728   4.085 -0.0681 -0.0559 -0.7022
 6576SOL    HW131187   4.347   1.783   4.155 -0.4896 -1.9159  0.9303
 6576SOL    HW231188   4.361   1.758   4.008  1.4755 -1.6202 -0.3344
 6577SOL     OW31189   1.132   3.874   3.388 -0.1665 -0.2764 -0.4610
 6577SOL    HW131190   1.134   3.957   3.434 -1.2439 -0.0819 -0.7632
 6577SOL    HW231191   1.207   3.824   3.422 -1.8438 -3.4039 -1.3483
 6578SOL     OW31192   2.923   2.900  11.260 -0.1986 -0.9238 -0.4647
 6578SOL    HW131193   2.957   2.927  11.174 -0.0659  3.3590  0.9319
 6578SOL    HW231194   2.917   2.809  11.232 -0.8801 -0.8883 -0.4189
 6579SOL     OW31195   3.212   4.204   8.298 -0.5815 -0.2080 -0.1948
 6579SOL    HW131196   3.244   4.287   8.260 -1.8330  0.1231 -0.5071
 6579SOL    HW231197   3.171   4.165   8.221  0.0410  2.8532 -2.0844
 6580SOL     OW31198   4.171   4.660   6.143 -0.6994 -0.2926 -0.3144
 6580SOL    HW131199   4.190   4.699   6.057  2.6967 -1.3945 -0.0851
 6580SOL    HW231200   4.214   4.718   6.205 -0.3475 -0.7758 -0.1022
 6581SOL     OW31201   0.414   2.201   3.582  0.3243  0.3865 -0.1420
 6581SOL    HW131202   0.462   2.121   3.562  0.7781  1.0750 -1.8389
 6581SOL    HW231203   0.326   2.162   3.583 -0.3561  1.9506  1.1516
 6582SOL     OW31204   0.939   1.628  13.146 -0.1949 -0.2074 -0.3910
 6582SOL    HW131205   1.015   1.659  13.096  0.1186  0.9820  0.8164
 6582SOL    HW231206   0.935   1.677  13.228  1.4848  0.7195 -0.8645
 6583SOL     OW31207   4.593   0.930  13.947 -0.2546  0.1060  0.0063
 6583SOL    HW131208   4.505   0.904  13.976  0.3665 -2.4443 -0.3847
 6583SOL    HW231209   4.623   0.858  13.891  2.5118  3.0923 -2.3221
 6584SOL     OW31210   3.191   0.606   5.366 -0.8241 -0.2647  0.0198
 6584SOL    HW131211   3.129   0.647   5.307 -0.8899  0.3827  0.5432
 6584SOL    HW231212   3.168   0.513   5.365  1.6731 -0.8963 -0.8843
 6585SOL     OW31213   1.717   2.706   6.805 -0.2682  0.2499  0.1805
 6585SOL    HW131214   1.690   2.750   6.886 -2.5274 -2.1426  0.6780
 6585SOL    HW231215   1.639   2.655   6.785 -0.5664  0.9954 -0.5378
 6586SOL     OW31216   0.251   2.188   4.401 -0.7404 -0.4859 -0.1715
 6586SOL    HW131217   0.259   2.109   4.346 -0.5590  0.9490 -2.2041
 6586SOL    HW231218   0.296   2.159   4.481 -2.8797  0.3341  1.3110
 6587SOL     OW31219   3.510   3.442   5.778 -0.5077 -0.1614  0.0455
 6587SOL    HW131220   3.458   3.507   5.730 -2.1058  1.1082  3.5084
 6587SOL    HW231221   3.545   3.384   5.711  0.9765  2.2337 -1.2455
 6588SOL     OW31222   0.891   4.564  16.551 -0.2919  0.2488  0.2068
 6588SOL    HW131223   0.816   4.596  16.499 -0.1289  1.0829  0.4859
 6588SOL    HW231224   0.925   4.645  16.590 -0.5575  1.1985 -1.5100
 6589SOL     OW31225   0.198   2.946  12.147 -0.0137  0.4609 -0.6343
 6589SOL    HW131226   0.259   2.943  12.074 -1.7295  0.0767 -2.0562
 6589SOL    HW231227   0.152   3.030  12.137  1.0746  1.3079  1.5614
 6590SOL     OW31228   1.586   3.319  17.574 -0.6599 -0.1885  0.0808
 6590SOL    HW131229   1.679   3.339  17.582 -0.9742  1.4732 -0.4498
 6590SOL    HW231230   1.590   3.232  17.614  0.3020  0.6554  1.8105
 6591SOL     OW31231   2.412   4.368  10.805 -0.5497  0.0164  0.2086
 6591SOL    HW131232   2.450   4.394  10.889  0.0041 -1.3687  0.3866
 6591SOL    HW231233   2.459   4.287  10.789 -0.1931  0.3810 -0.5921
 6592SOL     OW31234   1.855   2.363   8.359 -1.0533  0.2995  0.1316
 6592SOL    HW131235   1.950   2.359   8.357 -1.0726 -0.5055  0.4763
 6592SOL    HW231236   1.834   2.284   8.309 -0.2430  0.4054 -0.3627
 6593SOL     OW31237   1.251   0.617   9.478  1.0788 -0.0204  0.2648
 6593SOL    HW131238   1.263   0.526   9.505 -3.4206 -0.4369  0.8511
 6593SOL    HW231239   1.242   0.662   9.562 -0.8596 -1.7847  1.0046
 6594SOL     OW31240   0.876   2.024   5.482  0.2403  0.2903 -0.4074
 6594SOL    HW131241   0.947   2.026   5.417  1.7788 -1.2611  1.1907
 6594SOL    HW231242   0.794   2.014   5.433  0.3183 -1.0541 -0.2839
 6595SOL     OW31243   2.130   1.206   3.662 -0.0597 -0.5910 -0.1323
 6595SOL    HW131244   2.043   1.167   3.652 -0.9442  1.1287  0.8781
 6595SOL    HW231245   2.112   1.300   3.661  1.9347 -0.2187 -0.5574
 6596SOL     OW31246   0.138   3.895  15.568 -0.0751  0.0635  0.1016
 6596SOL    HW131247   0.214   3.850  15.532  0.3806 -0.6642  1.9690
 6596SOL    HW231248   0.159   3.982  15.532  0.3405 -1.4618 -3.2984
 6597SOL     OW31249   1.955   2.506   1.867 -0.5368 -0.3492  0.6206
 6597SOL    HW131250   1.942   2.554   1.949 -1.6371 -0.4175  0.4960
 6597SOL    HW231251   2.015   2.438   1.896 -1.5409 -1.5756 -0.1343
 6598SOL     OW31252   3.554   0.364   4.009 -0.7028 -0.5711 -0.2173
 6598SOL    HW131253   3.505   0.282   4.012 -1.2193 -0.2949 -1.1396
 6598SOL    HW231254   3.617   0.342   4.078 -0.0433  2.1150  0.0557
 6599SOL     OW31255   1.487   4.102  17.367 -0.2015 -0.1925  0.6738
 6599SOL    HW131256   1.466   4.180  17.419 -0.5800  0.7981 -0.9629
 6599SOL    HW231257   1.433   4.033  17.405 -1.3173  2.0940  3.2720
 6600SOL     OW31258   1.154   4.695   5.716  0.4718 -0.5410 -0.2463
 6600SOL    HW131259   1.100   0.018   5.780  0.9397  1.6350 -1.4556
 6600SOL    HW231260   1.086   4.631   5.693 -2.0593  1.8122  0.7311
 6601SOL     OW31261   0.748   3.372  15.203  0.1461 -0.0122  0.1773
 6601SOL    HW131262   0.754   3.318  15.123  0.5541 -0.0347  0.2255
 6601SOL    HW231263   0.776   3.457  15.170 -1.1996 -0.5217 -2.3143
 6602SOL     OW31264   1.403   4.574  14.217  0.2387  0.2344 -0.1577
 6602SOL    HW131265   1.328   4.626  14.189 -1.0589 -0.2447  2.4824
 6602SOL    HW231266   1.420   4.518  14.141  0.4419 -0.8900  0.7189
 6603SOL     OW31267   0.850   0.816   2.792 -0.0925 -0.1822  0.0981
 6603SOL    HW131268   0.929   0.829   2.845  1.6691 -1.0472 -2.2800
 6603SOL    HW231269   0.858   0.891   2.733 -1.8471  1.5917  2.1822
 6604SOL     OW31270   2.073   3.252   8.776 -0.0812  1.1986 -0.1337
 6604SOL    HW131271   2.019   3.175   8.794  1.0264  0.7131  1.0809
 6604SOL    HW231272   2.141   3.211   8.724  0.5443 -1.1587  2.5093
 6605SOL     OW31273   1.212   3.911  11.751 -0.0210 -0.1292  0.2792
 6605SOL    HW131274   1.129   3.953  11.728  0.7945  0.8916 -0.8344
 6605SOL    HW231275   1.232   3.941  11.839 -1.2141  0.1518  0.4570
 6606SOL     OW31276   3.639   2.371   8.118  0.4720  0.5682 -0.4463
 6606SOL    HW131277   3.683   2.318   8.184  0.0039  1.4283  0.5534
 6606SOL    HW231278   3.625   2.302   8.053  2.3733 -0.1092 -0.1341
 6607SOL     OW31279   0.243   2.646   2.495 -0.7101 -0.6410  0.0407
 6607SOL    HW131280   0.187   2.649   2.573  0.6609  1.1147  0.9373
 6607SOL    HW231281   0.209   2.720   2.446  2.1081  0.7609  0.2693
 6608SOL     OW31282   2.958   3.642   1.914  0.4902  0.0848 -0.0689
 6608SOL    HW131283   2.981   3.684   1.997  0.2391  2.0541 -0.9875
 6608SOL    HW231284   3.049   3.618   1.897  0.8906  3.3408 -2.6429
 6609SOL     OW31285   2.676   0.904   5.307 -0.0338  0.1368  0.3543
 6609SOL    HW131286   2.654   0.906   5.401  0.1401  2.2331  0.3540
 6609SOL    HW231287   2.638   0.821   5.280 -1.1320  0.6248  0.4063
 6610SOL     OW31288   1.607   0.723   4.678 -0.2308 -0.1931  0.0616
 6610SOL    HW131289   1.582   0.721   4.770  3.5431  4.2474  1.1483
 6610SOL    HW231290   1.541   0.785   4.647  1.4748  1.4138 -0.3477
 6611SOL     OW31291   0.214   1.553  11.416 -0.7111  0.0943  0.2001
 6611SOL    HW131292   0.236   1.529  11.507  0.5378  1.7486  0.3302
 6611SOL    HW231293   0.125   1.588  11.420 -0.5452  0.5774 -0.4022
 6612SOL     OW31294   1.553   0.965   3.659 -0.0284 -0.1064 -0.0873
 6612SOL    HW131295   1.621   1.031   3.647 -0.2294  0.1189  0.0184
 6612SOL    HW231296   1.554   0.902   3.587 -1.2272 -1.9946  1.5598
 6613SOL     OW31297   0.204   0.120   5.225  0.1422 -0.1919  0.1295
 6613SOL    HW131298   0.208   0.211   5.256 -1.3044  0.7817 -2.5699
 6613SOL    HW231299   0.140   0.074   5.279 -0.8839  1.0649 -0.0109
 6614SOL     OW31300   0.025   0.667   4.695  0.0395 -0.1426 -0.1220
 6614SOL    HW131301   0.057   0.592   4.745 -1.3809 -0.7520 -0.1487
 6614SOL    HW231302   4.659   0.642   4.675 -0.5196  1.0481  0.9208
 6615SOL     OW31303   1.003   1.613   5.201  0.3272  0.0473 -0.3026
 6615SOL    HW131304   0.908   1.606   5.196  0.2828  2.5392 -3.3019
 6615SOL    HW231305   1.024   1.701   5.168  0.5090  0.1921  0.2045
 6616SOL     OW31306   2.600   0.603  15.631  0.4824  0.0177  0.2399
 6616SOL    HW131307   2.665   0.672  15.640 -0.8809  1.1151  1.8115
 6616SOL    HW231308   2.560   0.632  15.549  0.8639 -2.4372 -0.8042
 6617SOL     OW31309   3.982   2.073   2.962  0.3969 -0.1964 -0.0846
 6617SOL    HW131310   3.915   2.111   2.905  0.4085 -0.3323 -0.1884
 6617SOL    HW231311   4.025   2.155   2.986 -0.2127  0.3939 -0.9828
 6618SOL     OW31312   4.008   3.725   3.100  0.4785 -0.0095 -0.3769
 6618SOL    HW131313   4.093   3.767   3.084 -0.3732  0.4739 -3.7293
 6618SOL    HW231314   3.977   3.767   3.180  0.1276 -3.0536  1.0948
 6619SOL     OW31315   0.687   3.701   5.611  0.2672 -0.2833 -0.0496
 6619SOL    HW131316   0.778   3.728   5.625  0.2573 -1.4284  2.1194
 6619SOL    HW231317   0.683   3.719   5.517  0.4268 -0.4726 -0.0921
 6620SOL     OW31318   0.376   2.949   7.122  0.9164  0.2602  0.0191
 6620SOL    HW131319   0.389   2.902   7.203 -0.2847 -1.0577 -0.5535
 6620SOL    HW231320   0.337   2.888   7.060  0.4830  0.9631 -0.4055
 6621SOL     OW31321   4.558   0.108   3.005  0.8010 -0.1890  0.0896
 6621SOL    HW131322   4.557   0.171   2.932 -1.0492 -0.6675 -0.2938
 6621SOL    HW231323   4.623   0.043   2.979 -0.7166 -1.5926 -0.1869
 6622SOL     OW31324   0.823   3.411   2.754 -0.0968 -0.7945  0.2650
 6622SOL    HW131325   0.897   3.373   2.707  0.6583  1.1460 -0.1146
 6622SOL    HW231326   0.821   3.499   2.715 -0.5772 -1.3026 -0.8786
 6623SOL     OW31327   1.057   4.360  15.791  0.1395 -1.0745 -0.5208
 6623SOL    HW131328   0.987   4.371  15.856  0.9476 -0.5520  0.2564
 6623SOL    HW231329   1.009   4.351  15.708 -1.2565 -0.5074  0.2143
 6624SOL     OW31330   4.202   4.417   4.901 -0.1867 -0.0723 -0.1650
 6624SOL    HW131331   4.262   4.484   4.868  0.5613 -0.4166  0.5142
 6624SOL    HW231332   4.152   4.409   4.820 -0.9036  0.6533  0.2103
 6625SOL     OW31333   1.326   4.580   7.939  0.0569 -0.0961  1.2870
 6625SOL    HW131334   1.415   4.551   7.959  0.0653 -0.5168  0.6259
 6625SOL    HW231335   1.345   4.657   7.885  1.1839 -0.8261  0.6505
 6626SOL     OW31336   3.739   2.167   9.472 -0.0543 -0.4898  0.1895
 6626SOL    HW131337   3.767   2.212   9.551  0.0790 -1.2058  0.5532
 6626SOL    HW231338   3.644   2.154   9.478  0.2468 -3.4919 -1.3523
 6627SOL     OW31339   3.564   0.232   0.180 -0.0754  0.0266 -0.0381
 6627SOL    HW131340   3.532   0.196   0.097 -0.2939 -0.9259  0.4735
 6627SOL    HW231341   3.559   0.324   0.154 -0.2207 -0.1421 -0.6104
 6628SOL     OW31342   2.737   2.523   4.429 -0.9364  0.2620  0.0055
 6628SOL    HW131343   2.788   2.602   4.448  0.2242 -1.1346  2.7897
 6628SOL    HW231344   2.652   2.557   4.404  0.3677  3.0753 -0.6584
 6629SOL     OW31345   4.184   0.490  15.001 -0.1482  0.0478  0.0642
 6629SOL    HW131346   4.258   0.549  15.016 -0.7342  0.9252 -0.5010
 6629SOL    HW231347   4.126   0.556  14.964  1.4594  0.6717 -1.3418
 6630SOL     OW31348   0.707   1.668   4.151 -0.4651 -0.0218 -0.4390
 6630SOL    HW131349   0.797   1.642   4.133 -0.5229  0.1053 -0.9193
 6630SOL    HW231350   0.671   1.618   4.077 -0.5635 -1.6257  0.7000
 6631SOL     OW31351   1.427   0.756   6.482  0.5549  0.1558 -0.3630
 6631SOL    HW131352   1.489   0.813   6.436  1.5470  1.0258  2.0919
 6631SOL    HW231353   1.354   0.817   6.488  0.0757 -0.5598  0.8948
 6632SOL     OW31354   0.833   0.232  11.012  0.5895 -0.4394 -0.7142
 6632SOL    HW131355   0.883   0.218  11.093 -0.2984 -2.5531 -0.5521
 6632SOL    HW231356   0.898   0.286  10.966  1.3399  0.8745  1.8567
 6633SOL     OW31357   0.212   2.355   5.088 -0.4032 -0.2415 -0.5789
 6633SOL    HW131358   0.226   2.445   5.060 -1.0974 -0.0323 -0.2354
 6633SOL    HW231359   0.129   2.366   5.133  0.9878 -1.8713  2.4105
 6634SOL     OW31360   3.309   0.893   5.880  0.2658 -0.1549 -0.2689
 6634SOL    HW131361   3.290   0.887   5.786  1.7594  2.3731 -0.7285
 6634SOL    HW231362   3.232   0.842   5.906 -0.4508  1.4113  0.6723
 6635SOL     OW31363   2.858   2.376   5.323 -0.1692 -0.5510 -0.1798
 6635SOL    HW131364   2.918   2.439   5.363  0.7303 -1.4374 -0.1371
 6635SOL    HW231365   2.917   2.321   5.271 -1.9488 -1.1082 -1.5815
 6636SOL     OW31366   4.346   0.591  12.095 -0.3397  0.1965 -0.4780
 6636SOL    HW131367   4.285   0.534  12.141  0.9405  0.2864  1.3483
 6636SOL    HW231368   4.393   0.627  12.171 -1.5523 -2.4319  1.4998
 6637SOL     OW31369   0.278   1.172   8.940  0.0062 -0.0925  0.3576
 6637SOL    HW131370   0.348   1.109   8.928  0.4540  0.6108 -0.7615
 6637SOL    HW231371   0.319   1.257   8.924 -0.2428  0.2008  1.3111
 6638SOL     OW31372   2.403   3.406   5.611 -0.6034 -0.2488 -0.1759
 6638SOL    HW131373   2.328   3.349   5.595 -0.6788 -0.1233 -0.2623
 6638SOL    HW231374   2.430   3.428   5.522 -0.4939 -0.5242 -0.2113
 6639SOL     OW31375   1.077   1.989   5.673 -0.0446  0.3679  0.2363
 6639SOL    HW131376   1.010   2.022   5.613 -0.4334 -0.8828 -0.0204
 6639SOL    HW231377   1.133   2.066   5.680  1.9468 -1.1342  0.6976
 6640SOL     OW31378   1.432   0.568  10.188 -0.4102  1.0153 -0.1185
 6640SOL    HW131379   1.405   0.660  10.192 -2.4824  0.5094 -1.9951
 6640SOL    HW231380   1.450   0.547  10.280 -0.9963 -1.9116 -0.6643
 6641SOL     OW31381   0.648   3.672   7.544 -0.3892  0.1460  0.4341
 6641SOL    HW131382   0.730   3.626   7.559 -0.1620 -0.1290 -1.6033
 6641SOL    HW231383   0.604   3.611   7.485  0.7118  0.7897 -1.0438
 6642SOL     OW31384   2.386   2.889   4.769 -0.5351 -0.1657 -0.0149
 6642SOL    HW131385   2.358   2.945   4.697  1.4063  2.1961  1.1006
 6642SOL    HW231386   2.376   2.941   4.848 -1.6677 -0.2982 -0.0620
 6643SOL     OW31387   4.320   2.483   2.709  0.9121 -0.5104  0.5481
 6643SOL    HW131388   4.392   2.500   2.647 -0.7014  1.0754 -0.9141
 6643SOL    HW231389   4.301   2.390   2.697 -1.1318 -0.0898  0.5234
 6644SOL     OW31390   3.780   0.683   3.345  0.1057 -0.2841  0.5059
 6644SOL    HW131391   3.741   0.768   3.327  0.8957 -0.3458 -1.4112
 6644SOL    HW231392   3.708   0.634   3.386 -1.0566 -0.4912 -1.7593
 6645SOL     OW31393   0.057   3.676   3.287 -0.5391  0.3023 -0.6862
 6645SOL    HW131394   0.024   3.588   3.305 -0.4812  0.3635 -0.2862
 6645SOL    HW231395   0.076   3.666   3.194  1.0240 -0.6719 -0.2628
 6646SOL     OW31396   2.817   3.883   1.378  0.1549  0.0025  0.1169
 6646SOL    HW131397   2.723   3.896   1.382  0.0702  0.0819 -1.9643
 6646SOL    HW231398   2.831   3.885   1.283 -0.3020  0.9630  0.0779
 6647SOL     OW31399   1.676   2.478   7.792  1.0407 -0.1072 -0.2885
 6647SOL    HW131400   1.745   2.497   7.855 -1.2034  0.9280  1.8454
 6647SOL    HW231401   1.723   2.488   7.709 -0.9108  1.4785 -1.2239
 6648SOL     OW31402   3.695   0.300   2.085 -0.1472 -0.7661 -0.6033
 6648SOL    HW131403   3.697   0.395   2.096 -0.3192 -0.7555 -0.6546
 6648SOL    HW231404   3.781   0.280   2.122 -0.6759  0.1082  1.0831
 6649SOL     OW31405   0.361   1.215   8.555 -0.0748 -0.0827  0.1310
 6649SOL    HW131406   0.271   1.194   8.530  0.2455 -1.3017 -0.0028
 6649SOL    HW231407   0.325   1.285   8.609 -1.1048 -1.6455  1.4838
 6650SOL     OW31408   4.386   2.125   8.709 -0.5968  0.0405  0.7063
 6650SOL    HW131409   4.415   2.034   8.720 -3.3238 -1.2051 -2.4878
 6650SOL    HW231410   4.320   2.098   8.646  2.1133 -2.9975 -0.8653
 6651SOL     OW31411   4.497   0.893   7.512  0.3685  0.7596 -0.1583
 6651SOL    HW131412   4.429   0.950   7.477  0.1667 -0.0658 -1.1132
 6651SOL    HW231413   4.438   0.833   7.556  0.2769  1.5211  0.7569
 6652SOL     OW31414   1.420   4.470   4.375  0.4013  0.1958 -0.5170
 6652SOL    HW131415   1.437   4.559   4.406  0.3773  0.4959 -1.3904
 6652SOL    HW231416   1.460   4.478   4.289 -0.7067 -0.3122 -1.0767
 6653SOL     OW31417   4.323   4.495   8.688 -0.3866 -0.2948 -0.4449
 6653SOL    HW131418   4.359   4.474   8.775  2.2071  0.8403 -1.2567
 6653SOL    HW231419   4.293   4.583   8.712  0.2620 -0.3669  0.6722
 6654SOL     OW31420   2.844   2.705   2.679  0.7492 -0.3762  0.0798
 6654SOL    HW131421   2.772   2.648   2.708  0.3975 -0.6542 -1.3240
 6654SOL    HW231422   2.912   2.656   2.725  2.1167 -0.7542 -2.3481
 6655SOL     OW31423   0.784   1.637  11.268  0.2176  0.2039 -0.0324
 6655SOL    HW131424   0.874   1.669  11.276  0.3399 -0.1104 -0.1709
 6655SOL    HW231425   0.732   1.673  11.340  0.1285  3.2230 -1.6005
 6656SOL     OW31426   1.800   1.098   9.141  0.1166  0.3041  0.6850
 6656SOL    HW131427   1.716   1.061   9.115 -0.2082  1.0530  0.6656
 6656SOL    HW231428   1.863   1.026   9.149  0.4193  0.5740  0.7616
 6657SOL     OW31429   1.592   4.699   5.400  0.1589 -0.4257 -0.3938
 6657SOL    HW131430   1.608   0.040   5.468  1.6826  0.8530 -1.9438
 6657SOL    HW231431   1.505   4.674   5.429 -0.4618  1.1866 -0.8821
 6658SOL     OW31432   3.414   3.224   8.692  0.3747 -0.5136 -0.2203
 6658SOL    HW131433   3.434   3.167   8.766  0.1484  0.3090  0.4614
 6658SOL    HW231434   3.481   3.290   8.709 -0.2800  0.0497  0.1342
 6659SOL     OW31435   1.087   3.750   5.172  0.1738 -0.3398 -0.2804
 6659SOL    HW131436   1.151   3.681   5.192  3.8756  2.9321 -0.8140
 6659SOL    HW231437   1.130   3.822   5.218 -0.4127 -0.2187  0.0747
 6660SOL     OW31438   3.214   0.488   8.598  0.4344  0.0436  0.2000
 6660SOL    HW131439   3.243   0.461   8.685 -3.0638 -1.5385  0.8747
 6660SOL    HW231440   3.286   0.539   8.562  1.3601 -1.3124  0.1331
 6661SOL     OW31441   2.033   1.464  10.065  0.0115 -0.5191 -0.0566
 6661SOL    HW131442   2.108   1.411  10.039  0.6133  1.0158 -1.4598
 6661SOL    HW231443   1.980   1.492   9.990  0.5431  2.5879  0.7406
 6662SOL     OW31444   0.350   1.674   7.868 -0.0242 -0.3226  0.2472
 6662SOL    HW131445   0.347   1.712   7.956  0.5717 -0.1310  0.1809
 6662SOL    HW231446   0.445   1.677   7.864 -0.1807  2.3296 -1.9879
 6663SOL     OW31447   2.837   4.643   4.430 -1.2399 -0.1310 -0.1227
 6663SOL    HW131448   2.904   4.576   4.444  0.2298  0.9472 -1.9834
 6663SOL    HW231449   2.780   4.623   4.505 -1.4585  0.3097 -0.1760
 6664SOL     OW31450   1.095   1.387   1.354 -0.1432 -0.3686  0.1249
 6664SOL    HW131451   1.029   1.337   1.401  0.7750 -2.1452 -0.4836
 6664SOL    HW231452   1.178   1.344   1.373 -0.7630 -1.3547  0.6285
 6665SOL     OW31453   1.783   1.656  12.013 -0.6624  0.1388  0.0540
 6665SOL    HW131454   1.819   1.666  11.925 -0.3258  1.3102  0.3321
 6665SOL    HW231455   1.834   1.580  12.043 -0.5497  0.7031  1.2715
 6666SOL     OW31456   0.922   2.639   6.658  0.2138  0.6938 -0.2958
 6666SOL    HW131457   0.852   2.596   6.707  0.5980 -0.8160 -1.0433
 6666SOL    HW231458   0.984   2.664   6.726 -2.1270  1.4796  1.5474
 6667SOL     OW31459   4.252   0.046   7.299  0.1610  0.2374  0.7581
 6667SOL    HW131460   4.296   0.123   7.335  1.6536  0.3729 -1.3632
 6667SOL    HW231461   4.227   0.018   7.387 -0.4165 -1.4265  0.0730
 6668SOL     OW31462   4.163   0.152   6.777  0.0758 -0.1209  0.2771
 6668SOL    HW131463   4.089   0.095   6.795  0.7661 -1.8592 -2.3127
 6668SOL    HW231464   4.228   0.087   6.749 -0.9135 -0.1491 -1.9402
 6669SOL     OW31465   3.846   0.689  16.324  0.2846  0.3980 -0.0278
 6669SOL    HW131466   3.853   0.595  16.342 -1.3401  0.0742 -1.1370
 6669SOL    HW231467   3.917   0.694  16.260  1.3330  1.1682  1.1929
 6670SOL     OW31468   1.841   2.657   4.288  0.1202  0.4186  0.4676
 6670SOL    HW131469   1.789   2.645   4.209  1.8897 -0.7605 -0.5109
 6670SOL    HW231470   1.909   2.718   4.259  1.0385 -0.5203  0.6813
 6671SOL     OW31471   3.893   3.590   6.092 -0.5206  0.7661 -0.1588
 6671SOL    HW131472   3.807   3.608   6.128 -1.0388 -0.3387 -0.8398
 6671SOL    HW231473   3.881   3.513   6.036  1.4272 -1.1265  1.9851
 6672SOL     OW31474   1.993   0.432   3.282 -0.1238  0.2368 -0.0242
 6672SOL    HW131475   1.972   0.425   3.189  0.0249 -0.2287 -0.0231
 6672SOL    HW231476   1.925   0.388   3.332  0.6893  0.1970  1.0556
 6673SOL     OW31477   0.497   1.107   7.324 -0.1133  0.0308 -0.4217
 6673SOL    HW131478   0.531   1.042   7.262 -0.4047 -0.2549 -0.2823
 6673SOL    HW231479   0.543   1.068   7.398  1.4763  0.5438 -1.1298
 6674SOL     OW31480   0.712   0.335   8.893 -0.3075  0.5464 -0.7114
 6674SOL    HW131481   0.736   0.315   8.803  2.6538 -2.8550  0.8448
 6674SOL    HW231482   0.739   0.255   8.939 -1.4386  2.4848  3.4009
 6675SOL     OW31483   2.601   2.283   4.525 -1.0168 -0.5223 -0.5128
 6675SOL    HW131484   2.651   2.206   4.498 -0.0379  0.3791 -1.2413
 6675SOL    HW231485   2.633   2.342   4.457 -3.0531  0.6081 -0.4818
 6676SOL     OW31486   1.978   4.684   4.282  0.1504 -0.2681  0.4581
 6676SOL    HW131487   1.894   4.674   4.327 -0.4130  0.1211 -0.5190
 6676SOL    HW231488   2.030   0.009   4.346 -0.7443  0.6348  0.4943
 6677SOL     OW31489   1.961   2.490  17.611  0.3944 -0.2778 -0.0874
 6677SOL    HW131490   1.867   2.473  17.618  0.6326 -1.1120  1.1311
 6677SOL    HW231491   2.005   2.414  17.649  0.2147 -0.0031  0.6564
 6678SOL     OW31492   0.376   0.645   6.781 -0.5766 -0.6080 -0.6406
 6678SOL    HW131493   0.427   0.636   6.700  0.4315 -2.3002  0.1809
 6678SOL    HW231494   0.317   0.572   6.761 -0.0901 -0.9771 -0.7419
 6679SOL     OW31495   2.664   1.398   6.089 -0.4268 -0.1981 -0.7225
 6679SOL    HW131496   2.655   1.485   6.126  0.9236  0.6042 -2.2787
 6679SOL    HW231497   2.708   1.412   6.005 -0.8975 -0.8252 -1.0789
 6680SOL     OW31498   3.776   4.545   8.999 -0.3072 -0.6345 -0.7594
 6680SOL    HW131499   3.752   4.633   9.026  2.4769  0.0250 -0.4151
 6680SOL    HW231500   3.701   4.490   9.022  0.9206 -1.6997  0.7334
 6681SOL     OW31501   4.660   4.383   2.471 -0.7594  0.5628  0.1311
 6681SOL    HW131502   0.002   4.320   2.501  0.2544  2.4373  1.8258
 6681SOL    HW231503   4.671   4.452   2.537  0.8789  0.9177 -0.5037
 6682SOL     OW31504   2.228   0.450   7.398  0.2548  0.5672  0.2557
 6682SOL    HW131505   2.136   0.476   7.398 -0.4640 -1.9268  0.6288
 6682SOL    HW231506   2.230   0.379   7.462  0.7394 -1.3716 -1.8793
 6683SOL     OW31507   0.624   1.394   7.279  0.1743 -0.0722 -0.0540
 6683SOL    HW131508   0.625   1.315   7.225 -0.1312 -0.5649  0.6613
 6683SOL    HW231509   0.553   1.446   7.243  0.7590  0.1739 -0.8620
 6684SOL     OW31510   2.334   2.445   1.389  0.0562  0.0506 -0.4828
 6684SOL    HW131511   2.308   2.371   1.334  0.0945 -0.6354  0.4138
 6684SOL    HW231512   2.363   2.392   1.463 -2.1225  0.7406  0.8318
 6685SOL     OW31513   1.185   2.428   9.768 -0.6699  0.4805  0.1084
 6685SOL    HW131514   1.225   2.449   9.852 -0.7357 -2.5864  0.8922
 6685SOL    HW231515   1.183   2.515   9.728 -4.1614 -0.4709 -1.7772
 6686SOL     OW31516   4.350   3.502   3.189  0.4268  0.3088 -0.7812
 6686SOL    HW131517   4.372   3.449   3.265  0.0527 -0.1833 -1.0153
 6686SOL    HW231518   4.413   3.574   3.200  0.4219  0.7051 -3.1555
 6687SOL     OW31519   3.665   0.624   4.079 -0.0086 -0.4127  0.0417
 6687SOL    HW131520   3.757   0.634   4.057 -0.3139 -2.8268 -2.3437
 6687SOL    HW231521   3.659   0.606   4.173  0.7179  0.9811  0.3586
 6688SOL     OW31522   3.403   1.075   2.938  0.1758  0.7575  0.8342
 6688SOL    HW131523   3.442   1.152   2.897 -2.4287  0.8033 -1.4847
 6688SOL    HW231524   3.428   1.005   2.879 -1.3186 -0.1791  1.3196
 6689SOL     OW31525   3.800   1.770   6.584  0.5188 -0.3511 -0.1698
 6689SOL    HW131526   3.853   1.696   6.613  1.2723  0.4251  0.4695
 6689SOL    HW231527   3.735   1.731   6.526  1.1111  0.3563 -1.3242
 6690SOL     OW31528   0.737   3.924   4.445  0.3937  0.6626  0.4581
 6690SOL    HW131529   0.736   3.898   4.537  1.4132 -0.6287  0.0988
 6690SOL    HW231530   0.817   3.878   4.419 -0.8249 -0.4685 -1.2890
 6691SOL     OW31531   2.408   0.935   8.218  0.0301  0.1527  0.0385
 6691SOL    HW131532   2.375   1.019   8.249 -0.4712 -0.4902  1.2455
 6691SOL    HW231533   2.482   0.929   8.279 -1.4884  2.1874  2.0652
 6692SOL     OW31534   1.273   3.252   1.152  0.7495  0.7715  0.1061
 6692SOL    HW131535   1.314   3.318   1.208  2.8123 -1.1417  0.8783
 6692SOL    HW231536   1.350   3.202   1.123 -0.2808 -1.5174  1.3614
 6693SOL     OW31537   4.656   4.531  12.045  0.6816 -0.2053 -0.0098
 6693SOL    HW131538   0.015   4.559  12.007 -0.0534  0.0484 -1.3962
 6693SOL    HW231539   4.672   4.557  12.136  0.1389 -3.5128  1.0318
 6694SOL     OW31540   2.920   3.811  16.293 -0.0551 -0.5557 -0.4295
 6694SOL    HW131541   2.952   3.899  16.313 -0.5007 -0.5582  0.2983
 6694SOL    HW231542   2.955   3.760  16.366  1.2500  3.8037  1.9773
 6695SOL     OW31543   0.505   2.610   5.031  0.2165  0.2400  0.5960
 6695SOL    HW131544   0.588   2.655   5.044  0.2932  0.4757 -0.6910
 6695SOL    HW231545   0.524   2.516   5.035 -0.5423  0.0993  0.8958
 6696SOL     OW31546   1.339   0.152  17.160 -0.1566  0.0757 -0.0212
 6696SOL    HW131547   1.286   0.156  17.239 -1.0410 -1.3433 -0.5486
 6696SOL    HW231548   1.426   0.157  17.200  0.8451 -2.0759 -1.8768
 6697SOL     OW31549   0.321   1.947  12.593  0.9926 -0.0811  0.3943
 6697SOL    HW131550   0.414   1.928  12.605  1.8406  3.4406 -0.4936
 6697SOL    HW231551   0.317   2.040  12.614 -2.0358  0.0141 -0.6240
 6698SOL     OW31552   4.706   4.206  15.454  0.4389 -0.5145  0.0690
 6698SOL    HW131553   4.691   4.153  15.376  1.2694 -1.1860  0.3734
 6698SOL    HW231554   4.669   4.285  15.414  1.2345  0.6082  1.5636
 6699SOL     OW31555   1.133   4.589   4.587 -0.1276 -0.0053  0.6122
 6699SOL    HW131556   1.091   4.523   4.532 -1.2513  2.2131 -1.1918
 6699SOL    HW231557   1.162   4.548   4.668 -1.3100  1.1489  1.6152
 6700SOL     OW31558   3.966   2.452   7.722  0.5539 -0.5032 -0.2608
 6700SOL    HW131559   4.003   2.537   7.745 -0.1319  0.0063 -1.0808
 6700SOL    HW231560   3.982   2.401   7.802  0.7776  1.5321  0.9817
 6701SOL     OW31561   2.119   3.032  15.800  0.1509  0.6982  0.1270
 6701SOL    HW131562   2.077   3.096  15.857  1.1786  0.0833  1.5736
 6701SOL    HW231563   2.156   2.973  15.866 -1.5315  0.2043  0.6349
 6702SOL     OW31564   0.682   2.114  12.304  0.0817 -0.3068 -0.6588
 6702SOL    HW131565   0.683   2.205  12.334  0.6963 -0.6677  0.4047
 6702SOL    HW231566   0.737   2.113  12.226  0.6079 -0.9493 -0.2800
 6703SOL     OW31567   3.553   1.752  11.767 -0.3005  0.2141  0.4633
 6703SOL    HW131568   3.516   1.743  11.855 -1.3112  0.0295  0.0072
 6703SOL    HW231569   3.639   1.786  11.792  0.6774 -0.4163 -2.1187
 6704SOL     OW31570   3.844   4.422   7.876  0.0695  0.3226  0.0264
 6704SOL    HW131571   3.899   4.348   7.851 -0.5410  0.6716 -2.3420
 6704SOL    HW231572   3.796   4.381   7.947 -0.2083 -1.1242 -0.9867
 6705SOL     OW31573   2.469   2.350  10.108 -0.2455  0.1612 -0.2143
 6705SOL    HW131574   2.487   2.418  10.044 -1.1931 -1.7080 -2.4392
 6705SOL    HW231575   2.376   2.371  10.116 -0.2387  0.4288 -0.8974
 6706SOL     OW31576   2.731   3.413  16.285  0.1682  0.0610 -0.4786
 6706SOL    HW131577   2.695   3.501  16.296 -1.2416 -0.6386  0.4821
 6706SOL    HW231578   2.649   3.380  16.249  0.0579 -0.7681  0.5115
 6707SOL     OW31579   1.854   3.716   6.082  0.2225  0.2316  0.3308
 6707SOL    HW131580   1.808   3.680   6.158  1.9456 -0.6396  0.9618
 6707SOL    HW231581   1.926   3.745   6.138  1.4293 -1.2151 -0.4784
 6708SOL     OW31582   2.016   3.790   5.588  0.2314 -0.3818 -0.0940
 6708SOL    HW131583   1.957   3.859   5.556 -1.8803 -2.6045 -1.0588
 6708SOL    HW231584   2.084   3.841   5.631  0.2992 -0.5841  0.0383
 6709SOL     OW31585   4.408   0.658   5.765 -0.1419  0.2191 -0.3806
 6709SOL    HW131586   4.433   0.565   5.761  0.8080  0.4542  0.2364
 6709SOL    HW231587   4.452   0.698   5.840 -1.6066  0.5182  0.3358
 6710SOL     OW31588   4.587   2.792   5.422 -0.4531 -0.1374  0.4652
 6710SOL    HW131589   4.603   2.757   5.510  0.8000 -1.2920 -0.2205
 6710SOL    HW231590   4.673   2.788   5.379  0.6183 -0.3553  2.5989
 6711SOL     OW31591   3.489   3.430   3.257 -0.1556 -0.2814 -0.3220
 6711SOL    HW131592   3.471   3.490   3.185 -0.4334 -0.7425 -0.6369
 6711SOL    HW231593   3.576   3.438   3.295  0.2542  3.7994 -2.1535
 6712SOL     OW31594   2.962   3.372   4.062 -0.3800  0.2267  0.0115
 6712SOL    HW131595   2.955   3.277   4.065  1.7528  0.0338 -1.4866
 6712SOL    HW231596   2.977   3.385   3.968  2.4738 -1.2078  0.2798
 6713SOL     OW31597   1.264   4.309   8.234  0.4931 -0.6508  0.8984
 6713SOL    HW131598   1.221   4.283   8.153 -1.4408 -1.3333  2.1507
 6713SOL    HW231599   1.289   4.219   8.258 -0.5400 -0.9870  0.7219
 6714SOL     OW31600   3.501   2.961   1.951  0.1325  0.0586  0.2725
 6714SOL    HW131601   3.541   2.985   2.034 -0.6335 -0.3498  0.7648
 6714SOL    HW231602   3.413   2.987   1.978  0.8415 -1.1568  3.7789
 6715SOL     OW31603   0.616   1.034   4.395  0.7052  0.2111  0.3490
 6715SOL    HW131604   0.593   0.975   4.467  2.9163 -0.6581  0.3433
 6715SOL    HW231605   0.530   1.049   4.355  0.2184 -0.1824  1.2462
 6716SOL     OW31606   2.660   4.191   6.089  0.8287 -0.2462  0.3849
 6716SOL    HW131607   2.613   4.139   6.154  0.8277 -1.8308 -0.8888
 6716SOL    HW231608   2.733   4.137   6.060  0.4926 -0.5781  0.1518
 6717SOL     OW31609   0.658   1.416   1.779  0.5605  0.7556 -0.2124
 6717SOL    HW131610   0.676   1.418   1.685  0.7766  1.4553 -0.1517
 6717SOL    HW231611   0.743   1.454   1.802  0.7813 -0.1585  0.5195
 6718SOL     OW31612   4.588   2.954   7.868 -0.0690  0.2859 -0.1006
 6718SOL    HW131613   4.583   2.864   7.835 -1.0451  0.6941 -1.0500
 6718SOL    HW231614   4.566   2.944   7.961  0.0392 -0.6583 -0.1762
 6719SOL     OW31615   3.502   0.714   3.273  0.8942 -0.1610  0.1145
 6719SOL    HW131616   3.504   0.620   3.290  1.4504 -0.1581  0.0918
 6719SOL    HW231617   3.481   0.716   3.179  0.9031  1.2914  0.1357
 6720SOL     OW31618   1.784   0.011   7.071  0.4529  0.3195 -0.3652
 6720SOL    HW131619   1.762   0.051   6.987 -3.1264 -2.2895 -0.6742
 6720SOL    HW231620   1.776   0.084   7.133  0.0427  1.0938 -1.3342
 6721SOL     OW31621   3.574   2.395   5.290  0.3317 -0.1637  0.2263
 6721SOL    HW131622   3.630   2.471   5.306 -0.1219 -0.2476  2.2599
 6721SOL    HW231623   3.640   2.333   5.261  0.3531 -1.3225  2.7462
 6722SOL     OW31624   3.027   2.217  15.069 -0.1359  0.2241  0.2022
 6722SOL    HW131625   3.107   2.269  15.075  0.0809  0.0038 -0.8189
 6722SOL    HW231626   2.955   2.280  15.076 -0.4631  0.0154 -1.3070
 6723SOL     OW31627   0.992   4.659   2.135 -0.1672 -0.3506 -0.0918
 6723SOL    HW131628   1.059   4.723   2.157 -1.2196  0.7087  0.0016
 6723SOL    HW231629   0.928   4.713   2.089 -0.4127  0.8175  1.6440
 6724SOL     OW31630   3.885   4.574   0.877  0.3241 -0.3173 -0.6858
 6724SOL    HW131631   3.838   4.491   0.888 -2.5590  1.3576 -0.4805
 6724SOL    HW231632   3.976   4.544   0.870  0.8367  1.7563 -2.7412
 6725SOL     OW31633   3.513   4.621   2.361  0.2013  0.0408  0.8867
 6725SOL    HW131634   3.494   4.633   2.268  0.0999  1.6009  1.1182
 6725SOL    HW231635   3.536   4.711   2.383 -0.7659  0.1253  1.5238
 6726SOL     OW31636   2.161   0.333  13.977 -0.1283  0.0949  0.1863
 6726SOL    HW131637   2.068   0.325  13.957  0.0642 -2.8691  0.5914
 6726SOL    HW231638   2.193   0.245  13.958 -0.7895  0.4057 -2.3655
 6727SOL     OW31639   3.245   1.875   7.370 -0.3422  0.2840  0.3411
 6727SOL    HW131640   3.332   1.884   7.409  0.9401 -3.7785 -1.5148
 6727SOL    HW231641   3.218   1.966   7.380 -2.9908 -0.2594 -1.8783
 6728SOL     OW31642   4.372   2.774   2.177 -0.3759  0.5086 -0.0607
 6728SOL    HW131643   4.375   2.680   2.162 -1.6553  0.7201 -1.7183
 6728SOL    HW231644   4.289   2.801   2.138 -1.5207 -1.5254  0.9548
 6729SOL     OW31645   3.232   2.916   8.327 -0.7086  0.2810 -0.0145
 6729SOL    HW131646   3.235   2.924   8.232  2.2595  1.7211  0.1961
 6729SOL    HW231647   3.190   3.000   8.344  0.8311  1.4769 -2.2495
 6730SOL     OW31648   0.248   1.877   2.224  0.3285 -0.0013 -0.3619
 6730SOL    HW131649   0.305   1.819   2.273  0.3185 -0.4848 -0.9213
 6730SOL    HW231650   0.292   1.888   2.140  0.6240  2.1939  0.0808
 6731SOL     OW31651   0.633   0.182  10.772  0.4227 -0.6719  0.9128
 6731SOL    HW131652   0.587   0.129  10.706  1.0582  0.6569 -0.5878
 6731SOL    HW231653   0.725   0.193  10.749 -0.3079  1.2320 -1.0752
 6732SOL     OW31654   1.948   4.515  10.909 -0.3752  0.1916  0.0519
 6732SOL    HW131655   2.041   4.495  10.897 -1.0921 -4.0300  1.4275
 6732SOL    HW231656   1.923   4.579  10.843 -0.4166 -3.3003 -3.2871
 6733SOL     OW31657   0.560   3.547  14.957 -0.3088  0.0221  0.2843
 6733SOL    HW131658   0.625   3.599  15.004 -0.8733 -1.0390  2.2414
 6733SOL    HW231659   0.613   3.507  14.888 -0.2446  1.5081 -0.5266
 6734SOL     OW31660   2.746   3.380   6.314  0.3461 -0.1852  0.4028
 6734SOL    HW131661   2.781   3.468   6.329 -0.1654  0.4002 -1.8477
 6734SOL    HW231662   2.791   3.359   6.232  0.8616 -1.2190  0.9538
 6735SOL     OW31663   0.473   3.247   7.880 -0.6027  0.1434 -0.0743
 6735SOL    HW131664   0.530   3.270   7.954  0.0659  0.9914 -0.8345
 6735SOL    HW231665   0.401   3.308   7.894  0.8202  2.0590 -0.9991
 6736SOL     OW31666   3.197   2.475   6.073  0.0114 -0.0608 -0.0180
 6736SOL    HW131667   3.263   2.425   6.026  0.0842  0.2969 -0.2990
 6736SOL    HW231668   3.132   2.489   6.003 -0.0471 -0.6975 -0.0936
 6737SOL     OW31669   4.692   4.587   3.800 -0.2518  0.4185  0.6033
 6737SOL    HW131670   4.719   4.519   3.739 -0.7004  0.4173  0.4086
 6737SOL    HW231671   0.022   4.657   3.764 -2.7175  1.5005 -0.9715
 6738SOL     OW31672   0.584   3.721  15.678  0.5693 -0.0881  0.8519
 6738SOL    HW131673   0.499   3.723  15.634  1.7734 -2.3076 -1.5328
 6738SOL    HW231674   0.630   3.668  15.613  0.1138  0.1439  0.3448
 6739SOL     OW31675   1.041   1.812   1.031  0.0753  0.1382 -0.0333
 6739SOL    HW131676   1.062   1.745   1.096 -0.3800 -0.7163 -0.7588
 6739SOL    HW231677   0.950   1.786   1.022  0.5272 -2.0545  1.6377
 6740SOL     OW31678   4.128   1.717   6.414 -0.1310 -0.6941 -0.2716
 6740SOL    HW131679   4.136   1.628   6.449  1.4021 -0.4087  0.1092
 6740SOL    HW231680   4.083   1.711   6.329 -1.0815  0.2925  0.1688
 6741SOL     OW31681   2.479   2.697   6.065  0.4388 -0.4972  0.2552
 6741SOL    HW131682   2.509   2.769   6.010 -0.2451 -1.5181 -1.4675
 6741SOL    HW231683   2.557   2.643   6.053  0.6429 -0.7451  2.7428
 6742SOL     OW31684   3.870   4.037   3.493 -0.3615  0.0922 -0.0988
 6742SOL    HW131685   3.937   4.092   3.451  1.6327 -0.5023  2.2604
 6742SOL    HW231686   3.865   4.084   3.576 -1.5416  1.5291 -0.9844
 6743SOL     OW31687   1.083   3.106   5.192 -0.0624  0.1745 -0.8905
 6743SOL    HW131688   1.110   3.020   5.159 -0.1564 -0.4319  0.6318
 6743SOL    HW231689   1.136   3.165   5.138 -0.8297  0.3604 -1.4353
 6744SOL     OW31690   0.041   0.573   2.427  0.4580  0.6982 -0.0216
 6744SOL    HW131691   4.689   0.632   2.428 -0.4223 -0.4155 -1.3802
 6744SOL    HW231692   0.062   0.558   2.335  0.1192 -2.8184  0.4720
 6745SOL     OW31693   3.136   0.497   6.247  0.3963  0.2740 -0.5624
 6745SOL    HW131694   3.107   0.579   6.207  2.3775  0.9681 -0.6004
 6745SOL    HW231695   3.050   0.460   6.265  0.3763  0.6517  0.1240
 6746SOL     OW31696   1.742   3.140   7.883 -0.2288  0.4369  0.1497
 6746SOL    HW131697   1.789   3.140   7.799  0.0691  0.2916  0.3147
 6746SOL    HW231698   1.776   3.054   7.910  0.7052  0.7567 -0.0157
 6747SOL     OW31699   4.068   2.451   8.681 -0.4378 -0.3770 -0.0073
 6747SOL    HW131700   4.139   2.505   8.716 -0.5391  0.2646 -0.7867
 6747SOL    HW231701   4.094   2.462   8.589 -1.0185  0.5316 -0.0574
 6748SOL     OW31702   3.697   4.347   8.720  0.1764  0.4942 -0.1905
 6748SOL    HW131703   3.623   4.303   8.679  0.6747 -0.9232  0.4534
 6748SOL    HW231704   3.658   4.432   8.742 -1.5275 -0.7337  1.4930
 6749SOL     OW31705   4.332   1.400  15.048 -0.2357  0.0192  0.1501
 6749SOL    HW131706   4.329   1.351  15.130 -0.3580  2.6117  1.6964
 6749SOL    HW231707   4.405   1.461  15.060 -0.3218  0.3127 -0.7761
 6750SOL     OW31708   3.226   0.786   8.129 -0.3593  0.1568 -0.4999
 6750SOL    HW131709   3.164   0.786   8.202 -2.5108  1.9516 -2.3194
 6750SOL    HW231710   3.173   0.838   8.068 -1.0819 -2.6403 -2.2731
 6751SOL     OW31711   4.118   0.404   6.494  0.4766  0.0980  0.1311
 6751SOL    HW131712   4.109   0.311   6.514  0.4243 -0.2633 -1.5682
 6751SOL    HW231713   4.156   0.412   6.407  2.6916 -1.7623  0.9417
 6752SOL     OW31714   4.297   0.077   8.454  0.3849 -0.6424  0.1192
 6752SOL    HW131715   4.391   0.068   8.470  0.0893 -1.8834  1.1157
 6752SOL    HW231716   4.299   0.046   8.363 -1.9523 -2.3711  0.6674
 6753SOL     OW31717   0.505   0.231   3.424 -0.1223 -0.4039 -0.3477
 6753SOL    HW131718   0.543   0.289   3.490 -0.9652  1.4606 -1.4710
 6753SOL    HW231719   0.553   0.149   3.431  0.6924  0.0600 -0.5253
 6754SOL     OW31720   1.810   3.044   0.060  0.0583  0.0995 -0.1564
 6754SOL    HW131721   1.728   3.030   0.014  0.8274 -1.3206 -1.0642
 6754SOL    HW231722   1.858   2.964   0.040 -1.5658 -0.6896 -0.8908
 6755SOL     OW31723   2.734   2.604  13.389 -0.3202  0.2863  0.3664
 6755SOL    HW131724   2.703   2.694  13.393 -1.7482 -0.2089  0.5326
 6755SOL    HW231725   2.743   2.604  13.294 -1.6504 -0.5763  0.2273
 6756SOL     OW31726   0.895   3.693   0.580 -0.0254 -0.0239  0.2317
 6756SOL    HW131727   0.803   3.719   0.583  0.7743  2.9233 -1.1300
 6756SOL    HW231728   0.936   3.709   0.495 -0.7100 -1.5440 -0.3890
 6757SOL     OW31729   1.295   3.248   1.483  0.2177  0.4912 -0.5085
 6757SOL    HW131730   1.279   3.235   1.577 -0.0327  0.2626 -0.5820
 6757SOL    HW231731   1.363   3.182   1.468  1.1599  1.4530 -0.4411
 6758SOL     OW31732   0.279   1.757   6.874  0.1458 -0.2086 -0.2152
 6758SOL    HW131733   0.322   1.754   6.788  0.4093 -0.2317 -0.0818
 6758SOL    HW231734   0.242   1.669   6.880 -0.3846  0.0813  0.7872
 6759SOL     OW31735   0.863   2.163   7.184  0.2857  0.1850 -0.4043
 6759SOL    HW131736   0.862   2.116   7.101 -0.9872  0.6083 -0.6340
 6759SOL    HW231737   0.891   2.098   7.248 -0.3364  1.9767  1.7003
 6760SOL     OW31738   4.008   2.303   7.954  0.1197  0.0119  0.1036
 6760SOL    HW131739   4.034   2.219   7.994  0.6297 -1.0516 -2.4833
 6760SOL    HW231740   3.964   2.345   8.028 -0.0872 -0.2029  0.1010
 6761SOL     OW31741   3.233   2.994  15.177 -0.1963  0.2796  0.2030
 6761SOL    HW131742   3.193   3.050  15.244  0.0438 -0.2015  0.7587
 6761SOL    HW231743   3.267   3.070  15.130  0.2249  0.1099  0.2354
 6762SOL     OW31744   1.566   1.461  15.932 -0.5660 -0.0455 -0.3328
 6762SOL    HW131745   1.497   1.402  15.900  0.2180 -1.5461  0.6894
 6762SOL    HW231746   1.643   1.434  15.883 -0.2597 -0.6144  0.4532
 6763SOL     OW31747   0.258   2.055   7.267  1.0302  0.7491  0.3906
 6763SOL    HW131748   0.286   2.146   7.271  0.1062  1.0905 -0.8934
 6763SOL    HW231749   0.278   2.031   7.357 -2.3184 -0.7433  0.7516
 6764SOL     OW31750   4.533   2.760   4.611  0.0681 -0.3210 -0.4559
 6764SOL    HW131751   4.438   2.754   4.609  0.0570 -0.3959  0.3624
 6764SOL    HW231752   4.558   2.774   4.702 -1.1939  1.2245 -0.3593
 6765SOL     OW31753   1.163   1.983   2.443 -0.0640  0.5288 -0.5457
 6765SOL    HW131754   1.168   2.079   2.447 -0.1844  0.4265  2.3819
 6765SOL    HW231755   1.090   1.962   2.502  0.0171 -1.0525 -1.0145
 6766SOL     OW31756   0.563   3.080   6.943 -0.2565  0.0308  0.2642
 6766SOL    HW131757   0.641   3.082   6.997  1.7980 -3.1872 -2.5999
 6766SOL    HW231758   0.505   3.023   6.994  0.4224  1.1246  2.2340
 6767SOL     OW31759   1.601   3.235   6.032  0.4239  0.5654  0.3480
 6767SOL    HW131760   1.558   3.318   6.009 -1.8690 -0.2302  1.8398
 6767SOL    HW231761   1.606   3.199   5.943 -1.0369  1.2614 -0.0263
 6768SOL     OW31762   1.267   1.687  15.114  0.4857 -0.1003 -0.1649
 6768SOL    HW131763   1.202   1.641  15.165 -1.2596  1.1563 -1.2566
 6768SOL    HW231764   1.299   1.744  15.184 -0.6053  0.1217  0.1394
 6769SOL     OW31765   2.688   0.935   9.131  0.0385  0.7962  0.1367
 6769SOL    HW131766   2.605   0.915   9.175  0.1922  0.8008  0.4307
 6769SOL    HW231767   2.663   0.995   9.060 -2.4735  0.0456  0.3855
 6770SOL     OW31768   3.401   1.469   5.647  0.2496  0.0597  0.4309
 6770SOL    HW131769   3.480   1.417   5.656  0.6419  0.7716  1.0545
 6770SOL    HW231770   3.375   1.433   5.562  1.7236 -0.6319  0.2852
 6771SOL     OW31771   2.536   2.416   5.741 -0.2123 -0.1404 -0.0038
 6771SOL    HW131772   2.534   2.322   5.725 -0.8686 -0.2369  0.6277
 6771SOL    HW231773   2.547   2.449   5.652  0.0331 -0.8744 -0.2457
 6772SOL     OW31774   0.284   3.542  11.012  0.1931  0.2579  0.6831
 6772SOL    HW131775   0.230   3.584  10.945  1.5755  0.7844 -0.1218
 6772SOL    HW231776   0.268   3.448  11.002  1.6697 -0.2069  2.7588
 6773SOL     OW31777   4.043   4.378   6.181  0.8913  0.3245 -0.1982
 6773SOL    HW131778   4.049   4.383   6.276  1.7581 -0.0524 -0.2354
 6773SOL    HW231779   4.092   4.460   6.169  1.6218 -0.4563 -2.5653
 6774SOL     OW31780   2.608   3.687   6.824 -0.3145  0.1299 -0.2173
 6774SOL    HW131781   2.677   3.710   6.887 -1.0126 -2.0876  1.3502
 6774SOL    HW231782   2.642   3.694   6.735 -1.3256  1.0256 -0.5226
 6775SOL     OW31783   0.709   0.846   9.932  0.2109  0.5541 -0.4246
 6775SOL    HW131784   0.648   0.852  10.005  0.0216 -0.6772 -0.4700
 6775SOL    HW231785   0.656   0.885   9.862 -0.5968 -1.2554 -0.8192
 6776SOL     OW31786   3.803   4.281   7.581 -0.1989  0.2223  0.0623
 6776SOL    HW131787   3.721   4.237   7.603  0.2503 -0.3084  0.6740
 6776SOL    HW231788   3.795   4.371   7.615  0.9248  0.6561 -0.8186
 6777SOL     OW31789   1.125   2.017   6.167 -0.0632  0.2322  0.0485
 6777SOL    HW131790   1.211   1.976   6.159 -1.9285 -3.6006 -0.1122
 6777SOL    HW231791   1.143   2.109   6.148  0.5556  0.1654  0.2964
 6778SOL     OW31792   2.021   0.965   1.985  0.3990 -0.8123 -0.4094
 6778SOL    HW131793   2.049   0.878   2.011 -2.1911 -1.7800 -0.8718
 6778SOL    HW231794   2.065   0.979   1.901  4.1268 -2.4942  1.2799
 6779SOL     OW31795   1.359   4.105  11.017 -0.0092  0.3267  0.0541
 6779SOL    HW131796   1.443   4.110  10.971  1.2694  1.9551  2.6169
 6779SOL    HW231797   1.312   4.169  10.963  1.2816 -0.3932 -1.9348
 6780SOL     OW31798   2.481   4.608   4.752 -0.2105 -0.2726 -0.4189
 6780SOL    HW131799   2.507   4.683   4.806 -1.9878 -0.3990  0.6243
 6780SOL    HW231800   2.478   4.646   4.664 -1.3314  1.8674  0.5351
 6781SOL     OW31801   3.538   3.062   3.922 -0.0790  0.7066  0.0118
 6781SOL    HW131802   3.467   3.049   3.859 -0.3163  1.8327  0.0547
 6781SOL    HW231803   3.493   3.030   4.000 -1.9745  1.7108 -0.6638
 6782SOL     OW31804   3.672   1.367  11.024 -0.5638  0.0749 -0.2530
 6782SOL    HW131805   3.691   1.461  11.018  1.7100 -0.4211 -0.7999
 6782SOL    HW231806   3.623   1.373  11.106 -0.7408  2.3928 -0.5169
 6783SOL     OW31807   1.279   1.144   7.964 -0.1189 -0.2923  1.1764
 6783SOL    HW131808   1.191   1.171   7.939  0.0215  0.1431  1.1493
 6783SOL    HW231809   1.284   1.161   8.058  3.0325  2.7949  0.4698
 6784SOL     OW31810   3.092   1.840  15.817  0.3536 -0.0696 -0.1057
 6784SOL    HW131811   3.112   1.919  15.766  0.7679  0.7473  1.3275
 6784SOL    HW231812   2.998   1.825  15.807 -0.1715  1.1555  3.1060
 6785SOL     OW31813   2.352   0.168   0.715 -0.0041  0.1129 -0.1316
 6785SOL    HW131814   2.365   0.207   0.801 -1.9551 -0.3758  0.3829
 6785SOL    HW231815   2.348   0.073   0.726  3.3285 -0.0602 -0.4002
 6786SOL     OW31816   0.654   2.176  14.185  0.1184 -1.0383  0.3952
 6786SOL    HW131817   0.677   2.146  14.097  0.7661  0.0672  0.1774
 6786SOL    HW231818   0.559   2.180  14.177 -0.0574 -0.7636  2.5768
 6787SOL     OW31819   0.757   1.841  13.559 -0.0450  0.0930  0.4588
 6787SOL    HW131820   0.810   1.866  13.635 -0.2702  4.2792 -0.7976
 6787SOL    HW231821   0.729   1.926  13.526  0.8570  0.2180 -0.0013
 6788SOL     OW31822   0.141   0.936  10.093  0.1017  0.1941  0.5406
 6788SOL    HW131823   0.169   0.850  10.124 -0.3322  0.2216  1.0206
 6788SOL    HW231824   0.132   0.920   9.999 -2.9092  2.8451  0.3734
 6789SOL     OW31825   0.265   1.697  15.477  0.7417  0.2519 -0.3606
 6789SOL    HW131826   0.171   1.718  15.482  1.7512  5.1295 -1.7255
 6789SOL    HW231827   0.308   1.779  15.502 -0.2722  0.9367 -0.8666
 6790SOL     OW31828   1.924   3.691   7.854  0.3123  0.2141 -0.1314
 6790SOL    HW131829   1.969   3.607   7.867 -0.7352 -0.1780  0.9775
 6790SOL    HW231830   1.982   3.756   7.894 -0.1762  1.8713 -2.1213
 6791SOL     OW31831   0.944   0.717   3.809  0.2359  0.1193  0.1219
 6791SOL    HW131832   0.872   0.660   3.781  1.6747 -1.8461  0.3937
 6791SOL    HW231833   1.021   0.661   3.797 -0.2587 -0.4607 -0.3482
 6792SOL     OW31834   2.957   1.242  15.104  0.0188 -0.0023  0.2910
 6792SOL    HW131835   2.884   1.201  15.057  1.3463  0.1299 -1.8896
 6792SOL    HW231836   3.030   1.182  15.086 -1.3344 -1.6940  0.4497
 6793SOL     OW31837   3.529   3.854   4.406  0.0409 -0.2979  0.4173
 6793SOL    HW131838   3.576   3.829   4.326 -1.4747 -4.2639  0.7269
 6793SOL    HW231839   3.566   3.940   4.421 -2.5751  0.6746  1.3653
 6794SOL     OW31840   0.797   3.137   2.311 -0.1517 -0.4776  0.3222
 6794SOL    HW131841   0.848   3.148   2.231 -0.5182 -0.1319  0.1362
 6794SOL    HW231842   0.751   3.220   2.320  0.6858  0.3272 -2.5803
 6795SOL     OW31843   0.277   1.282   7.334  0.6460 -0.0087 -0.8004
 6795SOL    HW131844   0.345   1.215   7.345  0.7200  0.6086  2.4412
 6795SOL    HW231845   0.265   1.285   7.239 -2.2277  0.1758 -0.4332
 6796SOL     OW31846   1.396   2.189   1.600 -0.0751  0.0178  0.2452
 6796SOL    HW131847   1.477   2.145   1.576  1.1231  2.1164  0.4814
 6796SOL    HW231848   1.344   2.108   1.602 -0.0511  0.0419  1.7047
 6797SOL     OW31849   2.030   4.109   7.770  0.0487 -0.3583  0.3028
 6797SOL    HW131850   1.993   4.088   7.684  1.4563  1.0753 -0.6770
 6797SOL    HW231851   2.123   4.095   7.752 -0.0196 -0.9082  0.3826
 6798SOL     OW31852   0.363   4.576   6.530  0.0136  0.1799 -0.1502
 6798SOL    HW131853   0.398   4.586   6.618  0.8420  2.0192 -0.6975
 6798SOL    HW231854   0.274   4.606   6.547  0.5651  1.0501  1.1421
 6799SOL     OW31855   2.331   1.485  11.403  0.1554 -0.1082 -0.3059
 6799SOL    HW131856   2.372   1.571  11.394  1.6296 -0.8113 -0.3503
 6799SOL    HW231857   2.401   1.430  11.440 -0.3657 -0.3347  0.3430
 6800SOL     OW31858   2.528   4.398  17.009  0.0532 -0.3617 -0.9225
 6800SOL    HW131859   2.508   4.365  17.097 -1.3828 -1.8439 -1.7980
 6800SOL    HW231860   2.441   4.385  16.970  0.5180 -0.9864 -1.7367
 6801SOL     OW31861   0.311   4.611   5.404 -0.0634  0.4221 -0.1029
 6801SOL    HW131862   0.309   4.541   5.338  3.3107 -0.9123  1.2425
 6801SOL    HW231863   0.263   4.566   5.474  1.0506  1.1135  1.0930
 6802SOL     OW31864   3.665   2.429   1.088  0.4467  0.0648 -0.0067
 6802SOL    HW131865   3.591   2.483   1.115 -1.1916 -1.7670 -0.8424
 6802SOL    HW231866   3.632   2.345   1.119 -0.4069  0.3122 -0.2529
 6803SOL     OW31867   3.359   2.492  11.215 -0.2921  0.1505  0.2833
 6803SOL    HW131868   3.439   2.519  11.169  0.0384 -1.5108 -0.1144
 6803SOL    HW231869   3.328   2.579  11.240  0.4203 -0.1465  2.1378
 6804SOL     OW31870   1.093   0.189   3.048 -0.1422  0.2790  0.0011
 6804SOL    HW131871   1.038   0.128   2.999 -0.0175 -0.5529  0.8738
 6804SOL    HW231872   1.176   0.140   3.056  0.1969  0.9316  0.4924
 6805SOL     OW31873   0.254   4.110   9.732 -0.1208 -0.7844  0.2334
 6805SOL    HW131874   0.325   4.168   9.704  0.4465 -2.3529 -1.5606
 6805SOL    HW231875   0.194   4.119   9.659  1.8968 -1.1517 -1.4688
 6806SOL     OW31876   0.848   4.496   8.284 -0.3331  0.9821  0.3026
 6806SOL    HW131877   0.848   4.586   8.318  1.0072 -0.0887  3.1465
 6806SOL    HW231878   0.922   4.515   8.226  0.6726 -0.2700  1.1621
 6807SOL     OW31879   3.188   4.697   2.724 -0.1080 -0.3995  0.1691
 6807SOL    HW131880   3.117   4.634   2.710 -0.8837  0.9181 -1.8289
 6807SOL    HW231881   3.135   0.049   2.701  1.5973  0.3335 -1.3629
 6808SOL     OW31882   4.477   2.202   5.280  0.5233  0.4696  0.3390
 6808SOL    HW131883   4.448   2.275   5.335 -1.5150 -2.2640  2.8492
 6808SOL    HW231884   4.393   2.169   5.250  0.4831  0.5272  0.3891
 6809SOL     OW31885   4.227   0.434   6.246 -0.5686 -0.2637 -0.6988
 6809SOL    HW131886   4.203   0.342   6.230  0.3123 -0.5650 -0.3181
 6809SOL    HW231887   4.295   0.439   6.179  0.6494  0.0002  0.5587
 6810SOL     OW31888   1.499   4.476  13.703 -0.0990  0.0586  0.0949
 6810SOL    HW131889   1.472   4.386  13.686 -0.9393  0.6812 -1.9683
 6810SOL    HW231890   1.442   4.500  13.776  1.8124  3.6969  0.3778
 6811SOL     OW31891   0.342   4.634   9.175  0.4651 -0.1109 -0.3782
 6811SOL    HW131892   0.376   4.563   9.228  1.0624 -1.2489 -2.2781
 6811SOL    HW231893   0.355   4.714   9.225 -1.9999  0.3321 -0.4116
 6812SOL     OW31894   3.757   0.238   4.192  0.8460 -0.5432 -0.0599
 6812SOL    HW131895   3.795   0.277   4.271  0.2352 -0.0949  0.0098
 6812SOL    HW231896   3.835   0.200   4.152  2.0402  3.1435 -1.2329
 6813SOL     OW31897   0.979   2.967  16.045  0.0742  0.6252 -0.3099
 6813SOL    HW131898   0.981   2.971  15.949  0.0173 -0.5601 -0.3669
 6813SOL    HW231899   0.932   3.045  16.073  1.3260  2.0509 -2.2094
 6814SOL     OW31900   2.653   1.738   8.192 -0.3803 -0.3185 -0.1672
 6814SOL    HW131901   2.740   1.778   8.182 -0.6335  0.3976  0.5006
 6814SOL    HW231902   2.600   1.810   8.227  2.4127  0.2129  3.0645
 6815SOL     OW31903   2.343   2.776   4.120  0.5763  0.0287 -0.3262
 6815SOL    HW131904   2.383   2.715   4.182 -1.1632 -0.1253  0.6181
 6815SOL    HW231905   2.251   2.753   4.131  0.3071  0.5544 -1.5325
 6816SOL     OW31906   4.122   4.272   7.645  0.2689  0.4657 -0.1841
 6816SOL    HW131907   4.094   4.229   7.563  1.9926 -1.0584  0.0352
 6816SOL    HW231908   4.217   4.269   7.634  0.2988  0.1789  0.1508
 6817SOL     OW31909   4.557   1.946   9.279  0.7715  0.5499  0.4205
 6817SOL    HW131910   4.597   1.871   9.236  0.7821  0.6942  0.1739
 6817SOL    HW231911   4.577   1.923   9.369 -3.9521 -3.2574  0.4717
 6818SOL     OW31912   4.168   4.183   5.009  0.4361 -0.0624 -0.3581
 6818SOL    HW131913   4.137   4.218   5.093 -0.9225  1.0739 -1.3324
 6818SOL    HW231914   4.192   4.263   4.962  0.2591  0.2295  0.0487
 6819SOL     OW31915   0.737   1.135   5.421  0.5899 -0.2374  0.2377
 6819SOL    HW131916   0.793   1.196   5.372  1.1986 -0.7792  0.2586
 6819SOL    HW231917   0.772   1.150   5.509  0.0769  1.5739  0.1328
 6820SOL     OW31918   2.673   3.461  10.038  0.3127  0.7375  0.2974
 6820SOL    HW131919   2.712   3.528   9.982  0.3884  0.7190  0.3271
 6820SOL    HW231920   2.583   3.465  10.005 -0.2184 -0.6985  1.5497
 6821SOL     OW31921   1.914   3.570   1.282  0.0947 -0.7603 -0.2920
 6821SOL    HW131922   1.964   3.605   1.355 -0.9938 -0.2512  0.2181
 6821SOL    HW231923   1.979   3.542   1.218  1.4550 -0.0049  0.7718
 6822SOL     OW31924   0.348   2.804   6.372  0.3042  0.2944  0.0652
 6822SOL    HW131925   0.366   2.896   6.355 -0.4012  0.5770  0.8771
 6822SOL    HW231926   0.428   2.776   6.417 -0.4059  0.1815  1.2309
 6823SOL     OW31927   4.420   3.526   7.617 -0.7203 -0.1667  0.0682
 6823SOL    HW131928   4.442   3.601   7.673 -1.5346 -0.2655  0.5240
 6823SOL    HW231929   4.492   3.468   7.641 -0.4705  0.2703  0.3900
 6824SOL     OW31930   2.589   1.109  12.654  0.1264 -0.3721 -0.1217
 6824SOL    HW131931   2.505   1.063  12.647  0.7759 -1.5101 -0.4977
 6824SOL    HW231932   2.565   1.183  12.709  0.2814 -0.9082  0.6687
 6825SOL     OW31933   2.295   3.313   4.828  0.1353  0.5885  0.1070
 6825SOL    HW131934   2.275   3.383   4.890  0.0087  0.3314  0.3548
 6825SOL    HW231935   2.347   3.362   4.764 -1.1656 -0.3680 -1.6711
 6826SOL     OW31936   1.247   0.711  11.124 -0.5286 -0.1526  0.0525
 6826SOL    HW131937   1.162   0.753  11.133 -0.0451  0.4919  1.7072
 6826SOL    HW231938   1.226   0.632  11.075 -0.1250 -1.5999  2.2092
 6827SOL     OW31939   2.714   4.493   8.120 -0.1353 -0.8055  0.1420
 6827SOL    HW131940   2.802   4.498   8.158 -0.4206  0.0493  0.6890
 6827SOL    HW231941   2.747   4.495   8.030 -1.6387  1.7557 -0.3371
 6828SOL     OW31942   3.460   1.540   3.853 -0.7261 -0.4646  0.3150
 6828SOL    HW131943   3.424   1.626   3.829  0.0627 -0.2108  0.0421
 6828SOL    HW231944   3.549   1.570   3.834 -0.2446 -1.1580  1.4727
 6829SOL     OW31945   0.063   2.806   6.852  0.2079 -0.4078  0.1577
 6829SOL    HW131946   0.061   2.900   6.870 -2.3481 -0.6260  0.9256
 6829SOL    HW231947   0.104   2.795   6.766 -1.7346  3.8549 -1.3040
 6830SOL     OW31948   3.441   2.342  10.514 -0.5984  0.0487  0.0390
 6830SOL    HW131949   3.519   2.368  10.563 -0.9156  1.5495 -0.2764
 6830SOL    HW231950   3.390   2.422  10.511 -0.3550  0.1882 -0.4167
 6831SOL     OW31951   1.669   2.412   8.075 -0.2177  0.0652  0.3926
 6831SOL    HW131952   1.684   2.470   8.150 -3.8822  0.2956  0.9516
 6831SOL    HW231953   1.758   2.423   8.041 -0.1625  4.0210  1.8015
 6832SOL     OW31954   1.300   4.351   1.319 -0.5226  0.0849 -0.2359
 6832SOL    HW131955   1.294   4.397   1.402 -1.0159 -0.1016 -0.1719
 6832SOL    HW231956   1.365   4.402   1.271 -0.6480 -1.3269 -1.9078
 6833SOL     OW31957   4.400   2.675   7.243  0.3453 -0.2572 -0.7257
 6833SOL    HW131958   4.433   2.597   7.289  2.6864  1.0322 -0.2540
 6833SOL    HW231959   4.316   2.641   7.211 -0.3298  1.5293 -0.8472
 6834SOL     OW31960   3.960   0.722  11.073  0.1085  0.0147  0.3025
 6834SOL    HW131961   3.879   0.674  11.091 -0.4566  0.6890 -0.4275
 6834SOL    HW231962   4.010   0.659  11.125  0.7133  2.1019  2.2220
 6835SOL     OW31963   2.464   1.878   2.255 -0.1668  0.1563 -0.5003
 6835SOL    HW131964   2.437   1.868   2.346 -0.4016 -0.8712 -0.6866
 6835SOL    HW231965   2.532   1.945   2.257 -0.8709  0.8502 -0.0575
 6836SOL     OW31966   1.842   1.795   8.856  0.4828 -0.8449  0.1230
 6836SOL    HW131967   1.817   1.763   8.770 -1.4459  0.2670  0.2805
 6836SOL    HW231968   1.815   1.885   8.839  0.5357 -0.9311 -0.4052
 6837SOL     OW31969   1.993   4.345   4.854 -0.0729 -0.3888 -0.0318
 6837SOL    HW131970   1.930   4.415   4.841 -0.4515 -0.7270 -0.0075
 6837SOL    HW231971   2.061   4.369   4.790 -0.4225  1.0049  0.1127
 6838SOL     OW31972   3.477   3.474  16.395 -0.2289 -0.4286 -0.2449
 6838SOL    HW131973   3.384   3.487  16.409  0.0885  1.3701  0.3001
 6838SOL    HW231974   3.516   3.495  16.480 -0.5153 -0.6342 -0.0651
 6839SOL     OW31975   3.025   2.940   8.898  0.3653 -0.1047 -0.0692
 6839SOL    HW131976   3.028   3.035   8.885  0.6524 -0.0840  0.1451
 6839SOL    HW231977   2.977   2.933   8.980 -0.6124 -1.0867 -0.7216
 6840SOL     OW31978   1.628   1.608  11.523  0.3305 -0.3675 -0.0813
 6840SOL    HW131979   1.570   1.534  11.541  1.2121 -0.8656  0.7538
 6840SOL    HW231980   1.578   1.670  11.470  0.2371 -0.6276 -0.2988
 6841SOL     OW31981   4.064   1.468  15.866 -0.1459  0.0026  0.3001
 6841SOL    HW131982   4.034   1.406  15.799  2.5322 -0.8759 -0.0981
 6841SOL    HW231983   4.151   1.497  15.838  0.1995  0.3752  1.8012
 6842SOL     OW31984   1.910   4.430   4.486 -0.4355 -0.3879 -0.2158
 6842SOL    HW131985   1.992   4.453   4.530  1.5572 -2.0809 -3.0374
 6842SOL    HW231986   1.857   4.502   4.520  0.0757 -0.3298  0.4687
 6843SOL     OW31987   1.485   2.324  17.658  0.0497 -0.1276  0.5102
 6843SOL    HW131988   1.437   2.243  17.641 -0.6652 -0.2243  2.9268
 6843SOL    HW231989   1.470   2.335   0.056  3.3507 -2.2203  1.2946
 6844SOL     OW31990   2.989   3.689   5.565  0.4075 -0.3144 -0.1312
 6844SOL    HW131991   3.032   3.606   5.582  0.5715 -0.1100  0.4371
 6844SOL    HW231992   2.898   3.677   5.536  0.4872 -0.0255 -0.5029
 6845SOL     OW31993   1.284   4.147   5.119 -0.5258  0.0585 -0.0205
 6845SOL    HW131994   1.248   4.224   5.075  1.4311  2.8860  3.3429
 6845SOL    HW231995   1.333   4.108   5.046  2.5958 -0.0377  2.1321
 6846SOL     OW31996   4.535   3.474   2.997  0.7906 -0.0761 -0.6735
 6846SOL    HW131997   4.456   3.478   3.050 -0.0868 -1.9320 -1.8706
 6846SOL    HW231998   4.515   3.426   2.917 -1.2519  1.9315 -1.3556
 6847SOL     OW31999   3.836   1.016   3.059 -0.4348  0.0599 -0.1055
 6847SOL    HW132000   3.750   1.029   3.099  0.5157  1.6554  1.4260
 6847SOL    HW232001   3.895   1.082   3.096 -0.0522 -1.0655  1.3114
 6848SOL     OW32002   1.162   0.575   7.154 -0.7360  0.5329  0.0953
 6848SOL    HW132003   1.146   0.575   7.060  0.7244  0.3014 -0.1488
 6848SOL    HW232004   1.072   0.550   7.178 -0.3431 -0.1019  0.9238
 6849SOL     OW32005   4.057   4.436   2.617  0.2588 -0.2341 -0.3894
 6849SOL    HW132006   4.043   4.389   2.699  1.3241 -1.2625 -0.7948
 6849SOL    HW232007   4.079   4.355   2.570 -1.3611 -1.5618  1.1477
 6850SOL     OW32008   0.160   1.191   4.157 -0.0692  0.2639  1.2718
 6850SOL    HW132009   0.082   1.136   4.162 -1.9194  2.9034  1.6877
 6850SOL    HW232010   0.184   1.194   4.065 -0.6980  1.8357  1.1573
 6851SOL     OW32011   1.088   1.810   3.776 -0.7850 -0.2522 -0.2050
 6851SOL    HW132012   1.025   1.812   3.847 -0.8166 -0.2050 -0.2343
 6851SOL    HW232013   1.160   1.759   3.812 -0.4523 -0.3708 -1.0348
 6852SOL     OW32014   2.839   2.802   1.587  0.2338  0.4553 -0.1792
 6852SOL    HW132015   2.877   2.828   1.671  1.8090  0.1266 -0.7931
 6852SOL    HW232016   2.802   2.882   1.549  0.1909 -0.0681 -1.2428
 6853SOL     OW32017   1.185   2.133   3.177 -0.1502  0.6468 -0.0149
 6853SOL    HW132018   1.104   2.111   3.131  0.4259  1.4170 -1.3965
 6853SOL    HW232019   1.259   2.104   3.124 -1.9227 -1.6182 -1.2466
 6854SOL     OW32020   3.462   3.758   5.054  0.2552 -1.2395 -0.2550
 6854SOL    HW132021   3.515   3.837   5.041 -0.3010 -0.5684  1.4819
 6854SOL    HW232022   3.381   3.775   5.006 -0.7753 -1.0954  1.5414
 6855SOL     OW32023   2.772   3.927   0.380  0.3806 -0.1840  0.4467
 6855SOL    HW132024   2.719   3.951   0.456  0.7201  2.2019 -0.0863
 6855SOL    HW232025   2.788   4.017   0.351 -0.5797 -0.9015 -2.2945
 6856SOL     OW32026   1.547   1.682  16.285  0.5171  0.0627 -0.1530
 6856SOL    HW132027   1.635   1.653  16.260  0.7497  0.4361  0.2385
 6856SOL    HW232028   1.533   1.632  16.365  2.3177 -0.5427 -0.2181
 6857SOL     OW32029   2.146   1.058   2.822  0.3922  0.2716 -0.1339
 6857SOL    HW132030   2.189   0.996   2.763  0.2928  0.7295 -0.6944
 6857SOL    HW232031   2.198   1.046   2.901 -0.3572  1.8069  0.5900
 6858SOL     OW32032   1.656   2.187   0.591 -0.2590  0.3294  0.2843
 6858SOL    HW132033   1.575   2.151   0.554  0.4409 -2.2712  1.2743
 6858SOL    HW232034   1.700   2.115   0.637  0.5923  1.3206  1.0243
 6859SOL     OW32035   3.416   1.012   8.743 -0.1866 -0.2746  0.0203
 6859SOL    HW132036   3.389   0.938   8.687 -1.2731  0.3445 -0.2757
 6859SOL    HW232037   3.457   1.076   8.684 -1.1791 -0.1851 -0.5844
 6860SOL     OW32038   2.553   0.934   5.055 -0.3950 -0.2141 -0.2237
 6860SOL    HW132039   2.591   0.967   5.137 -0.2884 -2.3793  0.6051
 6860SOL    HW232040   2.492   1.003   5.030 -0.9203 -0.9644 -1.0213
 6861SOL     OW32041   0.615   1.688   7.867  0.1508  0.5629  0.1014
 6861SOL    HW132042   0.629   1.773   7.825  0.8063  0.9443  1.0859
 6861SOL    HW232043   0.698   1.670   7.911  0.2228  2.3208  0.6978
 6862SOL     OW32044   4.024   1.149  16.504 -0.2232 -0.0936  0.3575
 6862SOL    HW132045   4.029   1.066  16.551  0.0918 -0.4742 -0.3607
 6862SOL    HW232046   4.119   1.163  16.507 -0.2204  0.4615 -2.0913
 6863SOL     OW32047   4.142   1.577   4.272 -0.6683  0.0964  0.3915
 6863SOL    HW132048   4.168   1.647   4.213  0.2285  0.1310  0.8367
 6863SOL    HW232049   4.208   1.587   4.340  0.3975 -1.9131 -0.3149
 6864SOL     OW32050   2.273   3.179   2.995  0.1072  0.1461  0.3762
 6864SOL    HW132051   2.193   3.155   3.041 -0.3408  1.0202  0.0516
 6864SOL    HW232052   2.251   3.162   2.904  0.0322 -1.7318  0.7570
 6865SOL     OW32053   1.283   4.569   9.199  0.0590  0.0102 -0.5874
 6865SOL    HW132054   1.299   4.475   9.209  0.6666  0.3619  1.8057
 6865SOL    HW232055   1.302   4.597   9.289  0.6971 -0.4559 -0.5786
 6866SOL     OW32056   2.732   0.431   5.347 -0.3530 -0.2687 -0.1525
 6866SOL    HW132057   2.756   0.518   5.379  0.7349 -0.1186 -1.3303
 6866SOL    HW232058   2.661   0.398   5.401  0.8875  1.6698  2.6117
 6867SOL     OW32059   2.063   0.513  13.024 -0.2940 -0.1815 -0.2014
 6867SOL    HW132060   2.076   0.441  12.963 -2.9776 -0.8786  0.0593
 6867SOL    HW232061   2.150   0.520  13.063 -1.1025 -0.2841  1.6222
 6868SOL     OW32062   1.330   1.160   8.844 -0.1088  0.3874  0.2476
 6868SOL    HW132063   1.309   1.093   8.909  2.0391  1.2676  1.8357
 6868SOL    HW232064   1.406   1.122   8.802 -1.2950 -0.0256 -1.5257
 6869SOL     OW32065   1.853   1.905   1.059  0.2818  0.6150  0.4642
 6869SOL    HW132066   1.773   1.854   1.049 -1.5896  3.1873  2.1760
 6869SOL    HW232067   1.854   1.974   0.993  0.4363  0.3080  0.1465
 6870SOL     OW32068   1.309   3.023   7.235  0.1794  0.3368 -0.6813
 6870SOL    HW132069   1.356   3.082   7.176 -0.4554  0.3348 -1.1805
 6870SOL    HW232070   1.334   3.061   7.320  1.9389 -1.1919 -0.4896
 6871SOL     OW32071   0.100   1.758   8.381 -0.0112 -0.4858  0.3488
 6871SOL    HW132072   0.109   1.836   8.326  1.3107 -0.7912  0.1293
 6871SOL    HW232073   0.189   1.724   8.390  0.5178  1.0388  0.8834
 6872SOL     OW32074   4.509   2.646   4.048 -0.0926 -0.3844 -0.0781
 6872SOL    HW132075   4.569   2.662   3.975 -0.9540  0.4019 -0.6058
 6872SOL    HW232076   4.572   2.614   4.113  0.2881  1.5116  0.4951
 6873SOL     OW32077   1.110   2.139   6.719 -0.2923 -0.5818 -0.2257
 6873SOL    HW132078   1.062   2.213   6.681  0.5495 -0.8503 -1.8415
 6873SOL    HW232079   1.142   2.094   6.641 -0.3270 -2.0573  0.6106
 6874SOL     OW32080   2.750   4.096  14.361 -0.6638 -0.2975 -0.4677
 6874SOL    HW132081   2.721   4.040  14.433 -0.0238  2.4815  1.9506
 6874SOL    HW232082   2.780   4.035  14.294 -0.5306 -0.4631 -0.2580
 6875SOL     OW32083   0.953   0.155  17.531 -0.1695  0.3742 -0.0088
 6875SOL    HW132084   0.874   0.102  17.515 -1.4766  1.4696  2.7746
 6875SOL    HW232085   0.914   0.241  17.543  1.7462  1.0776  1.0676
 6876SOL     OW32086   4.618   2.517   1.620 -0.3856  0.2869  0.8301
 6876SOL    HW132087   4.562   2.563   1.558  0.6985  1.2442  0.5659
 6876SOL    HW232088   4.579   2.430   1.612  0.2622  0.3101 -2.4168
 6877SOL     OW32089   4.429   0.994   7.220 -0.4811  0.3514 -0.4798
 6877SOL    HW132090   4.420   0.912   7.171 -0.1683  0.8880 -1.4296
 6877SOL    HW232091   4.517   1.025   7.199  0.4919 -0.4024  2.4959
 6878SOL     OW32092   1.718   2.254   1.130 -0.3448  0.0195  0.3320
 6878SOL    HW132093   1.677   2.336   1.155 -2.5456 -0.8670 -0.3618
 6878SOL    HW232094   1.649   2.188   1.121 -1.6917  1.4238  0.5331
 6879SOL     OW32095   1.593   0.124   9.777  0.6230 -0.1404 -0.7347
 6879SOL    HW132096   1.528   0.056   9.790  0.6981  0.6921  4.1225
 6879SOL    HW232097   1.634   0.101   9.861 -2.3461  0.0178  0.7592
 6880SOL     OW32098   3.736   3.740   0.478  0.2831 -0.2393  0.2562
 6880SOL    HW132099   3.720   3.750   0.384 -0.4219  1.7000  0.5835
 6880SOL    HW232100   3.740   3.644   0.485 -1.1702 -0.3520 -0.4153
 6881SOL     OW32101   3.085   4.252  13.107  0.2804  0.0980  0.2607
 6881SOL    HW132102   3.163   4.294  13.069 -0.7009  0.5998 -1.2077
 6881SOL    HW232103   3.022   4.322  13.094  0.4470  0.2199  0.0999
 6882SOL     OW32104   0.463   4.316   7.756  0.0916 -0.3492 -0.3858
 6882SOL    HW132105   0.438   4.295   7.847  2.6202 -1.0228  0.1659
 6882SOL    HW232106   0.382   4.287   7.716 -0.3342 -0.9623  0.9222
 6883SOL     OW32107   2.084   4.619  10.570  0.1817  0.1015 -0.2161
 6883SOL    HW132108   2.079   4.709  10.603  1.9398  0.2799 -0.4219
 6883SOL    HW232109   2.017   4.567  10.613  0.8984 -0.6257  0.0172
 6884SOL     OW32110   2.287   0.727  11.795  0.3140  0.7273 -0.8678
 6884SOL    HW132111   2.338   0.646  11.787 -0.6875  0.1826 -1.6923
 6884SOL    HW232112   2.213   0.715  11.736 -1.2230 -2.0739  1.6618
 6885SOL     OW32113   2.816   2.434  15.150 -0.0609 -0.3599  0.2195
 6885SOL    HW132114   2.852   2.522  15.159  2.0009 -1.0129 -1.6025
 6885SOL    HW232115   2.737   2.437  15.204  0.6795 -0.3774  1.3228
 6886SOL     OW32116   1.784   0.942   9.463 -0.4464 -0.4219  0.1172
 6886SOL    HW132117   1.755   1.033   9.474 -0.0065 -0.5335  2.0720
 6886SOL    HW232118   1.749   0.920   9.376  1.5812 -0.4861 -0.6737
 6887SOL     OW32119   1.976   3.098   1.929  0.2821 -0.4377  0.2507
 6887SOL    HW132120   1.915   3.061   1.865 -1.0884 -0.1363  1.3882
 6887SOL    HW232121   2.002   3.026   1.985  0.3378 -1.3968 -1.0025
 6888SOL     OW32122   0.464   3.383   1.808  0.2288  0.2027 -0.0146
 6888SOL    HW132123   0.519   3.305   1.799 -1.4738 -0.8234 -1.2322
 6888SOL    HW232124   0.498   3.439   1.739 -0.4486  2.5425  1.5206
 6889SOL     OW32125   0.682   4.508   0.224  0.1592  0.6875  0.0419
 6889SOL    HW132126   0.627   4.583   0.246 -0.0971 -0.0659  1.9383
 6889SOL    HW232127   0.744   4.551   0.164 -0.3730 -0.0265 -1.0230
 6890SOL     OW32128   3.706   0.599   0.457 -0.4436 -0.0113 -0.1645
 6890SOL    HW132129   3.697   0.651   0.537 -1.5498  0.1581 -0.4100
 6890SOL    HW232130   3.717   0.671   0.395 -0.5389  1.1877  1.2072
 6891SOL     OW32131   0.250   2.608   9.378  0.0120  0.6405  0.0239
 6891SOL    HW132132   0.251   2.512   9.386 -2.0956  0.9184  4.0765
 6891SOL    HW232133   0.338   2.624   9.346  0.2650  0.1054  0.4458
 6892SOL     OW32134   0.748   1.222  13.727 -0.3597 -0.3048 -0.3030
 6892SOL    HW132135   0.782   1.182  13.647  2.7870 -0.1903  0.9555
 6892SOL    HW232136   0.706   1.303  13.698 -1.1514  0.0213  1.7707
 6893SOL     OW32137   0.025   1.656   9.540  0.1014  0.3271  0.0504
 6893SOL    HW132138   0.028   1.567   9.505  0.8942  0.3505  0.0617
 6893SOL    HW232139   0.116   1.682   9.523  0.6320 -1.0801  0.7862
 6894SOL     OW32140   2.647   3.779   5.233  0.3184 -0.2795 -0.0183
 6894SOL    HW132141   2.595   3.859   5.223 -1.5296 -1.3395  1.0211
 6894SOL    HW232142   2.697   3.799   5.312  0.0173  2.5594 -0.5530
 6895SOL     OW32143   0.800   1.283   7.893 -0.2440  0.3489 -0.5174
 6895SOL    HW132144   0.733   1.331   7.845 -0.1853  0.7797 -0.1697
 6895SOL    HW232145   0.785   1.308   7.984  0.0302 -1.5369  0.0510
 6896SOL     OW32146   4.358   1.747   3.280  0.2599 -0.0610  0.1676
 6896SOL    HW132147   4.373   1.837   3.250  3.1687 -1.0281 -1.1509
 6896SOL    HW232148   4.435   1.705   3.242 -0.3584  0.3269 -1.5035
 6897SOL     OW32149   4.387   0.308   5.029 -0.1254  0.6985 -0.2566
 6897SOL    HW132150   4.374   0.403   5.019 -0.2685  0.7784  0.6505
 6897SOL    HW232151   4.445   0.307   5.105 -0.6404  1.2132  0.1428
 6898SOL     OW32152   2.194   3.473   5.049 -0.3594 -0.6231  0.4335
 6898SOL    HW132153   2.184   3.560   5.010 -1.1553  0.0424  2.0983
 6898SOL    HW232154   2.100   3.454   5.054 -0.2730 -1.8062 -2.7374
 6899SOL     OW32155   4.371   1.187  12.641  0.7960  0.2370  0.1922
 6899SOL    HW132156   4.314   1.262  12.625  1.1274  0.3835 -0.3119
 6899SOL    HW232157   4.308   1.119  12.619  0.2057  1.1092 -0.8361
 6900SOL     OW32158   3.785   3.881   9.287 -0.7195 -0.2295  0.6987
 6900SOL    HW132159   3.839   3.864   9.209  2.0495  1.8341  2.1691
 6900SOL    HW232160   3.845   3.857   9.358  0.3020 -2.7631 -0.9963
 6901SOL     OW32161   3.837   2.095   4.162  0.6861  0.6265 -0.2638
 6901SOL    HW132162   3.798   2.080   4.076 -1.7688  4.5366  0.1423
 6901SOL    HW232163   3.768   2.156   4.190  1.2232  1.9360 -1.7611
 6902SOL     OW32164   2.727   4.335   2.897  0.2772 -0.1928 -0.4866
 6902SOL    HW132165   2.685   4.251   2.914  0.0484 -0.0166 -0.1684
 6902SOL    HW232166   2.740   4.328   2.803 -1.9733  1.6870 -0.9363
 6903SOL     OW32167   1.938   1.738   0.502 -0.2921  0.2643  0.1010
 6903SOL    HW132168   2.007   1.716   0.440 -1.0738  0.3113 -0.7913
 6903SOL    HW232169   1.967   1.695   0.582  2.4007  1.2079 -0.4006
 6904SOL     OW32170   2.122   4.160  16.830  0.6539  0.3116  0.4207
 6904SOL    HW132171   2.107   4.201  16.745  0.4926  0.2513  0.4198
 6904SOL    HW232172   2.051   4.207  16.874  0.1691 -0.2338  0.2279
 6905SOL     OW32173   1.111   3.724   7.035  0.6139 -0.1168 -0.2116
 6905SOL    HW132174   1.116   3.817   7.054 -1.9310 -0.2820  1.1478
 6905SOL    HW232175   1.167   3.703   6.960 -2.7148 -3.0697 -1.8755
 6906SOL     OW32176   2.052   0.032   3.797 -0.0487 -0.4549 -0.1096
 6906SOL    HW132177   1.993   0.106   3.779  0.3453  0.1860  1.2107
 6906SOL    HW232178   2.129   0.084   3.823 -1.4666  0.7706  1.6662
 6907SOL     OW32179   4.569   3.825  17.455  0.2150  0.0199 -0.0981
 6907SOL    HW132180   4.655   3.867  17.444  0.7218 -1.2098 -0.8553
 6907SOL    HW232181   4.525   3.866  17.381  0.2285 -0.4191 -0.3488
 6908SOL     OW32182   0.291   1.682   2.714  0.2774 -0.6547 -0.6316
 6908SOL    HW132183   0.381   1.714   2.720 -0.4360  1.3375 -0.4250
 6908SOL    HW232184   0.260   1.696   2.625 -1.4344 -1.0463 -0.1055
 6909SOL     OW32185   4.309   2.519  12.107  0.3038 -0.1106  0.2784
 6909SOL    HW132186   4.358   2.484  12.033 -0.5039  0.3260 -0.4691
 6909SOL    HW232187   4.226   2.473  12.099 -1.0051  2.3047  0.0200
 6910SOL     OW32188   1.985   2.607   9.349  0.0147 -0.4539 -0.0205
 6910SOL    HW132189   1.919   2.541   9.328  1.0002 -1.6095  0.5175
 6910SOL    HW232190   1.975   2.628   9.442 -0.0309 -1.4374  0.1968
 6911SOL     OW32191   2.629   3.680   4.713  0.2928  0.8412  0.6481
 6911SOL    HW132192   2.576   3.756   4.735 -0.5443  0.6347 -0.6746
 6911SOL    HW232193   2.683   3.677   4.792  0.0272 -3.9859  0.6420
 6912SOL     OW32194   2.614   1.091   2.597  0.1501  0.0597  0.0839
 6912SOL    HW132195   2.536   1.098   2.543  1.6779 -0.5452 -2.2244
 6912SOL    HW232196   2.641   1.001   2.580 -0.1671  0.3633 -2.0401
 6913SOL     OW32197   0.553   2.209   8.995  0.2460 -0.2503  0.5842
 6913SOL    HW132198   0.635   2.180   9.035  1.3031  0.6236 -0.9163
 6913SOL    HW232199   0.527   2.285   9.046 -0.1901 -1.1055  1.6241
 6914SOL     OW32200   3.546   3.259   6.415  1.0071 -0.1854 -0.2137
 6914SOL    HW132201   3.465   3.236   6.369 -1.5766  3.5344  2.4707
 6914SOL    HW232202   3.514   3.231   6.501 -1.6075  2.2457 -0.3827
 6915SOL     OW32203   3.672   0.186   4.900  0.1790 -0.0779 -0.4810
 6915SOL    HW132204   3.767   0.191   4.889  0.0884 -0.5360 -1.4751
 6915SOL    HW232205   3.635   0.126   4.835  0.6329 -0.9538  0.0597
 6916SOL     OW32206   4.348   1.391   6.294 -0.0836 -0.4071  0.0408
 6916SOL    HW132207   4.340   1.328   6.365  3.5122  0.4679  1.2227
 6916SOL    HW232208   4.349   1.471   6.345  0.2104  0.0561 -0.6874
 6917SOL     OW32209   3.545   4.119   2.849  0.2579  0.1118  0.1446
 6917SOL    HW132210   3.623   4.076   2.883 -0.8202 -0.1522  2.2854
 6917SOL    HW232211   3.487   4.109   2.925  0.9734  0.0811  0.6883
 6918SOL     OW32212   2.730   0.802   6.923 -0.3503  0.4541  0.1408
 6918SOL    HW132213   2.722   0.833   7.013  1.0907 -0.6046  0.6210
 6918SOL    HW232214   2.790   0.728   6.929 -1.6675 -0.4997  1.4245
 6919SOL     OW32215   2.477   0.562  15.862 -1.5617  0.8882 -0.2185
 6919SOL    HW132216   2.420   0.496  15.822 -0.5911 -0.0565 -0.0470
 6919SOL    HW232217   2.535   0.584  15.790 -2.0746 -0.1650 -0.9448
 6920SOL     OW32218   1.054   1.423   8.166  0.2319  0.6709 -0.0650
 6920SOL    HW132219   1.078   1.421   8.259 -1.0814 -1.7351  0.2019
 6920SOL    HW232220   0.964   1.394   8.171  0.5728 -0.0276  2.3262
 6921SOL     OW32221   2.112   1.017  13.388 -0.2467 -0.3591  0.1030
 6921SOL    HW132222   2.019   1.006  13.367 -0.2945  0.6865 -0.2249
 6921SOL    HW232223   2.157   0.962  13.322 -0.2251 -1.4348  1.0197
 6922SOL     OW32224   2.754   3.457  13.096 -0.0464 -0.4081 -0.1528
 6922SOL    HW132225   2.811   3.448  13.020 -1.3341  0.4281 -1.2223
 6922SOL    HW232226   2.804   3.401  13.156 -2.5454  0.1946  2.5021
 6923SOL     OW32227   3.630   4.493   5.720  0.3034 -0.1813  0.8570
 6923SOL    HW132228   3.576   4.565   5.753 -1.3106 -1.6069  1.3345
 6923SOL    HW232229   3.608   4.409   5.760  0.2624 -0.2998  0.5843
 6924SOL     OW32230   2.618   0.383   6.432  0.3042 -0.0681 -0.1788
 6924SOL    HW132231   2.564   0.459   6.411 -2.7755 -2.5704 -1.3086
 6924SOL    HW232232   2.649   0.405   6.520  0.1386 -0.1993 -0.0894
 6925SOL     OW32233   2.980   0.990   1.478  0.0311 -0.1930  0.4163
 6925SOL    HW132234   3.065   1.021   1.512  0.3025 -0.1706 -0.2865
 6925SOL    HW232235   2.960   1.041   1.399  0.5140 -0.2075  0.2825
 6926SOL     OW32236   0.216   3.284  10.943 -0.5936  0.0045 -0.2335
 6926SOL    HW132237   0.297   3.242  10.915  0.0729  0.7510  0.5945
 6926SOL    HW232238   0.169   3.292  10.860  0.5262 -0.3649 -0.9009
 6927SOL     OW32239   0.833   4.639   1.400  0.0513  0.2593  0.2875
 6927SOL    HW132240   0.823   4.544   1.402 -0.3498  0.2919 -0.2586
 6927SOL    HW232241   0.928   4.639   1.412  0.3409 -0.2828 -2.0061
 6928SOL     OW32242   0.803   1.714   2.918  0.2259  0.3964 -0.4235
 6928SOL    HW132243   0.891   1.749   2.905 -0.5991  2.1481 -1.3484
 6928SOL    HW232244   0.808   1.639   2.858  1.2739  0.9446 -1.0136
 6929SOL     OW32245   0.981   3.702   7.728  0.4348  0.0541 -0.0078
 6929SOL    HW132246   0.965   3.657   7.645  0.3060  2.5197 -1.3161
 6929SOL    HW232247   0.908   3.765   7.733 -0.0282 -0.3362 -1.8813
 6930SOL     OW32248   2.412   1.396   8.002 -0.0740  0.5035  0.1605
 6930SOL    HW132249   2.469   1.330   8.041 -0.8870 -0.0925  0.3139
 6930SOL    HW232250   2.480   1.440   7.949  1.1063 -0.3169  0.9881
 6931SOL     OW32251   0.218   0.002   4.766 -0.6351  0.1031  0.1508
 6931SOL    HW132252   0.181   0.054   4.695  0.3573 -0.2582 -0.6263
 6931SOL    HW232253   0.170   4.646   4.745  1.1094 -1.0886  0.6381
 6932SOL     OW32254   2.831   4.576   8.903  0.0117  0.0255  0.1691
 6932SOL    HW132255   2.866   4.538   8.984 -0.3098 -2.3854 -0.8117
 6932SOL    HW232256   2.895   4.647   8.892  0.6322 -0.5344  0.1731
 6933SOL     OW32257   0.255   2.056   0.950  0.2148  0.9874  0.3234
 6933SOL    HW132258   0.222   2.057   1.040 -1.1215 -1.4457 -0.1289
 6933SOL    HW232259   0.302   1.973   0.954 -0.9797  0.3172  0.4913
 6934SOL     OW32260   0.626   2.942   9.283  0.0630  0.3578  0.5704
 6934SOL    HW132261   0.698   2.912   9.228 -0.4902  2.8496 -1.5444
 6934SOL    HW232262   0.651   3.026   9.322 -1.8288 -0.0620  2.6999
 6935SOL     OW32263   3.631   0.313   8.095 -0.3648 -0.1183  0.1872
 6935SOL    HW132264   3.607   0.222   8.075 -3.6660  0.6539  0.6171
 6935SOL    HW232265   3.726   0.299   8.092 -0.2260  0.6144  1.3602
 6936SOL     OW32266   0.937   4.614  14.976  0.1847  0.1751 -0.6550
 6936SOL    HW132267   0.896   4.609  15.062  1.5199 -1.8408 -0.1457
 6936SOL    HW232268   1.028   4.635  15.000 -0.2584  2.0237 -0.5676
 6937SOL     OW32269   3.086   3.297  16.579 -0.5486 -0.0530  0.4864
 6937SOL    HW132270   3.071   3.262  16.667  1.3550  0.6568  1.0971
 6937SOL    HW232271   3.045   3.233  16.521 -0.3769  1.7082 -1.5775
 6938SOL     OW32272   1.995   1.561   2.662  0.2526  0.7414 -0.0582
 6938SOL    HW132273   2.050   1.487   2.687  0.8188  1.3808  0.6177
 6938SOL    HW232274   2.023   1.576   2.572 -0.0915 -0.2336 -0.3251
 6939SOL     OW32275   1.343   3.454   8.367 -0.2652 -0.0752  0.4537
 6939SOL    HW132276   1.344   3.405   8.284  2.5689  2.5777 -1.0909
 6939SOL    HW232277   1.250   3.452   8.389 -0.8773  0.0142 -2.0355
 6940SOL     OW32278   0.573   3.920  13.091  0.1630 -0.0027 -0.3101
 6940SOL    HW132279   0.659   3.911  13.050 -0.4536 -0.2632 -1.5567
 6940SOL    HW232280   0.595   3.971  13.169 -0.3066  0.7115 -0.6517
 6941SOL     OW32281   0.576   1.469  13.712  0.3974  0.7021  0.0977
 6941SOL    HW132282   0.539   1.557  13.721 -0.2676  0.5470 -1.1096
 6941SOL    HW232283   0.567   1.437  13.802 -0.7279 -1.7332 -0.8768
 6942SOL     OW32284   2.169   1.184   8.855 -0.3420  0.0626 -0.6523
 6942SOL    HW132285   2.146   1.136   8.935 -1.4068  1.9881  0.1961
 6942SOL    HW232286   2.202   1.261   8.900 -0.9587 -0.4341  0.6408
 6943SOL     OW32287   4.019   0.515   6.032 -0.0141 -0.0425  0.4737
 6943SOL    HW132288   3.957   0.489   5.964 -0.1584  1.0377  0.1860
 6943SOL    HW232289   4.063   0.432   6.051 -1.3044 -0.8859 -0.2299
 6944SOL     OW32290   0.065   1.462  11.929 -0.0057  0.1576 -0.6443
 6944SOL    HW132291   0.150   1.417  11.923  0.1761  0.6971 -2.0960
 6944SOL    HW232292   0.090   1.523  11.998  0.5334  0.6410 -1.2632
 6945SOL     OW32293   1.502   2.925  12.065 -0.0347  0.4252 -0.2230
 6945SOL    HW132294   1.456   2.958  11.988 -0.0241  1.5811  0.2671
 6945SOL    HW232295   1.491   2.991  12.133 -1.2124 -1.1362  1.1170
 6946SOL     OW32296   2.288   0.104  13.903  0.6258 -0.4492  0.2194
 6946SOL    HW132297   2.368   0.053  13.912  1.1682  0.8470  2.7547
 6946SOL    HW232298   2.222   0.035  13.894 -0.0620  0.5722 -2.5146
 6947SOL     OW32299   0.640   2.673  12.751 -0.0115  0.7896 -0.2675
 6947SOL    HW132300   0.565   2.630  12.792  0.6279 -0.5482 -0.5335
 6947SOL    HW232301   0.688   2.688  12.833  0.4056 -0.1753 -0.3446
 6948SOL     OW32302   1.545   3.798   1.746  0.8207  0.1360  0.0020
 6948SOL    HW132303   1.632   3.783   1.708  0.6553  0.2536 -0.4287
 6948SOL    HW232304   1.573   3.846   1.824  1.3678 -0.3158  0.0799
 6949SOL     OW32305   1.675   4.672   6.782  0.2210  0.1622 -0.5487
 6949SOL    HW132306   1.589   4.630   6.786 -0.0877  0.9238  0.7563
 6949SOL    HW232307   1.744   4.607   6.791  0.0127 -0.1110 -0.9000
 6950SOL     OW32308   1.782   3.489  11.682 -0.3913  0.0308  0.4192
 6950SOL    HW132309   1.741   3.452  11.604 -1.7346  0.6686  0.8143
 6950SOL    HW232310   1.716   3.556  11.701  2.3854  2.1472  2.7662
 6951SOL     OW32311   2.941   4.278  17.192  0.2101 -0.4527  0.0431
 6951SOL    HW132312   2.981   4.249  17.273  0.4608 -0.6022 -0.1321
 6951SOL    HW232313   2.882   4.346  17.223 -0.0475 -0.4615 -0.4317
 6952SOL     OW32314   3.258   3.373   4.897 -0.1666 -0.2931  0.1375
 6952SOL    HW132315   3.324   3.318   4.854  2.2379  0.0232  3.4320
 6952SOL    HW232316   3.304   3.386   4.980 -0.0571  1.9886 -0.2811
 6953SOL     OW32317   3.675   0.325   0.440 -0.1023 -0.7563  0.1333
 6953SOL    HW132318   3.676   0.319   0.344  0.1283  0.6111  0.0526
 6953SOL    HW232319   3.692   0.418   0.452 -1.4490 -0.1664 -2.3873
 6954SOL     OW32320   0.300   1.445  10.617 -0.2492 -0.3549  0.0048
 6954SOL    HW132321   0.274   1.353  10.614 -2.6110  0.3542 -1.0194
 6954SOL    HW232322   0.227   1.480  10.565  1.5014  1.1467 -1.4731
 6955SOL     OW32323   0.633   0.805   3.462  0.1241  0.2858 -0.1864
 6955SOL    HW132324   0.662   0.834   3.375  2.6986  3.4383  1.7228
 6955SOL    HW232325   0.708   0.837   3.512 -0.6983  1.4410  0.3043
 6956SOL     OW32326   2.119   3.264   2.251 -0.4024  0.5555 -0.0939
 6956SOL    HW132327   2.094   3.345   2.293 -1.3570 -0.2572  0.9001
 6956SOL    HW232328   2.099   3.280   2.159 -0.4595  0.6939 -0.0562
 6957SOL     OW32329   2.591   1.958   6.646  0.1454  0.5907 -0.5530
 6957SOL    HW132330   2.576   1.933   6.737 -1.6988  2.5074 -0.3234
 6957SOL    HW232331   2.506   1.996   6.626 -0.2286  0.2301  0.3489
 6958SOL     OW32332   0.548   1.413  12.568 -0.2388 -1.2471 -0.2892
 6958SOL    HW132333   0.562   1.487  12.628 -0.9588 -3.0202  2.0888
 6958SOL    HW232334   0.536   1.456  12.484 -1.3200  1.5300  1.2796
 6959SOL     OW32335   2.770   1.465  13.023 -0.3758 -0.5318  0.1529
 6959SOL    HW132336   2.770   1.424  13.109  1.0479  1.2580  1.0010
 6959SOL    HW232337   2.793   1.396  12.961 -1.3857 -0.5749 -0.1822
 6960SOL     OW32338   0.892   2.972   5.635  0.2069  0.5271  0.4315
 6960SOL    HW132339   0.904   3.021   5.554  0.1373 -0.1584  0.0043
 6960SOL    HW232340   0.882   2.880   5.611 -1.8644  1.1172 -0.9472
 6961SOL     OW32341   2.733   0.848  13.298 -0.5642  0.0711  0.3798
 6961SOL    HW132342   2.769   0.779  13.353  0.7075  1.4306  1.2467
 6961SOL    HW232343   2.799   0.833  13.231  1.3794 -0.1064  2.3535
 6962SOL     OW32344   1.967   2.387   7.254  0.0087  0.0447 -0.4223
 6962SOL    HW132345   2.050   2.420   7.287  0.3635  0.4693 -1.7311
 6962SOL    HW232346   1.931   2.345   7.332  0.1835  0.2653 -0.2239
 6963SOL     OW32347   0.700   2.789   8.823 -0.0306  0.1059 -0.7998
 6963SOL    HW132348   0.765   2.802   8.754 -0.5703  0.6022 -1.2179
 6963SOL    HW232349   0.696   2.695   8.840 -2.9726  0.0807 -1.6044
 6964SOL     OW32350   2.655   4.341   4.616 -0.0077  0.3412  0.5216
 6964SOL    HW132351   2.738   4.357   4.661  0.8320 -2.1865 -0.1538
 6964SOL    HW232352   2.599   4.302   4.683 -1.0085 -0.2477 -0.6587
 6965SOL     OW32353   0.765   3.484   0.064 -0.4090 -0.4762  0.1790
 6965SOL    HW132354   0.861   3.488   0.060 -0.3937  0.5125  1.6303
 6965SOL    HW232355   0.762   3.579   0.075  0.8837 -0.4171  0.0620
 6966SOL     OW32356   3.318   2.853  12.528  0.1281 -0.1962 -0.6989
 6966SOL    HW132357   3.325   2.948  12.529  2.0683 -0.3394  0.9192
 6966SOL    HW232358   3.400   2.837  12.482 -0.0268 -0.2380 -0.9605
 6967SOL     OW32359   1.010   1.066   6.447 -1.2256 -0.0034 -0.4685
 6967SOL    HW132360   1.046   1.107   6.368 -2.1344  0.1191 -0.8185
 6967SOL    HW232361   1.049   1.117   6.518 -0.0642 -2.3914  0.6046
 6968SOL     OW32362   1.942   3.338   0.587  0.2707  0.3156 -0.4886
 6968SOL    HW132363   1.922   3.245   0.602  2.3214 -0.3125 -1.5840
 6968SOL    HW232364   2.001   3.323   0.512  1.2711 -2.0755  0.7589
 6969SOL     OW32365   1.358   0.439  17.307 -0.0235 -0.7670  0.1804
 6969SOL    HW132366   1.286   0.403  17.255 -0.1744  0.5277 -0.5038
 6969SOL    HW232367   1.374   0.362  17.362 -1.1079 -1.1676 -0.0679
 6970SOL     OW32368   1.872   0.979   2.823 -0.0582 -0.6984 -0.6276
 6970SOL    HW132369   1.866   0.886   2.845 -0.3125 -0.1895  1.4711
 6970SOL    HW232370   1.966   0.994   2.825  0.3302 -3.4964  2.8685
 6971SOL     OW32371   3.638   3.658   6.171  0.3473  0.1746 -0.0087
 6971SOL    HW132372   3.606   3.597   6.238 -1.6937  1.5170  0.2214
 6971SOL    HW232373   3.618   3.740   6.215  0.1371  1.7728 -3.1252
 6972SOL     OW32374   2.532   0.126   1.872  0.2316  0.5101  0.0832
 6972SOL    HW132375   2.623   0.105   1.892  0.3751  0.5170 -0.5757
 6972SOL    HW232376   2.529   0.178   1.792  0.1377 -0.9503 -0.8417
 6973SOL     OW32377   4.647   3.423   0.846  0.9654 -0.0425  0.1340
 6973SOL    HW132378   4.570   3.387   0.802  0.5652  0.8775  0.0682
 6973SOL    HW232379   4.612   3.428   0.935 -0.4381  0.6390 -0.4501
 6974SOL     OW32380   1.577   1.819   8.324 -0.0641  0.5990 -0.2862
 6974SOL    HW132381   1.638   1.850   8.257 -0.7655 -2.5556 -2.4012
 6974SOL    HW232382   1.566   1.726   8.304  0.7794  0.6339 -0.9076
 6975SOL     OW32383   4.214   1.029   9.574  0.1729  0.2741  0.3325
 6975SOL    HW132384   4.222   0.952   9.630 -2.2644  0.5464  1.0448
 6975SOL    HW232385   4.272   1.004   9.502 -3.5597 -0.3235 -2.4551
 6976SOL     OW32386   1.634   3.473   7.524  0.3421 -0.6443 -0.3083
 6976SOL    HW132387   1.656   3.541   7.461 -0.9216 -0.1853 -0.2440
 6976SOL    HW232388   1.645   3.389   7.481  1.7843  0.1170 -1.4230
 6977SOL     OW32389   2.352   4.348   1.409  0.5341  0.0977 -0.5277
 6977SOL    HW132390   2.331   4.435   1.375 -0.0203 -0.7285 -2.3401
 6977SOL    HW232391   2.268   4.303   1.399  0.0942  1.5012 -3.3426
 6978SOL     OW32392   1.729   4.295   1.275  0.1830  0.1124 -0.1724
 6978SOL    HW132393   1.696   4.360   1.214 -0.3251 -1.1796 -1.2653
 6978SOL    HW232394   1.733   4.221   1.214  0.2812 -0.3122  0.3390
 6979SOL     OW32395   3.041   3.365   3.479 -0.4181 -0.7529  0.0870
 6979SOL    HW132396   3.040   3.366   3.574  1.7259 -2.2647  0.1306
 6979SOL    HW232397   2.946   3.373   3.467 -0.2204  1.0446 -0.3330
 6980SOL     OW32398   4.091   2.634   9.966  0.3574 -0.2421  0.2576
 6980SOL    HW132399   4.046   2.672   9.890  0.3884 -0.7283  0.0000
 6980SOL    HW232400   4.170   2.687   9.966 -0.7891  1.5031 -1.5011
 6981SOL     OW32401   0.349   4.395  10.992  0.5910  0.3749 -0.3339
 6981SOL    HW132402   0.300   4.467  11.032 -1.6873 -1.3504 -0.0819
 6981SOL    HW232403   0.367   4.428  10.904  1.1469 -1.8961 -1.0527
 6982SOL     OW32404   1.273   3.845   2.722  0.0659  0.2993 -0.0583
 6982SOL    HW132405   1.321   3.834   2.804 -0.0096 -0.4581 -0.1113
 6982SOL    HW232406   1.339   3.806   2.665  1.3880  0.9339  1.0411
 6983SOL     OW32407   2.266   1.847   1.726  0.7467  0.2286  0.4349
 6983SOL    HW132408   2.303   1.917   1.780  0.1272  0.4756  0.5450
 6983SOL    HW232409   2.339   1.795   1.693  0.1277  0.2235 -0.8995
 6984SOL     OW32410   2.470   1.192   7.271 -0.3248  0.5765  0.4715
 6984SOL    HW132411   2.563   1.214   7.266 -0.1902 -0.1405 -0.1533
 6984SOL    HW232412   2.474   1.096   7.266  0.5348  0.6135  0.4256
 6985SOL     OW32413   4.251   4.174   3.111 -0.0240 -0.1366 -0.2502
 6985SOL    HW132414   4.221   4.265   3.110  0.9060  0.1906  1.1579
 6985SOL    HW232415   4.269   4.163   3.205  2.5855 -0.9762 -0.8468
 6986SOL     OW32416   4.479   0.158   5.422  0.3037  0.0235  0.2204
 6986SOL    HW132417   4.544   0.135   5.488  0.8209 -1.6378 -0.8414
 6986SOL    HW232418   4.399   0.116   5.454  0.9804 -1.1019  0.4489
 6987SOL     OW32419   2.415   2.222   8.951  0.2997 -0.0880 -0.1744
 6987SOL    HW132420   2.453   2.305   8.922  0.5209 -0.4271 -0.8453
 6987SOL    HW232421   2.366   2.246   9.030  2.1412 -0.0371  0.9668
 6988SOL     OW32422   4.463   0.213   8.106 -0.2284  0.0544  0.2694
 6988SOL    HW132423   4.460   0.289   8.164 -1.9606 -1.4993  2.1874
 6988SOL    HW232424   4.437   0.261   8.027 -1.6253 -1.0250  0.0863
 6989SOL     OW32425   0.281   3.834   8.334  0.1260 -0.2343  0.4112
 6989SOL    HW132426   0.211   3.836   8.270 -0.4232  2.5499  1.0760
 6989SOL    HW232427   0.348   3.797   8.277  0.3847 -0.3717  0.8012
 6990SOL     OW32428   2.728   3.152  17.258 -0.3946  0.6667  0.3123
 6990SOL    HW132429   2.808   3.140  17.207 -0.6279 -1.1659  0.4021
 6990SOL    HW232430   2.741   3.081  17.321 -3.2978  0.2424  0.4385
 6991SOL     OW32431   0.603   4.188   2.768 -0.0941  0.6571  0.7164
 6991SOL    HW132432   0.659   4.148   2.701 -0.9267  0.8682 -0.1095
 6991SOL    HW232433   0.596   4.278   2.736 -0.7474  0.1910 -0.4456
 6992SOL     OW32434   2.409   1.980   8.597  0.0213 -0.0488  0.1292
 6992SOL    HW132435   2.481   2.028   8.637 -0.4519  1.0234 -0.3061
 6992SOL    HW232436   2.418   2.006   8.506 -0.1925  2.6424  0.8858
 6993SOL     OW32437   1.992   0.911   3.667 -0.7356 -0.2544  0.2162
 6993SOL    HW132438   2.002   0.831   3.615 -1.0958 -0.2503  0.1399
 6993SOL    HW232439   1.925   0.966   3.625 -1.4532 -1.0595  0.3077
 6994SOL     OW32440   3.866   2.714   2.595 -0.5868 -0.6672 -0.1244
 6994SOL    HW132441   3.854   2.797   2.640 -0.2529 -0.1531 -0.9789
 6994SOL    HW232442   3.953   2.686   2.625  0.3242 -0.4100 -2.4904
 6995SOL     OW32443   2.865   1.979  15.084 -0.4632 -0.0746  0.1389
 6995SOL    HW132444   2.937   2.042  15.096  0.5061 -1.2303  0.3593
 6995SOL    HW232445   2.791   2.037  15.068  0.5548  0.5867 -2.1984
 6996SOL     OW32446   1.112   3.357   0.695  0.2938 -0.1676  0.2588
 6996SOL    HW132447   1.039   3.303   0.726 -0.1945  0.2769 -0.1230
 6996SOL    HW232448   1.135   3.315   0.612 -0.8947 -0.4719  0.0868
 6997SOL     OW32449   3.434   0.047   6.115  0.1538  0.4147 -1.0678
 6997SOL    HW132450   3.354   0.091   6.143 -0.1023  0.6153 -2.1223
 6997SOL    HW232451   3.496   0.070   6.184 -2.8773  0.2002  1.7223
 6998SOL     OW32452   0.559   1.958   8.212 -0.3001 -0.3251 -0.6405
 6998SOL    HW132453   0.623   1.895   8.179 -0.2130 -1.8421  2.4267
 6998SOL    HW232454   0.592   2.044   8.185 -1.1370  0.1987 -0.0076
 6999SOL     OW32455   0.228   0.161   2.877 -0.1141  0.1728  0.6662
 6999SOL    HW132456   0.141   0.147   2.839  1.2373 -1.1176 -1.9374
 6999SOL    HW232457   0.269   0.218   2.812  1.1840  1.2149  2.3762
 7000SOL     OW32458   0.461   1.359   6.387  0.5512 -0.4735 -0.2208
 7000SOL    HW132459   0.395   1.410   6.340  0.6882  0.0880  0.2027
 7000SOL    HW232460   0.406   1.283   6.408 -0.3921  1.4495  4.2599
 7001SOL     OW32461   1.109   3.433   0.362 -0.0100  0.1924 -0.5469
 7001SOL    HW132462   1.041   3.496   0.388 -0.6567  0.3990 -2.8036
 7001SOL    HW232463   1.178   3.479   0.411 -2.6940  1.7694  1.7998
 7002SOL     OW32464   3.051   4.027   5.172  0.5678  0.2072  0.3352
 7002SOL    HW132465   3.005   4.070   5.245 -1.3987 -0.6826 -0.3799
 7002SOL    HW232466   3.085   4.100   5.120 -1.0255  2.8190  2.9183
 7003SOL     OW32467   1.426   1.490  14.540  0.2399 -0.1722  0.0877
 7003SOL    HW132468   1.484   1.561  14.568  2.0198 -0.4604 -2.8501
 7003SOL    HW232469   1.424   1.504  14.446  1.7358  1.4004  0.2895
 7004SOL     OW32470   3.880   0.725  12.927 -0.4341 -0.2417 -0.3343
 7004SOL    HW132471   3.921   0.740  13.012 -2.4923  2.2741  0.2129
 7004SOL    HW232472   3.957   0.698  12.876  0.0973  1.0571 -0.2226
 7005SOL     OW32473   0.700   2.149   8.592  0.0776  0.4154  0.1476
 7005SOL    HW132474   0.712   2.068   8.542 -1.9808 -0.9370  1.8652
 7005SOL    HW232475   0.779   2.197   8.567 -0.0441  1.1674  1.1837
 7006SOL     OW32476   1.809   0.946   5.472 -0.0069  0.1029 -0.3675
 7006SOL    HW132477   1.809   1.005   5.397  0.4978 -1.0997 -1.3192
 7006SOL    HW232478   1.869   0.994   5.529 -2.1138 -0.8152  2.6824
 7007SOL     OW32479   1.692   0.405   6.629  0.0036  0.3283  0.3713
 7007SOL    HW132480   1.681   0.317   6.592 -2.2412  0.4397  0.7658
 7007SOL    HW232481   1.786   0.401   6.649  0.1224  1.3151  0.0171
 7008SOL     OW32482   3.390   1.144   6.313 -0.1591  0.2696 -0.2748
 7008SOL    HW132483   3.296   1.126   6.322 -0.5173  1.9232 -0.7911
 7008SOL    HW232484   3.426   1.078   6.372  0.6224  2.4831  1.6856
 7009SOL     OW32485   0.349   1.343   7.065  0.3233  0.0233 -0.4187
 7009SOL    HW132486   0.314   1.363   6.978 -1.5422  0.5375  0.4455
 7009SOL    HW232487   0.341   1.427   7.111  1.4143 -0.3166  0.3857
 7010SOL     OW32488   4.611   0.902   8.214  0.1108 -0.3507 -0.3034
 7010SOL    HW132489   4.584   0.981   8.168 -1.1624 -1.7468 -1.9611
 7010SOL    HW232490   4.700   0.921   8.243  0.0677 -0.8175  0.1494
 7011SOL     OW32491   2.095   0.763   5.757  0.0122 -0.6511  0.4612
 7011SOL    HW132492   2.120   0.675   5.729  0.4200  0.2027 -1.8245
 7011SOL    HW232493   2.115   0.771   5.851  0.9695  0.6547  0.1427
 7012SOL     OW32494   2.577   1.852   9.372  0.1149  0.0407 -0.4282
 7012SOL    HW132495   2.485   1.860   9.396  0.5159  0.5933  0.9491
 7012SOL    HW232496   2.599   1.933   9.326  0.8666  0.7228  1.0993
 7013SOL     OW32497   3.687   4.570   9.495 -0.5829  0.2857  0.2176
 7013SOL    HW132498   3.757   4.538   9.438 -0.1549 -0.9332  1.4381
 7013SOL    HW232499   3.719   4.547   9.582  2.6837 -1.6911 -1.5095
 7014SOL     OW32500   0.225   3.357  14.443  0.0203  0.3290 -0.5736
 7014SOL    HW132501   0.164   3.365  14.370 -1.0021 -0.2355  0.2174
 7014SOL    HW232502   0.230   3.262  14.451 -0.7282  0.4306  1.2324
 7015SOL     OW32503   4.529   4.030   8.611 -0.0152 -0.0379 -0.4639
 7015SOL    HW132504   4.495   3.953   8.566 -0.7373 -0.8303  1.4465
 7015SOL    HW232505   4.623   4.013   8.605 -0.1067 -0.8496  0.3611
 7016SOL     OW32506   1.846   3.949   8.619 -0.1503 -0.0074  0.1480
 7016SOL    HW132507   1.800   3.865   8.619 -2.2354  1.1615 -0.1729
 7016SOL    HW232508   1.773   4.004   8.591 -0.4217  0.5220  1.9211
 7017SOL     OW32509   1.711   2.215   5.010  0.5181  0.1494 -0.2111
 7017SOL    HW132510   1.723   2.193   5.102 -1.0901 -1.7862 -0.4735
 7017SOL    HW232511   1.618   2.230   4.998  0.3157 -0.0192  1.2244
 7018SOL     OW32512   0.688   1.322  10.659  0.6825 -0.0288 -0.3169
 7018SOL    HW132513   0.763   1.382  10.665 -0.4297  1.1176  2.2545
 7018SOL    HW232514   0.645   1.321  10.745 -0.1050  0.2678 -0.7113
 7019SOL     OW32515   1.352   0.661   7.692  0.4373 -0.6248 -0.0648
 7019SOL    HW132516   1.319   0.738   7.740 -0.7369  0.4598 -2.6201
 7019SOL    HW232517   1.279   0.607   7.722 -2.0917  2.1283 -1.1713
 7020SOL     OW32518   1.867   2.496  10.578 -0.4783 -0.5480 -0.1077
 7020SOL    HW132519   1.941   2.556  10.572 -0.6730 -0.3702 -0.8774
 7020SOL    HW232520   1.823   2.532  10.500 -1.2592  0.2914  0.7146
 7021SOL     OW32521   1.316   3.328   6.774  0.6543 -0.5645 -0.3136
 7021SOL    HW132522   1.267   3.297   6.850  1.3518  1.2940  0.8870
 7021SOL    HW232523   1.388   3.374   6.817 -0.3425  0.6164  0.0869
 7022SOL     OW32524   1.749   0.735  16.736 -0.0531 -0.0900  0.8861
 7022SOL    HW132525   1.808   0.810  16.734 -0.4438  0.1630 -1.9791
 7022SOL    HW232526   1.700   0.759  16.814  0.0808 -2.7563  1.7869
 7023SOL     OW32527   4.634   0.207   4.079 -0.0906 -0.6689 -0.2774
 7023SOL    HW132528   4.580   0.270   4.126 -1.7111 -1.9001 -0.5008
 7023SOL    HW232529   4.599   0.190   3.992  0.2026 -0.3115 -0.4664
 7024SOL     OW32530   2.265   3.715   7.870 -0.3050 -0.3469  0.4347
 7024SOL    HW132531   2.334   3.776   7.846  0.1676  0.0392  2.7943
 7024SOL    HW232532   2.222   3.761   7.942 -0.9748 -1.1492  0.5492
 7025SOL     OW32533   0.279   2.380   2.443 -0.2451 -0.1792 -0.0341
 7025SOL    HW132534   0.258   2.473   2.438  1.1465  0.0863 -0.9129
 7025SOL    HW232535   0.208   2.343   2.390  0.0939  0.4641 -0.9239
 7026SOL     OW32536   1.947   3.345   0.840  0.2738  0.2851  0.1000
 7026SOL    HW132537   1.960   3.369   0.748  2.6207 -3.1934 -0.4851
 7026SOL    HW232538   1.853   3.362   0.849 -0.1262 -1.5073 -0.7364
 7027SOL     OW32539   4.297   1.681   7.253  0.2698 -0.4755 -0.0654
 7027SOL    HW132540   4.287   1.594   7.292 -0.9848 -0.8212 -1.1628
 7027SOL    HW232541   4.349   1.722   7.323  1.3699  1.8224 -2.2259
 7028SOL     OW32542   0.208   1.951  16.247  0.2186  0.3528  0.0209
 7028SOL    HW132543   0.261   1.988  16.176 -1.1554  0.0727 -1.1297
 7028SOL    HW232544   0.210   2.015  16.319 -0.3229  0.9592 -0.5028
 7029SOL     OW32545   1.490   4.091   7.962  0.5885  0.0346 -0.6635
 7029SOL    HW132546   1.445   4.062   7.883  0.2316 -5.1284  1.4023
 7029SOL    HW232547   1.427   4.065   8.030 -0.0603  0.7224 -1.0088
 7030SOL     OW32548   2.509   3.244   4.488 -0.5574 -0.1342  0.4352
 7030SOL    HW132549   2.476   3.256   4.399  2.6707 -4.5114 -1.3852
 7030SOL    HW232550   2.507   3.330   4.530 -1.4397  0.8592 -1.6318
 7031SOL     OW32551   1.820   2.303   4.566 -0.0873 -0.8582  0.1823
 7031SOL    HW132552   1.768   2.234   4.607 -2.3540 -0.1374 -1.5356
 7031SOL    HW232553   1.755   2.372   4.577  1.1588  0.1116  1.3862
 7032SOL     OW32554   2.630   3.813   8.311 -0.0419  0.6879 -1.1886
 7032SOL    HW132555   2.673   3.767   8.383 -1.6696 -3.6748 -2.9978
 7032SOL    HW232556   2.617   3.901   8.348 -0.6162 -0.3640  1.0763
 7033SOL     OW32557   2.101   2.434   2.970  0.2089  0.2972 -0.0736
 7033SOL    HW132558   2.128   2.490   3.043 -1.4098  0.6144  0.2959
 7033SOL    HW232559   2.101   2.347   3.009  2.1289  0.7098  0.8501
 7034SOL     OW32560   3.819   3.916  13.492 -0.3128 -0.4565 -0.8097
 7034SOL    HW132561   3.843   3.869  13.413  1.4849  1.4642 -1.3966
 7034SOL    HW232562   3.893   3.974  13.508  1.9936 -3.0729 -2.0563
 7035SOL     OW32563   3.391   4.138   3.074  0.3472  0.3341 -0.4209
 7035SOL    HW132564   3.322   4.157   3.138  0.5814  1.7520 -0.5854
 7035SOL    HW232565   3.459   4.095   3.126 -1.5869  1.2768  2.9215
 7036SOL     OW32566   2.985   0.037   5.591  0.1836 -0.3273 -0.0082
 7036SOL    HW132567   3.040   4.692   5.554 -0.0559  0.1569 -1.2620
 7036SOL    HW232568   2.982   0.007   5.682 -2.8523  0.4851  0.1563
 7037SOL     OW32569   1.564   0.095   8.109  0.2298  0.2937  0.2731
 7037SOL    HW132570   1.614   0.168   8.144  0.0828  0.4001  0.2620
 7037SOL    HW232571   1.487   0.144   8.079 -1.2784 -1.9564  0.4366
 7038SOL     OW32572   0.252   4.240   7.998 -0.2577  0.3543  0.2144
 7038SOL    HW132573   0.230   4.334   7.997  0.9876  0.6368  0.0776
 7038SOL    HW232574   0.336   4.238   8.043 -0.3513  1.2807  0.4367
 7039SOL     OW32575   3.608   1.087   2.194  0.8952  0.1778 -0.2306
 7039SOL    HW132576   3.598   0.994   2.211  0.1255 -0.1602 -2.5932
 7039SOL    HW232577   3.566   1.091   2.108 -1.4717  1.8582  0.9790
 7040SOL     OW32578   3.259   2.092   7.039  0.1076 -0.0317 -0.0203
 7040SOL    HW132579   3.267   2.034   6.962  1.6272  0.3930 -0.1877
 7040SOL    HW232580   3.299   2.168   6.998  0.0988 -1.2805 -2.3393
 7041SOL     OW32581   2.136   1.653   6.059  0.2065 -0.0065  0.0953
 7041SOL    HW132582   2.186   1.664   6.140 -1.2355 -0.7917  1.0867
 7041SOL    HW232583   2.139   1.745   6.032 -0.6943 -0.0755 -0.2214
 7042SOL     OW32584   4.528   0.546   6.174 -0.0993 -0.3220 -0.3585
 7042SOL    HW132585   4.477   0.477   6.131 -1.3240 -0.9993  2.1661
 7042SOL    HW232586   4.603   0.556   6.116  0.5112 -0.1947  0.4507
 7043SOL     OW32587   3.547   1.978   4.206  0.0437 -0.3879  0.0929
 7043SOL    HW132588   3.571   1.929   4.285 -2.0298 -1.3007  0.1610
 7043SOL    HW232589   3.585   1.921   4.139 -0.6177  1.3895 -1.7574
 7044SOL     OW32590   4.286   0.990   8.136  0.0115  0.1757  0.0786
 7044SOL    HW132591   4.206   0.992   8.084  0.5735 -3.1542 -0.9721
 7044SOL    HW232592   4.334   0.925   8.084  0.3859  0.2897  0.2820
 7045SOL     OW32593   3.593   3.301   4.945  0.5412  0.2649  0.1243
 7045SOL    HW132594   3.551   3.302   5.030 -1.9704  3.6326 -1.1791
 7045SOL    HW232595   3.594   3.394   4.922  0.0152  0.2751  0.1514
 7046SOL     OW32596   3.660   0.746   0.679  0.4736  0.2009 -0.2886
 7046SOL    HW132597   3.615   0.705   0.752 -1.0033 -1.2568 -2.0412
 7046SOL    HW232598   3.639   0.839   0.688 -2.4665 -0.5367  0.1955
 7047SOL     OW32599   3.895   1.491   6.965 -0.6785  0.6129 -0.5755
 7047SOL    HW132600   3.833   1.428   7.002  0.6815  0.1402  0.8565
 7047SOL    HW232601   3.904   1.556   7.035 -1.2106  1.7652 -1.5562
 7048SOL     OW32602   3.894   0.986   0.223 -0.2561  0.4048 -0.4205
 7048SOL    HW132603   3.987   1.009   0.226  0.3861 -2.2946  1.1237
 7048SOL    HW232604   3.856   1.051   0.164  0.7302 -0.5826 -2.1416
 7049SOL     OW32605   4.475   3.716   7.891  0.1253 -0.4252 -0.4318
 7049SOL    HW132606   4.478   3.625   7.921  1.5105  0.2961  1.6417
 7049SOL    HW232607   4.524   3.743   7.969 -0.0715  0.5116 -0.6300
 7050SOL     OW32608   0.241   0.132   6.768  0.0555  0.6051 -0.2190
 7050SOL    HW132609   0.218   0.187   6.693 -1.7022 -1.1841 -0.9929
 7050SOL    HW232610   0.167   0.166   6.820 -0.1738  0.8862 -0.7298
 7051SOL     OW32611   3.188   4.027   4.867 -0.0564 -0.3660 -0.2837
 7051SOL    HW132612   3.282   4.038   4.851  0.1617 -0.5299  0.9154
 7051SOL    HW232613   3.186   3.932   4.880 -0.9079 -0.0590  1.7107
 7052SOL     OW32614   3.191   2.323   7.684  0.0311  0.2872  0.0746
 7052SOL    HW132615   3.222   2.281   7.765  1.5509  0.6615 -0.3089
 7052SOL    HW232616   3.236   2.271   7.617 -0.4787  0.5136 -0.4364
 7053SOL     OW32617   3.335   0.857   3.510  0.2517 -0.7119  0.3330
 7053SOL    HW132618   3.335   0.853   3.415 -1.5334 -0.6081  0.3299
 7053SOL    HW232619   3.412   0.912   3.523  1.6337 -2.8987  1.3582
 7054SOL     OW32620   2.718   2.941   8.050 -0.1116 -0.1384 -0.4943
 7054SOL    HW132621   2.803   2.959   8.011  0.5346 -1.0164  0.5047
 7054SOL    HW232622   2.723   2.970   8.141 -0.4643  2.3906 -1.2876
 7055SOL     OW32623   2.142   3.183  10.697  0.0279  0.9807 -0.1714
 7055SOL    HW132624   2.087   3.216  10.768  0.5788  2.3073 -0.3732
 7055SOL    HW232625   2.227   3.195  10.739  0.2563  0.3165 -0.4510
 7056SOL     OW32626   3.426   2.385  14.996 -0.5228  0.2920  0.7763
 7056SOL    HW132627   3.516   2.382  14.963 -1.3168  0.5771 -1.3504
 7056SOL    HW232628   3.449   2.406  15.087 -0.2645  0.4434  0.6753
 7057SOL     OW32629   4.069   0.781  13.130 -0.0122 -0.6166  0.2250
 7057SOL    HW132630   4.120   0.861  13.142 -0.1651 -0.0191 -3.2187
 7057SOL    HW232631   4.138   0.715  13.139  1.0024  0.0311 -2.6667
 7058SOL     OW32632   2.495   4.248   3.266  0.3044  0.0270 -0.5489
 7058SOL    HW132633   2.456   4.200   3.339  3.0138 -1.9934 -0.4413
 7058SOL    HW232634   2.416   4.301   3.252 -0.7839 -0.9243  1.9162
 7059SOL     OW32635   2.061   2.465   5.583  0.6534  0.0023 -0.8068
 7059SOL    HW132636   2.011   2.544   5.563  1.9428  0.7312 -1.1238
 7059SOL    HW232637   2.079   2.429   5.496 -0.1956 -1.4190 -0.4030
 7060SOL     OW32638   0.809   2.685  14.172  0.3182 -0.1664  0.5448
 7060SOL    HW132639   0.757   2.736  14.110 -0.8380  1.4562  2.8555
 7060SOL    HW232640   0.900   2.700  14.146 -0.2818 -0.3915 -1.6955
 7061SOL     OW32641   3.646   0.226   5.653 -0.7362 -0.2773  0.3525
 7061SOL    HW132642   3.688   0.173   5.721  0.2570  0.2560  0.1564
 7061SOL    HW232643   3.721   0.283   5.637  0.8633 -2.6169 -0.5016
 7062SOL     OW32644   3.407   2.765  16.220 -0.0997  0.0412  0.1127
 7062SOL    HW132645   3.362   2.847  16.204  0.3897 -0.2926 -3.0508
 7062SOL    HW232646   3.336   2.702  16.227 -0.4142  0.3757 -0.1076
 7063SOL     OW32647   1.909   4.424   7.749 -0.1109  0.2559 -0.4079
 7063SOL    HW132648   1.856   4.344   7.741  2.1855 -1.1481 -1.3973
 7063SOL    HW232649   1.844   4.483   7.712  0.8492  2.2604  1.0616
 7064SOL     OW32650   3.323   2.836   8.994 -0.3864  0.2332  0.2307
 7064SOL    HW132651   3.237   2.826   8.954  0.0948  1.0606 -1.0060
 7064SOL    HW232652   3.295   2.808   9.081  2.1066 -0.9639  0.6469
 7065SOL     OW32653   2.744   2.107  13.991  0.4748 -0.2236 -0.0189
 7065SOL    HW132654   2.653   2.085  14.013  0.8716 -1.3177  0.5278
 7065SOL    HW232655   2.760   2.061  13.908  0.4892  1.1882 -0.7966
 7066SOL     OW32656   4.505   0.028  10.756 -0.2157  0.1733  0.0822
 7066SOL    HW132657   4.477   0.098  10.816 -1.5583 -0.8788  0.6948
 7066SOL    HW232658   4.445   0.047  10.684 -1.4752 -0.3306  0.9849
 7067SOL     OW32659   3.251   0.343   3.125 -0.1810  0.4163 -0.2773
 7067SOL    HW132660   3.193   0.419   3.131 -1.5412 -0.5804 -1.0889
 7067SOL    HW232661   3.283   0.350   3.035 -0.7322 -1.6292 -0.6272
 7068SOL     OW32662   2.823   0.369  15.332  0.1926 -0.5897  0.0741
 7068SOL    HW132663   2.856   0.350  15.245  0.8380  1.0486 -0.0261
 7068SOL    HW232664   2.888   0.432  15.362 -0.9247 -0.2912  1.8820
 7069SOL     OW32665   3.320   1.841   9.405 -1.0438 -0.8218 -0.0688
 7069SOL    HW132666   3.253   1.815   9.342  0.1038  0.7808 -1.9313
 7069SOL    HW232667   3.305   1.768   9.466 -1.5469 -0.2935  0.4458
 7070SOL     OW32668   2.275   1.186   4.275 -0.0556  0.3844  0.0414
 7070SOL    HW132669   2.274   1.202   4.181  1.0523 -0.6023 -0.1325
 7070SOL    HW232670   2.273   1.277   4.304 -3.0445  0.5499 -0.6935
 7071SOL     OW32671   2.395   3.072   4.960  0.0747 -0.0460  0.4365
 7071SOL    HW132672   2.489   3.071   4.977  0.0155  0.6813  0.7949
 7071SOL    HW232673   2.388   3.156   4.916  0.1854  0.3781  1.2249
 7072SOL     OW32674   2.521   3.519  14.664  0.4038  0.2353 -0.3364
 7072SOL    HW132675   2.588   3.463  14.625  0.1297  0.0808 -0.5902
 7072SOL    HW232676   2.445   3.471  14.629  0.0131 -0.8716  2.0311
 7073SOL     OW32677   3.697   0.931   4.088 -0.0905 -0.4166 -0.1225
 7073SOL    HW132678   3.727   0.841   4.095 -0.3864 -0.3617  1.8621
 7073SOL    HW232679   3.731   0.958   4.002 -0.7266  1.2894  0.1697
 7074SOL     OW32680   3.885   1.090   6.265 -0.5255 -0.1951  0.4663
 7074SOL    HW132681   3.857   1.026   6.199  1.9548 -1.0264  0.2383
 7074SOL    HW232682   3.826   1.164   6.253 -0.6964 -0.4764 -0.4449
 7075SOL     OW32683   2.583   0.966  15.809  0.2009  0.2233  0.4344
 7075SOL    HW132684   2.489   0.951  15.804  0.0129  1.7057 -0.2267
 7075SOL    HW232685   2.617   0.947  15.722 -0.0375 -1.0342  0.6138
 7076SOL     OW32686   1.248   1.953   9.338 -0.1487  0.5851  0.3245
 7076SOL    HW132687   1.198   2.029   9.308 -3.2837 -1.9811 -0.8955
 7076SOL    HW232688   1.172   1.902   9.365  0.1911  0.1723  0.4937
 7077SOL     OW32689   0.975   4.382   2.147  0.0809  0.3952  0.5341
 7077SOL    HW132690   0.890   4.349   2.121 -0.0081 -0.1562  1.5247
 7077SOL    HW232691   0.965   4.477   2.150 -3.8032  0.0141 -0.4517
 7078SOL     OW32692   0.771   0.046   1.637  0.0926  0.1870 -1.0337
 7078SOL    HW132693   0.764   4.681   1.672 -0.5971  0.3893 -0.6584
 7078SOL    HW232694   0.798   0.031   1.546  0.6614 -2.5877 -0.4169
 7079SOL     OW32695   3.209   3.290  14.412  0.0465 -0.0855 -0.0472
 7079SOL    HW132696   3.262   3.211  14.416  0.5311  0.2052 -0.7292
 7079SOL    HW232697   3.249   3.345  14.480  1.0993 -1.4054  0.3856
 7080SOL     OW32698   1.934   0.587  10.506  0.6122 -0.4103  0.2701
 7080SOL    HW132699   1.962   0.678  10.507 -2.1316  0.4450  1.5273
 7080SOL    HW232700   1.838   0.593  10.506  0.6645  0.2742 -4.0141
 7081SOL     OW32701   1.883   2.535   3.746 -0.4825  0.3723 -0.4146
 7081SOL    HW132702   1.920   2.527   3.658 -2.0242  0.5800 -1.0873
 7081SOL    HW232703   1.791   2.550   3.722 -0.3468  2.1820  0.2507
 7082SOL     OW32704   4.341   2.947   9.399 -0.1147  0.7418 -0.1549
 7082SOL    HW132705   4.408   2.985   9.456  0.3500  0.3908 -0.4735
 7082SOL    HW232706   4.382   2.865   9.370 -0.5185 -0.0279  1.4714
 7083SOL     OW32707   0.901   0.571   6.698 -0.2763 -0.2654 -0.5524
 7083SOL    HW132708   0.875   0.642   6.640  1.3291  0.3731 -0.4988
 7083SOL    HW232709   0.957   0.515   6.644 -0.1500 -0.5337 -0.1413
 7084SOL     OW32710   2.055   3.109   0.858  0.0664  0.1556  0.3578
 7084SOL    HW132711   2.134   3.155   0.831  1.0151 -0.5339  1.9307
 7084SOL    HW232712   1.997   3.184   0.869  0.3550  0.3108  0.8640
 7085SOL     OW32713   3.766   1.276  16.564 -0.3639  0.7269 -0.4912
 7085SOL    HW132714   3.861   1.276  16.572 -0.3289  3.6281 -0.7249
 7085SOL    HW232715   3.772   1.273  16.469 -0.9467 -0.5207 -0.4828
 7086SOL     OW32716   3.320   2.580  10.529 -0.1416 -0.5763  0.6846
 7086SOL    HW132717   3.327   2.656  10.471 -0.2929 -1.7194 -0.8393
 7086SOL    HW232718   3.268   2.622  10.598 -0.7917 -0.1166 -0.0870
 7087SOL     OW32719   2.739   4.349   2.587 -0.4076 -0.1318 -0.2591
 7087SOL    HW132720   2.793   4.304   2.523 -0.8298  0.1728 -0.8291
 7087SOL    HW232721   2.663   4.291   2.591 -0.1941 -0.2489  2.4781
 7088SOL     OW32722   1.579   2.985   6.316  0.0130  0.2931  0.0252
 7088SOL    HW132723   1.504   3.015   6.264 -0.6113 -1.5831 -0.1490
 7088SOL    HW232724   1.540   2.913   6.364 -1.1727 -0.2834 -1.8248
 7089SOL     OW32725   3.997   0.708  16.083  0.1625  0.0105  0.4977
 7089SOL    HW132726   4.084   0.747  16.079  0.0494  0.0168 -2.0475
 7089SOL    HW232727   4.021   0.616  16.089 -0.9898 -0.2744  0.6990
 7090SOL     OW32728   1.155   3.484   8.721 -0.2496 -0.2541  0.2792
 7090SOL    HW132729   1.156   3.404   8.668  0.0392 -1.1513  1.6469
 7090SOL    HW232730   1.202   3.451   8.798  0.2337 -1.5426 -0.5677
 7091SOL     OW32731   0.260   2.641   6.160  0.8016  0.0942 -0.1038
 7091SOL    HW132732   0.174   2.608   6.185  0.5451  0.9622  0.1619
 7091SOL    HW232733   0.284   2.680   6.244 -0.6715 -0.3120  0.5055
 7092SOL     OW32734   0.818   3.051   9.906 -0.2056  0.2685 -0.3260
 7092SOL    HW132735   0.733   3.049   9.862 -0.5919  2.5171  0.2938
 7092SOL    HW232736   0.810   3.138   9.945 -1.7160 -0.3856  0.8133
 7093SOL     OW32737   2.479   2.190   4.859 -0.5394 -0.3597 -0.4367
 7093SOL    HW132738   2.459   2.264   4.917  0.9666  0.2123 -0.6480
 7093SOL    HW232739   2.398   2.186   4.808 -1.8718 -2.1655  1.8278
 7094SOL     OW32740   4.368   2.786   1.193  0.1584 -0.6802  0.2834
 7094SOL    HW132741   4.273   2.786   1.182  0.2381 -1.0101 -0.4227
 7094SOL    HW232742   4.373   2.845   1.268  3.1823  0.7221 -1.0193
 7095SOL     OW32743   4.033   2.343   6.963 -0.4735 -0.0058  0.5387
 7095SOL    HW132744   4.028   2.271   6.900  0.5272 -0.9547  1.5248
 7095SOL    HW232745   3.942   2.370   6.960 -0.0084  1.4985  0.0929
 7096SOL     OW32746   0.453   1.062   6.373  0.1124  0.1052  0.2259
 7096SOL    HW132747   0.404   1.079   6.293  2.4397 -1.9638 -1.6294
 7096SOL    HW232748   0.385   1.025   6.430 -0.0900 -1.7493 -1.2330
 7097SOL     OW32749   0.126   4.060  15.942 -0.2660 -0.6157 -0.3135
 7097SOL    HW132750   0.152   4.145  15.977 -2.1678  0.0122 -0.3866
 7097SOL    HW232751   0.052   4.043  16.001 -0.6768  2.4012  0.0525
 7098SOL     OW32752   2.391   2.008   5.522 -0.0846  0.3458 -0.1225
 7098SOL    HW132753   2.390   2.038   5.431 -0.9926 -2.7216 -1.1323
 7098SOL    HW232754   2.322   1.943   5.513  1.2573 -1.0137 -0.4775
 7099SOL     OW32755   0.420   4.679   5.136 -0.0469  0.3556  0.1508
 7099SOL    HW132756   0.475   4.668   5.214  0.4607  1.2317 -0.0838
 7099SOL    HW232757   0.363   0.013   5.185 -1.3967 -0.5558 -0.3296
 7100SOL     OW32758   3.398   0.561  16.814 -0.5333  0.3130 -0.2599
 7100SOL    HW132759   3.335   0.612  16.763 -1.4640 -0.9602 -0.3789
 7100SOL    HW232760   3.340   0.548  16.889 -0.4929  0.5109 -0.1938
 7101SOL     OW32761   3.586   4.287   6.949  0.2463 -0.0370 -0.5016
 7101SOL    HW132762   3.622   4.229   6.882  2.6672 -0.9389  1.5924
 7101SOL    HW232763   3.579   4.225   7.021  1.2674 -0.5043 -0.8166
 7102SOL     OW32764   2.267   3.495  11.563 -0.1301  0.5441  0.3349
 7102SOL    HW132765   2.313   3.576  11.544  1.3890 -0.0049  1.7777
 7102SOL    HW232766   2.308   3.448  11.636  2.2124  0.5546 -0.9843
 7103SOL     OW32767   2.036   3.516   8.635  0.3564  0.0442 -0.1101
 7103SOL    HW132768   2.077   3.447   8.688 -0.0009 -0.0146  0.0912
 7103SOL    HW232769   1.965   3.472   8.587 -0.2316  1.5724 -0.6300
 7104SOL     OW32770   4.601   1.871   9.561 -0.2530  0.0708 -0.0682
 7104SOL    HW132771   4.665   1.897   9.627  0.3123 -0.9786 -0.1973
 7104SOL    HW232772   4.641   1.786   9.542  0.1738  0.2886 -0.1418
 7105SOL     OW32773   1.679   1.761   6.485 -0.2020 -0.2976 -0.0072
 7105SOL    HW132774   1.722   1.759   6.400 -0.9699 -0.4387 -0.3916
 7105SOL    HW232775   1.750   1.721   6.535 -1.9468 -2.7022  0.5937
 7106SOL     OW32776   0.678   4.637   5.863  0.5277 -0.6712  0.1330
 7106SOL    HW132777   0.616   4.580   5.907 -1.1126  0.4344 -0.7513
 7106SOL    HW232778   0.643   4.636   5.774  0.8529 -0.6911  0.0067
 7107SOL     OW32779   4.630   2.850   4.344  0.2236 -0.1685  0.0952
 7107SOL    HW132780   4.599   2.818   4.428 -1.8980  1.3883 -0.1133
 7107SOL    HW232781   4.719   2.871   4.372 -0.2461  0.8064  0.8359
 7108SOL     OW32782   3.805   2.248   5.225  0.1988  0.0249 -0.3769
 7108SOL    HW132783   3.817   2.304   5.148  0.2576  0.6333  0.0715
 7108SOL    HW232784   3.861   2.291   5.290 -1.0890  0.1593  0.6459
 7109SOL     OW32785   1.235   1.648   6.684 -0.0639  0.0811  0.4083
 7109SOL    HW132786   1.269   1.690   6.763 -1.9303  0.8706  0.7844
 7109SOL    HW232787   1.316   1.599   6.669 -0.0395 -0.5271  2.5148
 7110SOL     OW32788   3.938   2.150   0.610  0.0715 -0.6494 -0.0418
 7110SOL    HW132789   4.032   2.162   0.596  0.2041 -1.2844  0.3254
 7110SOL    HW232790   3.909   2.145   0.519 -1.6861  0.0097  0.4816
 7111SOL     OW32791   1.867   0.311   5.408  0.1191  0.0945 -0.1205
 7111SOL    HW132792   1.961   0.302   5.390  0.3761 -1.4338  2.0109
 7111SOL    HW232793   1.853   0.231   5.458  3.0384 -1.1309 -1.2421
 7112SOL     OW32794   0.474   2.227   1.939  0.1267 -0.2794 -0.3806
 7112SOL    HW132795   0.436   2.314   1.923  0.4970  0.0597  0.6081
 7112SOL    HW232796   0.474   2.191   1.850 -1.8772 -0.6426 -0.2255
 7113SOL     OW32797   3.895   0.853   6.037 -0.0500  0.3241  0.0122
 7113SOL    HW132798   3.865   0.873   5.948 -1.2294  0.6056  0.4633
 7113SOL    HW232799   3.812   0.876   6.080  0.5353 -1.2423  1.9517
 7114SOL     OW32800   0.945   1.620  13.828  0.6958  0.4076 -0.0173
 7114SOL    HW132801   0.914   1.709  13.813  1.9824  0.4302 -2.4952
 7114SOL    HW232802   0.888   1.594  13.901  0.1937 -0.2320 -0.6395
 7115SOL     OW32803   0.437   0.737   5.281 -0.1769 -0.5986  0.2043
 7115SOL    HW132804   0.374   0.789   5.331 -0.8630  0.2737 -1.5754
 7115SOL    HW232805   0.382   0.703   5.210  0.9723  0.3458 -1.1300
 7116SOL     OW32806   0.431   3.443   8.264 -0.2103 -0.0980 -0.3709
 7116SOL    HW132807   0.380   3.378   8.312 -1.7948 -0.0900 -2.0479
 7116SOL    HW232808   0.409   3.520   8.315 -1.9041  0.3610 -1.8130
 7117SOL     OW32809   2.826   2.492   5.691  0.4704  0.5339 -0.2994
 7117SOL    HW132810   2.826   2.414   5.746 -0.4551  0.8172  0.1052
 7117SOL    HW232811   2.807   2.451   5.606 -1.2412  0.3865  0.1480
 7118SOL     OW32812   1.832   2.422   2.909  0.1284  0.1574 -0.4817
 7118SOL    HW132813   1.831   2.478   2.832 -1.7534 -1.5680 -1.7129
 7118SOL    HW232814   1.919   2.446   2.941 -0.0741  0.1249  0.0999
 7119SOL     OW32815   2.767   3.093  13.394  0.3472  0.3484  0.2299
 7119SOL    HW132816   2.802   3.086  13.305 -1.3772  3.4127 -0.6749
 7119SOL    HW232817   2.740   3.003  13.414 -0.4578  0.4340 -0.4839
 7120SOL     OW32818   3.585   4.272   2.620 -0.0785 -0.3418 -0.1241
 7120SOL    HW132819   3.649   4.226   2.566  0.3378 -1.3975  1.2622
 7120SOL    HW232820   3.586   4.216   2.698  4.3595  2.0063  1.5112
 7121SOL     OW32821   3.593   4.556   4.926  0.6463  0.0055 -0.8160
 7121SOL    HW132822   3.657   4.572   4.995  1.5598  0.3613 -1.7497
 7121SOL    HW232823   3.517   4.607   4.954  1.4202  1.2950 -1.1031
 7122SOL     OW32824   3.623   1.100  13.065 -0.2887 -0.1432  0.2131
 7122SOL    HW132825   3.656   1.081  13.152 -1.3721 -0.7206  0.4967
 7122SOL    HW232826   3.576   1.022  13.036  0.0854 -0.4208  0.3672
 7123SOL     OW32827   4.199   3.046  14.773  0.2770  0.5247 -0.5049
 7123SOL    HW132828   4.168   2.957  14.757 -1.3272  1.0927 -0.5569
 7123SOL    HW232829   4.294   3.033  14.772  0.1960 -0.2600  2.3124
 7124SOL     OW32830   1.136   3.615  14.223 -0.2286 -0.6263  0.2686
 7124SOL    HW132831   1.105   3.677  14.157 -1.3514 -0.2625  1.1237
 7124SOL    HW232832   1.070   3.546  14.213 -2.5853  2.1467 -2.8209
 7125SOL     OW32833   3.100   2.830  11.683 -0.0511 -0.8034 -0.4698
 7125SOL    HW132834   3.108   2.900  11.748 -1.8524 -1.4156  0.4030
 7125SOL    HW232835   3.117   2.871  11.598 -0.0867 -1.6787 -0.8945
 7126SOL     OW32836   4.237   3.190  15.023  0.4907  0.0953 -0.4039
 7126SOL    HW132837   4.172   3.163  15.088 -1.5316  0.6821 -2.2041
 7126SOL    HW232838   4.218   3.134  14.947 -0.7916  0.1753 -0.1407
 7127SOL     OW32839   1.643   1.707   2.206  0.9183  0.1458 -0.0257
 7127SOL    HW132840   1.582   1.778   2.187  0.3908 -0.5479 -0.9536
 7127SOL    HW232841   1.615   1.673   2.291 -0.3675  2.1426  0.3435
 7128SOL     OW32842   1.873   0.272  13.978 -0.4800  0.2056 -0.6418
 7128SOL    HW132843   1.814   0.199  13.961  1.5105 -1.9018  1.6136
 7128SOL    HW232844   1.860   0.291  14.071  0.4923 -0.9342 -0.2812
 7129SOL     OW32845   1.775   3.379   1.407 -0.4131  0.2759  0.3578
 7129SOL    HW132846   1.687   3.390   1.370  0.0662  1.9752 -0.2873
 7129SOL    HW232847   1.826   3.434   1.347 -1.9598  1.5707  0.2466
 7130SOL     OW32848   0.409   1.109   7.817 -0.4414 -0.3970 -0.5525
 7130SOL    HW132849   0.412   1.170   7.890  3.1753  0.3382 -1.2812
 7130SOL    HW232850   0.372   1.030   7.856  2.8108 -1.9046 -0.5444
 7131SOL     OW32851   3.001   2.388  13.901 -0.0161  0.2366  0.3150
 7131SOL    HW132852   2.978   2.435  13.821  0.3882  1.4636  0.9239
 7131SOL    HW232853   3.093   2.413  13.911 -0.1467  1.1501 -0.7472
 7132SOL     OW32854   2.703   2.731  15.513 -0.0764  0.2010  0.4803
 7132SOL    HW132855   2.659   2.655  15.553  0.6012 -0.0098  0.8357
 7132SOL    HW232856   2.781   2.688  15.477 -1.6718 -0.2897 -2.4028
 7133SOL     OW32857   2.670   1.881   5.675  0.2094 -0.0646  0.2752
 7133SOL    HW132858   2.581   1.865   5.643  0.6150 -2.7408  0.5075
 7133SOL    HW232859   2.705   1.890   5.586 -0.2004  0.7877  0.1940
 7134SOL     OW32860   0.750   2.467  11.650  0.0196 -0.1029  0.2127
 7134SOL    HW132861   0.718   2.554  11.675  0.8841 -0.0545  1.1692
 7134SOL    HW232862   0.830   2.493  11.604 -0.4395 -1.9659 -1.6419
 7135SOL     OW32863   3.528   0.423   6.562  0.1150 -0.1046  0.1036
 7135SOL    HW132864   3.616   0.433   6.525  0.1485  0.3803  0.3156
 7135SOL    HW232865   3.465   0.450   6.496  1.5103  0.6753 -0.9111
 7136SOL     OW32866   1.845   4.578   2.750 -0.2668 -0.0255  0.5767
 7136SOL    HW132867   1.848   4.585   2.655  0.4090  3.2899  0.8342
 7136SOL    HW232868   1.772   4.518   2.764 -1.0498  0.5394 -1.0767
 7137SOL     OW32869   4.519   0.296   2.831 -0.2121  0.6150 -0.0316
 7137SOL    HW132870   4.513   0.279   2.737 -2.6178  2.4433 -0.2123
 7137SOL    HW232871   4.555   0.385   2.832  0.2462  0.4220  0.6404
 7138SOL     OW32872   0.633   0.475   5.485 -0.1071 -0.3350  0.1166
 7138SOL    HW132873   0.680   0.400   5.523  3.7005  1.5015 -0.9721
 7138SOL    HW232874   0.710   0.507   5.436 -0.1427 -0.1535  0.1806
 7139SOL     OW32875   2.443   2.436   6.537 -0.4779 -0.4424 -0.2542
 7139SOL    HW132876   2.434   2.471   6.449 -0.1757 -0.7138 -0.3951
 7139SOL    HW232877   2.497   2.357   6.530  0.1680 -0.1406  1.1694
 7140SOL     OW32878   0.899   0.297   3.240 -0.5001  0.3824 -0.5298
 7140SOL    HW132879   0.983   0.276   3.199 -0.3066 -1.0450  0.6134
 7140SOL    HW232880   0.890   0.229   3.307 -0.0009  1.2320  0.3851
 7141SOL     OW32881   3.604   0.168   0.850  0.1191 -0.0531 -0.5169
 7141SOL    HW132882   3.515   0.138   0.864 -0.0104  1.3914  1.6480
 7141SOL    HW232883   3.616   0.213   0.934 -1.4327 -2.5452  1.0156
 7142SOL     OW32884   4.596   3.705   8.653  0.5526  0.4004  0.2758
 7142SOL    HW132885   4.551   3.744   8.579  0.0933 -1.5332 -0.4673
 7142SOL    HW232886   4.651   3.641   8.606 -1.3059 -1.7288  1.0084
 7143SOL     OW32887   4.169   0.029   3.672  0.6237  0.2803  0.1481
 7143SOL    HW132888   4.115   0.055   3.746  3.1291 -1.3756  2.5899
 7143SOL    HW232889   4.254   0.019   3.715 -2.3269  1.3231  6.1665
 7144SOL     OW32890   4.364   2.892  14.451 -0.7345 -0.4365 -0.0408
 7144SOL    HW132891   4.271   2.885  14.470 -0.9036  0.0240 -0.7158
 7144SOL    HW232892   4.389   2.831  14.521  0.4368 -2.2972 -2.0532
 7145SOL     OW32893   2.544   4.319   5.151  0.3453  0.2587  0.0040
 7145SOL    HW132894   2.541   4.414   5.164  0.1394  0.0440  1.5971
 7145SOL    HW232895   2.611   4.310   5.083  0.1248  0.3080 -0.2162
 7146SOL     OW32896   4.166   3.231   5.670 -0.1776  0.6670 -0.1462
 7146SOL    HW132897   4.079   3.260   5.696 -0.2427 -0.8102  1.2508
 7146SOL    HW232898   4.223   3.243   5.746  0.1241 -0.8204 -0.1363
 7147SOL     OW32899   1.884   0.606   9.680 -0.0556 -0.0963 -0.1946
 7147SOL    HW132900   1.792   0.631   9.666 -0.4493 -1.3754  0.1322
 7147SOL    HW232901   1.918   0.696   9.673 -1.5382  0.4052 -1.0894
 7148SOL     OW32902   3.661   2.468   0.766 -0.4673 -0.3033 -0.5351
 7148SOL    HW132903   3.700   2.385   0.794  1.5107  1.3621  1.7212
 7148SOL    HW232904   3.666   2.527   0.841  0.3511 -1.2523  0.1577
 7149SOL     OW32905   4.519   3.154  17.382  0.2686 -0.1300 -0.0269
 7149SOL    HW132906   4.613   3.142  17.364  0.4935  0.7997  0.5240
 7149SOL    HW232907   4.503   3.201  17.300 -0.0746  0.4351  0.3656
 7150SOL     OW32908   1.124   2.336   0.793 -0.3039  0.2700 -0.3306
 7150SOL    HW132909   1.211   2.304   0.770  0.5072  1.8640  0.5568
 7150SOL    HW232910   1.148   2.404   0.856  2.5321  0.6040 -1.7874
 7151SOL     OW32911   3.666   0.033   6.920 -0.4167  0.1534 -0.2024
 7151SOL    HW132912   3.674   4.706   7.001  1.6176 -1.1938 -1.2549
 7151SOL    HW232913   3.602   0.099   6.946  1.6391  1.5259  1.3862
 7152SOL     OW32914   1.438   2.586   0.812 -0.0003 -0.2970  0.2450
 7152SOL    HW132915   1.529   2.614   0.820 -0.1275  0.7041 -1.6258
 7152SOL    HW232916   1.400   2.599   0.899  0.4819 -0.6137  0.4991
 7153SOL     OW32917   1.221   2.055   7.600  0.2417  0.6769 -0.1814
 7153SOL    HW132918   1.292   1.996   7.573  0.1711  0.2084  0.6465
 7153SOL    HW232919   1.220   2.126   7.536 -0.1488  0.5520 -0.3110
 7154SOL     OW32920   1.260   0.982   6.007  0.0181  0.6610  0.2705
 7154SOL    HW132921   1.318   0.919   5.964  1.1444  2.3469 -0.6708
 7154SOL    HW232922   1.202   1.011   5.936  0.0256  1.2084  0.4878
 7155SOL     OW32923   1.513   0.564   8.267  0.0368 -0.0946 -0.3687
 7155SOL    HW132924   1.558   0.645   8.289 -1.2637  0.1758  1.2615
 7155SOL    HW232925   1.421   0.591   8.272  0.0622 -0.5007  2.2860
 7156SOL     OW32926   2.267   3.718   2.190  0.4392  0.1664  0.7375
 7156SOL    HW132927   2.340   3.693   2.247 -0.2323  0.0399  1.5358
 7156SOL    HW232928   2.280   3.649   2.124  1.0143 -1.9977  3.0836
 7157SOL     OW32929   2.973   3.482   0.213  0.2268 -0.4204  0.2444
 7157SOL    HW132930   2.988   3.404   0.266  0.6799  1.0041  2.1860
 7157SOL    HW232931   2.947   3.543   0.282 -0.8867  1.1800 -1.5761
 7158SOL     OW32932   3.447   1.361   6.463  1.0140 -0.3564  0.0552
 7158SOL    HW132933   3.429   1.404   6.380  0.6613  1.5482  1.1134
 7158SOL    HW232934   3.449   1.272   6.427 -0.2671  0.0471 -0.9987
 7159SOL     OW32935   4.021   3.554   1.877  0.0607  0.3273  0.0129
 7159SOL    HW132936   3.950   3.615   1.898  0.4741  0.6221  0.5642
 7159SOL    HW232937   3.977   3.470   1.866  2.8330 -1.3416  1.6299
 7160SOL     OW32938   2.670   0.534   2.158  0.1095 -0.0714 -0.4878
 7160SOL    HW132939   2.617   0.584   2.095  0.7226  1.9120  0.5699
 7160SOL    HW232940   2.718   0.475   2.100  1.6735  0.6994  0.0371
 7161SOL     OW32941   0.135   1.980   8.243 -0.1315  0.0027 -0.0588
 7161SOL    HW132942   0.079   2.040   8.194 -1.7985 -2.3043 -0.9678
 7161SOL    HW232943   0.203   2.041   8.274 -2.0475  1.8566  0.4913
 7162SOL     OW32944   2.726   0.808   3.117  0.4544 -0.3359  0.1393
 7162SOL    HW132945   2.820   0.822   3.112 -0.3611  4.6828 -0.7755
 7162SOL    HW232946   2.710   0.727   3.068 -0.2049  0.5200 -1.0656
 7163SOL     OW32947   0.197   1.919   3.041  0.3631  0.5652  0.5663
 7163SOL    HW132948   0.197   2.013   3.024 -1.1412  0.5216  0.3256
 7163SOL    HW232949   0.150   1.932   3.124  1.3817 -0.1991  1.2574
 7164SOL     OW32950   3.726   1.767  13.276  0.1939 -0.1857  0.2651
 7164SOL    HW132951   3.799   1.819  13.243  2.0104 -3.4196 -0.7954
 7164SOL    HW232952   3.664   1.781  13.204  0.9370 -2.0807 -0.7477
 7165SOL     OW32953   3.507   4.219   3.596  0.7696 -0.0220  0.0416
 7165SOL    HW132954   3.517   4.308   3.629 -0.6170  0.0496  0.2403
 7165SOL    HW232955   3.442   4.218   3.526  0.3969 -1.7206  0.4176
 7166SOL     OW32956   4.332   3.271   0.340 -0.1869 -0.1818 -0.2084
 7166SOL    HW132957   4.264   3.334   0.367 -0.1998 -1.2275  2.1707
 7166SOL    HW232958   4.387   3.316   0.276  0.3410  1.6758  1.5330
 7167SOL     OW32959   1.659   2.513   0.582 -0.9635 -0.1514 -0.8435
 7167SOL    HW132960   1.633   2.435   0.534  0.5257 -0.9509 -0.3493
 7167SOL    HW232961   1.660   2.582   0.516  1.9238  2.3488  1.7647
 7168SOL     OW32962   4.147   4.436   5.562 -0.5401  0.1604 -0.1963
 7168SOL    HW132963   4.057   4.410   5.584 -0.4021  0.4599  0.7171
 7168SOL    HW232964   4.129   4.515   5.512  0.4669 -0.2842 -1.2608
 7169SOL     OW32965   1.450   4.678   2.713  0.5108  0.2638 -0.0240
 7169SOL    HW132966   1.471   4.617   2.783 -1.8234  0.2681  0.7063
 7169SOL    HW232967   1.503   0.030   2.738  0.7012 -0.2841  1.2395
 7170SOL     OW32968   1.658   1.773   7.204  0.1602 -0.1297  0.4109
 7170SOL    HW132969   1.741   1.783   7.156 -0.2229 -0.1842 -0.2691
 7170SOL    HW232970   1.663   1.835   7.277  2.7779 -1.5890  1.4630
 7171SOL     OW32971   3.370   4.194   3.885  0.8061 -0.5752  0.6253
 7171SOL    HW132972   3.315   4.116   3.874 -0.2204  0.2037  0.2355
 7171SOL    HW232973   3.412   4.189   3.799 -0.7050  1.6529 -0.2615
 7172SOL     OW32974   2.620   0.004   3.850 -0.1015 -0.2635  0.1539
 7172SOL    HW132975   2.583   4.695   3.768  0.8667  0.6948 -0.6736
 7172SOL    HW232976   2.704   0.037   3.817  0.2874 -0.3754  1.0496
 7173SOL     OW32977   4.362   4.169   4.594 -0.6084 -0.3588  1.2185
 7173SOL    HW132978   4.393   4.124   4.515  1.1823  2.1185  0.4768
 7173SOL    HW232979   4.317   4.245   4.556 -1.1992 -0.8009  1.0415
 7174SOL     OW32980   2.968   2.717  15.776  0.3800  0.3294  0.0791
 7174SOL    HW132981   2.996   2.781  15.842  0.4219 -0.2761  0.6524
 7174SOL    HW232982   2.917   2.781  15.726  0.6488 -0.5833 -1.3499
 7175SOL     OW32983   2.577   0.582   1.879  0.1715  0.4885 -0.1462
 7175SOL    HW132984   2.507   0.645   1.863 -0.4784 -0.1117  0.3335
 7175SOL    HW232985   2.524   0.508   1.910 -1.2929  1.4380 -0.4102
 7176SOL     OW32986   2.101   3.473   1.730  0.9683  0.0236  0.2808
 7176SOL    HW132987   2.074   3.404   1.670 -0.8601 -0.3998  1.6089
 7176SOL    HW232988   2.196   3.483   1.724  1.0201  0.6438  2.1901
 7177SOL     OW32989   1.649   3.096   2.212  0.5356  0.3250 -0.2017
 7177SOL    HW132990   1.727   3.132   2.253  0.4375  0.8983 -0.5163
 7177SOL    HW232991   1.684   3.027   2.155 -0.0802 -1.6391  1.8007
 7178SOL     OW32992   3.392   2.328   6.981 -0.2744 -0.1896  0.5416
 7178SOL    HW132993   3.331   2.384   6.934  1.3332  0.1045 -1.1799
 7178SOL    HW232994   3.460   2.327   6.914  0.4110  0.2447  1.2228
 7179SOL     OW32995   4.450   1.012  12.945  0.7966  0.6248 -0.5387
 7179SOL    HW132996   4.494   1.097  12.942 -0.3652  1.3663  2.6515
 7179SOL    HW232997   4.510   0.969  12.884  0.4105  0.1890 -0.6108
 7180SOL     OW32998   2.977   2.355   0.179 -0.1330 -0.3397  0.0866
 7180SOL    HW132999   3.030   2.287   0.220  0.5413  0.5518  0.6954
 7180SOL    HW233000   2.904   2.297   0.157  0.1120 -1.2996  1.8119
 7181SOL     OW33001   3.390   3.440  15.294 -0.4870  0.7910  0.5547
 7181SOL    HW133002   3.420   3.486  15.372  3.0442  0.6989 -0.7494
 7181SOL    HW233003   3.329   3.502  15.253  1.8371  0.3244 -3.6314
 7182SOL     OW33004   1.871   1.634   7.570  0.1510 -0.4927  0.3734
 7182SOL    HW133005   1.805   1.585   7.619 -0.3936  1.2623  1.4073
 7182SOL    HW233006   1.891   1.701   7.636 -1.8366 -0.0506  0.5338
 7183SOL     OW33007   2.012   3.190   2.789 -0.5184 -0.3302  0.1583
 7183SOL    HW133008   2.014   3.286   2.785 -2.0171 -0.3446 -0.9542
 7183SOL    HW233009   2.103   3.169   2.769 -0.0780  1.0978  0.6560
 7184SOL     OW33010   3.645   0.354   6.224 -0.0342  0.1094 -0.3225
 7184SOL    HW133011   3.550   0.357   6.220  0.0470  1.0230 -1.6390
 7184SOL    HW233012   3.672   0.444   6.207 -2.5707  0.6186 -1.6661
 7185SOL     OW33013   2.368   4.085   6.688  0.5904 -0.4787  0.4933
 7185SOL    HW133014   2.377   3.992   6.709 -0.8870 -0.2990  1.8991
 7185SOL    HW233015   2.272   4.082   6.688  0.5972 -0.7206  1.5274
 7186SOL     OW33016   4.164   0.503   8.211  0.0907  0.1565  0.9108
 7186SOL    HW133017   4.176   0.447   8.287 -0.6385 -0.7087  0.3909
 7186SOL    HW233018   4.144   0.582   8.261 -0.7538 -0.7318  1.9770
 7187SOL     OW33019   1.467   2.118  13.017  0.4125  0.3813 -0.1664
 7187SOL    HW133020   1.449   2.065  12.939 -1.0249  1.7974 -0.8023
 7187SOL    HW233021   1.390   2.173  13.003  1.3196  1.2163 -1.9204
 7188SOL     OW33022   3.293   0.031  12.380 -0.3045  0.2725  0.3810
 7188SOL    HW133023   3.226   0.020  12.447 -0.5820  1.0378  0.2374
 7188SOL    HW233024   3.245   4.703  12.316  0.4368 -0.6116  0.5412
 7189SOL     OW33025   4.057   1.102  10.528 -0.3465  0.6961 -0.2690
 7189SOL    HW133026   4.038   1.088  10.435 -0.8889 -1.3953  0.1567
 7189SOL    HW233027   4.152   1.115  10.523 -0.1684 -0.8039 -0.6428
 7190SOL     OW33028   3.078   2.504   0.513 -0.2206  0.3462 -0.6004
 7190SOL    HW133029   3.164   2.515   0.473  0.0680 -0.0904 -0.1074
 7190SOL    HW233030   3.081   2.420   0.558  0.9261  1.8026  2.0013
 7191SOL     OW33031   4.143   4.358   1.708  0.1946 -0.0446 -0.1288
 7191SOL    HW133032   4.073   4.395   1.653  1.3921  0.3416 -1.3969
 7191SOL    HW233033   4.180   4.298   1.644 -0.2899 -1.6952  1.1421
 7192SOL     OW33034   1.178   2.972   3.826 -0.2013 -0.0376  0.1087
 7192SOL    HW133035   1.252   2.958   3.885 -0.2402  0.9806  0.4161
 7192SOL    HW233036   1.213   3.052   3.786  1.2003 -3.0837 -4.6407
 7193SOL     OW33037   0.015   1.744   9.211 -0.3825  0.4215 -0.3019
 7193SOL    HW133038   4.702   1.657   9.228 -0.7975  1.0064  1.8992
 7193SOL    HW233039   0.084   1.749   9.278 -1.7516 -0.1342  1.1361
 7194SOL     OW33040   0.096   4.356   9.828 -0.3670  0.3910 -0.3590
 7194SOL    HW133041   0.158   4.364   9.901 -1.8337 -2.1837  1.1736
 7194SOL    HW233042   0.139   4.290   9.773  0.8926  1.8011 -1.0724
 7195SOL     OW33043   0.809   2.123   2.738 -0.3644 -0.6547  0.0543
 7195SOL    HW133044   0.741   2.169   2.688 -2.5595 -1.9237  1.8939
 7195SOL    HW233045   0.826   2.192   2.802 -0.3145  0.5959 -1.3112
 7196SOL     OW33046   0.621   3.347   5.077  0.4586  0.1576 -0.0182
 7196SOL    HW133047   0.583   3.323   4.992  0.2316  2.1226 -0.4831
 7196SOL    HW233048   0.714   3.358   5.058  0.0470  3.4009 -0.2767
 7197SOL     OW33049   3.478   2.722   3.646 -0.0452 -0.0358  0.4192
 7197SOL    HW133050   3.542   2.787   3.675  1.4534 -0.7279 -1.3174
 7197SOL    HW233051   3.407   2.780   3.619  1.7799  2.0996  0.1844
 7198SOL     OW33052   1.294   3.300   9.331 -0.1612 -0.0792  0.2761
 7198SOL    HW133053   1.340   3.217   9.337 -0.9264 -0.4539  1.0615
 7198SOL    HW233054   1.364   3.364   9.344  1.1769 -1.2926 -1.0616
 7199SOL     OW33055   3.557   0.211  13.188 -0.0197 -0.1984 -0.6048
 7199SOL    HW133056   3.464   0.235  13.183  0.1961  1.1985  1.6780
 7199SOL    HW233057   3.537   0.120  13.209  1.2995 -0.3576 -0.0362
 7200SOL     OW33058   2.280   0.150   3.923  0.3274  0.2097 -0.3234
 7200SOL    HW133059   2.340   0.118   3.990  0.1399  0.9502  0.2025
 7200SOL    HW233060   2.332   0.224   3.892  1.9837 -1.1238 -0.6950
 7201SOL     OW33061   4.021   0.084   8.944  0.1689  0.0104  0.0805
 7201SOL    HW133062   3.997   0.158   9.000 -3.2123 -0.1193 -1.1923
 7201SOL    HW233063   3.933   0.050   8.928  0.4927 -1.0980  0.6564
 7202SOL     OW33064   4.270   0.498   8.852 -0.1984  0.0268 -0.3399
 7202SOL    HW133065   4.350   0.453   8.878 -0.8107  0.6449  2.5731
 7202SOL    HW233066   4.214   0.505   8.929  0.8867 -1.1155  0.5449
 7203SOL     OW33067   4.550   0.941   2.367 -0.1184  0.3530 -0.4690
 7203SOL    HW133068   4.609   0.960   2.440 -1.0943 -0.4488  0.5329
 7203SOL    HW233069   4.549   1.031   2.335 -0.7385  1.0137  1.3967
 7204SOL     OW33070   1.187   2.483   8.049  0.0739 -0.2973 -0.4959
 7204SOL    HW133071   1.130   2.411   8.077 -1.9133  2.0041  1.4432
 7204SOL    HW233072   1.142   2.526   7.977 -1.9856 -0.5860  0.6110
 7205SOL     OW33073   3.041   0.413   3.707 -0.4147  0.3274  0.9126
 7205SOL    HW133074   3.035   0.362   3.626  1.7561  0.9392  0.3519
 7205SOL    HW233075   3.135   0.433   3.711 -0.5370  0.9950  0.4866
 7206SOL     OW33076   0.488   4.011  16.224  0.7735 -0.3743 -0.6927
 7206SOL    HW133077   0.570   4.034  16.266 -0.2155  2.1511 -0.1542
 7206SOL    HW233078   0.502   3.922  16.192  1.2474 -0.9690  1.1976
 7207SOL     OW33079   2.316   1.411   8.962 -0.4718  0.0911  0.1452
 7207SOL    HW133080   2.313   1.374   9.050  1.3564  0.6575  0.4430
 7207SOL    HW233081   2.410   1.415   8.946 -0.4204 -0.5271  0.2781
 7208SOL     OW33082   2.809   0.751   9.400  0.4932 -0.7917  0.2410
 7208SOL    HW133083   2.816   0.790   9.313  0.7451 -0.2297  0.5161
 7208SOL    HW233084   2.853   0.814   9.457 -1.4197  0.5986  0.2236
 7209SOL     OW33085   2.775   1.806  12.538  0.2132  0.1583 -0.5628
 7209SOL    HW133086   2.787   1.893  12.577 -0.2470  0.3652 -0.8840
 7209SOL    HW233087   2.831   1.764  12.604 -1.1563  1.0662  1.1967
 7210SOL     OW33088   3.237   1.015   9.178  0.4035  0.2607  0.3863
 7210SOL    HW133089   3.265   1.052   9.262  2.0185  2.0201 -0.9059
 7210SOL    HW233090   3.142   1.009   9.184  0.2277  1.1124 -1.5215
 7211SOL     OW33091   4.328   0.585   5.014  0.3641  0.0649  0.4694
 7211SOL    HW133092   4.306   0.638   5.091 -0.0282 -0.7154  0.8924
 7211SOL    HW233093   4.362   0.647   4.950  0.4232 -0.4659 -0.0198
 7212SOL     OW33094   2.870   2.597  14.317 -0.1484 -0.0233  0.2031
 7212SOL    HW133095   2.964   2.587  14.334  0.2366 -0.8614 -2.5297
 7212SOL    HW233096   2.823   2.527  14.362 -1.7854  0.8026 -0.2387
 7213SOL     OW33097   0.110   1.445   3.480 -0.0348  0.3205 -0.4881
 7213SOL    HW133098   0.080   1.367   3.433  1.3362 -0.4297 -0.1081
 7213SOL    HW233099   0.037   1.442   3.542 -0.0086  1.4067 -0.3983
 7214SOL     OW33100   2.010   2.810   9.897 -0.4166 -0.0338  0.2496
 7214SOL    HW133101   2.007   2.731   9.952  0.2219 -1.1185 -1.2768
 7214SOL    HW233102   2.027   2.877   9.963 -0.1898  0.6838 -0.5344
 7215SOL     OW33103   4.060   2.521   6.483 -0.1497 -0.2496  0.0490
 7215SOL    HW133104   4.114   2.540   6.559  1.5003 -0.8637 -0.9872
 7215SOL    HW233105   4.098   2.577   6.415  0.5544 -1.0803 -0.2428
 7216SOL     OW33106   4.119   1.041  10.798 -0.0558  0.2813  0.5196
 7216SOL    HW133107   4.111   1.058  10.704 -0.9191 -0.9025  0.3768
 7216SOL    HW233108   4.058   0.968  10.809 -0.3870  0.3865 -0.5974
 7217SOL     OW33109   3.959   3.558   9.910  0.2519  0.1565 -0.5038
 7217SOL    HW133110   3.890   3.594   9.854  0.9008  0.1534 -1.3072
 7217SOL    HW233111   4.040   3.588   9.869  0.6923 -1.3113 -0.6940
 7218SOL     OW33112   2.302   2.722   0.041 -0.0342 -0.4484  0.9960
 7218SOL    HW133113   2.276   2.648  17.683 -0.3188  1.1268 -0.9780
 7218SOL    HW233114   2.380   2.693   0.089  0.6716  0.0712  0.1580
 7219SOL     OW33115   2.318   0.968   3.553  0.2738 -0.4026  0.3642
 7219SOL    HW133116   2.368   1.028   3.497 -0.1221  0.4287  0.8967
 7219SOL    HW233117   2.354   0.885   3.524 -0.4427 -1.0899  1.4452
 7220SOL     OW33118   1.864   0.716   5.263 -0.2502 -0.5929 -0.2268
 7220SOL    HW133119   1.866   0.634   5.312  0.6516 -1.2726 -1.4026
 7220SOL    HW233120   1.927   0.775   5.302  0.5620 -0.5280 -1.6491
 7221SOL     OW33121   4.548   1.276  12.847  0.0815  0.4851 -0.1617
 7221SOL    HW133122   4.623   1.232  12.807  1.4779  4.0439 -1.4523
 7221SOL    HW233123   4.486   1.260  12.776  0.1555 -1.0485  0.1241
 7222SOL     OW33124   1.755   2.147   7.736  0.2876  0.2863  0.4941
 7222SOL    HW133125   1.708   2.207   7.795 -0.3973  0.6947 -0.4610
 7222SOL    HW233126   1.823   2.109   7.791  2.2389  2.5140 -0.3676
 7223SOL     OW33127   0.977   0.495   4.323 -0.1194 -0.2014 -0.5678
 7223SOL    HW133128   0.953   0.432   4.392 -0.0770  4.4127  3.6911
 7223SOL    HW233129   0.898   0.507   4.269 -0.0181 -1.3222 -0.9537
 7224SOL     OW33130   3.903   1.061  15.792 -0.6660 -0.4332  0.0521
 7224SOL    HW133131   3.878   0.974  15.823 -0.1338 -0.6535 -0.1289
 7224SOL    HW233132   3.935   1.038  15.705  1.5084  0.0485  0.7419
 7225SOL     OW33133   3.974   3.637  15.356 -0.5493  0.2079 -0.3824
 7225SOL    HW133134   4.045   3.604  15.410 -0.5907  2.5562  1.1221
 7225SOL    HW233135   4.003   3.728  15.357  0.1080 -0.0153  0.4766
 7226SOL     OW33136   4.173   1.375  10.332  0.1828 -0.6529  0.1944
 7226SOL    HW133137   4.096   1.411  10.288  0.2754  0.6725  1.0906
 7226SOL    HW233138   4.235   1.414  10.270  0.7600 -0.4867  0.8664
 7227SOL     OW33139   3.851   1.149   5.912 -0.2788 -1.0762 -0.3765
 7227SOL    HW133140   3.858   1.135   5.817 -0.6743 -0.1379 -0.5441
 7227SOL    HW233141   3.780   1.086   5.928 -1.5377  0.3580 -0.2818
 7228SOL     OW33142   2.247   4.224   6.275  0.4979 -0.2055  0.0115
 7228SOL    HW133143   2.241   4.318   6.260 -0.8009  0.0240  1.9939
 7228SOL    HW233144   2.335   4.221   6.313  0.4981  2.1693  0.1989
 7229SOL     OW33145   0.184   0.884   3.822  0.1038  0.3765 -0.2264
 7229SOL    HW133146   0.135   0.809   3.857 -0.3839  0.5149 -0.6087
 7229SOL    HW233147   0.150   0.880   3.732  1.2778  1.9252 -0.7489
 7230SOL     OW33148   1.176   2.756   5.547 -0.4697 -0.5050 -0.2532
 7230SOL    HW133149   1.168   2.661   5.539  0.3480 -0.5302 -0.8150
 7230SOL    HW233150   1.085   2.783   5.547  0.1508  1.6170  0.7712
 7231SOL     OW33151   1.770   0.305   1.902 -0.8451 -0.9322 -0.4733
 7231SOL    HW133152   1.835   0.241   1.873  0.4534 -0.0893  0.5765
 7231SOL    HW233153   1.826   0.377   1.930  0.0525 -0.9622 -2.1807
 7232SOL     OW33154   1.683   4.438   5.180 -0.3697 -0.1597 -0.5538
 7232SOL    HW133155   1.716   4.358   5.139 -0.8750 -0.7196  0.1428
 7232SOL    HW233156   1.668   4.414   5.271 -1.3919 -1.0248 -0.9485
 7233SOL     OW33157   1.474   1.100   3.332 -0.9304  0.1861 -0.8235
 7233SOL    HW133158   1.461   1.113   3.426  1.0643  2.1617 -0.8209
 7233SOL    HW233159   1.526   1.179   3.317 -1.2924  0.6969  0.6811
 7234SOL     OW33160   3.037   4.090  11.522  0.1268  0.7119 -0.4654
 7234SOL    HW133161   2.991   4.027  11.578 -1.9553  1.6314 -1.1257
 7234SOL    HW233162   3.052   4.160  11.586 -2.1216  0.1581  0.6753
 7235SOL     OW33163   0.814   1.099   9.797  0.4076 -0.7622  0.2100
 7235SOL    HW133164   0.728   1.061   9.777  0.9346 -1.9173  0.1551
 7235SOL    HW233165   0.786   1.164   9.861  0.9748  0.5731 -0.8827
 7236SOL     OW33166   0.648   2.702  16.895  0.2015 -0.1703 -0.0380
 7236SOL    HW133167   0.695   2.747  16.825  0.0700  0.8081  0.4923
 7236SOL    HW233168   0.699   2.734  16.969 -0.6397  0.7379  0.1516
 7237SOL     OW33169   3.785   1.453   4.299  0.0400  0.2966  0.5307
 7237SOL    HW133170   3.805   1.360   4.311  0.6722  0.5857  1.7440
 7237SOL    HW233171   3.814   1.473   4.210  1.1533  0.1621  0.8702
 7238SOL     OW33172   4.336   3.128   2.913  0.3427  0.2636 -0.2381
 7238SOL    HW133173   4.258   3.116   2.858  1.0971 -0.4913 -1.1468
 7238SOL    HW233174   4.305   3.123   3.003  1.4524 -1.0805  0.0827
 7239SOL     OW33175   0.126   4.214   7.000 -0.0331 -0.2060 -0.0388
 7239SOL    HW133176   0.156   4.174   7.081 -1.1078 -1.5039 -0.2879
 7239SOL    HW233177   0.129   4.131   6.952 -1.9028  0.1853 -0.8364
 7240SOL     OW33178   0.797   1.917   4.506  0.2303 -0.5433 -0.1360
 7240SOL    HW133179   0.849   1.854   4.556  2.6875  2.4561  1.0985
 7240SOL    HW233180   0.712   1.904   4.549 -0.6151  0.9602 -1.3597
 7241SOL     OW33181   0.781   4.063   8.035 -0.1905  0.6331 -0.2276
 7241SOL    HW133182   0.697   4.020   8.045  0.5828 -0.8969 -0.3508
 7241SOL    HW233183   0.818   3.993   7.982  0.4104  0.2410  0.7117
 7242SOL     OW33184   3.845   2.840  10.606 -0.2718 -0.1051 -0.0303
 7242SOL    HW133185   3.765   2.818  10.559 -0.3918 -1.1259  0.6385
 7242SOL    HW233186   3.882   2.751  10.613 -2.6641 -1.0625  0.5138
 7243SOL     OW33187   3.012   3.230   4.565  0.2886  0.4031  0.2649
 7243SOL    HW133188   2.922   3.199   4.570  0.2228  0.3146 -1.3542
 7243SOL    HW233189   3.051   3.197   4.645  0.9246 -0.0394 -0.2289
 7244SOL     OW33190   0.648   2.399   5.155 -0.0609  0.0009  0.1376
 7244SOL    HW133191   0.742   2.400   5.138 -0.0374  0.9090  0.3239
 7244SOL    HW233192   0.646   2.436   5.243  2.4406  0.0029  0.1776
 7245SOL     OW33193   3.007   2.029   8.249 -0.2160 -0.4598  0.2505
 7245SOL    HW133194   3.052   2.091   8.192 -1.1911 -0.8985 -1.0072
 7245SOL    HW233195   3.084   1.973   8.264 -0.3291 -1.0375 -1.3072
 7246SOL     OW33196   4.496   2.649   7.826  0.2440  0.5782  0.2388
 7246SOL    HW133197   4.460   2.660   7.738  0.7289  1.2123  0.1147
 7246SOL    HW233198   4.418   2.670   7.878  0.5212 -0.9381  1.2501
 7247SOL     OW33199   0.441   4.513  10.730  0.0072 -0.1655 -0.3398
 7247SOL    HW133200   0.438   4.590  10.788 -1.9016 -0.1178 -0.5116
 7247SOL    HW233201   0.395   4.549  10.655  1.5196 -0.5356 -1.4535
 7248SOL     OW33202   2.695   3.996   4.910  0.2278  0.3945 -0.3078
 7248SOL    HW133203   2.730   4.083   4.928  1.1655  0.2207 -1.2606
 7248SOL    HW233204   2.757   3.935   4.950 -1.7424  0.2261  2.4646
 7249SOL     OW33205   3.698   1.215   8.420 -0.3469 -0.0890  0.1760
 7249SOL    HW133206   3.719   1.242   8.331  1.5253  1.2651  1.0277
 7249SOL    HW233207   3.738   1.129   8.426  1.4396  0.7729  0.7467
 7250SOL     OW33208   2.871   4.587   3.378  0.1896 -0.0722  0.1264
 7250SOL    HW133209   2.843   4.501   3.346  0.3972 -0.4598  0.9823
 7250SOL    HW233210   2.964   4.582   3.358 -0.1307  1.3403 -1.7674
 7251SOL     OW33211   4.056   3.624  13.485  0.2516  0.0163 -0.5906
 7251SOL    HW133212   3.996   3.611  13.558 -0.4459 -0.2287 -1.2060
 7251SOL    HW233213   4.022   3.566  13.417 -0.6325  0.3000 -0.3917
 7252SOL     OW33214   0.924   1.051  11.078 -0.2517  0.2399 -0.5063
 7252SOL    HW133215   0.892   1.130  11.036 -0.9439  0.1681 -0.1088
 7252SOL    HW233216   1.003   1.035  11.026  0.8078 -1.1393  1.5177
 7253SOL     OW33217   1.201   0.331   5.979  0.6581  0.2097  0.4983
 7253SOL    HW133218   1.172   0.405   6.032  0.0037  1.2685 -1.3499
 7253SOL    HW233219   1.293   0.340   6.002  0.8849  0.7015 -0.6015
 7254SOL     OW33220   1.141   2.197   3.734 -0.3468  0.0042 -0.6910
 7254SOL    HW133221   1.119   2.282   3.695  0.0633  0.3120 -0.2456
 7254SOL    HW233222   1.116   2.135   3.665  0.3338 -1.3587  0.3063
 7255SOL     OW33223   2.618   0.698   4.650  0.3388 -0.2487  0.0337
 7255SOL    HW133224   2.596   0.744   4.730  1.8197 -0.1396  0.3705
 7255SOL    HW233225   2.708   0.668   4.663  1.0682  0.3155 -3.5983
 7256SOL     OW33226   1.539   4.704   1.943 -0.2634 -0.1347 -0.2256
 7256SOL    HW133227   1.619   0.013   1.984 -1.2763 -1.0211  2.4773
 7256SOL    HW233228   1.487   0.057   1.920 -0.2313 -0.3379 -0.9564
 7257SOL     OW33229   4.602   3.984   7.515  0.1635  0.3519 -0.0572
 7257SOL    HW133230   4.647   4.064   7.486 -0.9933  0.9463 -0.2235
 7257SOL    HW233231   4.644   3.983   7.601  1.2791  3.7291 -0.5572
 7258SOL     OW33232   0.396   3.767  16.122 -0.6836 -0.0494 -0.4045
 7258SOL    HW133233   0.395   3.745  16.028  0.4390 -0.3649 -0.3438
 7258SOL    HW233234   0.301   3.758  16.133 -0.8984  0.2416 -1.8892
 7259SOL     OW33235   2.623   0.870  14.273  0.4483  0.2057 -0.3943
 7259SOL    HW133236   2.546   0.834  14.316  1.1908  0.2617  0.9740
 7259SOL    HW233237   2.643   0.812  14.199 -0.3867  0.5295 -0.8735
 7260SOL     OW33238   4.699   0.761   3.668  1.0113 -0.2583  0.2246
 7260SOL    HW133239   4.713   0.687   3.728  0.8361 -1.3606 -1.0835
 7260SOL    HW233240   4.604   0.756   3.660  0.9133 -1.2545  1.7656
 7261SOL     OW33241   0.194   1.500   9.042  0.3134  0.4983 -0.4684
 7261SOL    HW133242   0.168   1.423   9.092 -0.6390  1.8332  1.0807
 7261SOL    HW233243   0.186   1.466   8.952 -0.5066  1.6033 -0.8039
 7262SOL     OW33244   0.883   0.837   8.668  0.0513 -0.1837  0.1905
 7262SOL    HW133245   0.956   0.807   8.721  0.1338 -0.3515 -0.0153
 7262SOL    HW233246   0.845   0.890   8.738  0.5296 -1.0327  1.0910
 7263SOL     OW33247   1.440   2.294  10.744 -0.3426 -0.0649  0.2398
 7263SOL    HW133248   1.404   2.289  10.833  0.5028  1.8117  0.6909
 7263SOL    HW233249   1.421   2.384  10.719 -1.9920 -1.0153 -1.8585
 7264SOL     OW33250   3.987   1.412  12.962  0.9330 -0.2617  0.4195
 7264SOL    HW133251   3.900   1.415  13.000  0.2695 -3.5615 -0.8570
 7264SOL    HW233252   3.971   1.376  12.875 -2.0723 -0.1875  0.9663
 7265SOL     OW33253   2.453   1.811   3.729  0.1908 -0.6449 -0.3847
 7265SOL    HW133254   2.471   1.905   3.718 -1.3315  0.0076  2.4984
 7265SOL    HW233255   2.510   1.777   3.661 -2.6393 -1.7555 -2.1834
 7266SOL     OW33256   2.797   2.397  11.010 -0.6254 -1.0506 -0.1504
 7266SOL    HW133257   2.771   2.376  11.100  0.3123 -1.6929 -0.0245
 7266SOL    HW233258   2.742   2.468  10.978  0.8486 -0.8923 -2.2951
 7267SOL     OW33259   2.678   4.003   0.623 -0.1139  0.3215  0.0492
 7267SOL    HW133260   2.641   3.959   0.699 -0.2430 -0.2558 -0.3480
 7267SOL    HW233261   2.613   4.072   0.611  1.3237  1.9521  1.7071
 7268SOL     OW33262   1.696   1.154   4.353  0.6218  0.2394 -0.5403
 7268SOL    HW133263   1.634   1.101   4.303  0.4193 -0.0503  0.0236
 7268SOL    HW233264   1.766   1.092   4.335  0.2485 -0.2896 -0.1481
 7269SOL     OW33265   4.183   3.388   8.873  0.4761  1.0400  0.6632
 7269SOL    HW133266   4.116   3.339   8.827  0.9296  1.7720 -0.7683
 7269SOL    HW233267   4.228   3.318   8.921  2.4927  0.5735 -1.9251
 7270SOL     OW33268   1.502   1.095   6.451  0.1822 -0.3589 -0.1576
 7270SOL    HW133269   1.430   1.061   6.398 -0.0294  0.6540 -0.5308
 7270SOL    HW233270   1.462   1.182   6.457 -2.6422 -1.4905 -2.4063
 7271SOL     OW33271   1.876   0.369   9.977  0.0785  0.2634 -0.2555
 7271SOL    HW133272   1.808   0.429  10.009 -0.3079 -0.0391 -0.5146
 7271SOL    HW233273   1.870   0.311  10.053 -2.6452  1.1607  0.2087
 7272SOL     OW33274   4.154   2.809   6.056 -0.3160  0.0212  0.5327
 7272SOL    HW133275   4.085   2.857   6.103  1.5273  0.9344  2.3487
 7272SOL    HW233276   4.226   2.871   6.057 -2.3554  2.3796  1.9557
 7273SOL     OW33277   2.117   0.014   2.915  0.4226 -0.2735  0.1088
 7273SOL    HW133278   2.118   4.697   2.828  2.0930 -0.2489  0.1142
 7273SOL    HW233279   2.053   4.700   2.974  1.8163 -1.1316  1.0690
 7274SOL     OW33280   2.665   0.667   5.715  0.3852 -0.1759 -0.3614
 7274SOL    HW133281   2.592   0.644   5.772  1.2259 -0.2210  0.7042
 7274SOL    HW233282   2.718   0.588   5.719 -0.5233 -0.6282  2.7583
 7275SOL     OW33283   0.947   3.718   5.684  0.1415  0.5077 -0.2449
 7275SOL    HW133284   1.004   3.782   5.726 -1.7166  1.2424  1.1845
 7275SOL    HW233285   0.996   3.638   5.662  1.2644  1.5860 -1.6050
 7276SOL     OW33286   3.756   2.481   9.442 -0.0687 -0.3175  0.2737
 7276SOL    HW133287   3.726   2.550   9.500  2.5162  0.9524  0.1080
 7276SOL    HW233288   3.805   2.428   9.504  1.1257  2.3987  1.6245
 7277SOL     OW33289   4.600   1.344  17.455 -0.5667  0.1498 -0.6372
 7277SOL    HW133290   4.508   1.358  17.433 -1.3333  0.5347  2.8145
 7277SOL    HW233291   4.627   1.422  17.503 -2.3148  1.4827 -1.8376
 7278SOL     OW33292   0.221   2.562  16.361 -0.6423 -0.0541 -0.2019
 7278SOL    HW133293   0.252   2.540  16.449 -1.4909  0.6604  0.2717
 7278SOL    HW233294   0.266   2.494  16.310  3.0911  1.5131  1.0256
 7279SOL     OW33295   0.560   0.822   3.066 -0.0259  0.3308 -0.1048
 7279SOL    HW133296   0.468   0.849   3.069  0.2473  1.5303 -2.6210
 7279SOL    HW233297   0.568   0.730   3.090 -0.5529 -0.0237 -1.2629
 7280SOL     OW33298   2.077   1.967   8.488 -0.8020  0.3962  0.0613
 7280SOL    HW133299   2.077   1.877   8.522  1.6806 -0.0723 -1.1836
 7280SOL    HW233300   2.080   1.947   8.395  0.2369  2.4869 -0.3494
 7281SOL     OW33301   1.911   3.630   8.255 -0.0586  0.4436  0.0416
 7281SOL    HW133302   1.834   3.681   8.228 -0.9002 -0.9727 -0.2434
 7281SOL    HW233303   1.940   3.677   8.333  3.2461  2.4511 -2.3985
 7282SOL     OW33304   3.246   4.451   8.172  0.3689  0.3645  0.6195
 7282SOL    HW133305   3.251   4.483   8.083  1.7586 -0.5604  0.3517
 7282SOL    HW233306   3.322   4.496   8.209  0.9983  1.9675 -2.6923
 7283SOL     OW33307   1.342   2.865  17.620 -0.0379 -0.7848 -0.2347
 7283SOL    HW133308   1.249   2.856  17.641 -0.3453  2.4890 -0.1276
 7283SOL    HW233309   1.368   2.776  17.644  0.8835 -0.7590 -1.1455
 7284SOL     OW33310   4.076   4.518   3.592  0.5015  0.3094  0.7573
 7284SOL    HW133311   4.119   4.600   3.616  1.8933  0.4858 -2.3421
 7284SOL    HW233312   4.146   4.455   3.609  1.0037  0.0528 -2.1883
 7285SOL     OW33313   1.192   2.693   9.691 -0.6529  0.0738 -0.2671
 7285SOL    HW133314   1.144   2.755   9.747  0.3908  1.2087 -0.6492
 7285SOL    HW233315   1.169   2.722   9.603  2.6748  1.7548 -0.5586
 7286SOL     OW33316   0.628   2.213   3.274  0.1738 -0.6681  0.2158
 7286SOL    HW133317   0.593   2.159   3.345 -1.9704  2.4562  1.5424
 7286SOL    HW233318   0.683   2.275   3.322 -4.3504  2.2728  1.6192
 7287SOL     OW33319   3.052   0.322   8.093 -0.4895 -0.1471 -0.6881
 7287SOL    HW133320   2.980   0.379   8.119 -0.0732  0.1376 -0.1691
 7287SOL    HW233321   3.126   0.380   8.075  1.0058 -1.4795  1.0776
 7288SOL     OW33322   4.180   3.819   8.355  1.1753 -0.2070  1.0155
 7288SOL    HW133323   4.214   3.904   8.326 -0.1641 -0.4989 -1.3403
 7288SOL    HW233324   4.089   3.843   8.369  0.7870  1.3881 -4.1515
 7289SOL     OW33325   4.266   4.452   0.466  0.4058  0.1311  0.2469
 7289SOL    HW133326   4.279   4.480   0.375  2.9626  2.0204  1.2009
 7289SOL    HW233327   4.261   4.539   0.507  0.9388  0.2909 -0.0325
 7290SOL     OW33328   3.973   2.252   3.347 -0.1374  0.6069  0.2794
 7290SOL    HW133329   3.906   2.254   3.279 -1.0448  0.8638  1.1780
 7290SOL    HW233330   4.032   2.182   3.317  1.1401  1.3603  1.0290
 7291SOL     OW33331   3.288   4.535   5.753 -0.0462 -0.8930 -0.0541
 7291SOL    HW133332   3.193   4.521   5.754 -0.1245 -0.4322 -0.6150
 7291SOL    HW233333   3.299   4.557   5.845 -1.8096  0.2749 -0.1052
 7292SOL     OW33334   1.806   2.308   2.545  0.1609 -0.1176 -0.7420
 7292SOL    HW133335   1.747   2.246   2.503  0.4449 -1.0961  0.3266
 7292SOL    HW233336   1.783   2.310   2.638  0.9299 -1.2812 -0.5299
 7293SOL     OW33337   3.766   1.769  12.048 -1.2033  0.3545 -0.0420
 7293SOL    HW133338   3.767   1.708  11.974 -2.1661 -0.6301  0.7410
 7293SOL    HW233339   3.780   1.714  12.125 -0.3093 -1.1759 -1.3112
 7294SOL     OW33340   3.489   1.242   1.235  0.4203 -0.3584  0.4880
 7294SOL    HW133341   3.461   1.312   1.294 -0.3740  1.9321 -2.6285
 7294SOL    HW233342   3.576   1.273   1.210 -0.6469 -0.3996 -3.2738
 7295SOL     OW33343   2.870   3.243  10.157  0.0925  0.0298 -0.3403
 7295SOL    HW133344   2.944   3.274  10.208  0.5126 -0.5468 -0.6058
 7295SOL    HW233345   2.811   3.192  10.213 -0.8859  2.1686  0.5862
 7296SOL     OW33346   2.237   3.066   3.882  0.5620  0.0592 -0.1178
 7296SOL    HW133347   2.162   3.120   3.859  0.1471 -0.2732  0.4406
 7296SOL    HW233348   2.210   3.036   3.969  0.1711  1.9075  0.3808
 7297SOL     OW33349   3.499   0.833   0.158  0.5169 -0.3087  0.0661
 7297SOL    HW133350   3.546   0.838   0.242  0.7772 -1.9666  0.0231
 7297SOL    HW233351   3.449   0.914   0.171  1.1967 -0.0046  0.8758
 7298SOL     OW33352   4.051   1.181   9.422 -0.5304  0.6870  0.9891
 7298SOL    HW133353   4.041   1.272   9.452  0.1694  1.7148 -1.8679
 7298SOL    HW233354   4.118   1.144   9.480  0.3597  0.5994 -0.0824
 7299SOL     OW33355   1.511   2.213  16.733 -0.2318 -0.1954 -0.1938
 7299SOL    HW133356   1.417   2.226  16.734 -0.1331  0.4916  0.4467
 7299SOL    HW233357   1.521   2.194  16.827 -0.6904 -0.3044 -0.1707
 7300SOL     OW33358   1.737   3.208  16.601 -0.2482  0.3312  0.0266
 7300SOL    HW133359   1.659   3.170  16.562  0.5479 -1.4477  0.1715
 7300SOL    HW233360   1.694   3.249  16.676  0.0730  0.4418  0.1499
 7301SOL     OW33361   2.145   1.848  13.488  0.0782  0.3285 -0.4450
 7301SOL    HW133362   2.117   1.818  13.401 -0.7829  0.9812 -0.3944
 7301SOL    HW233363   2.133   1.943  13.483 -1.4531  0.2490  1.6664
 7302SOL     OW33364   3.928   1.362   8.950 -0.6907  0.2879 -0.6283
 7302SOL    HW133365   4.001   1.423   8.957 -1.9438  2.0000 -2.3808
 7302SOL    HW233366   3.926   1.344   9.044 -0.1807  0.4199 -0.5959
 7303SOL     OW33367   4.269   4.473   2.905  0.1620  0.4492 -0.3905
 7303SOL    HW133368   4.364   4.463   2.897  0.1617 -0.4598  0.6638
 7303SOL    HW233369   4.260   4.568   2.916 -2.2687  0.4488 -2.2773
 7304SOL     OW33370   1.862   1.858   5.509 -0.5219 -0.0788 -0.1915
 7304SOL    HW133371   1.776   1.891   5.486 -0.0588  1.8410  0.7601
 7304SOL    HW233372   1.888   1.912   5.585  0.3854 -2.9433  1.5281
 7305SOL     OW33373   3.970   1.220  11.802  0.2754  0.2432  0.4547
 7305SOL    HW133374   3.943   1.298  11.754  0.1235 -0.7779 -1.1200
 7305SOL    HW233375   3.976   1.261  11.888  1.6853  0.1678  0.3985
 7306SOL     OW33376   2.253   0.705   5.181  0.2865  0.3844 -0.3768
 7306SOL    HW133377   2.335   0.655   5.180 -0.0221 -0.1178 -0.0717
 7306SOL    HW233378   2.212   0.681   5.098 -0.5099  0.6385 -0.0592
 7307SOL     OW33379   0.917   2.051   6.900  0.3236 -0.3278 -0.3310
 7307SOL    HW133380   0.985   2.076   6.837 -0.0673 -0.2713 -0.7239
 7307SOL    HW233381   0.962   1.980   6.947 -1.9194 -2.7075 -1.8013
 7308SOL     OW33382   1.412   3.260  10.542 -0.3374  0.0327 -0.6128
 7308SOL    HW133383   1.351   3.281  10.471 -1.6321 -0.4377  0.3600
 7308SOL    HW233384   1.437   3.172  10.514 -3.4024 -0.9094 -0.3446
 7309SOL     OW33385   1.211   3.513   7.739 -0.1242 -1.0015 -0.4691
 7309SOL    HW133386   1.176   3.442   7.794  2.0445 -1.9245 -0.2411
 7309SOL    HW233387   1.132   3.563   7.756 -0.2603 -1.4482  0.2501
 7310SOL     OW33388   0.052   0.647   3.908  0.1587 -0.1706 -0.0863
 7310SOL    HW133389   0.045   0.612   3.997  0.6781  2.2314  0.9074
 7310SOL    HW233390   0.110   0.579   3.874 -0.7680 -1.7831  1.6147
 7311SOL     OW33391   2.461   0.273   6.077  0.1714  0.1269 -0.3342
 7311SOL    HW133392   2.463   0.188   6.034 -0.9217  0.6191 -1.3542
 7311SOL    HW233393   2.555   0.289   6.081  0.0814  0.7162 -0.5287
 7312SOL     OW33394   2.807   1.815   4.642 -0.1375  0.1893  0.6922
 7312SOL    HW133395   2.722   1.773   4.654 -1.6101  2.8212 -0.4070
 7312SOL    HW233396   2.790   1.891   4.699  0.0684  0.2007  0.7388
 7313SOL     OW33397   4.308   0.152  16.580  0.0760 -0.1879  0.3459
 7313SOL    HW133398   4.357   0.227  16.614  2.6036 -0.9250 -1.6864
 7313SOL    HW233399   4.373   0.092  16.544  1.0074  1.5362 -0.8189
 7314SOL     OW33400   3.988   3.025   6.880  1.1629 -0.1143  0.8721
 7314SOL    HW133401   3.994   3.024   6.785  0.0284  2.2196  0.7743
 7314SOL    HW233402   3.898   3.055   6.891 -0.5537 -4.8415 -0.3094
 7315SOL     OW33403   2.731   0.738   1.614  0.5055 -0.1657 -0.5348
 7315SOL    HW133404   2.793   0.793   1.567  0.1761  0.4894 -0.2047
 7315SOL    HW233405   2.668   0.712   1.546  2.9724 -0.3098 -2.7519
 7316SOL     OW33406   0.422   1.928   2.555  0.5319 -0.1689 -0.4810
 7316SOL    HW133407   0.385   2.012   2.585 -1.0435 -1.1250  0.2813
 7316SOL    HW233408   0.344   1.893   2.512 -0.4946  0.3229  0.9768
 7317SOL     OW33409   0.846   4.008   5.226 -0.0005 -0.2027 -0.0992
 7317SOL    HW133410   0.920   3.980   5.280  0.8204 -0.7135 -1.4791
 7317SOL    HW233411   0.805   4.074   5.282 -0.3310  0.2310 -0.8547
 7318SOL     OW33412   4.418   2.984  15.313  0.6523  0.1767  0.2843
 7318SOL    HW133413   4.404   3.067  15.267  1.6068  0.3607  0.3331
 7318SOL    HW233414   4.451   3.013  15.398  2.1871  0.6391 -0.4741
 7319SOL     OW33415   4.626   3.889  15.857 -0.4821 -0.4640 -0.4222
 7319SOL    HW133416   4.605   3.818  15.796 -0.0467 -0.4313 -0.6102
 7319SOL    HW233417   4.691   3.931  15.801 -2.1273  0.2975 -1.7788
 7320SOL     OW33418   4.010   1.866   3.739  0.3740  0.1358 -0.4593
 7320SOL    HW133419   3.980   1.854   3.648 -0.2144 -1.2827 -0.0753
 7320SOL    HW233420   4.027   1.776   3.764  0.3061 -0.1512 -1.4467
 7321SOL     OW33421   4.444   3.250  17.611 -0.0561  0.4047 -0.4504
 7321SOL    HW133422   4.399   3.178  17.655 -1.1966  0.6655 -1.1992
 7321SOL    HW233423   4.459   3.223  17.521  2.5141  1.4696 -0.3359
 7322SOL     OW33424   1.724   3.420   3.719 -0.6004  0.3749  0.7585
 7322SOL    HW133425   1.678   3.453   3.797  0.5631 -0.4027  1.7626
 7322SOL    HW233426   1.745   3.332   3.748  1.1905  0.8549  0.9225
 7323SOL     OW33427   3.331   1.036   7.690  0.2293 -0.5454 -0.5123
 7323SOL    HW133428   3.351   0.957   7.640 -0.2027 -2.5742  2.5648
 7323SOL    HW233429   3.356   1.000   7.775  2.8269  1.1101 -0.5853
 7324SOL     OW33430   3.213   0.024  11.969  0.3168 -0.4178 -0.2073
 7324SOL    HW133431   3.243   0.108  12.004  1.0094 -0.8411  0.2132
 7324SOL    HW233432   3.298   4.716  11.939  1.4014  0.9993  1.3696
 7325SOL     OW33433   3.046   2.095  15.704  0.2690 -0.3680  0.3916
 7325SOL    HW133434   3.071   2.143  15.625  2.0074  0.6418  1.5456
 7325SOL    HW233435   2.983   2.032  15.671 -0.9181 -0.2130  2.3392
 7326SOL     OW33436   3.008   3.084  17.109 -0.0792 -0.2257  0.8040
 7326SOL    HW133437   2.941   3.037  17.059  0.1507  0.3716 -0.0474
 7326SOL    HW233438   3.090   3.036  17.099 -1.1100 -1.6114 -0.9857
 7327SOL     OW33439   0.047   1.456   3.083  0.2868 -0.5001  0.0629
 7327SOL    HW133440   4.699   1.486   3.028  0.1844  1.7257  1.3752
 7327SOL    HW233441   0.117   1.517   3.060 -0.7667  1.1429  1.1924
 7328SOL     OW33442   0.570   0.039   6.712 -0.2552  0.8229 -0.2283
 7328SOL    HW133443   0.563   4.678   6.666 -1.9681  0.9599 -0.2176
 7328SOL    HW233444   0.635   0.075   6.651 -0.0539 -1.2411 -1.2497
 7329SOL     OW33445   0.858   2.089  12.079 -0.3651  0.1762 -0.4890
 7329SOL    HW133446   0.842   2.051  11.993  3.9547 -0.5414 -0.9911
 7329SOL    HW233447   0.809   2.171  12.084 -0.4181  0.3217 -3.3881
 7330SOL     OW33448   4.493   3.851   5.512  0.3653 -0.5929  0.0743
 7330SOL    HW133449   4.426   3.827   5.576 -3.1693  2.2908 -2.5288
 7330SOL    HW233450   4.504   3.939   5.548  1.9299 -0.6972 -0.1592
 7331SOL     OW33451   3.982   2.336   6.087  0.4028  0.3044  0.3571
 7331SOL    HW133452   4.012   2.380   6.166  3.1677  0.1705 -0.5888
 7331SOL    HW233453   3.925   2.406   6.054  0.3496 -0.6543 -1.6182
 7332SOL     OW33454   2.337   2.831   3.793 -0.1657 -0.3498 -0.2244
 7332SOL    HW133455   2.304   2.795   3.875 -1.8207 -1.5535 -1.3975
 7332SOL    HW233456   2.314   2.923   3.788 -0.2719 -0.2614  2.1939
 7333SOL     OW33457   1.820   3.044   8.350 -0.5031 -0.3190 -0.1330
 7333SOL    HW133458   1.784   3.132   8.334  0.8943  0.1119 -0.8904
 7333SOL    HW233459   1.914   3.058   8.338 -1.3053  2.9670 -2.8993
 7334SOL     OW33460   3.019   0.069   8.832 -0.2257  0.3067  0.0590
 7334SOL    HW133461   3.100   0.041   8.875 -1.0682  0.1664  1.5326
 7334SOL    HW233462   3.060   0.069   8.745 -0.0429 -0.1980  0.1480
 7335SOL     OW33463   0.761   3.877   4.716  0.1664 -0.2591 -0.0346
 7335SOL    HW133464   0.713   3.822   4.779  0.4850  0.5415  0.9115
 7335SOL    HW233465   0.831   3.901   4.778  0.2073  2.6704 -1.2544
 7336SOL     OW33466   3.619   3.333   5.532  0.3190 -0.3932  0.0876
 7336SOL    HW133467   3.679   3.319   5.459  2.0222 -0.0007  1.4130
 7336SOL    HW233468   3.532   3.344   5.494 -0.6383 -3.6999  1.3275
 7337SOL     OW33469   1.212   2.287   6.149  1.3715  0.1612 -0.7846
 7337SOL    HW133470   1.141   2.351   6.155 -0.0255 -1.3287 -1.6330
 7337SOL    HW233471   1.238   2.288   6.057  1.0293  1.0745 -0.8785
 7338SOL     OW33472   2.882   2.433   9.308  0.3320  0.1954  0.0527
 7338SOL    HW133473   2.945   2.382   9.256 -0.3805 -1.1460  0.4830
 7338SOL    HW233474   2.834   2.479   9.240  1.8008  0.0470 -1.0957
 7339SOL     OW33475   2.330   1.308   4.035  0.5019 -0.2687 -0.1395
 7339SOL    HW133476   2.415   1.290   3.995  1.6423  1.8736  1.3354
 7339SOL    HW233477   2.329   1.389   4.086  1.7116 -0.0526 -0.4660
 7340SOL     OW33478   1.683   3.495   7.244  0.7047  0.0639 -0.4763
 7340SOL    HW133479   1.639   3.570   7.283 -0.7825 -0.8669 -0.3817
 7340SOL    HW233480   1.746   3.538   7.185 -0.1213  1.3524 -0.4178
 7341SOL     OW33481   3.308   2.419  13.938  0.1956 -0.5120  0.4329
 7341SOL    HW133482   3.370   2.347  13.948 -1.3595 -2.1339 -1.7106
 7341SOL    HW233483   3.368   2.489  13.966  1.6498 -1.4210 -0.3728
 7342SOL     OW33484   2.898   3.646   6.390 -0.3067 -0.1717  0.0778
 7342SOL    HW133485   2.990   3.650   6.416  0.0711  1.3551 -1.4750
 7342SOL    HW233486   2.858   3.698   6.460  0.9327 -2.1377  2.2208
 7343SOL     OW33487   0.974   2.446   8.725 -0.3140  0.2954  0.3532
 7343SOL    HW133488   0.941   2.405   8.805 -1.3826  1.1880  0.3717
 7343SOL    HW233489   0.977   2.365   8.674 -1.5592  0.9241 -0.7349
 7344SOL     OW33490   1.723   1.156   7.355 -0.0069  0.0852 -0.1991
 7344SOL    HW133491   1.635   1.191   7.341  0.0006  0.6355  1.1661
 7344SOL    HW233492   1.783   1.227   7.334 -0.3063 -0.0786 -1.6120
 7345SOL     OW33493   0.499   0.261  14.147  0.8936  0.3254  0.3345
 7345SOL    HW133494   0.510   0.305  14.063  1.1180 -1.0613 -0.3612
 7345SOL    HW233495   0.405   0.246  14.135  1.0501 -2.3392  2.4294
 7346SOL     OW33496   1.438   0.851   4.346  1.0475 -0.0085  0.3193
 7346SOL    HW133497   1.356   0.803   4.358  2.1301 -2.0563 -0.4618
 7346SOL    HW233498   1.451   0.874   4.438 -0.2421  1.8528  0.0506
 7347SOL     OW33499   1.215   1.289   9.062 -0.1474 -0.3040  0.3288
 7347SOL    HW133500   1.202   1.236   9.141  2.8603 -0.0501  1.0011
 7347SOL    HW233501   1.294   1.254   9.021 -0.6527  0.2183 -1.1030
 7348SOL     OW33502   3.594   3.168   8.465 -0.2201 -0.3781 -0.4774
 7348SOL    HW133503   3.654   3.229   8.507 -0.4856  0.1918 -0.9161
 7348SOL    HW233504   3.511   3.195   8.505  1.1345  0.0440  2.0107
 7349SOL     OW33505   3.051   0.836  14.937 -0.2679  0.5100  0.7991
 7349SOL    HW133506   2.988   0.855  14.868  0.1983  1.5378  0.6535
 7349SOL    HW233507   3.139   0.857  14.905  0.3929 -0.3426  2.0138
 7350SOL     OW33508   1.907   1.346   9.494 -0.3461 -0.5345  0.5509
 7350SOL    HW133509   1.828   1.378   9.450  0.2588  1.8949  1.2677
 7350SOL    HW233510   1.955   1.422   9.526 -1.3241  0.3155 -0.0402
 7351SOL     OW33511   0.194   4.264  16.095 -0.3389  0.2846 -0.5642
 7351SOL    HW133512   0.269   4.319  16.118 -0.0005  1.0832 -3.5019
 7351SOL    HW233513   0.120   4.324  16.096 -0.1650  0.5059 -0.9573
 7352SOL     OW33514   4.716   0.625  12.878 -0.3827 -0.2008 -0.3827
 7352SOL    HW133515   0.013   0.686  12.949  0.9842 -0.8351 -0.2428
 7352SOL    HW233516   4.666   0.559  12.926 -1.9555  1.7294  0.6587
 7353SOL     OW33517   1.101   1.240   6.233  0.6510 -0.0354  0.5982
 7353SOL    HW133518   1.172   1.277   6.180  1.8844 -1.6932  1.0789
 7353SOL    HW233519   1.058   1.321   6.261  0.6138 -0.3036  1.3111
 7354SOL     OW33520   3.224   0.350  14.463 -0.2325  0.1008 -0.0657
 7354SOL    HW133521   3.273   0.315  14.389 -0.4239 -0.7898  0.2311
 7354SOL    HW233522   3.141   0.304  14.450 -0.6995  1.1062 -0.6634
 7355SOL     OW33523   0.329   0.265  16.258  0.1200 -0.8666 -0.1024
 7355SOL    HW133524   0.288   0.179  16.254  3.2401 -2.2999 -1.4776
 7355SOL    HW233525   0.276   0.312  16.323 -1.5289 -0.3165 -1.8505
 7356SOL     OW33526   4.645   2.829   3.419  0.2102 -0.3394  0.6128
 7356SOL    HW133527   4.580   2.758   3.423 -0.5188  0.3594  1.2768
 7356SOL    HW233528   4.592   2.898   3.460  2.6610  2.6406 -1.2880
 7357SOL     OW33529   4.482   3.963  10.742 -0.1120 -0.1249 -0.5377
 7357SOL    HW133530   4.427   4.011  10.804 -0.0893 -1.2762  0.3659
 7357SOL    HW233531   4.571   3.988  10.766 -0.0430 -1.3729  0.4840
 7358SOL     OW33532   3.204   1.535   7.006 -0.5637 -0.2894 -0.3004
 7358SOL    HW133533   3.211   1.447   7.042 -0.3128 -0.5123 -0.9004
 7358SOL    HW233534   3.142   1.529   6.933 -2.0440 -3.3964  1.2299
 7359SOL     OW33535   4.660   1.544   7.125  0.0909 -0.1828 -0.0886
 7359SOL    HW133536   0.009   1.598   7.156  0.0616 -0.7548  0.9545
 7359SOL    HW233537   4.637   1.576   7.038  1.1354  3.7420  1.0613
 7360SOL     OW33538   0.184   1.817   7.697 -0.2475  0.1679  0.0574
 7360SOL    HW133539   0.244   1.790   7.767  0.0259 -1.4041 -0.8114
 7360SOL    HW233540   0.199   1.911   7.681  0.0505 -0.1732 -1.6019
 7361SOL     OW33541   1.891   3.518  15.907 -0.0724  0.3881 -0.0736
 7361SOL    HW133542   1.943   3.593  15.935 -0.5473  1.3787 -1.8483
 7361SOL    HW233543   1.903   3.530  15.813 -2.5007 -0.9003 -0.5460
 7362SOL     OW33544   2.855   2.290  14.409 -0.2076  0.0599  0.6025
 7362SOL    HW133545   2.927   2.279  14.471 -0.5938 -0.6950  0.9201
 7362SOL    HW233546   2.897   2.319  14.328  0.8476  1.5042  1.6574
 7363SOL     OW33547   3.052   2.005   7.582 -0.7266  0.2854 -0.1350
 7363SOL    HW133548   3.129   2.042   7.538  0.7291 -2.1854  0.3057
 7363SOL    HW233549   3.099   1.948   7.644 -0.8990 -0.6043 -0.8202
 7364SOL     OW33550   2.470   4.622  13.903  0.0903 -1.0813  0.3867
 7364SOL    HW133551   2.426   4.540  13.925 -0.4267 -0.8629  0.1782
 7364SOL    HW233552   2.547   4.612  13.959 -0.0913 -1.2323  0.6083
 7365SOL     OW33553   1.480   1.768   1.679 -0.4111  0.1685 -0.9013
 7365SOL    HW133554   1.531   1.688   1.673 -0.1797  0.1534  1.2228
 7365SOL    HW233555   1.483   1.789   1.586  1.2793  0.3901 -0.7861
 7366SOL     OW33556   3.166   1.091   9.886  0.3470 -0.0703 -0.0090
 7366SOL    HW133557   3.094   1.143   9.848 -0.2555 -0.7990  0.1420
 7366SOL    HW233558   3.207   1.068   9.803 -1.7140  0.8264 -1.2884
 7367SOL     OW33559   3.952   1.486  10.207 -0.0715  0.1888  0.5297
 7367SOL    HW133560   3.923   1.398  10.185  0.4811  0.0289  0.4331
 7367SOL    HW233561   3.878   1.541  10.182  0.0472  0.0105 -0.2046
 7368SOL     OW33562   1.960   2.849  16.483  0.5290  0.2982  0.0492
 7368SOL    HW133563   1.911   2.815  16.408 -1.1639 -0.6845  1.5899
 7368SOL    HW233564   1.886   2.847  16.544  0.9201 -1.5637  0.4804
 7369SOL     OW33565   2.062   3.782   7.605  0.2111 -0.1283  0.0503
 7369SOL    HW133566   2.023   3.746   7.684 -0.6201 -0.0268 -0.3154
 7369SOL    HW233567   2.127   3.846   7.638  1.3103 -0.8259 -0.7520
 7370SOL     OW33568   2.916   3.626   7.581 -0.3709 -0.3331 -0.6846
 7370SOL    HW133569   2.979   3.697   7.567  0.1279 -0.9729 -1.6361
 7370SOL    HW233570   2.972   3.550   7.568 -0.2601 -0.2436 -0.7396
 7371SOL     OW33571   2.746   1.860   8.856  0.0516 -0.0489 -0.4809
 7371SOL    HW133572   2.729   1.950   8.829  2.1584  0.0145 -1.6008
 7371SOL    HW233573   2.733   1.820   8.770 -0.2941 -0.9264 -0.0238
 7372SOL     OW33574   3.824   2.091   6.220 -0.7189 -0.5696  0.4176
 7372SOL    HW133575   3.781   2.104   6.135  2.5759  1.3893 -0.9627
 7372SOL    HW233576   3.902   2.145   6.205 -0.6007 -1.1690 -1.1634
 7373SOL     OW33577   0.941   1.483   6.630  0.3836 -0.5562 -0.6162
 7373SOL    HW133578   0.857   1.449   6.598  0.0959  0.2414 -0.7128
 7373SOL    HW233579   0.962   1.541   6.556  1.6329 -2.3983 -1.7149
 7374SOL     OW33580   1.179   4.426   4.254  0.5142  0.3410 -0.2269
 7374SOL    HW133581   1.255   4.449   4.308  0.4178 -1.0169  0.4756
 7374SOL    HW233582   1.108   4.418   4.317 -0.1664  0.9467 -0.9039
 7375SOL     OW33583   1.316   2.295   2.272 -0.0415 -0.1500  0.9799
 7375SOL    HW133584   1.263   2.341   2.207  0.5839 -0.7589  0.0486
 7375SOL    HW233585   1.321   2.207   2.235  0.2145 -0.6838  2.2512
 7376SOL     OW33586   1.478   1.270   7.199 -0.3498  0.0459  0.7829
 7376SOL    HW133587   1.439   1.197   7.150  0.4453  1.1789 -1.5052
 7376SOL    HW233588   1.549   1.303   7.145 -0.7732  1.8758  1.3687
 7377SOL     OW33589   2.988   1.337   5.090 -0.1387 -0.3168 -0.7110
 7377SOL    HW133590   2.940   1.261   5.124 -2.1139  1.8620  1.3136
 7377SOL    HW233591   2.962   1.408   5.149 -1.4199 -1.0348 -0.3964
 7378SOL     OW33592   1.897   1.386   8.186  0.0981  0.2657  0.5618
 7378SOL    HW133593   1.852   1.353   8.264  1.2124 -0.7164  0.7756
 7378SOL    HW233594   1.985   1.411   8.213  0.9390  1.2436 -2.9816
 7379SOL     OW33595   3.586   1.974   5.884 -0.0119 -0.3814  0.4774
 7379SOL    HW133596   3.510   1.943   5.934 -1.9435 -0.2384 -2.3430
 7379SOL    HW233597   3.615   1.894   5.839  0.9474  0.4824 -0.4091
 7380SOL     OW33598   3.782   3.250  15.560  0.0727  0.4393 -0.0195
 7380SOL    HW133599   3.764   3.157  15.574  1.5997 -0.1051 -1.7395
 7380SOL    HW233600   3.775   3.282  15.650  2.5337  0.4002  0.1768
 7381SOL     OW33601   1.876   1.110   7.603 -0.0134  0.1224  0.2582
 7381SOL    HW133602   1.860   1.034   7.658 -1.3779 -0.1164 -0.4654
 7381SOL    HW233603   1.827   1.089   7.523  0.8914 -1.1392  0.0425
 7382SOL     OW33604   3.389   1.456  12.482 -0.0255  0.5014 -0.1508
 7382SOL    HW133605   3.470   1.428  12.524 -0.7495  1.2842  1.7276
 7382SOL    HW233606   3.359   1.369  12.457 -0.4438  0.7776 -0.6194
 7383SOL     OW33607   0.167   4.486   8.065  0.5316 -0.1233  0.3142
 7383SOL    HW133608   0.145   4.505   7.974  0.4679  2.9889  0.9811
 7383SOL    HW233609   0.231   4.554   8.085 -0.1028  0.3968  0.5838
 7384SOL     OW33610   1.225   1.204   5.161  0.2134 -0.0939 -0.2465
 7384SOL    HW133611   1.167   1.167   5.094 -1.6607 -0.3066  1.4717
 7384SOL    HW233612   1.196   1.173   5.247  3.5622  1.3231  1.3730
 7385SOL     OW33613   2.020   3.762   8.470  0.0784 -0.4900  0.2483
 7385SOL    HW133614   1.975   3.808   8.541 -1.9219 -0.7779 -0.8332
 7385SOL    HW233615   2.033   3.678   8.513  2.0401 -1.8630 -3.0626
 7386SOL     OW33616   0.179   1.287   4.684 -0.2865 -0.4398  0.6783
 7386SOL    HW133617   0.166   1.379   4.704 -0.5987 -0.9700  2.9403
 7386SOL    HW233618   0.207   1.292   4.592 -2.1647  2.1319  0.2617
 7387SOL     OW33619   0.986   2.587   4.612  0.0546  0.1455  0.4218
 7387SOL    HW133620   0.967   2.625   4.526  2.2830 -0.8491 -0.5047
 7387SOL    HW233621   0.902   2.554   4.645 -1.2157  0.0115 -2.8577
 7388SOL     OW33622   4.244   2.753   4.626  0.2972 -0.0999  0.7673
 7388SOL    HW133623   4.174   2.815   4.606  2.5497  1.8798 -0.9794
 7388SOL    HW233624   4.224   2.688   4.558 -1.3345  1.1862  0.0044
 7389SOL     OW33625   3.138   2.872   4.506 -0.0656 -0.2885 -0.7695
 7389SOL    HW133626   3.232   2.879   4.490 -0.1366  0.5716 -0.8194
 7389SOL    HW233627   3.129   2.798   4.566  0.8708  1.0173  0.9967
 7390SOL     OW33628   1.183   4.017   0.796  0.4039  0.1068  0.4750
 7390SOL    HW133629   1.118   4.085   0.777  0.7601  0.7025  1.3823
 7390SOL    HW233630   1.133   3.970   0.863 -1.6064 -0.8412 -1.7080
 7391SOL     OW33631   1.769   3.105   4.457 -0.2091  0.3453  0.3127
 7391SOL    HW133632   1.720   3.024   4.444  0.8718 -0.7355  2.9260
 7391SOL    HW233633   1.845   3.057   4.491 -1.7199 -1.9872  0.4222
 7392SOL     OW33634   2.142   0.734   6.328  0.3489  0.0983  0.2837
 7392SOL    HW133635   2.191   0.796   6.382  0.8847  0.2692 -0.4067
 7392SOL    HW233636   2.056   0.771   6.352 -0.1458 -2.1874  2.0124
 7393SOL     OW33637   0.508   3.633  15.293 -0.0074  0.3055 -0.2683
 7393SOL    HW133638   0.483   3.715  15.250  1.0557 -1.1581 -3.6948
 7393SOL    HW233639   0.538   3.577  15.222  0.6536 -0.4094  0.5702
 7394SOL     OW33640   4.023   2.696  15.413  0.0653 -0.5966 -0.6740
 7394SOL    HW133641   3.999   2.783  15.384 -0.9853 -0.0104  1.9311
 7394SOL    HW233642   4.111   2.698  15.376 -0.2330  0.2112 -1.3265
 7395SOL     OW33643   2.865   0.618   4.639  0.1162 -0.1488 -0.0645
 7395SOL    HW133644   2.874   0.556   4.567 -0.5976 -1.7232  1.1877
 7395SOL    HW233645   2.948   0.665   4.645  0.5453 -1.1844  2.0540
 7396SOL     OW33646   2.134   1.887   7.609 -0.5516  0.3488  0.0053
 7396SOL    HW133647   2.183   1.829   7.667  1.7050  1.0955 -1.1782
 7396SOL    HW233648   2.059   1.882   7.669 -0.1422 -1.5319  0.3597
 7397SOL     OW33649   0.991   3.203  17.664 -0.3740 -0.7064  0.8077
 7397SOL    HW133650   0.972   3.110  17.649  1.0159 -0.8658  0.0149
 7397SOL    HW233651   1.057   3.214  17.595 -1.0937 -1.2365  0.0400
 7398SOL     OW33652   1.632   3.316   2.487 -0.1987  0.5244  0.7444
 7398SOL    HW133653   1.725   3.337   2.498 -0.2157  1.6458 -1.0775
 7398SOL    HW233654   1.614   3.355   2.401 -0.3462 -1.0887  0.0548
 7399SOL     OW33655   1.406   2.337   8.084  0.0423 -0.0470 -0.1393
 7399SOL    HW133656   1.492   2.366   8.055  0.6840 -0.3085  1.4958
 7399SOL    HW233657   1.340   2.401   8.057 -1.6809 -1.9291 -0.3436
 7400SOL     OW33658   0.385   2.231  14.151  0.0673 -0.0636  0.2456
 7400SOL    HW133659   0.357   2.276  14.071  2.2107  1.4848  0.3721
 7400SOL    HW233660   0.327   2.277  14.211 -0.5555 -1.5734  0.8092
 7401SOL     OW33661   2.451   1.455   8.322  0.0186  0.1277 -0.0478
 7401SOL    HW133662   2.521   1.442   8.258  0.2364 -0.3761  0.2917
 7401SOL    HW233663   2.422   1.366   8.342  0.2716  0.2750  0.9678
 7402SOL     OW33664   2.029   3.228   3.812 -0.0784  0.3202  0.3475
 7402SOL    HW133665   2.028   3.291   3.740  0.6251  2.2087  1.9777
 7402SOL    HW233666   1.951   3.176   3.795 -2.3188  3.3037  1.5921
 7403SOL     OW33667   1.930   1.519  10.344  0.1779 -0.3946  0.0686
 7403SOL    HW133668   1.992   1.505  10.272 -0.4748 -0.4654 -0.4825
 7403SOL    HW233669   1.880   1.438  10.331 -0.7039  0.4044 -1.5248
 7404SOL     OW33670   4.080   2.333   2.976 -0.0272  0.1344 -0.6570
 7404SOL    HW133671   4.014   2.387   2.932 -2.0509 -0.9295  1.0323
 7404SOL    HW233672   4.095   2.395   3.048 -1.4804  0.5110 -0.6710
 7405SOL     OW33673   3.068   1.548   8.037 -0.8334 -0.0063 -0.2342
 7405SOL    HW133674   3.053   1.619   8.098 -1.8604 -0.1883 -0.2842
 7405SOL    HW233675   2.976   1.537   8.012 -0.4397 -2.5618 -0.5764
 7406SOL     OW33676   1.210   2.530   1.269  0.9386 -0.2744  0.0274
 7406SOL    HW133677   1.236   2.476   1.344  0.3527 -2.5668 -1.4513
 7406SOL    HW233678   1.146   2.588   1.310  0.5359 -0.8047  0.1510
 7407SOL     OW33679   3.544   4.723   9.328 -0.7284  0.0150 -0.3636
 7407SOL    HW133680   3.626   0.012   9.280  0.0093  0.4135  1.0059
 7407SOL    HW233681   3.575   4.666   9.398  0.0197  0.3497 -0.4208
 7408SOL     OW33682   0.277   2.029   5.917  0.3124  0.0858  0.2456
 7408SOL    HW133683   0.267   1.986   5.832 -0.5846  3.0668 -1.1570
 7408SOL    HW233684   0.253   1.958   5.975  1.4850 -0.3045  0.2432
 7409SOL     OW33685   1.516   3.700   7.340  0.5202 -0.7246  0.0766
 7409SOL    HW133686   1.587   3.755   7.372 -0.2146  0.0063  0.4517
 7409SOL    HW233687   1.455   3.765   7.305  0.4957 -1.0790 -0.5439
 7410SOL     OW33688   1.806   4.107  15.738  0.2700  0.6845 -0.4724
 7410SOL    HW133689   1.827   4.145  15.653  0.9831  2.7716  0.6240
 7410SOL    HW233690   1.884   4.123  15.792  1.1852  1.2192 -1.9610
 7411SOL     OW33691   0.985   0.695   9.568 -0.2290 -0.7772 -0.2745
 7411SOL    HW133692   0.930   0.760   9.611  1.5902 -0.1489  1.1030
 7411SOL    HW233693   1.052   0.697   9.636  0.3943 -0.7030 -0.8934
 7412SOL     OW33694   4.159   1.322   4.379 -0.2095  0.4089  0.1168
 7412SOL    HW133695   4.162   1.405   4.332 -0.6503  1.8188  2.5518
 7412SOL    HW233696   4.116   1.351   4.460 -0.4958  1.1362 -0.2927
 7413SOL     OW33697   0.019   3.917   0.385 -0.4391  0.2619 -0.1923
 7413SOL    HW133698   0.011   4.009   0.408  0.1428  0.3355 -0.2821
 7413SOL    HW233699   0.040   3.878   0.470 -0.8278 -1.0472 -0.7012
 7414SOL     OW33700   2.818   4.032   5.917 -0.8335 -0.5370 -0.3186
 7414SOL    HW133701   2.743   3.976   5.899 -0.9337  0.1969 -2.2035
 7414SOL    HW233702   2.891   3.985   5.876  2.4616  3.7522  0.5765
 7415SOL     OW33703   3.996   1.699  17.379  0.1781 -0.1885  0.0142
 7415SOL    HW133704   4.008   1.620  17.432 -1.4166 -0.5054 -0.0885
 7415SOL    HW233705   4.059   1.684  17.309 -0.8727  1.1402 -1.2201
 7416SOL     OW33706   1.595   4.680  15.073 -0.1669 -0.0396  0.0675
 7416SOL    HW133707   1.547   4.604  15.107 -0.4865  1.3811  2.7403
 7416SOL    HW233708   1.618   0.001  15.154  0.0266 -1.9237  1.0575
 7417SOL     OW33709   3.006   4.056   3.927 -0.5206  0.0852 -0.8856
 7417SOL    HW133710   3.084   4.001   3.922  1.7241  3.0365  1.5444
 7417SOL    HW233711   3.026   4.117   3.998 -0.5289  1.4650 -2.0909
 7418SOL     OW33712   1.738   2.459   0.115  0.6020  0.2061  0.1818
 7418SOL    HW133713   1.824   2.464   0.158 -1.1072  0.2972  3.5876
 7418SOL    HW233714   1.682   2.435   0.189 -0.7338  0.4285 -0.7632
 7419SOL     OW33715   0.042   1.812  12.077 -0.2996 -0.2329  0.3902
 7419SOL    HW133716   0.020   1.735  12.026 -1.8339  1.2959 -1.2669
 7419SOL    HW233717   0.111   1.774  12.132  0.6251  1.0503  0.1217
 7420SOL     OW33718   4.129   4.473  11.109  0.2105 -0.2265 -0.0949
 7420SOL    HW133719   4.044   4.498  11.146  0.2637  0.0974 -0.1943
 7420SOL    HW233720   4.172   4.557  11.090  1.0990 -0.2806  1.6875
 7421SOL     OW33721   0.504   1.996   4.550 -0.2791 -0.0541  0.8096
 7421SOL    HW133722   0.549   1.972   4.469 -0.5821  1.9838  0.0342
 7421SOL    HW233723   0.489   1.912   4.593  0.3648 -1.2763 -1.3328
 7422SOL     OW33724   3.456   1.236   4.228  0.5104 -0.2081  0.4063
 7422SOL    HW133725   3.396   1.260   4.157 -0.3378 -1.8096  0.5851
 7422SOL    HW233726   3.479   1.318   4.270  0.2866  0.0228  0.0754
 7423SOL     OW33727   4.085   0.581   8.644 -0.3370  0.3938  0.1602
 7423SOL    HW133728   4.172   0.549   8.617  0.5499  2.7806  0.2277
 7423SOL    HW233729   4.111   0.620   8.727 -1.7177  1.0301  0.2946
 7424SOL     OW33730   2.115   2.612   1.348 -0.0169  0.4454 -1.1467
 7424SOL    HW133731   2.206   2.591   1.329  0.4777  1.1653  0.4456
 7424SOL    HW233732   2.099   2.571   1.433  1.8168 -1.2597 -1.6268
 7425SOL     OW33733   1.190   0.043   3.302  0.0207  0.1925  0.6422
 7425SOL    HW133734   1.208   0.100   3.228 -0.1926 -1.1280 -0.4327
 7425SOL    HW233735   1.210   0.097   3.379 -1.1308  0.1994  0.9392
 7426SOL     OW33736   2.937   2.202   7.906  0.1692 -0.5565  0.5647
 7426SOL    HW133737   2.984   2.217   7.824 -0.7086  2.4743  0.6401
 7426SOL    HW233738   2.989   2.259   7.963 -1.3527  0.8769  0.5081
 7427SOL     OW33739   0.463   0.708   0.704 -0.4665 -0.0585 -0.5919
 7427SOL    HW133740   0.495   0.767   0.773 -1.5366 -0.1910  0.0339
 7427SOL    HW233741   0.549   0.669   0.688  0.5592  1.8568  0.2407
 7428SOL     OW33742   1.785   0.005   2.031 -0.0459  0.3179 -0.2027
 7428SOL    HW133743   1.842   4.655   2.052 -1.2033 -0.5040  0.0535
 7428SOL    HW233744   1.816   0.065   2.098 -0.6840 -0.4110  0.7378
 7429SOL     OW33745   3.693   2.685  12.868 -0.0992 -0.0796  0.3434
 7429SOL    HW133746   3.718   2.755  12.928  1.4566 -1.8147  1.7229
 7429SOL    HW233747   3.619   2.716  12.816 -0.0470 -1.1153 -0.3518
 7430SOL     OW33748   1.708   3.848   6.608  0.5464  0.9134  0.1048
 7430SOL    HW133749   1.795   3.874   6.637 -0.2497  1.9224  1.5883
 7430SOL    HW233750   1.716   3.763   6.565  2.0271  2.2273 -2.2057
 7431SOL     OW33751   3.839   4.704   1.480 -0.3768 -0.1707 -0.5868
 7431SOL    HW133752   3.880   4.714   1.566 -1.3952 -0.3638 -0.0799
 7431SOL    HW233753   3.755   0.018   1.509 -0.0722 -0.8051  1.0702
 7432SOL     OW33754   4.435   4.545   8.948  0.5808  0.2477 -0.2707
 7432SOL    HW133755   4.395   4.631   8.931 -1.2455 -0.3820  0.8280
 7432SOL    HW233756   4.524   4.569   8.924  0.7668  1.3259  1.4634
 7433SOL     OW33757   0.980   0.092   4.671  0.1172 -0.1307 -0.1978
 7433SOL    HW133758   1.060   0.095   4.723  0.6012  0.8587 -1.0066
 7433SOL    HW233759   0.991   0.003   4.639 -0.8014 -0.8479  1.4586
 7434SOL     OW33760   2.373   2.143   1.493 -0.2382 -0.5347 -0.4988
 7434SOL    HW133761   2.277   2.148   1.489 -0.4233 -2.8611  0.6443
 7434SOL    HW233762   2.393   2.169   1.403 -0.2978 -0.6344 -0.5408
 7435SOL     OW33763   4.555   4.393   7.037  0.1913 -0.5581 -0.6135
 7435SOL    HW133764   4.537   4.325   6.972 -0.3466 -2.0541  1.1267
 7435SOL    HW233765   4.640   4.363   7.069  0.6887  2.9713  1.3527
 7436SOL     OW33766   3.004   1.592   4.240 -0.4503 -0.3029 -0.1563
 7436SOL    HW133767   2.923   1.569   4.286  2.2319 -1.7948  3.7512
 7436SOL    HW233768   2.965   1.598   4.152  2.2958 -0.9910 -1.4206
 7437SOL     OW33769   3.946   2.803   3.313  0.1862  0.2169 -0.1119
 7437SOL    HW133770   4.032   2.842   3.328  1.4647 -2.9983  0.9494
 7437SOL    HW233771   3.976   2.713   3.328  0.1390  0.2097 -0.0620
 7438SOL     OW33772   4.499   0.830   1.648  0.0798  0.3177 -0.0375
 7438SOL    HW133773   4.481   0.841   1.741  1.4880  0.2812  0.2399
 7438SOL    HW233774   4.586   0.788   1.649  0.3680  0.8580 -1.3516
 7439SOL     OW33775   3.501   2.225  15.993 -0.5002 -1.1115 -0.0148
 7439SOL    HW133776   3.451   2.165  16.048 -0.0248 -0.8893  0.6607
 7439SOL    HW233777   3.488   2.180  15.909  0.9781 -0.2922 -0.6971
 7440SOL     OW33778   2.814   1.617   3.987 -0.1090  0.0381 -0.0760
 7440SOL    HW133779   2.843   1.572   3.907 -0.9395  0.6052 -0.6976
 7440SOL    HW233780   2.729   1.577   4.001 -0.0070 -0.4857 -0.8985
 7441SOL     OW33781   1.863   0.452  15.630  0.3551 -0.3266 -0.2762
 7441SOL    HW133782   1.890   0.467  15.540  0.3426  1.9230  0.1061
 7441SOL    HW233783   1.777   0.494  15.625  1.0810  1.2485  0.4997
 7442SOL     OW33784   3.962   1.713  16.788  0.0133 -0.5235  0.6644
 7442SOL    HW133785   3.902   1.767  16.736 -0.6424 -1.9585 -0.0607
 7442SOL    HW233786   3.991   1.647  16.725  3.7037  1.7848 -0.0671
 7443SOL     OW33787   3.743   2.374  14.166 -0.1171  0.5898 -0.0366
 7443SOL    HW133788   3.796   2.416  14.234  0.6350 -0.5707  0.0974
 7443SOL    HW233789   3.652   2.400  14.183 -0.4374 -0.3475 -0.3270
 7444SOL     OW33790   1.073   2.549   9.135  0.6724  0.3621  0.4491
 7444SOL    HW133791   1.069   2.637   9.097  0.1996 -0.5251 -1.5000
 7444SOL    HW233792   1.021   2.567   9.214 -1.2378  0.0720 -0.7562
 7445SOL     OW33793   2.095   4.521   6.141  0.1140 -0.0650 -0.9784
 7445SOL    HW133794   2.014   4.491   6.182  1.3045 -0.8674  0.7831
 7445SOL    HW233795   2.147   4.540   6.219 -1.6465  0.1682  0.1257
 7446SOL     OW33796   2.314   1.097  12.559 -0.0394  0.0081 -0.0554
 7446SOL    HW133797   2.225   1.109  12.527  0.6024 -2.0038 -2.6129
 7446SOL    HW233798   2.332   1.009  12.527  1.9288  0.4785 -0.2931
 7447SOL     OW33799   0.971   1.817   4.929 -0.3381 -0.4187  0.2096
 7447SOL    HW133800   0.890   1.859   4.958  0.2185  1.7115 -1.2843
 7447SOL    HW233801   0.932   1.734   4.904  1.9780 -1.3660 -0.2835
 7448SOL     OW33802   3.742   3.193   4.071 -0.2702  0.2071 -0.0018
 7448SOL    HW133803   3.696   3.132   4.014 -1.6479  0.7938  0.4747
 7448SOL    HW233804   3.828   3.204   4.032 -0.3434  1.7608  0.2351
 7449SOL     OW33805   2.534   0.676   0.669  0.2722 -0.1003  0.2315
 7449SOL    HW133806   2.552   0.760   0.711 -0.6140 -0.0209  0.4559
 7449SOL    HW233807   2.457   0.643   0.716  0.7534 -2.4752 -0.6614
 7450SOL     OW33808   3.849   4.627  10.630 -0.2479 -0.1224  0.1966
 7450SOL    HW133809   3.792   4.583  10.694 -0.9421  0.5410  0.0371
 7450SOL    HW233810   3.850   4.562  10.560 -3.3990  0.4473 -0.4002
 7451SOL     OW33811   2.111   3.495   2.385  0.7287 -0.0875  0.8416
 7451SOL    HW133812   2.111   3.588   2.363 -0.7967  0.0773  1.5784
 7451SOL    HW233813   2.189   3.496   2.441  2.4192 -0.5043 -1.5022
 7452SOL     OW33814   1.659   1.878   8.600  0.0830  0.2468 -0.2392
 7452SOL    HW133815   1.606   1.816   8.649  0.3361  0.2765  0.0736
 7452SOL    HW233816   1.663   1.837   8.514  1.3098 -2.9925  1.3616
 7453SOL     OW33817   2.896   3.277   8.100 -0.1694 -0.4849 -0.8987
 7453SOL    HW133818   2.814   3.276   8.150  0.4161  2.1095  0.1351
 7453SOL    HW233819   2.858   3.254   8.015  0.8679 -2.0848 -0.9198
 7454SOL     OW33820   1.408   4.653   9.774 -0.2719 -0.4433 -0.3593
 7454SOL    HW133821   1.485   4.597   9.784 -0.2910 -0.3876  0.1098
 7454SOL    HW233822   1.342   4.607   9.826  0.0629 -0.8419 -0.2887
 7455SOL     OW33823   2.547   1.446  12.539  0.1375  0.2757  0.1665
 7455SOL    HW133824   2.519   1.395  12.615 -1.2391  0.0347 -0.5114
 7455SOL    HW233825   2.535   1.384  12.468 -0.8298 -0.4847  1.0082
 7456SOL     OW33826   3.956   2.975   4.251 -0.1714  0.5472  0.7147
 7456SOL    HW133827   3.988   2.886   4.236  2.8623  1.8203 -0.3692
 7456SOL    HW233828   4.017   3.032   4.204  0.2026 -0.8072 -0.4345
 7457SOL     OW33829   2.580   1.388   8.909 -0.0379  0.3626 -0.0349
 7457SOL    HW133830   2.659   1.437   8.931  1.1473 -1.3235 -0.5051
 7457SOL    HW233831   2.607   1.365   8.820  0.6395  1.1555 -0.0379
 7458SOL     OW33832   3.940   0.329   9.074 -0.2020 -0.5017  0.3301
 7458SOL    HW133833   4.032   0.358   9.074  0.1625 -1.6610  0.2002
 7458SOL    HW233834   3.896   0.377   9.144  1.8935  2.6841 -0.5275
 7459SOL     OW33835   0.175   4.522  15.995 -0.6573  0.4702  0.2569
 7459SOL    HW133836   0.116   4.476  15.936 -1.5886 -1.4705  2.6931
 7459SOL    HW233837   0.258   4.510  15.948 -0.9856  0.1117 -0.2287
 7460SOL     OW33838   2.810   4.589   4.751  0.0454  0.3420 -0.0125
 7460SOL    HW133839   2.852   4.506   4.730  1.2837  1.2943 -1.3196
 7460SOL    HW233840   2.781   4.574   4.841 -0.8529  1.1074 -0.1738
 7461SOL     OW33841   1.958   4.564  17.049  0.8673 -0.4097 -0.3033
 7461SOL    HW133842   1.973   4.651  17.084  1.3748 -0.5193 -0.2517
 7461SOL    HW233843   1.863   4.569  17.063  0.8317 -0.6995 -0.4297
 7462SOL     OW33844   1.861   2.078   1.288 -0.4543  0.7162 -0.2128
 7462SOL    HW133845   1.807   2.151   1.257 -1.1647 -0.1578 -1.0147
 7462SOL    HW233846   1.852   2.012   1.220  0.0174  1.8602 -1.3853
 7463SOL     OW33847   3.074   4.418   5.985 -0.4397 -0.0419 -0.0669
 7463SOL    HW133848   3.144   4.480   6.005 -1.7011  1.8560 -1.5690
 7463SOL    HW233849   3.040   4.446   5.900  4.6171  0.2661 -2.0109
 7464SOL     OW33850   0.256   1.613   8.768  0.2067 -0.0623  1.1515
 7464SOL    HW133851   0.204   1.694   8.763 -0.6751 -0.9475 -3.3342
 7464SOL    HW233852   0.293   1.614   8.856  0.4467  2.0098  1.0158
 7465SOL     OW33853   1.922   3.811  12.865  0.0116 -0.0678 -0.1517
 7465SOL    HW133854   1.984   3.738  12.869 -1.4590 -1.3388 -0.3544
 7465SOL    HW233855   1.922   3.823  12.770 -2.4803 -3.0755 -0.5414
 7466SOL     OW33856   0.027   4.660   2.871  0.4883  0.1047  0.3295
 7466SOL    HW133857   0.032   4.632   2.962  1.3774 -1.7110 -0.2830
 7466SOL    HW233858   0.098   4.602   2.843  0.1476 -0.3429  0.4052
 7467SOL     OW33859   4.086   0.344   3.793 -0.1610  0.4813 -0.6731
 7467SOL    HW133860   4.030   0.366   3.718  0.2451  1.0691 -0.7976
 7467SOL    HW233861   4.031   0.269   3.817 -0.6792  0.6353 -1.3731
 7468SOL     OW33862   1.218   3.178   6.553  0.0813  0.6311 -0.3558
 7468SOL    HW133863   1.182   3.106   6.605 -3.1102  0.9694 -2.0342
 7468SOL    HW233864   1.257   3.230   6.622  0.3667 -1.1624  0.8260
 7469SOL     OW33865   0.957   1.054   8.226  0.4722 -0.3474 -0.2025
 7469SOL    HW133866   0.909   1.049   8.143 -1.1100  0.0501  0.6877
 7469SOL    HW233867   1.045   1.018   8.212  0.6987 -1.3340  3.8491
 7470SOL     OW33868   2.188   1.975  10.550  0.1428 -0.1554 -0.8457
 7470SOL    HW133869   2.278   2.005  10.554 -0.4798  1.5821 -0.1001
 7470SOL    HW233870   2.140   2.032  10.609  2.2120  0.0323  0.6285
 7471SOL     OW33871   3.842   0.267  16.814 -0.3125 -0.4308  0.1606
 7471SOL    HW133872   3.749   0.254  16.833 -0.0154  0.5771  2.2141
 7471SOL    HW233873   3.846   0.357  16.845 -0.3024 -0.0974 -0.8028
 7472SOL     OW33874   0.417   1.616   1.809  0.3175 -0.8156  0.4152
 7472SOL    HW133875   0.439   1.692   1.755  0.8818 -1.8218 -0.7812
 7472SOL    HW233876   0.509   1.595   1.825  0.2406 -0.7940  0.8587
 7473SOL     OW33877   3.095   0.129   6.422 -0.1849  0.3779  0.1087
 7473SOL    HW133878   3.181   0.110   6.461  0.1781 -1.8266 -1.6769
 7473SOL    HW233879   3.036   0.072   6.471  1.2962 -1.8427 -0.6232
 7474SOL     OW33880   2.118   0.391  11.400  0.2471 -0.2217 -0.0563
 7474SOL    HW133881   2.213   0.406  11.399  0.1881  0.1511  0.0053
 7474SOL    HW233882   2.119   0.319  11.463 -1.2616  0.7077  1.0478
 7475SOL     OW33883   3.921   2.602  10.756  0.1674 -0.3280  0.1605
 7475SOL    HW133884   3.852   2.559  10.808 -0.3432 -2.9604 -2.7036
 7475SOL    HW233885   3.950   2.524  10.708 -0.1179 -0.6076  0.4350
 7476SOL     OW33886   4.256   0.818   4.448  0.0899 -0.1151 -0.2139
 7476SOL    HW133887   4.202   0.896   4.434  0.9376  0.2534 -1.4687
 7476SOL    HW233888   4.206   0.749   4.405  1.0268 -0.3478 -0.9382
 7477SOL     OW33889   3.393   0.403   6.310 -0.0084 -0.3892 -0.2423
 7477SOL    HW133890   3.345   0.321   6.307  0.4716 -0.7036  0.6722
 7477SOL    HW233891   3.322   0.461   6.283  0.0324  1.2576  3.1908
 7478SOL     OW33892   4.136   3.958   6.706  0.2461 -0.3022  0.6033
 7478SOL    HW133893   4.210   3.920   6.659  0.1539  0.3115 -0.0401
 7478SOL    HW233894   4.067   3.897   6.680 -1.1847  1.3571  0.4734
 7479SOL     OW33895   0.874   1.001   0.803 -0.2511  0.4015  0.4451
 7479SOL    HW133896   0.937   1.027   0.870  1.0511  1.6891 -1.2814
 7479SOL    HW233897   0.865   1.088   0.765  1.7235  0.1183 -0.6649
 7480SOL     OW33898   3.704   0.659   4.776 -0.5895  0.2565  0.3233
 7480SOL    HW133899   3.788   0.705   4.768 -0.1661 -0.7782 -1.2218
 7480SOL    HW233900   3.649   0.735   4.794  0.7186  0.9797  1.2594
 7481SOL     OW33901   1.014   4.026   4.653  0.3827  0.5277  0.2816
 7481SOL    HW133902   1.011   3.963   4.725 -1.2167  0.7714  0.4319
 7481SOL    HW233903   0.927   4.005   4.619  1.5396 -0.5123 -2.0575
 7482SOL     OW33904   2.890   1.005   6.371 -0.1464 -0.2158  0.4561
 7482SOL    HW133905   2.832   1.038   6.303  0.1841 -1.0700 -0.2467
 7482SOL    HW233906   2.836   1.026   6.447 -1.0258 -1.9258  0.2992
 7483SOL     OW33907   4.211   1.821   0.773 -0.0834  0.0908  0.2101
 7483SOL    HW133908   4.227   1.915   0.771  1.3641 -0.1622  0.3640
 7483SOL    HW233909   4.189   1.812   0.866 -3.3496  1.0199 -0.4743
 7484SOL     OW33910   3.834   0.436   4.678 -0.5740  0.3286 -0.1196
 7484SOL    HW133911   3.788   0.500   4.732 -1.5280  0.4821 -1.1124
 7484SOL    HW233912   3.900   0.391   4.731 -0.4842  0.6953  0.0752
 7485SOL     OW33913   2.026   4.619   1.620  0.4194  0.1160 -0.3926
 7485SOL    HW133914   2.082   4.679   1.570  1.7416  0.1196  1.0895
 7485SOL    HW233915   1.984   4.566   1.552  0.1914  1.5595 -1.3786
 7486SOL     OW33916   2.308   2.373   9.162 -0.9615 -0.5286  0.1449
 7486SOL    HW133917   2.233   2.395   9.107 -1.4650 -0.8525  0.6986
 7486SOL    HW233918   2.261   2.370   9.245  1.2414  1.3383  1.4536
 7487SOL     OW33919   2.859   2.146   2.371  0.1177 -0.3406 -0.1857
 7487SOL    HW133920   2.789   2.149   2.436 -0.3717  1.0511 -0.7777
 7487SOL    HW233921   2.942   2.137   2.419  0.9601 -1.2348 -1.7985
 7488SOL     OW33922   3.791   1.299   2.667  0.4233  0.2080 -0.1503
 7488SOL    HW133923   3.845   1.349   2.728  0.8344 -0.1359 -0.2351
 7488SOL    HW233924   3.862   1.238   2.646  0.5258 -0.0579  0.9576
 7489SOL     OW33925   0.840   3.502   0.762 -0.0891  0.1941  0.3449
 7489SOL    HW133926   0.847   3.577   0.702  0.0957 -1.7453 -2.0497
 7489SOL    HW233927   0.930   3.472   0.768  0.0335  0.3183 -0.8623
 7490SOL     OW33928   3.349   3.949  11.233  0.1832  0.0606  0.2765
 7490SOL    HW133929   3.428   3.904  11.202 -0.9435 -0.4663 -1.8157
 7490SOL    HW233930   3.371   3.981  11.321 -3.0216  1.2299  0.6378
 7491SOL     OW33931   1.552   3.352   0.169  0.5094  0.1253 -0.0217
 7491SOL    HW133932   1.579   3.429   0.218  0.1288  1.3379 -1.7074
 7491SOL    HW233933   1.602   3.360   0.088  1.8015 -3.7584  0.3940
 7492SOL     OW33934   2.973   2.970   7.956 -0.1864  0.5801  0.3462
 7492SOL    HW133935   3.059   2.938   7.981 -0.7080  0.7907  2.3841
 7492SOL    HW233936   3.004   3.041   7.899  1.3072  0.0857  0.5443
 7493SOL     OW33937   0.135   2.735   4.671 -1.0992 -0.6195  0.7293
 7493SOL    HW133938   0.126   2.789   4.593  3.0099  0.5245  0.9963
 7493SOL    HW233939   0.062   2.763   4.725 -1.1258 -0.7381  0.7545
 7494SOL     OW33940   1.442   3.484   4.661  0.2093  0.1819 -0.1208
 7494SOL    HW133941   1.352   3.508   4.681  0.4060  0.2498  0.6760
 7494SOL    HW233942   1.493   3.483   4.742 -1.2188  3.2170  0.8077
 7495SOL     OW33943   2.640   3.234  14.588  0.6438  0.5596 -0.3341
 7495SOL    HW133944   2.552   3.260  14.559  0.4751 -1.1650 -1.3535
 7495SOL    HW233945   2.686   3.209  14.508  0.5307  1.2253 -0.6029
 7496SOL     OW33946   3.444   2.445   2.563 -0.4021  0.2790  0.0719
 7496SOL    HW133947   3.415   2.392   2.488 -0.3444 -0.0443  0.2794
 7496SOL    HW233948   3.520   2.488   2.523  0.0764  0.4419  1.1643
 7497SOL     OW33949   3.170   1.211   8.964  0.4579  0.3305 -0.0254
 7497SOL    HW133950   3.165   1.294   8.916 -0.1511 -0.2957 -1.0408
 7497SOL    HW233951   3.089   1.217   9.014  0.7384 -2.4403  0.7361
 7498SOL     OW33952   0.837   2.451   6.229 -0.3378 -0.1158 -0.7011
 7498SOL    HW133953   0.764   2.446   6.167 -1.3140  0.6743  0.3860
 7498SOL    HW233954   0.822   2.380   6.292 -0.4296 -0.9324 -1.6326
 7499SOL     OW33955   2.784   2.033  12.659 -0.0667 -0.1809  0.1269
 7499SOL    HW133956   2.789   2.053  12.753 -2.9066  0.4180  0.1548
 7499SOL    HW233957   2.802   2.118  12.618  2.0726 -0.8330 -0.2952
 7500SOL     OW33958   2.861   1.872  12.203  0.9274  0.1121  0.0292
 7500SOL    HW133959   2.918   1.949  12.201  1.0937 -0.0224 -0.3490
 7500SOL    HW233960   2.845   1.861  12.109  1.1309  0.2700 -0.0236
 7501SOL     OW33961   2.250   2.676   9.290  0.5520  0.3827  0.3169
 7501SOL    HW133962   2.161   2.649   9.315  1.9687 -0.9977  3.8527
 7501SOL    HW233963   2.230   2.677   9.197 -1.7408 -2.5884  0.7642
 7502SOL     OW33964   4.026   4.127  13.516  0.1465  0.1764 -0.3297
 7502SOL    HW133965   4.076   4.070  13.458 -1.6992 -1.0939 -0.6753
 7502SOL    HW233966   4.003   4.199  13.457  2.9881  3.6745  2.8851
 7503SOL     OW33967   4.423   0.268   7.353 -0.2419 -0.1621  0.3896
 7503SOL    HW133968   4.513   0.298   7.342 -0.3964 -0.3899 -1.3582
 7503SOL    HW233969   4.393   0.320   7.428  0.4474 -1.7472  1.7763
 7504SOL     OW33970   1.862   4.010  10.804  0.1158 -0.0549 -0.1165
 7504SOL    HW133971   1.813   4.072  10.857  1.0095  1.7999 -1.4734
 7504SOL    HW233972   1.949   4.040  10.830 -0.0388 -0.2738  0.6322
 7505SOL     OW33973   3.724   3.701  10.018 -0.2823 -0.3939 -0.4115
 7505SOL    HW133974   3.806   3.661  10.046 -0.7948  0.5340  2.3475
 7505SOL    HW233975   3.729   3.679   9.925 -1.1482  0.5577 -0.6884
 7506SOL     OW33976   3.136   3.987   1.143  0.1400 -0.1089  0.3020
 7506SOL    HW133977   3.100   4.055   1.200 -1.6479 -0.4188 -0.4321
 7506SOL    HW233978   3.116   3.911   1.198 -3.0438  0.6947  0.2967
 7507SOL     OW33979   2.933   4.377   4.659  0.4122  0.2459  0.3734
 7507SOL    HW133980   3.010   4.344   4.613  0.3952  1.4327 -0.5214
 7507SOL    HW233981   2.962   4.359   4.748 -2.3037 -1.9148  0.7984
 7508SOL     OW33982   1.247   2.341   6.927  0.0057 -0.4592 -0.6808
 7508SOL    HW133983   1.193   2.415   6.956 -0.9814 -2.7592  3.2634
 7508SOL    HW233984   1.202   2.279   6.871  0.0410 -2.5460  1.6249
 7509SOL     OW33985   4.532   1.194   2.301  0.7451  0.0529  0.5924
 7509SOL    HW133986   4.466   1.260   2.321  0.2347 -0.4706  0.6276
 7509SOL    HW233987   4.598   1.247   2.257  0.7581 -1.7292 -1.5814
 7510SOL     OW33988   4.124   4.626   0.065 -0.6655  0.1290 -0.6150
 7510SOL    HW133989   4.082   4.669   0.139 -0.8907 -0.4209 -0.4209
 7510SOL    HW233990   4.146   4.704   0.014  1.5275 -0.1977 -0.1668
 7511SOL     OW33991   2.614   0.714  17.586 -0.0422 -0.2565 -0.1466
 7511SOL    HW133992   2.535   0.662  17.598 -1.5595  1.8074 -1.1968
 7511SOL    HW233993   2.609   0.782  17.654 -1.1263 -2.0424  1.5391
 7512SOL     OW33994   2.472   2.161  14.666 -0.2788  0.1889 -0.4728
 7512SOL    HW133995   2.412   2.148  14.592  1.7700 -1.5470 -1.8273
 7512SOL    HW233996   2.475   2.077  14.711  1.2579 -0.3283 -1.5422
 7513SOL     OW33997   2.002   2.538   6.833 -0.0920 -0.2845  0.8331
 7513SOL    HW133998   1.933   2.600   6.856 -1.0098 -0.9658 -0.0849
 7513SOL    HW233999   1.976   2.519   6.743  3.0796 -2.9257  0.4892
 7514SOL     OW34000   1.603   0.652   0.772  0.2474  0.1875  0.0904
 7514SOL    HW134001   1.669   0.618   0.710 -3.0797 -2.2893 -2.1546
 7514SOL    HW234002   1.605   0.597   0.850  0.3208 -2.4410 -1.7515
 7515SOL     OW34003   2.853   1.431   8.248  0.0392  0.5801  0.2576
 7515SOL    HW134004   2.853   1.457   8.340 -0.7272 -0.7216  0.6325
 7515SOL    HW234005   2.761   1.433   8.223 -0.0918 -2.2710  0.4627
 7516SOL     OW34006   3.399   0.440  17.676 -0.2351  0.0732 -0.5681
 7516SOL    HW134007   3.457   0.474   0.047 -0.5579  0.5566 -0.5388
 7516SOL    HW234008   3.358   0.518  17.639 -1.2615 -1.0568 -1.8499
 7517SOL     OW34009   0.548   1.427  15.326  0.3739 -0.0496 -0.1552
 7517SOL    HW134010   0.459   1.461  15.323  0.5666  0.3657 -1.3397
 7517SOL    HW234011   0.592   1.511  15.317  2.3977 -1.1333 -0.4263
 7518SOL     OW34012   0.572   3.452   9.091 -0.6852  0.2238 -0.2305
 7518SOL    HW134013   0.632   3.494   9.153 -1.2197  0.7081 -0.0423
 7518SOL    HW234014   0.598   3.487   9.006 -0.1080  1.8076  0.5902
 7519SOL     OW34015   2.108   2.257   8.138  0.7287 -0.3242 -0.7556
 7519SOL    HW134016   2.202   2.249   8.118  1.4796  0.6272  2.3535
 7519SOL    HW234017   2.109   2.266   8.233 -0.8224 -0.5376 -0.7238
 7520SOL     OW34018   1.590   3.405  13.995  0.2359  0.1564 -0.2126
 7520SOL    HW134019   1.623   3.320  13.968 -1.4364 -0.6453  0.3148
 7520SOL    HW234020   1.617   3.458  13.920 -1.1415 -0.2599 -0.9893
 7521SOL     OW34021   0.365   1.404   1.546 -0.0496  0.1909 -0.0317
 7521SOL    HW134022   0.334   1.441   1.629 -1.2535  0.0988 -0.4418
 7521SOL    HW234023   0.361   1.311   1.566 -2.0649  0.5409  1.2259
 7522SOL     OW34024   2.652   0.862  16.299 -0.1105  0.7258  0.4298
 7522SOL    HW134025   2.558   0.850  16.316  0.0015 -0.4176  0.2675
 7522SOL    HW234026   2.672   0.951  16.328 -1.6802  0.7192  1.5582
 7523SOL     OW34027   3.802   3.039   1.965 -0.7891  0.0994 -0.6420
 7523SOL    HW134028   3.813   2.973   1.896  1.2794  0.8300 -1.0320
 7523SOL    HW234029   3.829   2.983   2.037  0.6628 -0.0415 -1.2869
 7524SOL     OW34030   0.375   3.070   6.308  0.2281 -0.4228  0.2506
 7524SOL    HW134031   0.389   3.148   6.253 -0.9160  0.1212  0.7126
 7524SOL    HW234032   0.288   3.090   6.343  1.5528 -0.2945  3.4398
 7525SOL     OW34033   0.023   0.700   7.125 -0.0322  0.4664 -0.1104
 7525SOL    HW134034   0.090   0.750   7.172 -1.5776  1.8841  0.6034
 7525SOL    HW234035   4.697   0.671   7.201 -0.2337  1.7772  0.2603
 7526SOL     OW34036   1.183   3.112   0.481  0.0684  0.0680  0.6896
 7526SOL    HW134037   1.174   3.083   0.390  2.3983 -1.2359  0.8744
 7526SOL    HW234038   1.275   3.098   0.500 -0.0371  0.9181  1.7744
 7527SOL     OW34039   0.583   1.427  13.142  0.2750 -0.3267  0.5447
 7527SOL    HW134040   0.573   1.443  13.236 -0.1481 -0.6689  0.5548
 7527SOL    HW234041   0.506   1.374  13.121  0.7466  0.1576 -2.3840
 7528SOL     OW34042   2.509   2.029  12.600 -0.0284  0.6106 -0.4975
 7528SOL    HW134043   2.476   1.950  12.558 -0.0554 -1.6699  3.8591
 7528SOL    HW234044   2.603   2.015  12.615  0.1300  2.9010  0.7443
 7529SOL     OW34045   3.879   0.017  17.172 -0.5492 -0.2114 -0.2203
 7529SOL    HW134046   3.966   0.037  17.136 -0.1619  0.9232  1.3733
 7529SOL    HW234047   3.893   4.648  17.192 -0.6944  0.0409  1.0165
 7530SOL     OW34048   2.956   2.155   6.527  0.3014  0.0939  0.3014
 7530SOL    HW134049   2.984   2.093   6.459 -1.4687 -0.8838  0.4746
 7530SOL    HW234050   2.883   2.109   6.568  0.6939 -0.6707  0.1495
 7531SOL     OW34051   2.284   1.312   1.059  0.0804  0.6297  0.1863
 7531SOL    HW134052   2.294   1.298   0.964 -0.0654 -0.4623  0.3344
 7531SOL    HW234053   2.295   1.406   1.069 -1.8203  1.0628 -1.7654
 7532SOL     OW34054   4.611   1.163   8.767  0.5305  0.2897  0.2734
 7532SOL    HW134055   4.705   1.170   8.753 -0.0691  0.2748 -3.8740
 7532SOL    HW234056   4.585   1.246   8.727  2.7777  0.0804 -1.6229
 7533SOL     OW34057   3.000   1.371   3.213  0.0022 -0.0029  0.0122
 7533SOL    HW134058   3.000   1.277   3.232 -2.2167  0.1209  0.6158
 7533SOL    HW234059   3.009   1.398   3.304  1.5652  1.1467 -0.4763
 7534SOL     OW34060   3.657   0.613   2.519 -0.2925  0.0093 -0.0451
 7534SOL    HW134061   3.729   0.570   2.472  0.2378  2.9644 -1.9120
 7534SOL    HW234062   3.704   0.663   2.585  0.3930 -0.3999 -0.2238
 7535SOL     OW34063   2.882   0.012  15.329 -0.2899 -0.5162  0.0876
 7535SOL    HW134064   2.810   0.075  15.337  0.8776  1.0386 -1.6743
 7535SOL    HW234065   2.923   0.015  15.415 -1.2529 -1.0058  0.5650
 7536SOL     OW34066   3.128   2.530  11.927 -0.2927 -0.3393  0.1162
 7536SOL    HW134067   3.061   2.472  11.964  0.2337 -1.3909 -0.5653
 7536SOL    HW234068   3.198   2.488  11.977  0.4437 -0.6484 -1.1488
 7537SOL     OW34069   0.486   0.534  15.044  0.1091 -0.3822 -0.1144
 7537SOL    HW134070   0.414   0.580  15.086  1.6296  1.9120 -0.0737
 7537SOL    HW234071   0.548   0.604  15.026 -0.4093  0.1679  0.2343
 7538SOL     OW34072   0.573   2.431   6.939  0.7679 -0.4081 -0.0815
 7538SOL    HW134073   0.490   2.400   6.975  1.5879 -0.0704  2.1463
 7538SOL    HW234074   0.613   2.346   6.924  1.2740 -0.0009 -1.0743
 7539SOL     OW34075   2.264   4.427  14.916 -0.5401  0.3672  0.2983
 7539SOL    HW134076   2.336   4.441  14.854 -1.1959 -1.0639 -0.7927
 7539SOL    HW234077   2.209   4.502  14.896  2.2904  1.9305 -1.5715
 7540SOL     OW34078   3.415   2.737  10.981 -0.5334  0.5576  0.1092
 7540SOL    HW134079   3.495   2.761  10.935 -1.3039  3.2304  0.1620
 7540SOL    HW234080   3.431   2.770  11.069 -2.0218 -0.4412  0.7607
 7541SOL     OW34081   3.897   1.362   6.483  0.2845 -0.0726  0.7263
 7541SOL    HW134082   3.900   1.429   6.552 -0.8666  0.6925  0.0344
 7541SOL    HW234083   3.932   1.410   6.408  1.9212 -3.8707 -0.9205
 7542SOL     OW34084   3.407   0.388   2.208  0.1114  0.0079  0.2058
 7542SOL    HW134085   3.446   0.380   2.295 -1.1177 -0.4875  0.7226
 7542SOL    HW234086   3.436   0.475   2.180  0.2806  0.2094  1.0115
 7543SOL     OW34087   3.960   2.357   2.602  0.2167 -0.3813 -0.1328
 7543SOL    HW134088   3.949   2.263   2.587 -3.2884 -0.2150  1.2838
 7543SOL    HW234089   4.001   2.382   2.520  0.7680 -1.3335 -0.1509
 7544SOL     OW34090   3.615   4.465   6.724 -0.0612 -0.2119  0.0219
 7544SOL    HW134091   3.612   4.402   6.795  0.2913  0.9240  1.0426
 7544SOL    HW234092   3.695   4.510   6.752  0.4193 -1.2232  0.2602
 7545SOL     OW34093   1.313   4.614   6.879  0.0035 -0.2628  0.6137
 7545SOL    HW134094   1.365   4.568   6.944 -1.0792 -1.4861  0.6161
 7545SOL    HW234095   1.254   4.665   6.935  1.6086  1.6184  0.5751
 7546SOL     OW34096   4.666   1.110   8.064  0.0179  0.1845 -0.2819
 7546SOL    HW134097   0.024   1.146   8.098 -0.4063 -0.6661  1.5969
 7546SOL    HW234098   4.626   1.193   8.036  0.2882  0.5360  0.3687
 7547SOL     OW34099   1.513   0.087  12.231  0.9381  0.9040  0.6294
 7547SOL    HW134100   1.530   0.178  12.255 -1.7060  2.3191 -2.8781
 7547SOL    HW234101   1.455   0.072  12.305  3.0424 -3.1222  1.5242
 7548SOL     OW34102   3.656   3.782   4.161  0.5893 -0.0388  0.2359
 7548SOL    HW134103   3.620   3.810   4.076  0.6108 -2.4355 -0.5744
 7548SOL    HW234104   3.649   3.686   4.156 -1.2842  0.1282 -0.3268
 7549SOL     OW34105   4.565   0.521   2.617  0.1277  0.1667  0.0063
 7549SOL    HW134106   4.626   0.523   2.543  0.3238  0.7378  0.1791
 7549SOL    HW234107   4.505   0.451   2.592 -0.5401  1.4823 -2.0982
 7550SOL     OW34108   2.646   1.660  14.239  0.1123 -0.0697 -0.8254
 7550SOL    HW134109   2.636   1.669  14.144 -0.9235  0.8010 -0.6248
 7550SOL    HW234110   2.691   1.575  14.236  1.7427  0.8241 -1.5067
 7551SOL     OW34111   0.250   4.364   7.563 -0.1636 -0.4323 -0.6990
 7551SOL    HW134112   0.340   4.381   7.536  0.7835 -0.3254  2.5723
 7551SOL    HW234113   0.202   4.408   7.492 -1.3976  1.2828  1.2159
 7552SOL     OW34114   2.973   1.854   2.043 -0.2438  0.3468 -0.5221
 7552SOL    HW134115   2.978   1.947   2.062  0.5158  0.2034 -0.0182
 7552SOL    HW234116   2.881   1.834   2.060 -0.8826  2.8128 -1.1250
 7553SOL     OW34117   1.677   4.151   0.806 -0.0464  0.0815  0.5930
 7553SOL    HW134118   1.699   4.242   0.828  0.8618 -0.0707  0.2937
 7553SOL    HW234119   1.583   4.154   0.788 -0.2103 -1.5520  1.1903
 7554SOL     OW34120   1.034   3.425   1.682 -0.0297  0.2678 -0.1773
 7554SOL    HW134121   1.042   3.518   1.703 -0.2175  0.4837 -1.0779
 7554SOL    HW234122   0.986   3.424   1.599  0.8563  1.3497 -0.7013
 7555SOL     OW34123   3.913   0.249   6.225 -0.0170  0.2235 -0.0404
 7555SOL    HW134124   3.897   0.183   6.292 -1.3921  3.1364  2.4735
 7555SOL    HW234125   3.833   0.300   6.222 -2.0618 -2.9447  0.1809
 7556SOL     OW34126   3.265   3.183  14.984  0.1054 -0.0303  0.2851
 7556SOL    HW134127   3.283   3.224  14.900 -0.5777  0.7448  0.5150
 7556SOL    HW234128   3.197   3.120  14.960 -2.5200  2.6163  0.7665
 7557SOL     OW34129   1.875   1.701   8.374 -0.0653 -0.7149 -0.5769
 7557SOL    HW134130   1.959   1.724   8.415 -1.0936  2.1052 -0.0507
 7557SOL    HW234131   1.832   1.643   8.437  0.3277 -1.7832 -1.2880
 7558SOL     OW34132   3.649   0.692  16.139  0.6785  0.2013 -0.3497
 7558SOL    HW134133   3.685   0.711  16.053  0.5922  0.2742 -0.3697
 7558SOL    HW234134   3.721   0.708  16.199  1.1114 -1.0541 -0.5354
 7559SOL     OW34135   3.741   1.618   0.466 -0.3386  0.3272  0.6564
 7559SOL    HW134136   3.836   1.612   0.468 -0.3473  0.4650  1.4890
 7559SOL    HW234137   3.732   1.690   0.404  0.3367 -1.5865 -1.6722
 7560SOL     OW34138   2.163   0.666   1.964  0.0902  0.0447  0.0496
 7560SOL    HW134139   2.220   0.685   1.889  1.0725 -1.0628  0.5085
 7560SOL    HW234140   2.226   0.625   2.023 -0.0559  0.2583  0.3488
 7561SOL     OW34141   2.157   1.349  11.160 -0.4773  0.3387  0.2050
 7561SOL    HW134142   2.196   1.331  11.246 -0.7774  2.2758  0.7605
 7561SOL    HW234143   2.074   1.302  11.169  0.4089 -1.2097  0.2231
 7562SOL     OW34144   1.741   2.546   8.601  0.2803  0.0172 -0.8044
 7562SOL    HW134145   1.705   2.517   8.684  0.9786 -0.5991 -0.7097
 7562SOL    HW234146   1.676   2.516   8.538  0.4875 -1.4001 -0.3495
 7563SOL     OW34147   1.306   3.389   5.850 -0.1317 -0.1241  0.8399
 7563SOL    HW134148   1.274   3.302   5.827  1.5169 -1.0720  2.1651
 7563SOL    HW234149   1.372   3.407   5.783 -1.1779 -1.1184 -0.4634
 7564SOL     OW34150   4.162   1.813  13.956  0.3113  0.2494  0.1084
 7564SOL    HW134151   4.188   1.831  14.047 -0.3815  0.0406  0.3540
 7564SOL    HW234152   4.223   1.866  13.906 -1.5578  0.5435 -1.8457
 7565SOL     OW34153   1.873   4.609   3.427  0.4034  0.2207  0.6830
 7565SOL    HW134154   1.821   4.650   3.496 -1.7319  0.8586 -1.3311
 7565SOL    HW234155   1.961   4.598   3.464  1.0278  1.6185 -0.3730
 7566SOL     OW34156   3.393   0.168  11.440 -0.5005  0.4396  0.0740
 7566SOL    HW134157   3.385   0.261  11.462  1.6777  0.2870  1.5308
 7566SOL    HW234158   3.329   0.132  11.501 -0.6360  2.0330  0.8738
 7567SOL     OW34159   2.680   3.659   5.958  0.3315 -0.2122  0.5598
 7567SOL    HW134160   2.683   3.710   6.039  2.1273 -0.0838  0.4144
 7567SOL    HW234161   2.770   3.649   5.927 -0.8294 -0.1194 -2.8503
 7568SOL     OW34162   2.424   0.067   5.885  0.0989  0.1360 -0.1010
 7568SOL    HW134163   2.365   4.718   5.904  1.3822 -1.4239 -2.0371
 7568SOL    HW234164   2.512   0.030   5.895 -0.0447 -0.0468  0.4432
 7569SOL     OW34165   4.551   1.180   4.429  1.0414 -0.0743  0.0831
 7569SOL    HW134166   4.619   1.236   4.391  1.1735 -0.6683 -0.5795
 7569SOL    HW234167   4.583   1.178   4.519  3.7244 -1.3367 -0.8925
 7570SOL     OW34168   3.333   2.375   9.597 -0.4090 -0.4450  0.6315
 7570SOL    HW134169   3.376   2.417   9.522 -0.7557  0.2895  0.8528
 7570SOL    HW234170   3.239   2.394   9.593 -0.6249 -1.2505  1.9784
 7571SOL     OW34171   1.109   4.543   1.493 -0.0602  0.1452  0.2872
 7571SOL    HW134172   1.201   4.570   1.501 -0.2719  1.4105 -1.6628
 7571SOL    HW234173   1.073   4.571   1.578 -0.9870  2.2053 -0.7858
 7572SOL     OW34174   3.097   4.013  16.007  0.2178  0.2572  0.1754
 7572SOL    HW134175   3.097   4.011  15.911 -2.7131  0.6066  0.1595
 7572SOL    HW234176   3.186   4.046  16.018  0.2823  0.1238  0.0534
 7573SOL     OW34177   1.655   0.926   1.995 -0.0138 -0.6555  0.4762
 7573SOL    HW134178   1.714   0.851   1.995  0.3141 -0.4033  1.1819
 7573SOL    HW234179   1.685   0.968   2.076  2.4870 -0.7206 -0.4233
 7574SOL     OW34180   1.412   1.721   6.850 -0.1070  0.2794 -0.0894
 7574SOL    HW134181   1.402   1.729   6.945  0.1884  3.1660 -0.3155
 7574SOL    HW234182   1.481   1.654   6.853  0.1428  0.6213  2.4480
 7575SOL     OW34183   2.282   2.373   1.705 -0.3413 -0.2199 -0.2560
 7575SOL    HW134184   2.236   2.333   1.779 -0.8926 -1.2763 -1.1719
 7575SOL    HW234185   2.362   2.403   1.748  1.6619  0.9222 -4.7657
 7576SOL     OW34186   2.890   1.300   7.748  0.6785 -0.0955 -0.1461
 7576SOL    HW134187   2.916   1.241   7.676 -4.4936 -0.5802 -1.6127
 7576SOL    HW234188   2.844   1.359   7.689 -1.1512 -1.2211  0.1503
 7577SOL     OW34189   3.201   2.171  14.643  1.1484  0.0677  0.0586
 7577SOL    HW134190   3.199   2.244  14.705  2.5893 -1.4518  1.9413
 7577SOL    HW234191   3.196   2.213  14.558  0.3955 -2.0088 -0.9389
 7578SOL     OW34192   2.583   4.006  15.478 -0.1459  0.1675  0.0670
 7578SOL    HW134193   2.604   4.094  15.447 -1.9623 -0.0806 -1.8522
 7578SOL    HW234194   2.624   3.945  15.416  0.4649  1.0675 -0.4145
 7579SOL     OW34195   1.367   2.113   9.804 -0.1206  0.6558 -0.0894
 7579SOL    HW134196   1.414   2.183   9.849 -0.8296  0.9619  0.1795
 7579SOL    HW234197   1.435   2.054   9.771  0.7604  2.0977 -0.8267
 7580SOL     OW34198   3.548   3.551  16.680  0.3114  0.0658 -0.6233
 7580SOL    HW134199   3.598   3.569  16.760  1.7583 -1.7206 -1.1107
 7580SOL    HW234200   3.550   3.636  16.635 -0.1224  1.8806  2.7943
 7581SOL     OW34201   1.182   1.137   3.548 -0.3227  0.1571 -0.5107
 7581SOL    HW134202   1.252   1.194   3.517  0.1372 -0.6793 -1.0276
 7581SOL    HW234203   1.112   1.169   3.491 -1.3670  3.0561  2.4267
 7582SOL     OW34204   1.937   1.814  11.637 -0.5371  0.4486 -0.0944
 7582SOL    HW134205   1.880   1.749  11.678  1.1006 -1.0918 -0.2836
 7582SOL    HW234206   1.980   1.766  11.567 -0.8083  2.0661 -1.3687
 7583SOL     OW34207   1.134   4.255   4.535 -0.1124 -0.0602 -0.1115
 7583SOL    HW134208   1.112   4.166   4.563  2.4414 -0.2932  1.1559
 7583SOL    HW234209   1.056   4.282   4.488  0.7212  1.8045 -0.4040
 7584SOL     OW34210   2.708   0.765  14.029 -0.4205 -0.8419 -0.2336
 7584SOL    HW134211   2.700   0.813  13.947 -0.2121 -2.2426 -1.0672
 7584SOL    HW234212   2.760   0.689  14.001 -1.7672 -2.3165  1.2575
 7585SOL     OW34213   2.447   0.591   0.420 -0.2353  0.3031 -0.4386
 7585SOL    HW134214   2.480   0.624   0.504  2.0647  0.8204 -1.5243
 7585SOL    HW234215   2.430   0.681   0.391 -0.9961  0.3633  0.1963
 7586SOL     OW34216   0.860   2.272   3.433 -0.4979 -0.1586  0.0583
 7586SOL    HW134217   0.886   2.205   3.370  1.3181 -0.2465  0.8941
 7586SOL    HW234218   0.941   2.322   3.441 -0.4068 -0.3335  0.2390
 7587SOL     OW34219   0.320   1.047   8.235  0.2264  0.0941  0.5961
 7587SOL    HW134220   0.278   1.133   8.234  1.2940  0.6374  2.9828
 7587SOL    HW234221   0.413   1.065   8.239  0.1997  0.6162 -1.0701
 7588SOL     OW34222   0.734   1.642  12.967 -0.5446 -0.7376  0.1895
 7588SOL    HW134223   0.700   1.601  13.047 -0.4183  0.3319  0.7879
 7588SOL    HW234224   0.825   1.648  12.998 -0.9138 -0.8829  1.3004
 7589SOL     OW34225   2.147   3.034   1.690 -0.2744 -0.2821  0.3353
 7589SOL    HW134226   2.086   3.061   1.759  0.2426 -0.0742  0.7113
 7589SOL    HW234227   2.114   2.944   1.680  2.8049 -1.3478 -0.0211
 7590SOL     OW34228   2.054   3.157   8.382  0.2769 -0.4355 -0.2710
 7590SOL    HW134229   2.061   3.233   8.323 -0.9820 -0.1930 -0.0983
 7590SOL    HW234230   2.095   3.194   8.460  0.9901 -0.1129 -0.7846
 7591SOL     OW34231   2.626   3.687   1.566 -0.3057 -0.5606  0.1712
 7591SOL    HW134232   2.697   3.624   1.580 -0.8011 -0.7981  1.6316
 7591SOL    HW234233   2.649   3.766   1.615 -1.7500 -1.5916  2.5161
 7592SOL     OW34234   0.264   0.811   6.025  0.4918  0.1842 -0.8442
 7592SOL    HW134235   0.170   0.833   6.023  0.4806  0.2149  0.0573
 7592SOL    HW234236   0.256   0.723   6.062  2.7831 -0.0257 -0.8826
 7593SOL     OW34237   1.618   2.678   3.290  0.5803  0.2749  0.4843
 7593SOL    HW134238   1.580   2.613   3.349  0.0121  0.6351  0.5145
 7593SOL    HW234239   1.646   2.738   3.359  1.2009 -0.8780  1.2393
 7594SOL     OW34240   0.829   0.167  10.471 -0.7321  0.2636  0.0443
 7594SOL    HW134241   0.880   0.181  10.551 -0.3400 -0.2847 -0.1133
 7594SOL    HW234242   0.744   0.208  10.482  0.1798  1.7397  1.6841
 7595SOL     OW34243   0.968   0.383   6.533  0.5813 -0.0779  0.3901
 7595SOL    HW134244   1.008   0.311   6.484  0.7767  0.6315 -0.4965
 7595SOL    HW234245   0.881   0.382   6.493  1.3310 -0.3875 -1.2303
 7596SOL     OW34246   2.878   0.320   3.075  0.5097  0.9994 -0.4356
 7596SOL    HW134247   2.848   0.366   3.153  0.6315  0.5406 -0.1124
 7596SOL    HW234248   2.865   0.226   3.088 -0.8929  1.3921  0.9579
 7597SOL     OW34249   0.256   2.845   7.669  0.1142 -0.4401  0.0145
 7597SOL    HW134250   0.212   2.919   7.626 -0.1434 -0.5229  0.1326
 7597SOL    HW234251   0.290   2.894   7.743 -0.1145  0.0544 -0.2073
 7598SOL     OW34252   0.497   4.715  11.571  0.2996 -0.3360 -0.1309
 7598SOL    HW134253   0.497   4.645  11.636 -0.4274 -0.8840 -0.7163
 7598SOL    HW234254   0.541   4.659  11.506 -1.4834 -0.1640 -1.4700
 7599SOL     OW34255   4.682   3.248  15.409  0.2338 -0.2800  0.0887
 7599SOL    HW134256   4.682   3.196  15.328  0.3626 -0.0493 -0.0583
 7599SOL    HW234257   0.047   3.239  15.443  0.9896  3.1695 -1.0510
 7600SOL     OW34258   0.231   3.187  15.295 -0.6779  0.5186 -0.1743
 7600SOL    HW134259   0.293   3.197  15.224  1.0266 -1.1441  1.0919
 7600SOL    HW234260   0.150   3.170  15.247 -1.2621 -0.5569  1.1662
 7601SOL     OW34261   0.653   0.300  15.467  0.2506 -0.1450  0.1258
 7601SOL    HW134262   0.589   0.337  15.527 -0.7475 -1.1927 -0.2851
 7601SOL    HW234263   0.734   0.348  15.480  0.1182 -0.2172  1.2138
 7602SOL     OW34264   1.680   1.305   7.035  0.3205  0.0718 -0.1268
 7602SOL    HW134265   1.761   1.267   7.002  0.8086 -0.8038  2.1032
 7602SOL    HW234266   1.617   1.277   6.968  0.8664 -0.0544 -0.5835
 7603SOL     OW34267   4.268   3.907   3.354  0.4096  0.3774 -0.6771
 7603SOL    HW134268   4.249   3.884   3.263 -1.9017 -3.1091  0.7019
 7603SOL    HW234269   4.323   3.835   3.384  1.6890  1.0551 -1.3861
 7604SOL     OW34270   3.027   0.561  14.978 -0.3702 -0.0464  0.0227
 7604SOL    HW134271   3.047   0.650  14.947  0.6692 -0.5349 -0.7028
 7604SOL    HW234272   3.107   0.518  14.949 -0.8922  0.8441 -2.7885
 7605SOL     OW34273   2.973   2.243   6.113  0.1665 -0.2854  0.2463
 7605SOL    HW134274   2.901   2.207   6.165  0.8751 -1.8948  0.0975
 7605SOL    HW234275   3.035   2.262   6.183  1.4522 -0.7631 -0.7721
 7606SOL     OW34276   0.767   1.984   4.998 -0.0332 -0.4467  0.5699
 7606SOL    HW134277   0.821   2.057   4.968  0.5047 -0.7494  0.7996
 7606SOL    HW234278   0.699   1.997   4.931  0.1381 -2.0050  0.0931
 7607SOL     OW34279   1.260   1.736   3.344  0.1230 -0.3986 -0.0275
 7607SOL    HW134280   1.292   1.825   3.353  1.1543 -0.8416  0.7109
 7607SOL    HW234281   1.174   1.768   3.318  0.8059  2.2527  1.0080
 7608SOL     OW34282   2.201   1.728   4.688 -0.4617 -0.4121  0.2020
 7608SOL    HW134283   2.209   1.815   4.726 -0.9242  0.5034 -1.7698
 7608SOL    HW234284   2.245   1.750   4.606 -0.0513 -0.2471  0.4690
 7609SOL     OW34285   3.235   1.758   2.051  0.1825  0.5067  0.2379
 7609SOL    HW134286   3.245   1.781   2.143  1.0594  1.8892 -0.1931
 7609SOL    HW234287   3.150   1.795   2.027  0.7581  0.4508 -1.9031
 7610SOL     OW34288   3.657   1.723   5.749 -0.0350 -0.5072 -0.2001
 7610SOL    HW134289   3.659   1.629   5.767  1.3587 -0.3627  0.4161
 7610SOL    HW234290   3.748   1.748   5.733  0.4825 -0.2599  3.2028
 7611SOL     OW34291   0.085   4.591   7.145 -0.1923 -0.0242 -0.0547
 7611SOL    HW134292   0.143   4.627   7.212 -0.3611 -1.4101  0.8195
 7611SOL    HW234293   0.007   4.645   7.161  0.7504  0.8773  1.4876
 7612SOL     OW34294   3.834   3.374   5.941  0.0842  0.9115  0.1560
 7612SOL    HW134295   3.852   3.424   5.861 -0.5312  0.7184 -0.0994
 7612SOL    HW234296   3.838   3.289   5.898  0.2901  0.3474  1.2940
 7613SOL     OW34297   2.301   0.443   0.601 -0.8082  0.3775  0.1459
 7613SOL    HW134298   2.357   0.478   0.532  0.8026  2.7298  2.6190
 7613SOL    HW234299   2.330   0.352   0.597 -1.9988 -0.1164  2.4175
 7614SOL     OW34300   3.231   2.557   8.430  0.0782  0.4287  0.0069
 7614SOL    HW134301   3.306   2.583   8.377  1.1952 -2.1201  0.3377
 7614SOL    HW234302   3.223   2.639   8.479 -0.5756  1.1631 -1.3345
 7615SOL     OW34303   4.241   4.419   7.991 -0.0356 -0.1931  0.6992
 7615SOL    HW134304   4.290   4.339   7.971 -1.0547 -0.2993 -1.4061
 7615SOL    HW234305   4.155   4.378   8.003 -0.2067 -0.1875 -0.4490
 7616SOL     OW34306   3.763   1.522   9.722  0.2766  0.2503  0.1196
 7616SOL    HW134307   3.715   1.439   9.722  0.1652  0.3198 -2.7262
 7616SOL    HW234308   3.837   1.509   9.781  0.0499 -2.9972 -0.3072
 7617SOL     OW34309   0.940   1.118   1.686 -0.5570 -0.5409  0.2344
 7617SOL    HW134310   0.927   1.211   1.669 -1.2123 -0.5932  0.4659
 7617SOL    HW234311   1.035   1.110   1.672 -0.6306  1.6635 -1.6087
 7618SOL     OW34312   4.629   4.196   7.853  0.1998 -0.1447 -1.0825
 7618SOL    HW134313   4.536   4.173   7.857 -0.1582  2.0471  2.7585
 7618SOL    HW234314   4.654   4.132   7.787  0.1547 -1.7737  0.4980
 7619SOL     OW34315   3.831   4.695   5.734  0.3727 -0.0254  0.2727
 7619SOL    HW134316   3.751   4.645   5.717  0.9244 -0.5546 -0.8030
 7619SOL    HW234317   3.880   4.621   5.768  1.3274  0.7054  0.4982
 7620SOL     OW34318   1.043   2.649   3.186  0.5426  0.3092 -0.3611
 7620SOL    HW134319   0.965   2.616   3.230  1.2378 -0.6293  0.1814
 7620SOL    HW234320   1.116   2.606   3.231  0.4494  0.0053 -0.4991
 7621SOL     OW34321   0.289   3.139   7.345  0.1941  0.4708  0.2062
 7621SOL    HW134322   0.287   3.044   7.359  0.7021  0.3842 -0.3213
 7621SOL    HW234323   0.254   3.141   7.256  1.2360 -1.7627 -0.2516
 7622SOL     OW34324   2.175   2.605  15.666 -0.2112 -0.0106 -0.1124
 7622SOL    HW134325   2.080   2.608  15.671 -0.2352  2.7661 -2.6297
 7622SOL    HW234326   2.197   2.519  15.702 -0.9453  1.2443  3.3398
 7623SOL     OW34327   2.782   3.460   8.341  0.0737  0.0438  0.3352
 7623SOL    HW134328   2.840   3.416   8.404  1.6695  0.8115 -0.6277
 7623SOL    HW234329   2.839   3.534   8.322 -2.2294  1.5352 -0.7841
 7624SOL     OW34330   3.014   1.924   4.931  0.0121 -0.2858 -0.0821
 7624SOL    HW134331   2.990   1.835   4.906  1.9204 -0.8818  0.2553
 7624SOL    HW234332   3.104   1.939   4.902  0.5363  2.6291  3.0767
 7625SOL     OW34333   2.556   0.969   2.972  0.0534 -0.4061 -1.1228
 7625SOL    HW134334   2.618   0.954   2.900  2.3353 -1.1694  1.0134
 7625SOL    HW234335   2.593   0.924   3.048  1.5184 -1.0760 -2.2342
 7626SOL     OW34336   0.810   2.261   3.722  0.3382 -0.7007  0.1089
 7626SOL    HW134337   0.737   2.317   3.696 -1.3241 -2.9410 -0.0031
 7626SOL    HW234338   0.820   2.215   3.638  0.6809  0.2446 -0.3673
 7627SOL     OW34339   1.542   0.606   3.803 -0.0484  0.0331  0.1247
 7627SOL    HW134340   1.589   0.634   3.881 -0.2440  0.6265  0.0290
 7627SOL    HW234341   1.582   0.659   3.733 -1.8215 -1.2775 -1.8809
 7628SOL     OW34342   4.672   3.788  10.604  0.1261 -0.0275  0.1834
 7628SOL    HW134343   4.622   3.855  10.652  0.0659  0.8531 -1.0897
 7628SOL    HW234344   4.691   3.830  10.520 -2.8028 -0.7793 -0.8576
 7629SOL     OW34345   1.465   3.505  17.418 -0.2236  0.0436 -0.0566
 7629SOL    HW134346   1.497   3.453  17.343 -3.6899  0.5554 -1.8848
 7629SOL    HW234347   1.523   3.460  17.480 -1.3501 -1.1576  0.1112
 7630SOL     OW34348   3.227   2.120   4.498 -0.3847  0.3517  0.7683
 7630SOL    HW134349   3.207   2.146   4.408 -2.4701 -0.6752  0.9419
 7630SOL    HW234350   3.225   2.025   4.498 -1.1552  0.3589  2.4395
 7631SOL     OW34351   0.988   3.468  15.722 -0.1671  0.0882  0.2506
 7631SOL    HW134352   1.069   3.514  15.744  0.2379 -0.7963  0.6157
 7631SOL    HW234353   0.989   3.471  15.626 -1.6878  0.1569  0.2385
 7632SOL     OW34354   2.527   1.352   9.251 -0.0364 -0.3241 -0.1299
 7632SOL    HW134355   2.515   1.447   9.256  1.9381 -0.0215 -1.1290
 7632SOL    HW234356   2.437   1.320   9.257  0.2392 -0.7196  1.7819
 7633SOL     OW34357   1.778   2.331  10.048  0.2385  0.2172  0.6741
 7633SOL    HW134358   1.689   2.299  10.032 -0.3505  1.6963  0.9749
 7633SOL    HW234359   1.818   2.255  10.090  2.6176  2.2806  2.1442
 7634SOL     OW34360   2.555   0.552   6.028 -0.2503  0.6124 -0.1547
 7634SOL    HW134361   2.493   0.601   6.082  0.9450  0.1340  1.6697
 7634SOL    HW234362   2.506   0.472   6.011  2.5683 -1.2148  0.1805
 7635SOL     OW34363   4.089   2.821   8.757  0.6372 -0.0330 -0.2491
 7635SOL    HW134364   4.097   2.885   8.686  0.5109  1.2366  0.8674
 7635SOL    HW234365   3.997   2.831   8.782  0.7270  2.0485 -0.7612
 7636SOL     OW34366   1.615   1.913   6.729 -0.0685  0.0684  0.0437
 7636SOL    HW134367   1.556   1.851   6.773  0.2506  0.2029  0.6675
 7636SOL    HW234368   1.658   1.858   6.664 -1.1452 -0.2876 -0.3722
 7637SOL     OW34369   2.653   2.139   8.157  0.3131  0.3030  0.2590
 7637SOL    HW134370   2.697   2.074   8.102 -2.6786 -0.3695 -1.3821
 7637SOL    HW234371   2.722   2.201   8.177  0.4914  0.9131 -2.2322
 7638SOL     OW34372   1.041   4.420   1.211 -0.2967  0.1724  0.6332
 7638SOL    HW134373   1.037   4.445   1.303  2.0719  0.7917  0.5718
 7638SOL    HW234374   1.136   4.411   1.210 -0.6619 -3.6328  1.3749
 7639SOL     OW34375   2.589   0.445   1.410 -0.0063  0.0805  0.1627
 7639SOL    HW134376   2.495   0.435   1.426  0.0099 -0.1346  0.1209
 7639SOL    HW234377   2.593   0.541   1.409  1.4577  0.0190 -0.3222
 7640SOL     OW34378   2.440   1.949   8.264 -0.4225  0.2912  0.6388
 7640SOL    HW134379   2.454   2.014   8.195 -1.5154 -1.3110 -1.0889
 7640SOL    HW234380   2.345   1.934   8.271 -0.4019 -1.3078 -2.5399
 7641SOL     OW34381   0.849   1.379  13.179  0.3088 -0.1790  0.1310
 7641SOL    HW134382   0.765   1.386  13.133 -0.9301 -0.6521  2.3325
 7641SOL    HW234383   0.875   1.471  13.174  0.6457 -0.3670 -1.5076
 7642SOL     OW34384   0.949   3.849  13.295  0.2336  0.9605  0.3874
 7642SOL    HW134385   0.861   3.819  13.271  0.9882 -0.2074 -0.9204
 7642SOL    HW234386   0.916   3.914  13.357 -0.6452  1.6033 -0.7460
 7643SOL     OW34387   3.297   1.220   7.345 -0.4672 -0.0858 -0.2088
 7643SOL    HW134388   3.333   1.262   7.423  0.3428  0.4759 -0.8728
 7643SOL    HW234389   3.309   1.127   7.364 -0.2367  0.1991  1.0154
 7644SOL     OW34390   0.888   4.549   2.399 -0.2125 -0.4375  0.0543
 7644SOL    HW134391   0.934   4.579   2.477  0.2511 -0.6281 -0.1498
 7644SOL    HW234392   0.940   4.589   2.330  0.6398 -0.4743  0.6727
 7645SOL     OW34393   0.700   0.580   3.647 -0.8876 -0.1435  0.0791
 7645SOL    HW134394   0.665   0.641   3.582 -1.2475 -2.4328 -1.8863
 7645SOL    HW234395   0.652   0.618   3.721  1.9783  0.9340  1.3846
 7646SOL     OW34396   2.371   2.781   1.137 -0.6394  0.2486 -0.4273
 7646SOL    HW134397   2.423   2.728   1.077 -2.2196 -0.5301 -1.1039
 7646SOL    HW234398   2.426   2.778   1.216  0.3156 -0.3106 -1.1240
 7647SOL     OW34399   3.266   4.125   6.229  0.2510 -0.7132 -0.1944
 7647SOL    HW134400   3.333   4.061   6.253  0.5026 -0.4647 -0.2486
 7647SOL    HW234401   3.188   4.106   6.282  0.5345 -1.0283  0.1089
 7648SOL     OW34402   3.011   0.055  10.842  0.0221  0.1754  0.2695
 7648SOL    HW134403   3.062   0.110  10.782 -0.1110  0.3063  0.2760
 7648SOL    HW234404   2.932   0.108  10.850 -0.0589  0.0023  0.6381
 7649SOL     OW34405   1.071   0.234  12.273  0.1660  0.2968  0.0183
 7649SOL    HW134406   1.157   0.198  12.248 -0.8410 -0.2891 -2.6076
 7649SOL    HW234407   1.017   0.193  12.205 -0.0599 -1.1507  1.0693
 7650SOL     OW34408   2.133   1.591   4.052  0.3153  0.2954  0.3277
 7650SOL    HW134409   2.049   1.636   4.047  0.0430 -0.0870  1.4153
 7650SOL    HW234410   2.198   1.633   3.997 -0.8200 -1.8549 -2.6831
 7651SOL     OW34411   2.870   2.759   7.283 -0.4213 -0.6678 -0.1673
 7651SOL    HW134412   2.825   2.715   7.211 -2.2428  0.1842  0.4642
 7651SOL    HW234413   2.934   2.817   7.240 -0.2669 -0.9712 -0.3465
 7652SOL     OW34414   2.497   0.595   4.088 -0.1972 -0.0906 -0.0465
 7652SOL    HW134415   2.506   0.604   4.183 -0.4841  2.2484 -0.2491
 7652SOL    HW234416   2.567   0.656   4.063  0.0063  0.2975  1.4665
 7653SOL     OW34417   0.327   1.174  10.009 -0.3760 -0.1311 -0.2772
 7653SOL    HW134418   0.244   1.213   9.980 -1.1476 -0.5978  1.2644
 7653SOL    HW234419   0.295   1.095  10.053 -2.2049  0.7948  0.0543
 7654SOL     OW34420   0.000   2.302  14.803 -0.0495  0.2895  0.2646
 7654SOL    HW134421   4.632   2.304  14.831  0.1230  0.1883  0.8436
 7654SOL    HW234422   4.718   2.244  14.728 -1.6579 -0.0455  0.6599
 7655SOL     OW34423   2.360   1.651   5.769 -0.2233  0.4593 -0.3563
 7655SOL    HW134424   2.404   1.570   5.742  0.1183  0.2627  0.8168
 7655SOL    HW234425   2.287   1.612   5.816  0.6432  0.7785  1.2479
 7656SOL     OW34426   2.904   4.613   9.574  0.1672 -0.0421 -0.4196
 7656SOL    HW134427   2.872   4.554   9.642  1.4699  1.3348  1.3918
 7656SOL    HW234428   2.825   4.638   9.526  0.6674  2.0457 -0.1850
 7657SOL     OW34429   1.275   2.953   8.999  0.0663 -0.2608 -0.6730
 7657SOL    HW134430   1.303   3.041   8.977  0.4865 -0.0189  0.8614
 7657SOL    HW234431   1.357   2.908   9.018 -0.1131 -0.3689 -0.1527
 7658SOL     OW34432   4.536   2.552   6.553 -0.2138  0.0596  0.0288
 7658SOL    HW134433   4.469   2.499   6.509  2.2693 -1.7941 -1.5840
 7658SOL    HW234434   4.604   2.486   6.569  0.6992  1.0709  0.2939
 7659SOL     OW34435   2.357   1.967  11.605 -0.1931 -0.5487  0.3617
 7659SOL    HW134436   2.270   1.993  11.638  0.2775  2.2716 -0.6175
 7659SOL    HW234437   2.339   1.924  11.521 -0.1420 -2.0446  1.1154
 7660SOL     OW34438   1.293   0.341   9.545 -0.3334 -0.3862 -0.1186
 7660SOL    HW134439   1.371   0.350   9.599  0.0755  1.2016 -0.9843
 7660SOL    HW234440   1.258   0.255   9.567 -1.5913  0.6121  1.7901
 7661SOL     OW34441   1.167   1.362  12.380 -0.9175  0.0366  0.0031
 7661SOL    HW134442   1.156   1.276  12.418  1.3450 -0.3469 -0.2015
 7661SOL    HW234443   1.260   1.369  12.403 -1.2834 -0.2799  1.5690
 7662SOL     OW34444   0.979   0.481  17.195  0.1364 -0.6650 -0.6744
 7662SOL    HW134445   1.025   0.559  17.163  1.7956 -1.2537  0.3140
 7662SOL    HW234446   0.900   0.520  17.231 -0.3851 -2.1061 -0.2531
 7663SOL     OW34447   1.692   0.520   6.101  0.4838 -0.2810  0.4399
 7663SOL    HW134448   1.744   0.454   6.147  0.5680 -1.1339 -0.8926
 7663SOL    HW234449   1.747   0.542   6.025 -1.2005 -0.6487 -0.8762
 7664SOL     OW34450   1.208   0.342   4.288 -0.6170  0.4439 -0.4423
 7664SOL    HW134451   1.131   0.399   4.284 -1.3701 -0.5129  0.4633
 7664SOL    HW234452   1.242   0.369   4.373 -1.9596 -1.0129  0.5548
 7665SOL     OW34453   2.926   1.122   2.327  0.4657 -0.0493  0.2657
 7665SOL    HW134454   2.966   1.049   2.280  1.5633  0.1160  0.9450
 7665SOL    HW234455   2.869   1.136   2.251 -1.9084  1.1237  2.2688
 7666SOL     OW34456   4.311   1.854  15.801 -0.0354 -0.1802  0.5265
 7666SOL    HW134457   4.337   1.886  15.887  1.2889 -1.2398  0.5198
 7666SOL    HW234458   4.319   1.759  15.810 -2.1395 -0.4490 -0.4927
 7667SOL     OW34459   3.666   1.806   4.403  0.2565  0.3890  0.4365
 7667SOL    HW134460   3.723   1.733   4.382 -0.6507 -0.3216  0.4444
 7667SOL    HW234461   3.720   1.849   4.469  2.2264 -1.0306 -0.2532
 7668SOL     OW34462   2.116   1.890   5.934  0.1850  0.8653 -0.3285
 7668SOL    HW134463   2.086   1.978   5.957  0.2485  1.3283 -2.0416
 7668SOL    HW234464   2.197   1.916   5.889 -0.2244  0.8270 -1.0802
 7669SOL     OW34465   1.720   3.830   7.961  0.2113  0.1200 -0.2041
 7669SOL    HW134466   1.792   3.777   7.928  0.8559  2.3541 -2.3804
 7669SOL    HW234467   1.715   3.909   7.906  1.8121 -0.1668 -0.7664
 7670SOL     OW34468   3.702   1.608  15.190  0.3787  0.1384 -0.7646
 7670SOL    HW134469   3.731   1.693  15.157  0.0201 -0.8584 -3.6212
 7670SOL    HW234470   3.722   1.547  15.119  0.6876  0.5908 -1.0665
 7671SOL     OW34471   2.009   0.813   0.693  0.3429 -0.1915 -0.0561
 7671SOL    HW134472   1.939   0.814   0.759  2.0998 -2.4436  1.8602
 7671SOL    HW234473   2.010   0.725   0.656 -1.9770 -0.1450 -0.2211
 7672SOL     OW34474   3.591   3.566  11.293 -0.4221 -0.2722  0.2420
 7672SOL    HW134475   3.639   3.484  11.287 -0.2463 -0.0779 -0.9292
 7672SOL    HW234476   3.502   3.532  11.302 -0.4078 -0.3725 -0.0041
 7673SOL     OW34477   2.473   4.444   7.834  0.5470 -0.6311  0.6481
 7673SOL    HW134478   2.565   4.462   7.848  1.2034 -2.3984 -1.2568
 7673SOL    HW234479   2.469   4.441   7.738  1.4546 -1.5735  0.6415
 7674SOL     OW34480   0.048   3.242  17.345  0.2632  0.5399 -0.2389
 7674SOL    HW134481   0.116   3.188  17.387 -1.5316 -0.2059  1.7128
 7674SOL    HW234482   0.083   3.325  17.377  1.1806  0.1356 -0.1681
 7675SOL     OW34483   3.216   1.745  10.319  0.1711  0.2310  0.5936
 7675SOL    HW134484   3.275   1.751  10.394  0.3135 -1.1752  0.6007
 7675SOL    HW234485   3.132   1.769  10.358 -0.8026  1.3222 -2.1918
 7676SOL     OW34486   0.790   2.486   4.062  0.5489  0.2147 -0.4432
 7676SOL    HW134487   0.779   2.545   3.988  2.5104  3.1723  1.6160
 7676SOL    HW234488   0.756   2.537   4.135 -2.1124  0.0356 -1.5820
 7677SOL     OW34489   3.403   1.280   7.592  0.0030  0.5377 -0.0985
 7677SOL    HW134490   3.392   1.195   7.635  2.0928  0.4701  0.3155
 7677SOL    HW234491   3.374   1.336   7.664 -0.0258 -0.3983  0.6108
 7678SOL     OW34492   4.258   3.943  13.440 -0.5077 -0.6770 -0.4085
 7678SOL    HW134493   4.339   3.899  13.466  0.6016  0.7174 -1.5099
 7678SOL    HW234494   4.294   4.014  13.387 -1.3616  1.1111  1.4011
 7679SOL     OW34495   1.269   3.353  14.047 -0.7729  0.9707 -0.5405
 7679SOL    HW134496   1.359   3.341  14.079 -1.2800 -0.4148  0.3660
 7679SOL    HW234497   1.248   3.437  14.087 -2.0673  0.2396  0.3389
 7680SOL     OW34498   2.849   1.478   3.016 -0.2722  0.1109 -0.4159
 7680SOL    HW134499   2.864   1.451   2.926 -0.8335 -1.9768  0.1222
 7680SOL    HW234500   2.898   1.414   3.068 -0.4541  1.2167  1.1139
 7681SOL     OW34501   4.063   1.060   7.874 -0.2480  0.0997  0.1612
 7681SOL    HW134502   4.013   0.982   7.850 -1.4030  0.5790  1.0678
 7681SOL    HW234503   4.026   1.092   7.955 -3.4475 -1.6922 -0.6121
 7682SOL     OW34504   3.275   4.602   7.303 -0.3117 -0.2823 -0.2075
 7682SOL    HW134505   3.293   4.549   7.380  0.6956  0.2283 -0.0819
 7682SOL    HW234506   3.288   4.695   7.322  0.5534 -0.5834  0.7024
 7683SOL     OW34507   1.437   2.870   6.946  0.0860  0.4279 -0.1860
 7683SOL    HW134508   1.380   2.898   7.017 -1.5700 -3.3034 -0.0383
 7683SOL    HW234509   1.427   2.775   6.950  0.5683  0.2796 -2.2534
 7684SOL     OW34510   3.547   2.892   5.120  0.2862  0.7027  0.0967
 7684SOL    HW134511   3.473   2.890   5.181 -0.5185  1.6545 -0.8639
 7684SOL    HW234512   3.540   2.804   5.084 -4.0912  0.7919  0.6369
 7685SOL     OW34513   1.662   4.154   7.328  0.2795 -0.3906 -0.7482
 7685SOL    HW134514   1.575   4.164   7.367  0.5528  0.4835 -0.3771
 7685SOL    HW234515   1.712   4.212   7.384 -1.2236  0.2804 -0.1073
 7686SOL     OW34516   0.294   1.943  10.552  0.3922  0.0887 -0.4709
 7686SOL    HW134517   0.271   2.025  10.596 -0.7324 -0.6452  0.3146
 7686SOL    HW234518   0.340   1.896  10.621 -1.8052  0.5052  1.2950
 7687SOL     OW34519   4.572   2.786   8.509  0.2320 -0.0366 -0.1804
 7687SOL    HW134520   4.564   2.835   8.590 -1.5035  2.2851 -1.7519
 7687SOL    HW234521   4.479   2.762   8.503  0.2260  0.4940 -2.2566
 7688SOL     OW34522   1.168   4.246   7.600 -0.2198  0.9249 -0.2615
 7688SOL    HW134523   1.230   4.177   7.622  0.7902  1.6454 -0.8794
 7688SOL    HW234524   1.143   4.278   7.687 -1.8260  1.0793 -0.7763
 7689SOL     OW34525   4.227   4.289   3.658  0.4784 -0.4504  0.0709
 7689SOL    HW134526   4.233   4.202   3.619 -2.2399 -0.4920 -0.2293
 7689SOL    HW234527   4.201   4.274   3.749 -2.0654 -0.9907 -0.7439
 7690SOL     OW34528   4.304   0.414   0.925 -0.0108  0.2333 -0.4277
 7690SOL    HW134529   4.273   0.503   0.907 -0.6386  0.3472  1.1859
 7690SOL    HW234530   4.224   0.363   0.924 -0.5352  1.0423  0.5671
 7691SOL     OW34531   1.581   0.341   2.109  0.6606 -0.0778 -0.4354
 7691SOL    HW134532   1.652   0.333   2.046  1.5382  0.7104  0.4703
 7691SOL    HW234533   1.533   0.417   2.077  3.7732  1.9646 -0.2477
 7692SOL     OW34534   1.062   4.621  13.005  0.5462  0.2363  0.0980
 7692SOL    HW134535   1.149   4.659  12.990  0.6728  0.6968  2.0057
 7692SOL    HW234536   1.061   4.639  13.099  0.3030 -0.7027  0.2750
 7693SOL     OW34537   3.834   4.077   7.042 -0.1679  0.4290 -0.3583
 7693SOL    HW134538   3.833   4.160   7.090  2.6323 -0.1047  0.6437
 7693SOL    HW234539   3.915   4.088   6.993  0.5058  1.0398  0.8809
 7694SOL     OW34540   1.051   2.928  10.672  0.4118  0.7936  0.0023
 7694SOL    HW134541   1.057   2.835  10.695 -0.7264  0.5009 -0.9176
 7694SOL    HW234542   0.973   2.931  10.729  1.1948 -0.2742  1.1363
 7695SOL     OW34543   2.052   3.987   5.189  0.1090 -0.0532  0.1739
 7695SOL    HW134544   1.960   3.963   5.204 -0.5022  1.9077 -0.3143
 7695SOL    HW234545   2.051   4.001   5.094 -1.6407 -1.8149 -0.0650
 7696SOL     OW34546   1.551   0.162   5.603  0.1284 -0.2754 -0.2749
 7696SOL    HW134547   1.494   0.238   5.607  2.0346  1.0965  0.6311
 7696SOL    HW234548   1.505   0.102   5.662  0.1892  1.0106  1.0790
 7697SOL     OW34549   3.074   1.033   5.055  0.1187 -0.5177 -0.1750
 7697SOL    HW134550   3.052   0.970   4.986 -0.3429 -0.2224 -0.2986
 7697SOL    HW234551   2.986   1.041   5.092  0.5889  0.8128  0.6186
 7698SOL     OW34552   4.338   3.680  12.157 -0.2351 -0.4873  0.0287
 7698SOL    HW134553   4.312   3.771  12.138  2.4941  0.0340 -1.2123
 7698SOL    HW234554   4.376   3.689  12.244  0.1005  0.2927 -0.1939
 7699SOL     OW34555   1.687   0.300  13.509 -0.2474  0.3408 -0.0131
 7699SOL    HW134556   1.679   0.346  13.426  0.0207 -0.5622 -0.5360
 7699SOL    HW234557   1.774   0.259  13.503 -0.2051  0.1994  1.3570
 7700SOL     OW34558   0.851   3.484   7.955 -0.2256  0.4450 -0.1616
 7700SOL    HW134559   0.862   3.405   7.902  1.3639  1.4493 -1.3406
 7700SOL    HW234560   0.787   3.448   8.016 -1.2078  2.1799 -0.1887
 7701SOL     OW34561   3.713   0.025  16.414 -0.1992  0.2084 -0.0654
 7701SOL    HW134562   3.702   0.101  16.472  1.5675 -0.5971  1.3043
 7701SOL    HW234563   3.631   4.701  16.427  0.6155 -1.1750 -0.0247
 7702SOL     OW34564   1.148   4.615  11.860  0.2995  0.2996 -0.0321
 7702SOL    HW134565   1.227   4.616  11.806  1.6771 -1.2544  1.9364
 7702SOL    HW234566   1.088   4.603  11.787 -0.0924 -1.2292  0.5244
 7703SOL     OW34567   2.613   4.001   4.457 -0.1199 -0.0253  0.4445
 7703SOL    HW134568   2.680   4.069   4.459  0.3094 -0.4112 -0.7355
 7703SOL    HW234569   2.652   3.939   4.395 -1.6139  0.3964 -0.9295
 7704SOL     OW34570   2.385   2.687   4.583  0.4830  0.0029  0.0347
 7704SOL    HW134571   2.477   2.716   4.585  0.8307 -0.9287 -1.8215
 7704SOL    HW234572   2.359   2.748   4.652  0.5677 -0.7351  0.7183
 7705SOL     OW34573   2.931   2.097   2.870  0.2981 -0.4406 -0.0561
 7705SOL    HW134574   3.024   2.117   2.880  0.3033 -0.8945  0.7819
 7705SOL    HW234575   2.890   2.179   2.841 -1.9810 -1.6169 -0.1962
 7706SOL     OW34576   2.637   4.474  17.527 -0.2688  0.2494  0.0525
 7706SOL    HW134577   2.565   4.475  17.589  0.8880 -0.6922  1.4234
 7706SOL    HW234578   2.683   4.557  17.536 -1.4234  0.8079  0.7704
 7707SOL     OW34579   2.279   0.323   8.599 -0.3312 -0.0838 -0.0191
 7707SOL    HW134580   2.216   0.264   8.559  0.1903 -0.0965 -0.8100
 7707SOL    HW234581   2.319   0.247   8.641  1.2262  1.2856  0.9859
 7708SOL     OW34582   0.651   0.836   8.484 -0.4363  0.0292  0.5767
 7708SOL    HW134583   0.568   0.847   8.531 -1.7919  0.1662 -1.8688
 7708SOL    HW234584   0.709   0.835   8.561 -1.6928  0.6420  1.5194
 7709SOL     OW34585   4.031   2.910   4.499  0.3257  0.0383 -0.0968
 7709SOL    HW134586   3.954   2.909   4.555 -0.5600 -1.0365 -1.3128
 7709SOL    HW234587   3.992   2.927   4.413  1.3302 -0.0900 -0.5814
 7710SOL     OW34588   2.431   0.803   7.992  0.4770  0.7113  0.1200
 7710SOL    HW134589   2.416   0.857   8.069  0.1628  1.7534 -0.6720
 7710SOL    HW234590   2.428   0.879   7.934  1.6409  1.3674  0.9242
 7711SOL     OW34591   1.700   3.358   0.884 -0.6326  0.1613  0.3008
 7711SOL    HW134592   1.664   3.274   0.858  0.8784 -0.4020 -0.0196
 7711SOL    HW234593   1.626   3.408   0.918 -0.4140  1.1767 -0.7036
 7712SOL     OW34594   4.546   1.723   3.501  0.0487  0.4297 -0.0412
 7712SOL    HW134595   4.554   1.671   3.581  1.3591  0.2132 -0.3191
 7712SOL    HW234596   4.452   1.721   3.482  0.2405 -0.0604 -0.9292
 7713SOL     OW34597   3.353   1.403   4.052  0.2024  0.0337 -0.2167
 7713SOL    HW134598   3.323   1.470   4.114 -3.9855 -0.8556 -1.2428
 7713SOL    HW234599   3.382   1.460   3.981  1.0128  0.4847  0.4806
 7714SOL     OW34600   1.866   3.489   5.809  0.3220 -0.4303  0.1650
 7714SOL    HW134601   1.792   3.472   5.867  0.8500  0.6819  1.1602
 7714SOL    HW234602   1.863   3.585   5.810 -1.5200 -0.4949  0.1477
 7715SOL     OW34603   1.732   1.423   8.968 -0.2491  0.2056 -0.7091
 7715SOL    HW134604   1.793   1.400   8.899 -0.6491  3.1835 -2.0186
 7715SOL    HW234605   1.772   1.498   9.012 -2.1220 -0.5464  2.3408
 7716SOL     OW34606   4.206   4.697   5.467  0.1550  0.1101 -0.4596
 7716SOL    HW134607   4.247   4.704   5.554  0.2624  0.4433 -0.5356
 7716SOL    HW234608   4.139   0.040   5.485 -0.1142 -0.2643 -0.0821
 7717SOL     OW34609   4.485   0.425   8.293 -0.4328 -0.0771 -0.4847
 7717SOL    HW134610   4.504   0.500   8.238  0.9369 -0.7752 -0.9649
 7717SOL    HW234611   4.424   0.465   8.355 -0.9322 -0.9629 -0.3967
 7718SOL     OW34612   2.246   2.450   3.685  0.7466 -0.2780  0.2249
 7718SOL    HW134613   2.229   2.537   3.648  1.0506 -1.1676 -1.9975
 7718SOL    HW234614   2.301   2.414   3.614  0.2070  0.6713 -0.6780
 7719SOL     OW34615   2.838   1.098   5.178  0.5636 -0.0791  0.6143
 7719SOL    HW134616   2.793   1.147   5.246 -0.9162 -1.7899  0.8558
 7719SOL    HW234617   2.798   1.014   5.199  0.3673 -0.3231 -0.7299
 7720SOL     OW34618   0.747   0.910  14.460 -0.5956  0.1431 -0.3140
 7720SOL    HW134619   0.783   0.961  14.388 -0.9008 -0.2407 -0.7403
 7720SOL    HW234620   0.732   0.973  14.531  1.3972 -0.9439  1.0733
 7721SOL     OW34621   1.311   3.753   4.539  0.5028 -0.5102  0.3498
 7721SOL    HW134622   1.347   3.713   4.460 -0.0883 -1.2636  0.4640
 7721SOL    HW234623   1.334   3.846   4.536  0.0289 -0.4613 -1.7786
 7722SOL     OW34624   3.870   3.061   5.684  0.0363  0.5697 -0.1075
 7722SOL    HW134625   3.934   3.125   5.654  1.1458 -0.4904  0.0018
 7722SOL    HW234626   3.895   2.982   5.636 -2.0584  0.3065 -0.7623
 7723SOL     OW34627   1.816   1.363   3.654  0.6501 -0.0842 -0.2981
 7723SOL    HW134628   1.834   1.382   3.562  1.0122  0.1093 -0.1880
 7723SOL    HW234629   1.816   1.448   3.698 -1.5632 -0.7444  0.9410
 7724SOL     OW34630   0.589   2.665   5.593 -0.6843  0.1797  0.2549
 7724SOL    HW134631   0.526   2.655   5.664  0.3104  3.6504  1.6523
 7724SOL    HW234632   0.557   2.746   5.552 -0.2688  1.0341  1.6144
 7725SOL     OW34633   0.062   1.762   2.868 -0.4596  0.0423  0.6837
 7725SOL    HW134634   0.116   1.795   2.940 -0.3638 -1.3888  1.2615
 7725SOL    HW234635   0.132   1.722   2.817  0.4444  1.6580  0.6432
 7726SOL     OW34636   0.488   1.510   6.715 -0.0006  0.2473 -0.7762
 7726SOL    HW134637   0.533   1.428   6.699 -0.4492 -0.5354  1.9666
 7726SOL    HW234638   0.408   1.481   6.671  0.0161  1.1176 -1.3855
 7727SOL     OW34639   0.758   0.455  13.064 -0.0658  0.2973  0.1052
 7727SOL    HW134640   0.696   0.421  12.999  0.4077  2.2847 -1.3812
 7727SOL    HW234641   0.753   0.376  13.119 -3.6517 -0.3903 -1.1548
 7728SOL     OW34642   3.841   1.815   8.348 -0.6640  0.8568 -0.3218
 7728SOL    HW134643   3.897   1.782   8.418  1.5537  2.3038 -1.3910
 7728SOL    HW234644   3.898   1.800   8.272 -2.8876 -0.4003 -1.7627
 7729SOL     OW34645   1.046   0.206  12.551 -0.2411 -0.9950 -0.3416
 7729SOL    HW134646   1.048   0.221  12.457  0.0483 -0.1895 -0.2092
 7729SOL    HW234647   1.121   0.254  12.586  0.3832 -1.1875 -1.4202
 7730SOL     OW34648   4.156   3.791  11.565  0.1229 -0.0706 -0.0770
 7730SOL    HW134649   4.089   3.726  11.587 -1.4002  1.4141 -0.2888
 7730SOL    HW234650   4.175   3.767  11.474 -0.7748  0.0205 -0.2924
 7731SOL     OW34651   1.444   1.330  16.157 -0.0423  0.4316 -0.2996
 7731SOL    HW134652   1.384   1.369  16.221  1.6449 -0.8144  2.0575
 7731SOL    HW234653   1.446   1.405  16.097  0.5536 -0.2328 -1.0967
 7732SOL     OW34654   1.704   3.181   1.597  0.1531  0.0146  0.3124
 7732SOL    HW134655   1.675   3.104   1.549 -2.2607  1.6333 -0.8114
 7732SOL    HW234656   1.684   3.250   1.534 -0.4057 -0.8827 -0.4779
 7733SOL     OW34657   3.653   0.821   1.571  0.3249 -0.3596  0.6885
 7733SOL    HW134658   3.644   0.744   1.628  0.5100  0.4304  1.7995
 7733SOL    HW234659   3.680   0.885   1.638  1.0457 -0.3311  0.3661
 7734SOL     OW34660   1.310   0.046   8.696 -0.1243  0.0649  0.0501
 7734SOL    HW134661   1.362   4.689   8.703  1.1097  0.7259 -1.6431
 7734SOL    HW234662   1.385   0.104   8.683 -0.9608  1.5401  1.8631
 7735SOL     OW34663   1.052   2.844   7.405 -0.1513  0.3298  0.5001
 7735SOL    HW134664   1.142   2.844   7.440 -0.9608 -0.7386  2.5810
 7735SOL    HW234665   1.035   2.753   7.379 -0.4591  1.0988 -1.9791
 7736SOL     OW34666   0.659   1.557   3.112 -0.3704  0.0103  0.0231
 7736SOL    HW134667   0.595   1.629   3.115 -0.5960 -0.1507 -1.0634
 7736SOL    HW234668   0.652   1.535   3.019  3.1258  2.2539 -0.7890
 7737SOL     OW34669   2.057   3.136   4.757  0.4105  0.6656 -0.0730
 7737SOL    HW134670   2.126   3.166   4.816 -0.8551  1.1903  1.1327
 7737SOL    HW234671   2.109   3.124   4.677  2.7902 -0.1822  1.5883
 7738SOL     OW34672   2.943   1.182   0.400  0.0357 -0.0219 -0.1109
 7738SOL    HW134673   2.992   1.162   0.480 -0.8319 -1.9403 -0.0627
 7738SOL    HW234674   3.003   1.246   0.363  1.2269 -2.1457 -1.8499
 7739SOL     OW34675   0.181   3.103   6.694  0.2474  0.0447  0.3467
 7739SOL    HW134676   0.271   3.073   6.681  0.4076  1.5006 -1.8989
 7739SOL    HW234677   0.175   3.112   6.789  1.6377  0.2778  0.4114
 7740SOL     OW34678   2.638   2.699   9.215 -0.4087  0.1709 -0.1754
 7740SOL    HW134679   2.566   2.684   9.153 -0.3813  0.6383 -0.3165
 7740SOL    HW234680   2.705   2.680   9.149  1.5411 -1.1455  2.1730
 7741SOL     OW34681   2.277   2.837  10.391  0.3753  0.1898 -0.4093
 7741SOL    HW134682   2.219   2.891  10.337 -2.8546 -1.1504  1.7118
 7741SOL    HW234683   2.342   2.815  10.324 -1.2897  0.8458 -2.2259
 7742SOL     OW34684   2.262   3.974   7.664 -0.5207  0.2825  0.3542
 7742SOL    HW134685   2.322   3.986   7.591  0.4303  1.6872  1.3667
 7742SOL    HW234686   2.325   3.967   7.736 -0.0400  1.3217  0.0403
 7743SOL     OW34687   0.164   3.593   9.786 -0.4407  0.1953 -0.3614
 7743SOL    HW134688   0.212   3.535   9.726  0.9030  1.5673 -0.5998
 7743SOL    HW234689   0.215   3.674   9.779 -0.0227 -0.0182  0.3070
 7744SOL     OW34690   3.148   3.517   3.279 -0.1956  0.0736 -0.5516
 7744SOL    HW134691   3.226   3.467   3.257 -0.1942 -0.1550 -0.0179
 7744SOL    HW234692   3.102   3.457   3.338  1.2338 -0.3142  0.1543
 7745SOL     OW34693   2.055   1.236   7.778  0.0578 -0.6808 -0.6392
 7745SOL    HW134694   1.979   1.231   7.720  0.2833  0.5499 -1.0562
 7745SOL    HW234695   2.071   1.329   7.796 -0.9940 -0.5684 -0.2607
 7746SOL     OW34696   0.205   3.990   7.908 -0.5042  0.3892 -0.9334
 7746SOL    HW134697   0.214   4.081   7.935  0.9346 -0.2564  0.7805
 7746SOL    HW234698   0.181   3.954   7.993  1.5160  0.5416 -0.3069
 7747SOL     OW34699   2.963   1.088   4.259  0.4084  0.0398  0.1854
 7747SOL    HW134700   2.995   1.135   4.336  1.3958 -0.9587  0.3804
 7747SOL    HW234701   3.036   1.026   4.256  0.4424  0.0901 -0.0856
 7748SOL     OW34702   3.168   4.601  12.182 -0.7113  0.4432  0.2728
 7748SOL    HW134703   3.172   4.635  12.092 -1.2738  0.6016  0.3075
 7748SOL    HW234704   3.149   4.508  12.169 -0.7398  0.5500 -0.4860
 7749SOL     OW34705   0.922   0.256  16.814 -0.1638 -0.3368  0.5273
 7749SOL    HW134706   0.997   0.277  16.870 -1.3438 -1.7657  2.6065
 7749SOL    HW234707   0.883   0.341  16.793 -0.7146 -0.8218 -0.4072
 7750SOL     OW34708   1.962   1.692   2.887  0.4221 -0.2712  0.1386
 7750SOL    HW134709   1.888   1.750   2.871 -0.4218 -0.7627  2.1398
 7750SOL    HW234710   1.975   1.654   2.801  0.2577  1.3780 -0.6041
 7751SOL     OW34711   0.045   4.184   9.524 -0.2211  0.2747 -0.0172
 7751SOL    HW134712   0.077   4.273   9.509  0.6340 -0.2637 -1.3435
 7751SOL    HW234713   4.688   4.199   9.573 -0.5325 -0.2686 -0.3641
 7752SOL     OW34714   2.265   1.086   9.370  0.2777 -0.2389 -0.4682
 7752SOL    HW134715   2.303   1.119   9.451  1.0728  0.7653 -1.2607
 7752SOL    HW234716   2.175   1.120   9.374  0.8708  1.2220  0.3744
 7753SOL     OW34717   2.183   4.053  12.037 -0.0534  0.0137  0.2038
 7753SOL    HW134718   2.096   4.084  12.064  0.3749 -0.2621  1.8826
 7753SOL    HW234719   2.165   3.959  12.048  1.4606 -0.0940  1.7295
 7754SOL     OW34720   0.507   2.429   3.437 -0.1622  0.8070  0.1914
 7754SOL    HW134721   0.454   2.350   3.450  1.4580 -0.1985  0.7138
 7754SOL    HW234722   0.533   2.451   3.526  2.6750  1.6906 -0.8514
 7755SOL     OW34723   2.848   0.543  17.547 -0.1735 -0.4290 -0.5472
 7755SOL    HW134724   2.759   0.575  17.541 -0.1054  0.6625  4.0297
 7755SOL    HW234725   2.867   0.582  17.633  0.8572 -0.2648 -0.8476
 7756SOL     OW34726   0.366   0.232  11.576 -0.0992 -0.4664  0.0391
 7756SOL    HW134727   0.381   0.266  11.488  0.1335 -1.3026 -0.2434
 7756SOL    HW234728   0.401   0.143  11.570  0.8537  0.0261 -1.8894
 7757SOL     OW34729   2.818   3.123   4.301 -0.5580 -0.1370 -0.4714
 7757SOL    HW134730   2.804   3.199   4.358 -0.9121 -1.5272  1.3200
 7757SOL    HW234731   2.903   3.138   4.258 -0.5243 -0.0245 -0.3674
 7758SOL     OW34732   0.320   3.414   3.179  0.1302  0.0382  0.9770
 7758SOL    HW134733   0.351   3.329   3.147  0.4713  0.4120  0.3283
 7758SOL    HW234734   0.302   3.394   3.271  2.4722 -1.4020  1.1120
 7759SOL     OW34735   1.439   1.598   7.794 -0.0710 -0.0154  0.5833
 7759SOL    HW134736   1.418   1.595   7.887 -0.5954  1.2133  0.4993
 7759SOL    HW234737   1.362   1.646   7.764 -0.1998 -0.6741 -0.1618
 7760SOL     OW34738   2.476   4.616   8.230 -0.9065  0.0316 -0.5576
 7760SOL    HW134739   2.406   4.572   8.181  0.5913  0.0849 -2.7446
 7760SOL    HW234740   2.558   4.576   8.199  0.2140  1.4446  0.6153
 7761SOL     OW34741   3.877   3.438   7.175 -0.4425  0.2715  0.2194
 7761SOL    HW134742   3.902   3.502   7.108  1.3975 -1.4813 -0.7664
 7761SOL    HW234743   3.785   3.461   7.186 -0.9107  0.2571 -3.3922
 7762SOL     OW34744   0.495   1.287   1.960 -0.0690  0.5081  0.4463
 7762SOL    HW134745   0.543   1.336   1.893 -0.1985  0.7208  0.5097
 7762SOL    HW234746   0.568   1.251   2.010  0.7836  1.8205  0.1492
 7763SOL     OW34747   3.724   0.803   6.955 -0.0224  1.1872  0.3053
 7763SOL    HW134748   3.703   0.772   6.867  1.2239 -1.8767  1.0822
 7763SOL    HW234749   3.817   0.780   6.957 -0.1370  0.6433 -0.5229
 7764SOL     OW34750   3.221   3.844   5.268  0.0878 -0.0582 -0.4734
 7764SOL    HW134751   3.311   3.858   5.240  0.1666  1.8111  0.7238
 7764SOL    HW234752   3.171   3.906   5.216  0.1668 -0.5242 -1.1091
 7765SOL     OW34753   0.719   3.719   9.540 -0.1810  0.1184 -0.1378
 7765SOL    HW134754   0.789   3.780   9.519  0.0390  0.6680  2.1193
 7765SOL    HW234755   0.764   3.646   9.583  1.3553  1.9110  1.3034
 7766SOL     OW34756   0.086   0.675  17.554 -0.3735  0.4532  0.3871
 7766SOL    HW134757   0.025   0.639  17.490 -1.9840  3.2728  0.3193
 7766SOL    HW234758   0.033   0.750  17.583  1.1002  1.9971 -0.9320
 7767SOL     OW34759   1.289   3.381   7.498  0.1712  0.3508 -0.0422
 7767SOL    HW134760   1.277   3.437   7.575 -0.5655  1.1527 -0.7394
 7767SOL    HW234761   1.199   3.392   7.467  0.0208  0.7319  0.5173
 7768SOL     OW34762   3.182   2.922   6.074  0.1393 -0.1325 -0.4752
 7768SOL    HW134763   3.189   2.923   6.170 -0.7297  0.2449 -0.4171
 7768SOL    HW234764   3.097   2.884   6.055  1.0869 -0.9111 -3.1806
 7769SOL     OW34765   2.529   1.745  15.833  0.0064  0.0886  0.1529
 7769SOL    HW134766   2.508   1.827  15.789 -1.8755 -0.4981 -0.0492
 7769SOL    HW234767   2.576   1.702  15.761  1.6814  2.1494  0.0287
 7770SOL     OW34768   0.132   3.669   5.668  0.5846 -0.5942  0.3096
 7770SOL    HW134769   0.082   3.677   5.587  1.1727 -2.3756 -0.2035
 7770SOL    HW234770   0.080   3.735   5.716 -1.6205 -0.4773 -2.2398
 7771SOL     OW34771   0.170   1.220  13.753  0.0143  0.0054 -0.4976
 7771SOL    HW134772   0.168   1.301  13.804  2.6951 -0.3739  0.2141
 7771SOL    HW234773   0.077   1.198  13.761 -0.3215  2.5949  2.6967
 7772SOL     OW34774   2.160   0.683  16.817 -0.5945  0.8864 -0.4246
 7772SOL    HW134775   2.083   0.699  16.871  0.1863  0.8305  0.7056
 7772SOL    HW234776   2.227   0.732  16.865  1.8972 -0.9873 -1.9673
 7773SOL     OW34777   0.519   3.203   9.062  0.1419  0.1139 -0.2151
 7773SOL    HW134778   0.614   3.191   9.062  0.0759 -0.4124 -0.5852
 7773SOL    HW234779   0.515   3.299   9.066 -0.2950  0.1093 -0.5421
 7774SOL     OW34780   2.776   4.556   7.453  0.5940  0.6170 -0.0385
 7774SOL    HW134781   2.799   4.503   7.377  0.4454  0.7668 -0.1898
 7774SOL    HW234782   2.687   4.585   7.433  0.6305  0.7063 -0.0719
 7775SOL     OW34783   3.605   1.368   7.428  0.3741  0.1194 -0.3389
 7775SOL    HW134784   3.576   1.321   7.506 -1.9052  1.0751 -0.6085
 7775SOL    HW234785   3.646   1.295   7.381 -0.3635 -0.6287  0.1831
 7776SOL     OW34786   3.828   4.210   6.170 -0.0975  0.0426  0.1082
 7776SOL    HW134787   3.782   4.291   6.144 -0.4897  1.1437  4.1393
 7776SOL    HW234788   3.915   4.247   6.184  0.2420 -0.7437  0.0371
 7777SOL     OW34789   3.838   0.359   7.395  0.1226  0.7130  0.1312
 7777SOL    HW134790   3.933   0.370   7.397  0.0629  0.8582  1.8062
 7777SOL    HW234791   3.826   0.449   7.426  0.1394  1.4272 -1.8894
 7778SOL     OW34792   0.798   3.069   3.551  0.4919 -0.3432 -0.5067
 7778SOL    HW134793   0.783   3.065   3.457 -0.1687  1.3418 -0.4636
 7778SOL    HW234794   0.754   2.992   3.585  0.7442 -0.0261  0.5383
 7779SOL     OW34795   3.820   0.623   7.471  0.2464  0.0338  0.4591
 7779SOL    HW134796   3.876   0.675   7.415  0.3410  0.2400  0.7442
 7779SOL    HW234797   3.828   0.675   7.551 -1.1093 -0.7041  1.0961
 7780SOL     OW34798   3.564   1.818  13.081  0.0005 -0.0068 -0.5824
 7780SOL    HW134799   3.563   1.750  13.014  0.8492 -1.4265  0.8459
 7780SOL    HW234800   3.487   1.868  13.055 -0.0711  1.0920  1.7059
 7781SOL     OW34801   4.305   0.005   6.371  0.7290 -0.5082 -0.1196
 7781SOL    HW134802   4.275   4.675   6.445 -0.2277 -0.1896 -0.2750
 7781SOL    HW234803   4.386   0.034   6.412 -0.3309 -1.8932  2.9821
 7782SOL     OW34804   2.682   3.448   1.285 -0.5382  0.1419 -0.7042
 7782SOL    HW134805   2.655   3.383   1.350 -0.3439  0.5587 -0.2044
 7782SOL    HW234806   2.620   3.431   1.214 -0.2725  1.1116 -1.1667
 7783SOL     OW34807   2.942   0.311   3.463  0.2672  0.1284 -0.1626
 7783SOL    HW134808   2.905   0.362   3.390 -1.2437 -1.2589 -0.3570
 7783SOL    HW234809   2.970   0.226   3.428 -0.9936  0.1705 -1.2780
 7784SOL     OW34810   2.295   0.918   4.236 -0.0268 -0.6474  0.4800
 7784SOL    HW134811   2.280   1.009   4.263  1.3544 -0.3182  0.1416
 7784SOL    HW234812   2.390   0.913   4.226  0.0947  0.3245  1.0795
 7785SOL     OW34813   3.970   4.660   7.910 -0.3216 -0.7352  0.6325
 7785SOL    HW134814   3.898   4.598   7.899 -0.8831 -0.0778  0.6340
 7785SOL    HW234815   4.002   4.662   8.000 -0.0057 -2.3626  0.5520
 7786SOL     OW34816   4.612   1.306   2.573  0.1417 -0.3601  0.3766
 7786SOL    HW134817   4.612   1.220   2.530  1.1042 -0.3000  0.2619
 7786SOL    HW234818   4.608   1.273   2.663  0.7174  0.2095  0.6056
 7787SOL     OW34819   3.061   3.328  17.630  0.7472 -0.5561  0.5368
 7787SOL    HW134820   3.014   3.384  17.692  0.9099 -1.3990  1.4204
 7787SOL    HW234821   3.020   3.244  17.648  0.0943 -0.8948 -2.5856
 7788SOL     OW34822   4.440   3.920   1.383 -0.0711  0.2051  0.3251
 7788SOL    HW134823   4.481   3.969   1.311  0.3234 -1.6839 -0.7187
 7788SOL    HW234824   4.420   3.995   1.440  2.5990  1.5338 -0.4867
 7789SOL     OW34825   2.071   4.690   7.399  0.2047  0.1746 -0.0910
 7789SOL    HW134826   2.162   4.712   7.381 -0.2813  2.3529  0.1977
 7789SOL    HW234827   2.088   4.635   7.476 -2.6642  0.8893  1.0347
 7790SOL     OW34828   1.914   2.398   0.812  0.4525 -0.2245 -0.4487
 7790SOL    HW134829   1.968   2.423   0.888 -1.8726 -0.7757  1.3807
 7790SOL    HW234830   1.900   2.479   0.763 -0.3273 -0.6053 -0.8477
 7791SOL     OW34831   2.531   4.567  15.457 -0.0663  0.0434 -0.4228
 7791SOL    HW134832   2.574   4.627  15.519 -1.2839 -0.6441  1.0938
 7791SOL    HW234833   2.482   4.631  15.405 -0.1041 -0.7642 -1.3815
 7792SOL     OW34834   3.520   4.592   0.776  0.2331 -0.4207  0.0757
 7792SOL    HW134835   3.536   4.605   0.870  0.5107 -2.7176  0.3293
 7792SOL    HW234836   3.470   4.510   0.783 -0.0564 -0.1061  1.9583
 7793SOL     OW34837   1.428   4.590   3.233 -0.2702  0.2598 -0.4054
 7793SOL    HW134838   1.436   4.667   3.177  1.6867  0.6503  0.3901
 7793SOL    HW234839   1.343   4.550   3.215  0.7372 -2.3297  0.6535
 7794SOL     OW34840   1.495   4.163   6.422 -0.1510  0.0273  0.1637
 7794SOL    HW134841   1.468   4.071   6.418 -0.7562  0.3338 -3.3181
 7794SOL    HW234842   1.563   4.156   6.488  1.8672  2.3282 -1.6701
 7795SOL     OW34843   2.163   0.440   9.838  0.3339  0.0022  0.2150
 7795SOL    HW134844   2.223   0.510   9.866  0.3941  0.0227  0.0325
 7795SOL    HW234845   2.217   0.361   9.832  2.2367  1.2292  1.1633
 7796SOL     OW34846   2.579   0.614  13.497 -1.2251 -0.0121 -0.0428
 7796SOL    HW134847   2.642   0.684  13.485  2.4045 -3.3080 -0.3133
 7796SOL    HW234848   2.561   0.629  13.590 -2.4996 -1.8228  0.0091
 7797SOL     OW34849   3.060   3.082   4.156  0.8450 -0.6216  0.3593
 7797SOL    HW134850   3.119   3.120   4.222 -0.1307  0.2655  0.7196
 7797SOL    HW234851   3.108   3.005   4.127  2.1758  0.7490 -1.0753
 7798SOL     OW34852   0.880   1.431   9.164  0.5589  0.0774  0.1379
 7798SOL    HW134853   0.800   1.479   9.140  0.4685  0.8167  1.9405
 7798SOL    HW234854   0.871   1.357   9.104 -0.4663  0.1604  0.1804
 7799SOL     OW34855   4.201   2.263   4.271  0.5893  0.4354 -0.0721
 7799SOL    HW134856   4.251   2.324   4.216 -0.8086  0.6513 -1.1036
 7799SOL    HW234857   4.240   2.180   4.247 -0.1627 -0.8621  3.0811
 7800SOL     OW34858   4.522   0.369   7.712  0.2035  0.1339  0.0701
 7800SOL    HW134859   4.532   0.281   7.749 -2.4535 -0.0478  0.3553
 7800SOL    HW234860   4.612   0.390   7.739 -0.3572  1.9505  0.4774
 7801SOL     OW34861   0.458   3.787   4.110  0.1183 -0.0376 -0.1658
 7801SOL    HW134862   0.538   3.739   4.088 -0.4668 -1.5761  1.0688
 7801SOL    HW234863   0.418   3.803   4.025  1.1678  1.7008 -0.3293
 7802SOL     OW34864   2.222   1.586   8.194 -0.0719  0.1400 -0.2382
 7802SOL    HW134865   2.311   1.603   8.222 -0.5149 -1.0617  1.9157
 7802SOL    HW234866   2.208   1.491   8.185 -0.9651  0.0813  1.7789
 7803SOL     OW34867   0.846   3.208   0.747 -0.4742  0.1184  0.5766
 7803SOL    HW134868   0.823   3.155   0.823 -1.0992 -0.5236 -0.0680
 7803SOL    HW234869   0.882   3.145   0.685  0.4303  2.2991 -1.1513
 7804SOL     OW34870   1.013   3.325   6.450  0.2439  0.1735 -0.2774
 7804SOL    HW134871   0.949   3.264   6.413  0.5205 -1.4390  1.8758
 7804SOL    HW234872   1.083   3.263   6.469 -1.3024 -1.1164  1.2345
 7805SOL     OW34873   0.530   0.790  14.755  0.5456  0.3645 -0.1430
 7805SOL    HW134874   0.500   0.769  14.667  2.2047  2.4362 -1.2022
 7805SOL    HW234875   0.486   0.873  14.776  0.8155  0.8986 -1.6995
 7806SOL     OW34876   2.108   2.055  11.653 -0.4257  0.0386 -0.2907
 7806SOL    HW134877   2.063   2.035  11.735  1.9257  1.3588  1.3133
 7806SOL    HW234878   2.031   2.037  11.600  0.5695  0.2171 -1.8054
 7807SOL     OW34879   4.169   2.721   4.318  0.6893  0.4193  1.0035
 7807SOL    HW134880   4.210   2.679   4.242  1.5638  1.6278  0.8165
 7807SOL    HW234881   4.192   2.813   4.311  0.5226  0.5034  1.5519
 7808SOL     OW34882   0.194   0.888   5.392  0.1301  0.2208  0.8579
 7808SOL    HW134883   0.173   0.963   5.336  0.0892 -0.2805  0.2109
 7808SOL    HW234884   0.116   0.836   5.374  1.0846 -0.4938 -1.2147
 7809SOL     OW34885   0.421   2.802   4.678  0.5282 -0.3738 -0.7542
 7809SOL    HW134886   0.450   2.848   4.600  0.9521  2.0192  0.8186
 7809SOL    HW234887   0.344   2.752   4.649  1.1848 -1.2484 -0.9854
 7810SOL     OW34888   1.353   1.932  14.671 -0.1338  0.0736  0.0694
 7810SOL    HW134889   1.323   1.932  14.762 -0.0182  1.7970  0.1045
 7810SOL    HW234890   1.268   1.904  14.637 -0.1933 -0.8678  0.9649
 7811SOL     OW34891   3.051   0.670  13.647  0.2089  0.4350  0.1704
 7811SOL    HW134892   3.083   0.760  13.652  1.8029 -0.1320  0.2269
 7811SOL    HW234893   2.959   0.684  13.673 -0.6492 -2.5015 -1.3405
 7812SOL     OW34894   3.122   0.156   3.313  0.0314  0.2404 -0.1722
 7812SOL    HW134895   3.192   0.180   3.372  0.1692  0.8891 -0.5965
 7812SOL    HW234896   3.147   0.202   3.232  0.1492 -0.3781 -0.4908
 7813SOL     OW34897   2.404   1.142   8.400  0.3659 -0.8033 -1.0021
 7813SOL    HW134898   2.477   1.088   8.429 -0.7764 -1.7153  0.2465
 7813SOL    HW234899   2.338   1.106   8.461  1.4047 -0.4990  0.3077
 7814SOL     OW34900   0.299   2.032  17.180  0.0925  0.2168 -0.0487
 7814SOL    HW134901   0.225   2.063  17.128 -0.7774  0.9275  1.5941
 7814SOL    HW234902   0.312   2.108  17.237 -0.5145  1.5198 -1.6481
 7815SOL     OW34903   3.625   1.726   3.470  0.2333 -0.5207 -0.7510
 7815SOL    HW134904   3.538   1.739   3.509  1.4774  1.2028  1.4119
 7815SOL    HW234905   3.618   1.634   3.444  2.1731 -0.9875  0.4219
 7816SOL     OW34906   2.662   1.634  15.636 -0.0644 -0.1449  0.1888
 7816SOL    HW134907   2.712   1.557  15.662 -1.5188 -1.0524  0.2901
 7816SOL    HW234908   2.644   1.611  15.545  2.5582  4.6629 -1.5797
 7817SOL     OW34909   0.853   0.264   8.654  0.0369 -0.2210 -0.1519
 7817SOL    HW134910   0.948   0.267   8.638 -0.2284  1.1106 -1.5609
 7817SOL    HW234911   0.826   0.278   8.563  0.1438  1.5144  0.0772
 7818SOL     OW34912   3.782   2.944   8.404 -0.0186 -0.2670 -0.0306
 7818SOL    HW134913   3.745   3.030   8.421  0.9397 -0.2314  1.8128
 7818SOL    HW234914   3.717   2.914   8.340  0.7406 -1.4549 -0.2512
 7819SOL     OW34915   2.922   0.402  13.531 -0.8141  0.2013  0.0752
 7819SOL    HW134916   2.989   0.413  13.599 -1.4008 -0.7926  0.8179
 7819SOL    HW234917   2.863   0.336  13.568 -0.1511 -0.0396  0.7127
 7820SOL     OW34918   0.084   3.440  15.688 -0.5000  0.6088  0.5346
 7820SOL    HW134919   4.723   3.395  15.692  0.4144 -1.2301 -1.1494
 7820SOL    HW234920   0.140   3.364  15.703 -0.2660  0.2426 -2.2342
 7821SOL     OW34921   1.045   0.172   5.431 -0.1722  0.3127  0.1887
 7821SOL    HW134922   1.001   0.097   5.470 -0.2624  0.5616  0.5682
 7821SOL    HW234923   1.016   0.169   5.340 -1.4206  2.0596  0.5106
 7822SOL     OW34924   4.485   1.078   3.395 -0.2745 -0.4794  0.4497
 7822SOL    HW134925   4.571   1.092   3.355 -0.2911  0.0076  0.5776
 7822SOL    HW234926   4.503   1.023   3.472  0.2412 -0.4008  0.3890
 7823SOL     OW34927   1.515   1.519   9.467  0.6733 -0.3935 -0.1298
 7823SOL    HW134928   1.434   1.538   9.421  0.2649 -2.0746 -0.0995
 7823SOL    HW234929   1.567   1.478   9.398  0.8113  0.3995 -0.4959
 7824SOL     OW34930   2.658   0.634   8.339 -0.4294 -0.7525 -0.2578
 7824SOL    HW134931   2.604   0.577   8.394 -3.7722  1.4674 -1.2351
 7824SOL    HW234932   2.688   0.695   8.407 -1.3077 -3.6642  2.7011
 7825SOL     OW34933   4.554   0.773   4.043 -0.0106  0.1535 -0.5502
 7825SOL    HW134934   4.625   0.767   3.980 -0.2505  0.0693 -0.8167
 7825SOL    HW234935   4.535   0.865   4.028 -1.8233 -0.3928 -1.6441
 7826SOL     OW34936   3.708   0.290   7.653  0.6072 -0.2158  0.2525
 7826SOL    HW134937   3.736   0.223   7.715 -0.7665 -0.2428  0.8495
 7826SOL    HW234938   3.748   0.266   7.569  0.2028 -0.3986  0.1135
 7827SOL     OW34939   2.830   2.282   8.279 -0.0466 -0.3565 -0.1596
 7827SOL    HW134940   2.905   2.237   8.319  0.5911 -1.0102 -2.1091
 7827SOL    HW234941   2.860   2.371   8.259 -0.2270 -0.6368 -1.6449
 7828SOL     OW34942   1.315   3.674   6.789  0.0655 -0.1214  0.1229
 7828SOL    HW134943   1.273   3.658   6.704 -0.3131  0.4542  0.2022
 7828SOL    HW234944   1.383   3.607   6.789 -1.0572 -1.2757  0.3736
 7829SOL     OW34945   0.517   1.868   5.716 -0.2338  0.2893 -0.0687
 7829SOL    HW134946   0.478   1.909   5.639  0.9753  1.7692  0.1112
 7829SOL    HW234947   0.585   1.934   5.727  0.8354 -0.5663 -1.6919
 7830SOL     OW34948   3.548   1.648  17.464  0.1181  0.1477  0.3781
 7830SOL    HW134949   3.485   1.577  17.447 -0.5753  1.0718 -0.8917
 7830SOL    HW234950   3.588   1.669  17.380  0.0429  0.2965  0.3794
 7831SOL     OW34951   3.026   4.411   7.754 -0.0865 -1.0110 -0.0994
 7831SOL    HW134952   3.041   4.414   7.659  2.0202  0.2145  0.2652
 7831SOL    HW234953   3.065   4.328   7.780  1.8625 -0.3002 -0.7128
 7832SOL     OW34954   4.685   0.480   8.963 -0.2123  0.9396 -0.1991
 7832SOL    HW134955   4.700   0.559   9.015 -2.1152  0.3566  1.2336
 7832SOL    HW234956   4.693   0.512   8.873  2.0425  0.0272 -0.3311
 7833SOL     OW34957   3.921   1.907  15.502  0.1381  0.2663 -0.3163
 7833SOL    HW134958   4.000   1.948  15.538 -0.4373  0.8868  0.2355
 7833SOL    HW234959   3.961   1.831  15.459 -0.8901 -1.1519  1.2343
 7834SOL     OW34960   3.967   0.976   0.553  0.0670  0.3529 -0.2737
 7834SOL    HW134961   3.908   1.039   0.511 -1.1355  0.2468  1.2634
 7834SOL    HW234962   3.951   0.980   0.647 -1.2910 -0.0061 -0.5017
 7835SOL     OW34963   0.242   1.375   2.040  0.0131  0.5541  0.0604
 7835SOL    HW134964   0.325   1.353   1.998  0.5151  0.6288  1.0265
 7835SOL    HW234965   0.194   1.293   2.053  1.1920  0.2014  2.1387
 7836SOL     OW34966   0.208   3.734  14.906 -0.3297  0.3199  0.4103
 7836SOL    HW134967   0.142   3.709  14.841  1.7024 -1.9570 -0.7502
 7836SOL    HW234968   0.253   3.799  14.852  0.2752 -0.5622 -0.1401
 7837SOL     OW34969   1.066   0.181   6.367 -0.2830 -0.6797  0.6981
 7837SOL    HW134970   1.152   0.187   6.325 -0.8090 -3.0395 -0.7166
 7837SOL    HW234971   1.013   0.144   6.296 -0.6328 -1.2156  1.2468
 7838SOL     OW34972   2.090   2.147   8.868  0.3831  0.4100  0.4246
 7838SOL    HW134973   2.016   2.118   8.814  0.9664 -0.7939  0.2656
 7838SOL    HW234974   2.148   2.072   8.853 -1.0452 -0.2839 -1.7483
 7839SOL     OW34975   3.750   4.473  11.682 -0.1870  0.0641 -0.3818
 7839SOL    HW134976   3.705   4.548  11.643  1.9252  1.4180 -0.2614
 7839SOL    HW234977   3.762   4.508  11.771 -0.8116  0.7311 -0.5555
 7840SOL     OW34978   3.818   4.179  15.845  0.3571 -0.0769 -0.2854
 7840SOL    HW134979   3.877   4.245  15.881 -0.8053  1.2426 -0.8346
 7840SOL    HW234980   3.805   4.211  15.756 -1.5544 -1.9949 -0.6805
 7841SOL     OW34981   3.509   3.244   3.615  0.4341 -0.0057 -0.2165
 7841SOL    HW134982   3.599   3.217   3.597 -0.0864 -0.4151 -2.1740
 7841SOL    HW234983   3.474   3.163   3.652 -0.6227  0.7269  0.3956
 7842SOL     OW34984   2.838   2.891   9.486  0.6874  0.0352 -0.6792
 7842SOL    HW134985   2.876   2.974   9.515  0.2026  0.6794 -1.8929
 7842SOL    HW234986   2.890   2.862   9.411 -0.8900 -2.0354 -0.9985
 7843SOL     OW34987   2.869   3.908   7.661 -0.0775 -0.0490  0.3801
 7843SOL    HW134988   2.834   3.996   7.647 -0.8843  0.3390  4.9407
 7843SOL    HW234989   2.890   3.885   7.570  1.0053 -1.3173  0.9391
 7844SOL     OW34990   4.406   1.233  13.812 -0.0979 -0.1667 -0.2915
 7844SOL    HW134991   4.356   1.287  13.751  2.1492  1.8724 -0.3065
 7844SOL    HW234992   4.335   1.205  13.869  0.9723  1.4269  1.8268
 7845SOL     OW34993   3.414   2.345   0.765 -0.6422  0.4011  0.3109
 7845SOL    HW134994   3.499   2.385   0.746 -0.9267  0.8046 -0.1007
 7845SOL    HW234995   3.430   2.255   0.735  0.7060  0.8801 -0.4175
 7846SOL     OW34996   0.121   3.499   6.748 -0.1050  0.5286  0.1485
 7846SOL    HW134997   0.077   3.535   6.672 -0.5308 -0.9440 -0.3104
 7846SOL    HW234998   0.142   3.415   6.708  1.8786  0.6732  0.9007
 7847SOL     OW34999   2.383   3.032   3.199  0.2192 -0.1991  0.0851
 7847SOL    HW135000   2.371   3.065   3.110  1.1535  0.7329  0.3126
 7847SOL    HW235001   2.426   3.112   3.228 -1.3624  1.0062 -0.8753
 7848SOL     OW35002   1.313   3.980  12.478  0.3688 -0.4035  0.1230
 7848SOL    HW135003   1.320   4.073  12.457  0.0555 -0.2261  0.8085
 7848SOL    HW235004   1.232   3.951  12.436 -0.3020 -1.6326  2.2677
 7849SOL     OW35005   1.391   4.472   3.872 -0.0500  0.4384  0.2095
 7849SOL    HW135006   1.295   4.465   3.879 -0.0710  2.0622  1.7364
 7849SOL    HW235007   1.405   4.447   3.781 -0.9044 -0.6918  0.3903
 7850SOL     OW35008   2.136   2.778   8.786  0.1362 -0.0038 -0.5638
 7850SOL    HW135009   2.094   2.734   8.712  2.3679 -1.6052 -0.8502
 7850SOL    HW235010   2.085   2.859   8.794 -0.2339 -0.2093 -0.8651
 7851SOL     OW35011   0.408   0.090   9.364 -0.1704  0.2992  0.2112
 7851SOL    HW135012   0.489   0.040   9.378  0.2220  0.0982 -2.8798
 7851SOL    HW235013   0.443   0.176   9.343 -0.0119  0.3710  0.7571
 7852SOL     OW35014   2.385   4.662   3.143 -0.5452  0.4702  0.2569
 7852SOL    HW135015   2.289   4.665   3.142 -0.5866 -0.4598  0.7959
 7852SOL    HW235016   2.402   4.570   3.123 -4.4456  0.6524 -3.6635
 7853SOL     OW35017   1.472   0.472   6.859 -0.0390  0.0427 -0.5384
 7853SOL    HW135018   1.482   0.378   6.841  1.4663  0.1297 -0.1952
 7853SOL    HW235019   1.441   0.496   6.772 -0.3340  0.0971 -0.4150
 7854SOL     OW35020   1.021   0.127   5.905  0.1651  0.2591 -0.4785
 7854SOL    HW135021   1.105   0.168   5.927 -0.3597  0.9157  0.2764
 7854SOL    HW235022   1.039   0.040   5.941 -0.7032 -0.1609 -1.0476
 7855SOL     OW35023   1.472   3.029   1.519 -0.2349  0.5287 -0.1678
 7855SOL    HW135024   1.437   2.973   1.589  0.8310 -1.0028 -0.8559
 7855SOL    HW235025   1.519   2.967   1.462  0.3303  0.0537  0.8168
 7856SOL     OW35026   4.376   1.143  10.722  0.2601  0.2970  0.3296
 7856SOL    HW135027   4.319   1.212  10.688 -0.8418 -0.2391  1.0758
 7856SOL    HW235028   4.310   1.086  10.762 -1.1908  1.3663 -0.5512
 7857SOL     OW35029   1.037   4.458  12.088  0.3065 -0.6625 -0.5468
 7857SOL    HW135030   0.958   4.429  12.042 -0.2892  0.9651 -0.5557
 7857SOL    HW235031   1.056   4.536  12.035 -2.2135  0.6906  0.5421
 7858SOL     OW35032   2.481   4.026   7.441  0.0831  0.1544  0.0939
 7858SOL    HW135033   2.521   3.975   7.370 -1.1454 -0.0434 -0.4626
 7858SOL    HW235034   2.550   4.093   7.437  0.6021 -0.4558 -1.3066
 7859SOL     OW35035   2.742   4.560   6.352 -0.0961 -0.5061 -0.3964
 7859SOL    HW135036   2.780   4.484   6.309 -0.7003 -1.3115  0.4850
 7859SOL    HW235037   2.701   4.610   6.281  0.2420  0.2135 -0.0885
 7860SOL     OW35038   4.648   0.926   7.729 -0.2600  0.0809  0.1846
 7860SOL    HW135039   4.605   0.916   7.644  0.7822  1.1724 -0.4695
 7860SOL    HW235040   4.590   0.989   7.774  0.9840  1.0415  0.4377
 7861SOL     OW35041   1.458   1.516   4.803  0.0459  0.3196  0.0771
 7861SOL    HW135042   1.502   1.497   4.719 -1.2726  0.4491 -0.6361
 7861SOL    HW235043   1.379   1.463   4.796 -0.3027  0.6553  1.6130
 7862SOL     OW35044   3.193   4.087   4.420 -0.2356  0.1965 -0.1109
 7862SOL    HW135045   3.205   4.182   4.429  3.4540 -0.4473  1.7859
 7862SOL    HW235046   3.142   4.081   4.501 -1.7967  0.8376 -1.0249
 7863SOL     OW35047   1.813   4.382   5.961  0.0391  0.1540 -0.3866
 7863SOL    HW135048   1.856   4.323   6.024  0.9807  0.1791 -1.0131
 7863SOL    HW235049   1.767   4.448   6.013  0.0052 -0.7572  0.7657
 7864SOL     OW35050   1.376   0.620   8.716 -0.3553  0.2994 -0.0780
 7864SOL    HW135051   1.431   0.583   8.648 -0.3983  1.0598 -0.5301
 7864SOL    HW235052   1.324   0.542   8.735 -1.0037  1.1828  1.7902
 7865SOL     OW35053   2.580   2.646   0.139 -0.0240  0.6807  0.2881
 7865SOL    HW135054   2.649   2.619   0.200 -1.0720 -1.5682  0.5109
 7865SOL    HW235055   2.553   2.557   0.117  0.1982  0.3722  1.2438
 7866SOL     OW35056   1.383   3.528  14.297 -0.3635 -0.1526  0.0600
 7866SOL    HW135057   1.307   3.574  14.262 -0.7755 -0.9837 -0.1484
 7866SOL    HW235058   1.411   3.578  14.374 -1.9142 -0.2979  0.7262
 7867SOL     OW35059   3.245   1.891   0.865  0.7220  0.0095  0.0428
 7867SOL    HW135060   3.188   1.833   0.915  1.3920  0.4148  1.2988
 7867SOL    HW235061   3.299   1.931   0.934  1.1205 -0.3396 -0.0652
 7868SOL     OW35062   1.361   2.902  13.164 -0.3526 -0.0248  0.5696
 7868SOL    HW135063   1.457   2.906  13.157 -0.3024 -0.2295  1.1226
 7868SOL    HW235064   1.335   2.992  13.146  1.6728  0.0497 -1.9967
 7869SOL     OW35065   4.062   1.461   5.333 -0.6210  0.1553 -0.0540
 7869SOL    HW135066   3.984   1.500   5.371 -0.3401 -0.8996  1.5987
 7869SOL    HW235067   4.039   1.447   5.241  1.5339 -0.2251 -0.5322
 7870SOL     OW35068   4.110   1.161   5.997  0.1553 -0.6713 -0.0581
 7870SOL    HW135069   4.128   1.252   6.016  0.0726 -0.1860 -2.2238
 7870SOL    HW235070   4.021   1.163   5.962  0.6741 -1.5109 -1.4754
 7871SOL     OW35071   0.783   1.186   5.702  0.1099  0.3994  0.6495
 7871SOL    HW135072   0.815   1.250   5.766  0.3891 -1.8876  2.8271
 7871SOL    HW235073   0.688   1.198   5.706  0.0104  0.7111 -2.7837
 7872SOL     OW35074   1.623   0.584   7.998 -0.1468 -0.2695 -0.3729
 7872SOL    HW135075   1.678   0.507   8.012 -0.5791  0.1889  3.8888
 7872SOL    HW235076   1.562   0.582   8.072 -0.6677  2.4704 -0.7342
 7873SOL     OW35077   3.908   0.629   2.400  0.1318  0.7867 -0.3039
 7873SOL    HW135078   3.872   0.717   2.414 -2.5904  0.0071 -2.4845
 7873SOL    HW235079   3.993   0.637   2.444  0.9021  1.2000 -1.8582
 7874SOL     OW35080   0.493   2.723   3.939  0.0321 -0.9189 -0.4422
 7874SOL    HW135081   0.437   2.666   3.993  2.0173 -2.7763 -0.3230
 7874SOL    HW235082   0.424   2.771   3.892 -0.9726  0.9939  2.9528
 7875SOL     OW35083   2.629   4.501   4.050  0.8151 -0.3234  0.0139
 7875SOL    HW135084   2.569   4.482   3.978  2.1723  0.6963 -1.3761
 7875SOL    HW235085   2.709   4.514   3.999 -0.7067 -0.2119 -2.3190
 7876SOL     OW35086   3.227   1.797   8.942 -0.2575  0.3434  0.5503
 7876SOL    HW135087   3.298   1.836   8.993 -0.7581  1.7363  0.1837
 7876SOL    HW235088   3.171   1.759   9.010  0.0339  0.8673  1.0752
 7877SOL     OW35089   1.743   1.453   5.698 -0.2165 -0.3353 -0.0959
 7877SOL    HW135090   1.728   1.375   5.646 -0.6336 -0.2236 -0.1405
 7877SOL    HW235091   1.744   1.424   5.789 -0.5672  1.1780  0.3941
 7878SOL     OW35092   3.917   1.320  15.675  0.6685  0.1554 -0.1466
 7878SOL    HW135093   3.939   1.232  15.703  3.9718  1.2526  0.7701
 7878SOL    HW235094   3.823   1.312  15.664  1.1334 -1.6393 -2.8073
 7879SOL     OW35095   3.242   3.622   6.048  0.4222 -0.2516  0.0526
 7879SOL    HW135096   3.199   3.547   6.009 -0.6571  1.6598 -2.4043
 7879SOL    HW235097   3.329   3.621   6.008 -0.5142 -0.2591 -1.9459
 7880SOL     OW35098   1.417   0.893   4.624  0.2917  0.3541  0.0383
 7880SOL    HW135099   1.382   0.961   4.682 -1.1779 -2.2584  2.2119
 7880SOL    HW235100   1.361   0.822   4.653 -0.1765  1.0834  0.9328
 7881SOL     OW35101   0.110   1.388   8.702  0.1132 -0.0695  0.1134
 7881SOL    HW135102   0.153   1.471   8.723  0.3984 -0.0274 -0.6657
 7881SOL    HW235103   0.089   1.405   8.610  1.2890  1.9934  0.2294
 7882SOL     OW35104   2.631   0.607   8.622 -0.1792  0.2718 -0.3510
 7882SOL    HW135105   2.609   0.637   8.710  0.4759  0.4245 -0.2374
 7882SOL    HW235106   2.657   0.516   8.638 -1.5640 -0.3359 -1.6012
 7883SOL     OW35107   0.520   0.696   6.529  0.7696  0.2105 -0.8439
 7883SOL    HW135108   0.532   0.720   6.437  0.9055  0.3781 -0.7847
 7883SOL    HW235109   0.608   0.719   6.561  1.4403  0.1693 -2.6529
 7884SOL     OW35110   3.078   3.614  15.338  0.0747  0.2497  0.4604
 7884SOL    HW135111   3.026   3.594  15.260 -0.5933 -1.6156  1.3683
 7884SOL    HW235112   3.018   3.581  15.405  0.0896  0.9408  0.8085
 7885SOL     OW35113   2.790   2.453   6.675 -0.1847  0.3066 -0.2106
 7885SOL    HW135114   2.785   2.423   6.766 -0.9196  0.0951 -0.3166
 7885SOL    HW235115   2.714   2.512   6.675  0.8516  1.6350 -1.1781
 7886SOL     OW35116   3.184   1.452   3.753 -0.2832  0.5145  0.5219
 7886SOL    HW135117   3.271   1.488   3.768 -0.0214 -1.0513  2.6470
 7886SOL    HW235118   3.205   1.369   3.711  0.6511  0.8938  0.2147
 7887SOL     OW35119   2.823   0.320   6.711 -0.0070  0.3418  0.4012
 7887SOL    HW135120   2.773   0.382   6.658  0.3873 -0.2814 -0.7173
 7887SOL    HW235121   2.809   0.363   6.795 -2.1350  1.2755 -0.4317
 7888SOL     OW35122   1.894   2.238   8.605  0.5632 -0.6494 -0.2829
 7888SOL    HW135123   1.863   2.300   8.539 -0.3281 -1.1242 -0.3103
 7888SOL    HW235124   1.979   2.214   8.567 -0.1105 -2.4613 -0.6353
 7889SOL     OW35125   4.146   3.820  14.635 -0.2809 -0.1686  0.3726
 7889SOL    HW135126   4.196   3.894  14.600 -1.4188  1.3166  1.8481
 7889SOL    HW235127   4.152   3.765  14.557  0.6370  0.9183 -0.3374
 7890SOL     OW35128   3.669   2.665   8.195 -0.3382 -0.0146  0.4980
 7890SOL    HW135129   3.741   2.622   8.148 -0.6647 -0.9436  0.8533
 7890SOL    HW235130   3.608   2.591   8.200  0.4289 -0.5918  1.4575
 7891SOL     OW35131   3.448   2.026  14.647  0.3309  0.3567  0.6117
 7891SOL    HW135132   3.363   2.069  14.640  1.5334  2.4143 -1.3906
 7891SOL    HW235133   3.431   1.977  14.727 -0.7840 -1.6263 -0.8507
 7892SOL     OW35134   0.069   2.487   4.535  0.1702  0.0167 -0.0079
 7892SOL    HW135135   0.075   2.567   4.587 -0.9613  1.3911 -2.0070
 7892SOL    HW235136   0.113   2.417   4.584  0.9975  0.3156 -0.3272
 7893SOL     OW35137   0.148   1.823   6.110  0.2227 -0.3244  0.6009
 7893SOL    HW135138   0.096   1.772   6.048  0.5285  1.8670 -1.4574
 7893SOL    HW235139   0.201   1.756   6.151 -0.3852 -1.5245 -0.5784
 7894SOL     OW35140   2.961   2.402   3.505 -0.6037 -0.1451  0.0507
 7894SOL    HW135141   2.881   2.452   3.521 -0.5057  0.0657 -0.1271
 7894SOL    HW235142   2.934   2.356   3.426 -0.9536 -0.8524  0.5779
 7895SOL     OW35143   4.173   2.119   8.152  0.2731  0.8100 -0.0294
 7895SOL    HW135144   4.157   2.104   8.245 -0.5692 -1.3062 -0.5053
 7895SOL    HW235145   4.261   2.155   8.160 -0.1733  1.5379  1.4510
 7896SOL     OW35146   3.620   2.443   3.397 -0.2109 -1.2211 -0.2548
 7896SOL    HW135147   3.602   2.473   3.307  1.3004 -1.7078 -0.7104
 7896SOL    HW235148   3.617   2.348   3.384 -0.6210 -0.9281 -2.3048
 7897SOL     OW35149   2.882   0.117   4.701 -0.0304 -0.0837  0.1555
 7897SOL    HW135150   2.854   0.029   4.724  1.3897 -0.2847  1.1320
 7897SOL    HW235151   2.932   0.142   4.778  2.5793  1.7636 -2.1293
 7898SOL     OW35152   3.015   1.876  10.465 -0.4210 -0.4898 -0.8648
 7898SOL    HW135153   3.037   1.939  10.534 -0.9215 -1.3901  0.1158
 7898SOL    HW235154   2.933   1.835  10.492  0.2195 -0.5238  1.0509
 7899SOL     OW35155   1.432   1.327   2.579  0.0253  0.3073  0.0573
 7899SOL    HW135156   1.407   1.289   2.663 -0.4918 -2.8092 -1.4983
 7899SOL    HW235157   1.343   1.345   2.547  0.5476  1.9582 -0.4431
 7900SOL     OW35158   3.316   4.212   3.348  0.1307 -0.1770  0.3100
 7900SOL    HW135159   3.278   4.270   3.282 -0.2861 -1.5087 -0.6191
 7900SOL    HW235160   3.275   4.247   3.426  1.4598 -1.1694  1.4508
 7901SOL     OW35161   2.781   1.896   2.961  0.1765 -0.0234 -0.0532
 7901SOL    HW135162   2.846   1.856   3.018  0.0103  0.8290  0.7345
 7901SOL    HW235163   2.830   1.975   2.937 -3.2478  2.4459  1.0364
 7902SOL     OW35164   3.372   3.295   4.172  0.0317 -0.3317  0.3661
 7902SOL    HW135165   3.406   3.207   4.155 -0.5460 -0.4203 -0.3355
 7902SOL    HW235166   3.314   3.286   4.248 -0.8122 -0.8843 -0.3441
 7903SOL     OW35167   4.021   1.646   1.983  0.1001  0.0812  0.0005
 7903SOL    HW135168   3.955   1.595   2.031  0.0811  0.3379  0.2442
 7903SOL    HW235169   3.977   1.656   1.898  1.6883  0.6869 -0.7467
 7904SOL     OW35170   2.743   3.105   5.397  0.0966  0.3846 -0.1084
 7904SOL    HW135171   2.660   3.117   5.351  0.5029  1.4757 -0.5711
 7904SOL    HW235172   2.721   3.151   5.478  1.0254 -2.7041  1.9104
 7905SOL     OW35173   2.276   3.025   1.444 -0.4448 -0.4885  0.5408
 7905SOL    HW135174   2.260   2.931   1.444  1.6689 -0.8667  1.9469
 7905SOL    HW235175   2.229   3.054   1.522 -0.6281 -0.8321  0.5584
 7906SOL     OW35176   4.093   4.281   8.816 -0.4217 -0.0784 -0.4109
 7906SOL    HW135177   4.032   4.299   8.744  1.1110  0.8469 -1.4777
 7906SOL    HW235178   4.172   4.252   8.770 -0.2978 -1.4801  0.6783
 7907SOL     OW35179   2.102   2.084   1.399 -0.4228  1.0432  0.2690
 7907SOL    HW135180   2.087   2.017   1.466  0.7496 -0.3283 -0.8259
 7907SOL    HW235181   2.012   2.101   1.372 -0.8250  0.3472  1.1914
 7908SOL     OW35182   4.072   0.029  16.618 -0.4152  0.3289 -0.2088
 7908SOL    HW135183   4.159   0.068  16.621 -0.4323  0.2106  1.6120
 7908SOL    HW235184   4.053   0.004  16.527  1.0728 -1.4205 -0.0166
 7909SOL     OW35185   4.308   3.469   4.630 -0.1052  0.2416 -0.1924
 7909SOL    HW135186   4.270   3.386   4.656  0.7084 -0.3207 -0.7866
 7909SOL    HW235187   4.338   3.516   4.708 -2.1729  0.9936  0.1322
 7910SOL     OW35188   2.503   2.407  11.681 -0.4004  0.2934  0.4643
 7910SOL    HW135189   2.533   2.319  11.656  0.9287  0.3951  1.7145
 7910SOL    HW235190   2.572   2.462  11.644  0.5769 -0.7558  0.7408
 7911SOL     OW35191   1.006   2.025   1.218 -0.0974  0.4114  0.3027
 7911SOL    HW135192   1.094   2.052   1.191 -0.5703  0.8397 -0.8527
 7911SOL    HW235193   1.017   1.930   1.207  2.3720  0.8666 -1.3645
 7912SOL     OW35194   3.367   4.369   9.287 -0.2625 -0.1504  0.1921
 7912SOL    HW135195   3.309   4.444   9.281 -0.7426 -0.4846  0.6826
 7912SOL    HW235196   3.305   4.296   9.288  1.3008 -1.5392 -2.0369
 7913SOL     OW35197   0.225   2.885   8.949  0.4061  0.0894  0.9194
 7913SOL    HW135198   0.153   2.823   8.952 -1.2537  1.9989  0.2802
 7913SOL    HW235199   0.209   2.945   9.022 -1.7552  1.1733 -0.4684
 7914SOL     OW35200   0.983   0.738   0.846 -0.1304 -0.1151 -0.2160
 7914SOL    HW135201   0.942   0.823   0.828 -1.0820 -0.6637 -0.6225
 7914SOL    HW235202   1.073   0.761   0.821 -0.7269  2.5606  0.0292
 7915SOL     OW35203   1.307   2.647   0.548  0.0154  0.1871 -0.6257
 7915SOL    HW135204   1.230   2.691   0.584 -1.1182 -1.3214 -1.1674
 7915SOL    HW235205   1.364   2.646   0.625  1.0978 -1.3973 -1.4529
 7916SOL     OW35206   1.546   4.586  12.653 -0.0848 -0.0705 -0.5679
 7916SOL    HW135207   1.633   4.628  12.660  1.1776 -3.0003  1.2104
 7916SOL    HW235208   1.565   4.493  12.643  1.2655  0.2958 -1.4660
 7917SOL     OW35209   3.226   4.632   4.501  0.0220  0.1944  0.3686
 7917SOL    HW135210   3.257   4.627   4.592  0.4105 -0.9300  0.1809
 7917SOL    HW235211   3.189   4.720   4.496  1.3108  0.6919 -0.3444
 7918SOL     OW35212   3.076   0.739   4.276  0.4478 -0.0228 -0.2397
 7918SOL    HW135213   2.986   0.753   4.304 -0.5194 -0.8093 -2.9022
 7918SOL    HW235214   3.077   0.644   4.280 -0.6843  0.0078  0.7375
 7919SOL     OW35215   1.120   3.701   0.780  0.4470 -0.0223 -0.5064
 7919SOL    HW135216   1.054   3.705   0.710  0.0428 -0.7437 -0.1697
 7919SOL    HW235217   1.067   3.691   0.860  2.3215  0.5320  0.7984
 7920SOL     OW35218   1.505   0.461   8.547  0.1041  0.5169  0.0372
 7920SOL    HW135219   1.555   0.490   8.471  1.0436 -2.0322 -0.3280
 7920SOL    HW235220   1.537   0.371   8.538  1.2178  1.2895 -3.6525
 7921SOL     OW35221   4.711   3.048   2.344 -0.6974 -0.2708 -0.3648
 7921SOL    HW135222   4.637   2.988   2.335 -0.4393 -0.8468  1.4737
 7921SOL    HW235223   4.710   3.088   2.257  3.3475  0.5147 -0.0843
 7922SOL     OW35224   4.307   0.691  14.223  0.8434  0.4954  0.1801
 7922SOL    HW135225   4.224   0.669  14.180  1.5139 -1.1804 -0.2738
 7922SOL    HW235226   4.339   0.754  14.159 -0.0043  1.3203  0.5626
 7923SOL     OW35227   4.174   3.627   8.633  0.1839 -0.1952 -0.5871
 7923SOL    HW135228   4.120   3.702   8.659  2.8786  1.2138  0.8556
 7923SOL    HW235229   4.245   3.627   8.696 -1.6656  1.3624  1.4968
 7924SOL     OW35230   0.508   3.221   4.534 -0.5613 -0.3021 -0.0195
 7924SOL    HW135231   0.485   3.166   4.459 -0.5434 -2.0724  1.2706
 7924SOL    HW235232   0.422   3.261   4.544  0.1570  1.7023 -1.8681
 7925SOL     OW35233   4.665   2.286   3.697  0.8290  0.3577  0.9086
 7925SOL    HW135234   4.690   2.204   3.654  0.4661  0.9322 -0.3830
 7925SOL    HW235235   4.594   2.268   3.758  0.2004  1.9441  0.6325
 7926SOL     OW35236   1.278   1.866  12.880 -0.1294  0.3872 -0.2424
 7926SOL    HW135237   1.370   1.877  12.860  0.1973 -0.5558  0.7075
 7926SOL    HW235238   1.243   1.947  12.842 -1.9153 -0.3535 -0.1821
 7927SOL     OW35239   0.480   0.352   3.964  0.4324  0.6627 -0.5115
 7927SOL    HW135240   0.389   0.331   3.988 -0.6683  2.1495 -3.3869
 7927SOL    HW235241   0.509   0.399   4.043  1.7927  2.3653 -2.0473
 7928SOL     OW35242   1.227   0.802   2.074  0.5710 -0.2095  0.1813
 7928SOL    HW135243   1.174   0.724   2.056 -0.4244  0.5642 -0.1828
 7928SOL    HW235244   1.292   0.766   2.134  0.4834 -2.0785 -0.8274
 7929SOL     OW35245   3.974   1.619   7.207 -0.0736 -0.2186 -0.1011
 7929SOL    HW135246   4.013   1.687   7.261 -1.0073 -0.9939  1.5361
 7929SOL    HW235247   4.014   1.544   7.250  0.9706  0.2584 -0.2387
 7930SOL     OW35248   1.846   2.898   7.940  0.2654  0.0774  0.4301
 7930SOL    HW135249   1.929   2.902   7.986 -0.1140  1.0102  1.0402
 7930SOL    HW235250   1.869   2.839   7.868  0.3385  0.3897  0.1999
 7931SOL     OW35251   1.080   1.115   4.955 -0.0520  0.4077  0.4907
 7931SOL    HW135252   1.012   1.065   4.909 -1.7030  2.4511  0.7476
 7931SOL    HW235253   1.148   1.119   4.888  0.3624  2.2630  1.0346
 7932SOL     OW35254   0.877   4.123   0.958  0.2031 -0.2026  0.0363
 7932SOL    HW135255   0.797   4.174   0.962  0.8999  0.7679  1.8877
 7932SOL    HW235256   0.906   4.112   1.049  1.9287  2.8914 -0.1557
 7933SOL     OW35257   1.878   3.566   0.178  0.1878 -0.2177  0.2912
 7933SOL    HW135258   1.827   3.576   0.258 -1.2057 -0.3546 -0.5744
 7933SOL    HW235259   1.830   3.632   0.127  1.8914  0.8328  0.0134
 7934SOL     OW35260   2.338   4.031   3.126 -0.5239 -0.5588  0.4167
 7934SOL    HW135261   2.297   3.947   3.145  2.0309 -1.6075  1.1471
 7934SOL    HW235262   2.352   4.065   3.215  0.8693 -1.1634  0.4138
 7935SOL     OW35263   0.674   2.033   4.301 -0.6250 -0.3953  0.1843
 7935SOL    HW135264   0.751   1.983   4.329 -1.5983 -2.0257 -0.0950
 7935SOL    HW235265   0.710   2.105   4.249 -1.4117 -1.2418 -1.5125
 7936SOL     OW35266   0.586   0.228   4.746 -0.3631 -0.6443 -0.1700
 7936SOL    HW135267   0.535   0.308   4.749  1.5087  0.5964 -1.6412
 7936SOL    HW235268   0.529   0.164   4.704 -1.1800 -0.4626  0.6667
 7937SOL     OW35269   3.657   3.730   1.417  0.1225  0.1825 -0.4498
 7937SOL    HW135270   3.701   3.815   1.416 -0.1760  0.3318 -0.9638
 7937SOL    HW235271   3.568   3.760   1.398  0.2543 -0.0133 -1.4241
 7938SOL     OW35272   2.347   0.145   4.288 -0.1198  0.3264  0.2714
 7938SOL    HW135273   2.406   0.132   4.213 -1.1311 -2.2982 -0.0808
 7938SOL    HW235274   2.276   0.160   4.225  0.3158 -1.6453 -0.7058
 7939SOL     OW35275   1.984   3.379   3.596  0.0529 -0.3730 -0.1735
 7939SOL    HW135276   1.899   3.413   3.623 -0.3826 -0.2775 -1.6260
 7939SOL    HW235277   1.961   3.372   3.503 -1.0536 -0.1960  0.0795
 7940SOL     OW35278   0.752   1.771   6.044 -0.0101 -0.2014 -0.4925
 7940SOL    HW135279   0.787   1.849   6.086  0.1898 -0.7511  0.3514
 7940SOL    HW235280   0.835   1.724   6.045 -1.3060 -2.4121  2.6352
 7941SOL     OW35281   3.189   4.283   3.612  0.1454  0.0148 -0.4646
 7941SOL    HW135282   3.113   4.241   3.651  1.3501  0.3487  2.2109
 7941SOL    HW235283   3.215   4.345   3.680 -3.2266  0.5748  0.3001
 7942SOL     OW35284   3.894   3.368  14.873  0.2537 -0.9141 -0.9194
 7942SOL    HW135285   3.947   3.327  14.805  0.3533 -2.8532  0.3224
 7942SOL    HW235286   3.962   3.393  14.935 -1.2308  0.3096  0.2156
 7943SOL     OW35287   4.595   1.874   2.341  0.1610 -0.1255  0.1790
 7943SOL    HW135288   4.524   1.857   2.403  0.8670 -2.2743  0.3938
 7943SOL    HW235289   4.548   1.909   2.265  0.8409 -0.4244 -0.3840
 7944SOL     OW35290   1.077   1.201  10.336  0.1800 -0.9934  0.6143
 7944SOL    HW135291   1.128   1.281  10.345 -1.1839  0.1924 -2.2559
 7944SOL    HW235292   1.086   1.191  10.241  2.8099  2.7137  0.4664
 7945SOL     OW35293   3.916   1.239   3.916 -0.0817 -0.1491 -0.8151
 7945SOL    HW135294   3.935   1.326   3.951 -0.4819 -0.7981  1.0432
 7945SOL    HW235295   3.824   1.242   3.942 -0.7303 -1.1400 -2.9805
 7946SOL     OW35296   2.582   1.724   3.312 -0.4787  0.5818 -0.4486
 7946SOL    HW135297   2.563   1.657   3.378  1.1716  1.6967  1.1724
 7946SOL    HW235298   2.490   1.747   3.300 -0.3291  1.9327  1.0003
 7947SOL     OW35299   2.269   2.869   9.528  0.4315 -0.1538 -0.1238
 7947SOL    HW135300   2.179   2.896   9.543  0.1759  0.8736 -3.4508
 7947SOL    HW235301   2.264   2.815   9.449  0.1182 -0.5792  0.1856
 7948SOL     OW35302   1.280   3.317  10.319  0.0320  0.2863  0.0384
 7948SOL    HW135303   1.232   3.259  10.261  0.0877  1.6837 -1.4007
 7948SOL    HW235304   1.340   3.355  10.255 -1.5045  0.7570 -1.1182
 7949SOL     OW35305   3.986   2.983   6.182 -0.2389  0.6330  0.0251
 7949SOL    HW135306   3.956   3.073   6.165 -1.0943  0.1226 -1.1095
 7949SOL    HW235307   3.910   2.936   6.149 -1.7794  3.3461 -0.2767
 7950SOL     OW35308   4.301   4.153   5.903 -0.2649  0.5105 -0.8048
 7950SOL    HW135309   4.322   4.092   5.973 -1.6018  1.0509  0.0653
 7950SOL    HW235310   4.207   4.138   5.897  0.0272 -1.7989  0.2862
 7951SOL     OW35311   1.288   1.199   2.312  0.3068 -0.0883  0.1587
 7951SOL    HW135312   1.235   1.246   2.375 -1.3096 -1.0036 -0.5024
 7951SOL    HW235313   1.218   1.146   2.273 -0.8495  1.3009  0.3298
 7952SOL     OW35314   1.444   2.062   5.169 -0.0091  0.3006 -0.2756
 7952SOL    HW135315   1.412   2.079   5.080  0.0756 -2.1286 -0.7703
 7952SOL    HW235316   1.493   1.982   5.156  0.7444  0.9518 -1.4825
 7953SOL     OW35317   3.486   3.087   4.805  0.7352  0.1008  0.3429
 7953SOL    HW135318   3.531   3.156   4.855 -0.8838  1.4683 -0.1052
 7953SOL    HW235319   3.508   3.120   4.718 -0.9888  3.3221  1.1449
 7954SOL     OW35320   2.961   4.629   6.520 -0.6137 -0.4152  0.8338
 7954SOL    HW135321   2.987   4.548   6.563  1.1218 -0.4318 -0.2430
 7954SOL    HW235322   2.882   4.613   6.469 -0.4050 -0.8265  0.6398
 7955SOL     OW35323   3.500   3.273  11.257 -0.1176  0.7091 -0.0240
 7955SOL    HW135324   3.478   3.314  11.173 -0.6787 -1.4351 -0.9153
 7955SOL    HW235325   3.415   3.243  11.289  0.8180  0.2539  2.0177
 7956SOL     OW35326   3.018   1.293   4.806 -0.1569 -0.5150 -0.0868
 7956SOL    HW135327   3.066   1.211   4.819  1.6516  0.4458 -0.9205
 7956SOL    HW235328   2.978   1.320   4.889 -0.6577  1.4995 -0.9990
 7957SOL     OW35329   0.069   1.343   6.003  0.1345  0.2044  0.5258
 7957SOL    HW135330   4.708   1.379   6.029 -0.7145 -0.5705 -1.1384
 7957SOL    HW235331   0.075   1.384   5.916 -0.8821  2.6577  1.5936
 7958SOL     OW35332   2.007   4.111   0.704 -0.2824  0.7647 -0.5100
 7958SOL    HW135333   1.938   4.052   0.733 -2.2411  2.3664 -1.8677
 7958SOL    HW235334   1.990   4.101   0.610  0.1140  0.6937 -0.5753
 7959SOL     OW35335   1.685   1.809  10.288 -0.2137 -0.0570  0.6140
 7959SOL    HW135336   1.660   1.880  10.229  0.3541 -1.3137 -1.1055
 7959SOL    HW235337   1.670   1.735  10.229 -1.5561  1.1852 -0.5905
 7960SOL     OW35338   0.647   3.666   7.938 -0.5150 -0.4662 -0.4454
 7960SOL    HW135339   0.704   3.704   8.005  0.0148 -3.7875  0.9973
 7960SOL    HW235340   0.703   3.595   7.905 -0.4075  0.5221 -2.3340
 7961SOL     OW35341   3.476   3.931   7.088 -0.1559 -0.0750 -0.0530
 7961SOL    HW135342   3.464   4.012   7.139 -3.3932 -0.5994 -0.0013
 7961SOL    HW235343   3.569   3.918   7.069 -0.3120  0.0839 -0.9286
 7962SOL     OW35344   1.533   0.276   8.769 -0.0034  0.1215  0.0676
 7962SOL    HW135345   1.559   0.368   8.766  1.6323 -0.3865 -1.4249
 7962SOL    HW235346   1.615   0.245   8.807  0.2438 -0.0858 -0.6222
 7963SOL     OW35347   0.879   3.515   7.529  0.0231  0.5537  0.4566
 7963SOL    HW135348   0.864   3.422   7.549 -0.7010  0.7619  0.8587
 7963SOL    HW235349   0.905   3.502   7.438  0.2327  0.4418  0.5302
 7964SOL     OW35350   1.456   2.940   0.591 -0.0022  0.3278 -0.4873
 7964SOL    HW135351   1.371   2.924   0.632 -0.0715  0.7008 -0.4891
 7964SOL    HW235352   1.480   2.862   0.540 -0.5119  0.7565 -1.3771
 7965SOL     OW35353   3.636   0.815   4.488  0.3523 -0.0000 -0.1048
 7965SOL    HW135354   3.727   0.816   4.520  1.2336 -0.0428 -2.5688
 7965SOL    HW235355   3.630   0.896   4.438 -0.9210  0.7891  1.3467
 7966SOL     OW35356   1.848   0.983  17.118  0.4742 -0.2683  0.4159
 7966SOL    HW135357   1.798   0.987  17.036 -0.1106  1.9975  0.8886
 7966SOL    HW235358   1.774   0.999  17.176 -0.6326  3.2458 -2.0040
 7967SOL     OW35359   1.360   2.655   5.898 -0.4839 -0.3799  0.4000
 7967SOL    HW135360   1.434   2.616   5.944 -2.5708 -2.9816  1.5158
 7967SOL    HW235361   1.293   2.587   5.892 -2.2392  1.2994  0.9980
 7968SOL     OW35362   1.163   2.630   8.789  0.0118 -0.0165  0.2662
 7968SOL    HW135363   1.184   2.676   8.708 -0.3072  1.0929  0.8103
 7968SOL    HW235364   1.100   2.563   8.759 -0.0986  0.1064  0.2221
 7969SOL     OW35365   2.236   2.037   0.328 -0.2297 -0.2744  0.1772
 7969SOL    HW135366   2.162   2.025   0.268 -1.9199  0.1779  2.1839
 7969SOL    HW235367   2.251   2.131   0.315 -0.2358 -0.1247  1.2711
 7970SOL     OW35368   0.243   1.505   4.069  0.9261 -0.7068  0.1462
 7970SOL    HW135369   0.264   1.487   3.978  1.2803  1.6420 -0.2317
 7970SOL    HW235370   0.268   1.420   4.105  1.3544 -0.0372  1.4110
 7971SOL     OW35371   3.513   2.490  15.231 -0.7072  0.1765  0.2872
 7971SOL    HW135372   3.556   2.531  15.306  0.2893 -0.2364 -0.0621
 7971SOL    HW235373   3.426   2.510  15.266 -0.5173  0.3422  0.6584
 7972SOL     OW35374   1.981   2.986   5.566  0.2845 -0.5258  0.3359
 7972SOL    HW135375   1.933   2.905   5.584  1.2412 -1.0882  0.3602
 7972SOL    HW235376   2.009   2.978   5.474  1.2105 -0.4821  0.6157
 7973SOL     OW35377   0.443   2.871   3.509  0.5398 -0.5520 -0.4721
 7973SOL    HW135378   0.359   2.830   3.489 -0.0206  0.7686 -0.7629
 7973SOL    HW235379   0.440   2.951   3.456  1.0663 -1.0786 -1.2993
 7974SOL     OW35380   0.647   3.816   6.174 -0.1464 -0.0605  0.0609
 7974SOL    HW135381   0.657   3.761   6.251  0.2264 -1.5852 -1.0855
 7974SOL    HW235382   0.571   3.776   6.132 -0.1248  0.6804 -0.6988
 7975SOL     OW35383   3.482   3.686   8.479 -0.4548  0.1477 -0.3667
 7975SOL    HW135384   3.547   3.626   8.515  1.3951  4.7339  3.8824
 7975SOL    HW235385   3.500   3.671   8.386  0.4533 -2.2468  0.2064
 7976SOL     OW35386   4.223   3.279   2.496  0.1421  0.3817 -0.2334
 7976SOL    HW135387   4.200   3.269   2.403  0.1899  0.8989 -0.2973
 7976SOL    HW235388   4.318   3.294   2.497  0.3951 -1.1720 -0.3521
 7977SOL     OW35389   3.354   2.345   8.913 -0.0085 -0.0871 -0.3544
 7977SOL    HW135390   3.293   2.355   8.840 -2.5961  0.2769  1.8944
 7977SOL    HW235391   3.435   2.388   8.884 -0.1205 -0.2157 -0.8534
 7978SOL     OW35392   0.985   0.458   9.235  0.4297  0.1347  0.1932
 7978SOL    HW135393   1.035   0.539   9.236 -0.7707  0.9044 -1.4967
 7978SOL    HW235394   1.015   0.418   9.316  0.1417 -3.2185 -1.3298
 7979SOL     OW35395   2.654   3.819   2.831  0.1852  0.0052 -0.4156
 7979SOL    HW135396   2.665   3.903   2.787  3.0766 -0.5158 -0.6556
 7979SOL    HW235397   2.653   3.848   2.922  1.3687 -0.1765 -0.3449
 7980SOL     OW35398   3.425   0.648   8.508  1.0632  0.0824 -0.3870
 7980SOL    HW135399   3.385   0.727   8.472 -1.0027 -1.4024 -1.3956
 7980SOL    HW235400   3.465   0.617   8.427 -0.0448  0.8478 -1.2279
 7981SOL     OW35401   1.134   4.111   3.211  0.2643  0.3302  0.4648
 7981SOL    HW135402   1.063   4.090   3.150 -0.2333  0.4248  1.0153
 7981SOL    HW235403   1.150   4.029   3.256 -0.6783  0.0565  0.2991
 7982SOL     OW35404   0.238   1.779   4.080  0.6758 -0.2639  0.4633
 7982SOL    HW135405   0.274   1.804   3.994  1.1690 -0.8252  0.5092
 7982SOL    HW235406   0.255   1.685   4.074  2.9335  0.1725 -0.2899
 7983SOL     OW35407   0.204   0.921   2.469  0.6162 -0.1167  0.1692
 7983SOL    HW135408   0.159   0.922   2.385  0.6668  0.0632  0.1443
 7983SOL    HW235409   0.292   0.919   2.431  0.9708 -0.1231  0.9970
 7984SOL     OW35410   3.361   2.335   9.869  0.5341 -0.1221  0.4365
 7984SOL    HW135411   3.348   2.344   9.775  2.6804 -1.0014  0.0646
 7984SOL    HW235412   3.284   2.298   9.913 -0.4273  1.5991  0.1604
 7985SOL     OW35413   4.629   4.045   9.268 -0.2339  0.6115 -0.4461
 7985SOL    HW135414   4.631   4.132   9.228  0.8727  1.4005  1.3656
 7985SOL    HW235415   4.644   4.070   9.359 -0.3458 -0.0908 -0.2324
 7986SOL     OW35416   2.167   3.291   1.953 -0.2421  0.2539  0.1832
 7986SOL    HW135417   2.140   3.352   1.884  1.6526  2.0750  1.0401
 7986SOL    HW235418   2.099   3.225   1.941  0.8560 -1.2259  2.1752
 7987SOL     OW35419   3.569   1.172   3.163  0.1691 -0.0378 -0.0697
 7987SOL    HW135420   3.512   1.243   3.192  0.5645 -0.3810  1.5590
 7987SOL    HW235421   3.517   1.130   3.094  0.6391 -1.4634  0.4481
 7988SOL     OW35422   3.350   3.511   7.983  0.7959 -0.0215 -0.2540
 7988SOL    HW135423   3.337   3.422   7.949 -1.2745  0.8972 -1.8609
 7988SOL    HW235424   3.257   3.530   7.987  0.7646 -0.3883  0.7727
 7989SOL     OW35425   2.380   1.840   2.898  0.0359 -0.0308 -0.3907
 7989SOL    HW135426   2.443   1.789   2.949 -0.6308  0.6770  1.1547
 7989SOL    HW235427   2.318   1.770   2.882 -0.1843 -0.3484  1.7480
 7990SOL     OW35428   2.447   2.993  11.996  0.0669 -0.1502 -0.8742
 7990SOL    HW135429   2.508   2.959  12.061  0.2271  0.7100 -0.5742
 7990SOL    HW235430   2.410   2.915  11.955 -2.2141  1.2900 -1.5319
 7991SOL     OW35431   0.667   4.228   5.408  0.7665 -0.9211  0.3299
 7991SOL    HW135432   0.753   4.224   5.450  1.2882 -0.9624 -0.7676
 7991SOL    HW235433   0.615   4.261   5.482  0.7276 -0.8905  0.2889
 7992SOL     OW35434   1.960   0.519  14.168  0.0268  0.1475  0.0506
 7992SOL    HW135435   1.915   0.448  14.213 -0.7493  1.4069  1.2603
 7992SOL    HW235436   1.897   0.590  14.178  1.0804  1.1356 -0.2808
 7993SOL     OW35437   0.198   1.656  14.774 -0.2408 -0.0317  0.0851
 7993SOL    HW135438   0.283   1.612  14.770 -0.7566 -0.9878 -0.2782
 7993SOL    HW235439   0.173   1.652  14.681 -1.7173 -0.9965  0.5271
 7994SOL     OW35440   0.754   4.325   6.468  0.2762 -0.1103 -0.3004
 7994SOL    HW135441   0.796   4.257   6.522 -0.2906  0.2411  0.5860
 7994SOL    HW235442   0.725   4.266   6.399  1.6450 -0.3472 -0.6692
 7995SOL     OW35443   4.194   1.562   3.408 -0.1008 -0.3694  0.1445
 7995SOL    HW135444   4.118   1.600   3.365 -0.5727 -0.9771  0.4519
 7995SOL    HW235445   4.256   1.633   3.387 -1.8978  1.1748  0.1078
 7996SOL     OW35446   4.639   0.904   5.625  0.1718  0.1318 -0.1050
 7996SOL    HW135447   4.700   0.948   5.565 -0.3035 -1.4908 -1.7938
 7996SOL    HW235448   4.675   0.816   5.617 -1.9845 -0.7180 -0.5107
 7997SOL     OW35449   3.364   3.965   6.482  1.0132  0.5342  0.5973
 7997SOL    HW135450   3.270   3.957   6.465  1.3493 -1.8607 -0.0259
 7997SOL    HW235451   3.371   4.054   6.516  0.2797  0.6133  0.5478
 7998SOL     OW35452   3.062   1.749   5.202 -0.4462  0.1922  0.0363
 7998SOL    HW135453   3.024   1.836   5.211  0.6746  0.7292 -0.4683
 7998SOL    HW235454   3.018   1.711   5.126  0.3770  0.4685 -0.5758
 7999SOL     OW35455   3.995   0.782   4.758  0.6423 -0.1675  0.2422
 7999SOL    HW135456   4.020   0.705   4.808  1.6962 -1.0649 -1.6742
 7999SOL    HW235457   4.045   0.836   4.819 -0.8089  0.7136  0.6724
 8000SOL     OW35458   4.202   1.005   5.799 -0.2472 -0.4723 -1.0430
 8000SOL    HW135459   4.298   1.001   5.804 -0.2088  0.7499 -0.7348
 8000SOL    HW235460   4.168   1.063   5.868 -1.0762 -0.1818 -1.6973
 8001SOL     OW35461   4.694   0.398   4.472  1.0523 -0.1590  0.2766
 8001SOL    HW135462   0.061   0.425   4.458  1.3078  0.8495  3.9691
 8001SOL    HW235463   4.671   0.378   4.382  2.4216  0.3082 -0.1782
 8002SOL     OW35464   1.903   4.146   6.062 -0.0258  0.0845 -0.3424
 8002SOL    HW135465   1.880   4.095   5.984 -1.5138 -0.2585  0.3355
 8002SOL    HW235466   1.850   4.110   6.133 -0.7629  0.4294 -0.7269
 8003SOL     OW35467   1.860   1.574  15.613 -0.4986 -0.1223  0.0593
 8003SOL    HW135468   1.788   1.518  15.584  0.2520 -1.6800  1.1976
 8003SOL    HW235469   1.927   1.553  15.547  0.9696  0.1413  1.4585
 8004SOL     OW35470   2.001   3.403   4.027  0.3813 -0.4711 -0.1418
 8004SOL    HW135471   2.020   3.326   3.973  0.3572 -0.8629  0.4060
 8004SOL    HW235472   1.967   3.369   4.109  0.2231 -0.0853 -0.0466
 8005SOL     OW35473   1.127   0.714   9.275  0.1133 -0.2007 -0.2607
 8005SOL    HW135474   1.163   0.702   9.363  0.2672 -3.3251 -0.7623
 8005SOL    HW235475   1.132   0.809   9.284  1.2612 -0.2327 -0.5787
 8006SOL     OW35476   1.957   1.222   5.924 -0.3693 -0.1227  0.0013
 8006SOL    HW135477   1.944   1.128   5.910  1.3276 -0.4638  0.7674
 8006SOL    HW235478   2.052   1.227   5.936 -0.1546  0.8442 -2.1331
 8007SOL     OW35479   1.116   0.385  15.733  0.3047  0.3972  0.6230
 8007SOL    HW135480   1.133   0.295  15.762  1.4128 -0.3494 -2.2457
 8007SOL    HW235481   1.161   0.392  15.648 -0.0955  0.2818  0.4003
 8008SOL     OW35482   1.518   0.127   9.455  0.0071 -0.3523  0.5460
 8008SOL    HW135483   1.570   0.076   9.517  0.9867  0.1826  0.1594
 8008SOL    HW235484   1.589   0.183   9.424 -0.1240 -0.9110 -0.7687
 8009SOL     OW35485   1.612   3.352   4.483  0.1974 -0.1175 -0.2211
 8009SOL    HW135486   1.528   3.335   4.526 -0.3137 -0.8664 -1.4935
 8009SOL    HW235487   1.654   3.266   4.479  0.4471  0.1680 -3.6899
 8010SOL     OW35488   1.140   3.624  13.294 -0.2841 -0.1305 -0.2208
 8010SOL    HW135489   1.087   3.697  13.324  0.1621 -0.1159  0.5458
 8010SOL    HW235490   1.104   3.635  13.206  0.0043 -1.5091 -0.5170
 8011SOL     OW35491   0.748   3.008   2.870 -0.3223  0.1114  0.3127
 8011SOL    HW135492   0.683   3.078   2.872 -1.1449 -0.6703  0.5109
 8011SOL    HW235493   0.750   2.976   2.960 -1.3073  0.1474  0.3497
 8012SOL     OW35494   4.032   1.839   3.089  0.5617  0.6459 -0.0298
 8012SOL    HW135495   4.007   1.929   3.068 -1.8698 -0.2618 -1.0320
 8012SOL    HW235496   4.100   1.826   3.023  0.2352 -3.1835  0.3432
 8013SOL     OW35497   1.770   1.461   7.749  0.4784  0.2922  0.1018
 8013SOL    HW135498   1.807   1.387   7.796 -0.4151 -0.5658 -0.5352
 8013SOL    HW235499   1.720   1.412   7.684  0.2816  2.0490 -1.0843
 8014SOL     OW35500   0.869   1.876  13.811  0.0831  0.0614 -0.2794
 8014SOL    HW135501   0.833   1.924  13.885 -1.0855  1.0569 -1.4794
 8014SOL    HW235502   0.944   1.931  13.789  2.8622 -2.5514  2.7877
 8015SOL     OW35503   0.027   4.201   7.495 -0.1697  0.1869 -0.0092
 8015SOL    HW135504   0.112   4.220   7.535  0.7294 -0.0707 -1.7808
 8015SOL    HW235505   4.707   4.286   7.492 -1.7096 -0.6414 -0.8380
 8016SOL     OW35506   0.316   2.969   4.957  0.8196  0.0970  0.1266
 8016SOL    HW135507   0.352   2.934   4.875  1.1892 -0.5960  0.5852
 8016SOL    HW235508   0.293   3.058   4.930  0.2390 -0.6867 -1.9998
 8017SOL     OW35509   4.570   2.858  16.411  0.3337  0.4938 -0.8153
 8017SOL    HW135510   4.626   2.786  16.383 -1.2934 -1.0701 -0.0148
 8017SOL    HW235511   4.593   2.910  16.334  1.0337 -0.4141 -1.2159
 8018SOL     OW35512   3.672   3.266  15.828 -0.3825  0.0881  0.5518
 8018SOL    HW135513   3.653   3.172  15.820  1.6951 -0.3198  0.3641
 8018SOL    HW235514   3.590   3.298  15.790 -0.4028  1.1538  1.5042
 8019SOL     OW35515   2.881   2.322   0.985  0.2635 -0.1948  0.0764
 8019SOL    HW135516   2.919   2.407   1.005 -0.0940 -0.3523  1.4459
 8019SOL    HW235517   2.817   2.319   1.057  0.2126 -0.2396  0.0297
 8020SOL     OW35518   4.070   3.612   7.415 -0.2228 -0.4608 -0.0931
 8020SOL    HW135519   3.985   3.578   7.443 -0.5466  0.1518 -0.3469
 8020SOL    HW235520   4.123   3.605   7.494  0.5581  0.6814 -0.5216
 8021SOL     OW35521   4.207   4.570   2.161 -0.8797 -0.0717 -0.6518
 8021SOL    HW135522   4.250   4.597   2.242 -1.6216 -0.3964 -0.1484
 8021SOL    HW235523   4.259   4.495   2.133  0.0566  1.0929 -2.0403
 8022SOL     OW35524   1.820   2.607  10.001 -0.2002  0.4033 -0.9740
 8022SOL    HW135525   1.806   2.519  10.035 -2.3689  1.7894  1.7127
 8022SOL    HW235526   1.850   2.585   9.913  3.3799  0.2803  0.2839
 8023SOL     OW35527   0.751   1.772   7.062 -0.3073  0.4922 -0.3105
 8023SOL    HW135528   0.736   1.697   7.005 -0.5412  0.7097 -0.5373
 8023SOL    HW235529   0.815   1.733   7.122  1.2027  2.5060 -0.6100
 8024SOL     OW35530   0.165   1.798  17.042  0.1162 -0.5786 -0.0623
 8024SOL    HW135531   0.155   1.719  17.096 -3.4056  0.4422  0.8219
 8024SOL    HW235532   0.215   1.857  17.099 -0.6577  0.9056 -0.9242
 8025SOL     OW35533   1.881   2.244  15.361 -0.0401 -0.5623  0.3927
 8025SOL    HW135534   1.926   2.160  15.351  0.8684 -0.3074  2.2338
 8025SOL    HW235535   1.793   2.209  15.368 -1.0059  1.8825  0.3655
 8026SOL     OW35536   4.437   3.338  16.284 -0.8192  0.4502 -0.6303
 8026SOL    HW135537   4.373   3.287  16.333  0.1871  0.8835  1.1553
 8026SOL    HW235538   4.384   3.416  16.266 -0.9660  0.2616 -1.0107
 8027SOL     OW35539   2.330   2.358   0.982 -0.1728  0.6296  0.2509
 8027SOL    HW135540   2.336   2.265   0.961  1.4700  0.9390 -0.6282
 8027SOL    HW235541   2.239   2.375   0.959  0.5072  2.1118 -1.3195
 8028SOL     OW35542   2.464   0.508   7.300 -0.7876 -0.0769 -0.2862
 8028SOL    HW135543   2.474   0.524   7.206  0.1926  1.4225  0.0832
 8028SOL    HW235544   2.370   0.508   7.318 -0.7413  0.5445 -0.0409
 8029SOL     OW35545   1.486   3.844   2.971 -0.1384 -0.3235  0.5712
 8029SOL    HW135546   1.424   3.793   3.023 -0.8788 -1.1161 -1.0960
 8029SOL    HW235547   1.540   3.775   2.934 -0.8731  0.9461 -2.9275
 8030SOL     OW35548   4.410   3.754  12.792  0.3607  0.5915 -0.1772
 8030SOL    HW135549   4.395   3.672  12.837 -0.0062  0.4164 -0.6161
 8030SOL    HW235550   4.434   3.722  12.705 -1.2778  2.3399 -1.2728
 8031SOL     OW35551   1.255   2.995  17.377  0.2158 -0.4085 -0.4471
 8031SOL    HW135552   1.326   2.959  17.431 -0.4738  0.0415  0.7492
 8031SOL    HW235553   1.264   2.952  17.292 -1.7857 -1.1386 -0.2790
 8032SOL     OW35554   4.244   4.065  11.519 -0.4753  0.0768  0.0607
 8032SOL    HW135555   4.159   4.105  11.500 -0.8059 -0.2237  0.9395
 8032SOL    HW235556   4.217   3.973  11.520 -0.3965  0.0630  0.7825
 8033SOL     OW35557   0.687   0.907   5.270  0.0392  0.0745 -0.6800
 8033SOL    HW135558   0.616   0.842   5.276 -1.1222  1.4888  0.8524
 8033SOL    HW235559   0.643   0.988   5.295 -0.8150 -0.6033  0.0173
 8034SOL     OW35560   1.223   0.595   1.672  0.8449  0.2118  0.2304
 8034SOL    HW135561   1.245   0.560   1.585  2.2710 -0.1873  0.7460
 8034SOL    HW235562   1.308   0.631   1.698  1.3165 -0.5834 -0.1903
 8035SOL     OW35563   1.757   0.266   9.425  0.1571  0.0811 -0.3309
 8035SOL    HW135564   1.775   0.267   9.519 -0.3867 -0.6879 -0.2234
 8035SOL    HW235565   1.843   0.281   9.386  0.0680 -2.4239 -1.4482
 8036SOL     OW35566   4.406   0.101   9.600 -0.4007 -0.3665  0.4652
 8036SOL    HW135567   4.376   0.031   9.542 -1.7554  1.4464 -1.0163
 8036SOL    HW235568   4.485   0.116   9.548 -1.1619  1.9969 -0.0094
 8037SOL     OW35569   3.665   3.778   7.311  0.3152  0.3294 -0.5534
 8037SOL    HW135570   3.592   3.715   7.306 -1.4557  2.2900  0.7895
 8037SOL    HW235571   3.737   3.721   7.338  0.0203 -1.2407 -3.0965
 8038SOL     OW35572   2.022   2.017   5.681 -0.2013 -0.1559  0.0560
 8038SOL    HW135573   1.980   2.005   5.766 -0.0531  1.3248  0.3426
 8038SOL    HW235574   2.111   2.043   5.707 -0.1245  0.3497 -0.7255
 8039SOL     OW35575   2.645   2.849   6.857  0.0125 -0.3353  0.3751
 8039SOL    HW135576   2.586   2.886   6.791  1.5289  0.3987 -0.5930
 8039SOL    HW235577   2.631   2.760   6.825 -0.8268 -0.8943  2.2933
 8040SOL     OW35578   3.592   1.022   4.328 -0.2652 -0.0003 -0.1150
 8040SOL    HW135579   3.542   1.100   4.303 -0.7340 -0.6598 -1.2107
 8040SOL    HW235580   3.644   1.004   4.250  2.1563  0.3847  1.3832
 8041SOL     OW35581   4.352   3.349  13.907 -0.3918 -0.0371  0.7612
 8041SOL    HW135582   4.391   3.349  13.994 -0.7833  0.1582  0.9385
 8041SOL    HW235583   4.319   3.439  13.912 -0.1837  0.2246 -2.2971
 8042SOL     OW35584   3.784   2.472   7.514  0.0186  0.5761 -0.1942
 8042SOL    HW135585   3.755   2.562   7.528 -1.7749 -0.1669  0.9424
 8042SOL    HW235586   3.853   2.473   7.579  1.3898 -1.7113 -1.6305
 8043SOL     OW35587   4.712   3.391   7.352 -0.0364  0.4954  0.3117
 8043SOL    HW135588   4.659   3.464   7.322  3.4141  2.1457 -1.7034
 8043SOL    HW235589   4.717   3.412   7.445  3.7452  1.2944 -0.0697
 8044SOL     OW35590   3.652   0.676  13.062  0.7532 -0.2475  0.0740
 8044SOL    HW135591   3.594   0.688  12.987  2.5219 -0.1724 -1.2821
 8044SOL    HW235592   3.741   0.694  13.031  1.1189 -0.0526  1.2270
 8045SOL     OW35593   4.247   0.969  13.123 -0.4519  0.3355  0.3717
 8045SOL    HW135594   4.316   0.960  13.057 -1.8442 -0.2901 -0.9867
 8045SOL    HW235595   4.212   1.057  13.108 -1.8264 -1.0118 -4.1713
 8046SOL     OW35596   2.244   2.697   3.576  0.3603  0.3248  0.3856
 8046SOL    HW135597   2.291   2.738   3.504 -1.6079 -1.8898 -2.1556
 8046SOL    HW235598   2.272   2.752   3.649 -0.2212  0.1748  0.7291
 8047SOL     OW35599   2.870   4.323  11.804 -0.3652  0.0653  0.0615
 8047SOL    HW135600   2.944   4.382  11.816  0.3609 -0.6347 -0.9920
 8047SOL    HW235601   2.874   4.300  11.711  1.4359 -0.5051  0.2803
 8048SOL     OW35602   0.333   1.719   9.073  0.0342 -0.6959  0.6626
 8048SOL    HW135603   0.279   1.641   9.068 -0.9334  0.0321 -0.1380
 8048SOL    HW235604   0.272   1.793   9.079 -0.3616 -0.9058 -0.6418
 8049SOL     OW35605   2.596   2.908   7.118  0.2078 -0.4766  0.4765
 8049SOL    HW135606   2.600   2.890   7.024 -1.5887 -2.6206  0.7955
 8049SOL    HW235607   2.639   2.830   7.153 -0.0557 -1.3619 -1.1724
 8050SOL     OW35608   0.995   4.038   4.079 -0.0243 -0.1804  0.0471
 8050SOL    HW135609   1.055   4.112   4.089  1.8936 -1.4029 -2.4148
 8050SOL    HW235610   0.912   4.083   4.091 -0.4418 -0.4529 -1.7020
 8051SOL     OW35611   3.740   3.095   3.501 -0.0004  0.5779 -0.4027
 8051SOL    HW135612   3.695   3.108   3.417  1.6857  3.0636 -0.9085
 8051SOL    HW235613   3.814   3.153   3.484  0.8299 -1.0788 -2.5711
 8052SOL     OW35614   0.066   1.400   8.412 -0.4667  0.6370 -0.1430
 8052SOL    HW135615   0.008   1.326   8.399  0.3624  0.2278 -1.5261
 8052SOL    HW235616   0.093   1.431   8.325  0.0643  0.6920  0.0379
 8053SOL     OW35617   1.460   1.664   5.288  0.2848 -0.1625 -0.2737
 8053SOL    HW135618   1.392   1.693   5.349 -2.0822 -0.7022 -2.6809
 8053SOL    HW235619   1.538   1.702   5.328  0.6310 -0.2237 -0.8884
 8054SOL     OW35620   2.637   0.032   2.848  0.1161  0.0944  0.3086
 8054SOL    HW135621   2.547   0.004   2.832 -0.4928  1.5351  1.1426
 8054SOL    HW235622   2.671   4.673   2.882 -0.5794 -1.2151 -2.2820
 8055SOL     OW35623   4.475   3.458   6.552 -0.0293  0.1617 -0.2002
 8055SOL    HW135624   4.443   3.489   6.468 -0.2449 -0.4893 -0.3555
 8055SOL    HW235625   4.406   3.396   6.574 -0.3391  0.5336 -0.1259
 8056SOL     OW35626   1.388   1.399  15.654  0.1365  0.4678 -0.4823
 8056SOL    HW135627   1.407   1.446  15.735  0.7298 -0.8341  0.1366
 8056SOL    HW235628   1.343   1.461  15.597 -0.8665 -0.2657 -0.4876
 8057SOL     OW35629   3.051   4.187   6.926  0.0538  0.3530  0.1697
 8057SOL    HW135630   3.101   4.267   6.943 -0.8273  0.6610  1.3682
 8057SOL    HW235631   3.091   4.137   6.855 -0.4285  0.6978 -0.3346
 8058SOL     OW35632   4.316   1.394   2.328 -0.0284  0.1486  0.0259
 8058SOL    HW135633   4.272   1.309   2.326 -1.3039  0.8095 -0.2863
 8058SOL    HW235634   4.250   1.448   2.372 -1.4105 -2.0384  0.6586
 8059SOL     OW35635   1.248   1.994   1.808 -0.2612 -0.1408 -0.3214
 8059SOL    HW135636   1.215   1.908   1.830 -3.0234  1.4808  1.8474
 8059SOL    HW235637   1.176   2.042   1.848 -0.9695 -3.1576  1.9826
 8060SOL     OW35638   0.404   3.699  11.230 -0.2791 -0.6466 -0.3818
 8060SOL    HW135639   0.461   3.628  11.259  0.0775 -0.2610 -0.1354
 8060SOL    HW235640   0.370   3.662  11.149 -1.6707 -0.3035  0.0516
 8061SOL     OW35641   0.983   1.921  12.887  0.0699 -0.3013  0.0608
 8061SOL    HW135642   0.910   1.939  12.829  1.0521 -0.8463 -1.3513
 8061SOL    HW235643   1.012   1.836  12.853  1.0423  0.3403 -0.7257
 8062SOL     OW35644   0.703   2.056   5.696 -0.1355 -0.2404 -0.0293
 8062SOL    HW135645   0.767   2.026   5.632  1.2077 -0.3355  1.3713
 8062SOL    HW235646   0.756   2.092   5.766  2.1074  1.9954 -2.8791
 8063SOL     OW35647   2.183   1.013   6.161 -0.0152 -0.6244  0.0599
 8063SOL    HW135648   2.244   1.005   6.234  0.2789  0.0921 -0.1109
 8063SOL    HW235649   2.128   1.082   6.198  0.1089 -0.6468  0.2886
 8064SOL     OW35650   1.453   4.723   5.781 -0.5481  0.0174  0.2527
 8064SOL    HW135651   1.478   4.686   5.866  1.3818  0.8297  0.0336
 8064SOL    HW235652   1.361   4.696   5.782 -1.0550  1.6611 -1.6895
 8065SOL     OW35653   0.946   0.213  11.267  0.3465 -0.3408 -0.6191
 8065SOL    HW135654   0.855   0.211  11.295  0.8534  0.9040  1.1930
 8065SOL    HW235655   0.983   0.127  11.287  1.0181  0.4869  1.7699
 8066SOL     OW35656   2.957   2.528   6.267 -0.5707 -0.4100 -0.3025
 8066SOL    HW135657   3.043   2.512   6.229  0.1383  1.8842  0.3249
 8066SOL    HW235658   2.915   2.442   6.271 -0.8085 -0.2832 -0.0649
 8067SOL     OW35659   2.123   1.851  11.213 -0.1526  0.2592  0.4002
 8067SOL    HW135660   2.037   1.863  11.253  0.3507  0.1424  1.5115
 8067SOL    HW235661   2.181   1.900  11.271  0.4178 -0.5421  0.5113
 8068SOL     OW35662   2.202   2.094   3.642 -0.1960 -0.3351 -0.2528
 8068SOL    HW135663   2.297   2.102   3.656 -0.4676  1.7811  0.3513
 8068SOL    HW235664   2.167   2.143   3.716 -1.0647 -0.3204 -0.6731
 8069SOL     OW35665   4.530   3.400   5.725  0.2682  0.2937  0.2812
 8069SOL    HW135666   4.625   3.395   5.719 -0.0262 -2.9304 -1.8063
 8069SOL    HW235667   4.502   3.369   5.639 -1.4694 -2.8406  1.9869
 8070SOL     OW35668   1.874   0.057   6.242 -0.5046 -0.1002 -0.1114
 8070SOL    HW135669   1.962   0.044   6.279 -0.5994 -0.7028 -0.0945
 8070SOL    HW235670   1.859   0.151   6.252 -1.9603 -0.3453  0.0707
 8071SOL     OW35671   4.520   3.847   8.132 -0.4549  0.2156  0.2438
 8071SOL    HW135672   4.430   3.879   8.133 -0.1996  0.9310  0.3060
 8071SOL    HW235673   4.526   3.804   8.217  2.1989 -0.2873 -0.1902
 8072SOL     OW35674   1.385   4.283   2.032 -0.5658 -0.6323  0.2542
 8072SOL    HW135675   1.329   4.353   1.999  0.9478  0.6861  0.4720
 8072SOL    HW235676   1.460   4.341   2.043  0.4013 -1.9052  0.3910
 8073SOL     OW35677   1.953   3.720   0.829  0.4107 -0.0198  1.2287
 8073SOL    HW135678   1.977   3.674   0.748  1.3186 -0.0215  1.5022
 8073SOL    HW235679   1.914   3.800   0.794  0.3882 -0.5234  0.1007
 8074SOL     OW35680   0.308   2.884   2.880 -0.5895  0.1121  0.8298
 8074SOL    HW135681   0.270   2.950   2.823  2.5620  0.6076 -0.6586
 8074SOL    HW235682   0.300   2.926   2.966 -1.3920  0.6756  0.4851
 8075SOL     OW35683   1.469   0.355   9.737 -0.3021 -0.2691  0.5012
 8075SOL    HW135684   1.515   0.271   9.738 -0.0118 -0.0937  2.2048
 8075SOL    HW235685   1.455   0.378   9.829  0.2058 -1.3652  0.8537
 8076SOL     OW35686   2.054   3.806   4.752 -0.2000  0.7415 -0.0169
 8076SOL    HW135687   2.120   3.800   4.820  0.3987 -2.1145 -0.8200
 8076SOL    HW235688   1.986   3.838   4.811  0.5250  0.2113  1.0978
 8077SOL     OW35689   2.145   2.849  16.708 -0.2957 -0.2146 -0.5561
 8077SOL    HW135690   2.084   2.845  16.635 -2.8102 -1.4197  1.6052
 8077SOL    HW235691   2.218   2.897  16.669  0.1121 -0.2637  0.1299
 8078SOL     OW35692   1.111   2.836   3.591 -0.1044 -0.0440 -0.0611
 8078SOL    HW135693   1.082   2.884   3.668  2.3767  1.5659 -0.1364
 8078SOL    HW235694   1.126   2.899   3.520 -2.1481 -1.6288 -1.9062
 8079SOL     OW35695   1.423   4.132   4.172 -0.1286  0.3602  0.1391
 8079SOL    HW135696   1.469   4.216   4.169 -2.0418  1.4036 -0.0093
 8079SOL    HW235697   1.491   4.075   4.135  0.3170  1.6335 -1.0112
 8080SOL     OW35698   1.322   4.121   2.471  0.4391  0.0890  0.8504
 8080SOL    HW135699   1.240   4.168   2.454  1.3352  1.3261 -0.0775
 8080SOL    HW235700   1.296   4.059   2.539 -0.7010 -2.7511 -2.1581
 8081SOL     OW35701   1.660   2.036   4.066  0.6097 -0.1557 -0.1041
 8081SOL    HW135702   1.685   2.057   3.976  0.0323  0.4074 -0.1227
 8081SOL    HW235703   1.737   1.980   4.075 -0.7134 -2.2452 -1.7673
 8082SOL     OW35704   3.987   2.368  10.609 -0.4527  0.1180 -0.8412
 8082SOL    HW135705   4.005   2.353  10.516 -0.9955 -0.8586 -0.7949
 8082SOL    HW235706   4.074   2.359  10.649 -0.5975 -1.3888 -0.8342
 8083SOL     OW35707   1.195   0.702   8.220  0.3483  0.2201  0.3121
 8083SOL    HW135708   1.107   0.700   8.257 -0.2588 -1.1486 -1.2541
 8083SOL    HW235709   1.238   0.770   8.273  3.0573 -0.0470 -1.5160
 8084SOL     OW35710   2.125   2.735   4.464  0.0222 -0.7163  0.1322
 8084SOL    HW135711   2.218   2.723   4.481 -0.1409 -0.8895  0.8871
 8084SOL    HW235712   2.111   2.750   4.370 -1.7065 -1.3332  0.2967
 8085SOL     OW35713   4.426   0.247   8.713 -0.0887  0.3563 -0.6869
 8085SOL    HW135714   4.462   0.206   8.792 -1.0334  0.3599 -0.2533
 8085SOL    HW235715   4.470   0.191   8.650 -0.8218  0.4832 -1.3026
 8086SOL     OW35716   3.666   2.114  10.605 -0.4566 -0.3254 -0.0079
 8086SOL    HW135717   3.593   2.174  10.586  0.1085  1.0167  2.0094
 8086SOL    HW235718   3.689   2.085  10.517 -2.1058  0.0002 -0.5593
 8087SOL     OW35719   2.990   1.743   7.381  0.2221 -0.1320 -0.4817
 8087SOL    HW135720   3.027   1.715   7.465 -0.7894  2.2604  0.7572
 8087SOL    HW235721   3.070   1.785   7.349  0.2860 -0.5608 -0.8799
 8088SOL     OW35722   2.365   4.282  17.239  0.5578  0.4502 -0.0739
 8088SOL    HW135723   2.454   4.246  17.236  0.8207  0.9660  1.5154
 8088SOL    HW235724   2.319   4.225  17.177  2.3826  0.8297 -1.7715
 8089SOL     OW35725   3.381   4.550   3.214  0.2004 -0.3380  0.2086
 8089SOL    HW135726   3.466   4.557   3.170 -0.1974  0.0354 -0.4860
 8089SOL    HW235727   3.417   4.518   3.297  1.4323 -0.2689 -0.2975
 8090SOL     OW35728   0.368   4.063  10.444 -0.2354  0.2999 -0.2502
 8090SOL    HW135729   0.340   3.978  10.478 -0.4091 -0.3473 -2.0187
 8090SOL    HW235730   0.417   4.101  10.516  0.5255 -0.4924 -0.3500
 8091SOL     OW35731   3.005   2.578   0.986 -0.1293 -0.0195 -0.2219
 8091SOL    HW135732   3.086   2.528   0.994 -0.7653 -1.3397 -2.1181
 8091SOL    HW235733   3.030   2.664   0.951 -1.5663  1.1081  1.5483
 8092SOL     OW35734   0.791   3.029  13.358  0.0996  0.4130  0.0838
 8092SOL    HW135735   0.710   2.980  13.343  1.6489 -1.5174 -1.9740
 8092SOL    HW235736   0.755   3.106  13.402 -0.7934 -0.8863  1.6021
 8093SOL     OW35737   0.612   2.511  16.516  0.0148  0.3286  0.0029
 8093SOL    HW135738   0.531   2.526  16.467  0.6065  1.0253 -0.7659
 8093SOL    HW235739   0.685   2.544  16.464  1.2932  1.4606  2.5385
 8094SOL     OW35740   2.874   1.042   8.230 -0.0507 -0.2500  1.0556
 8094SOL    HW135741   2.920   0.979   8.173  1.8891  0.7961  1.4476
 8094SOL    HW235742   2.951   1.095   8.251  0.5479 -1.3610  1.6792
 8095SOL     OW35743   2.995   2.938  17.500  0.5118  0.0680 -0.4182
 8095SOL    HW135744   3.041   2.899  17.427  2.6861  1.5583  0.1548
 8095SOL    HW235745   2.906   2.909  17.479  0.9776  1.4099 -4.1439
 8096SOL     OW35746   3.729   1.949  13.712 -0.0818 -0.3572  0.4136
 8096SOL    HW135747   3.812   1.971  13.753  0.2355  0.7023 -0.7998
 8096SOL    HW235748   3.673   1.946  13.790 -1.2037  2.6220 -0.2815
 8097SOL     OW35749   2.222   2.286  15.029  0.1256  0.1702  0.2046
 8097SOL    HW135750   2.269   2.339  14.965 -0.0636  1.8863  1.4720
 8097SOL    HW235751   2.261   2.308  15.114  0.6603  2.3825 -0.6120
 8098SOL     OW35752   1.018   3.042   1.403  0.3720 -0.1418 -0.1803
 8098SOL    HW135753   1.067   3.045   1.485 -0.1682 -0.4815  0.1520
 8098SOL    HW235754   1.079   3.094   1.350  0.1914  0.5743  0.3175
 8099SOL     OW35755   4.048   4.182   3.351 -0.0797 -0.7154 -0.4315
 8099SOL    HW135756   4.127   4.191   3.404  0.6143 -2.3902 -1.1665
 8099SOL    HW235757   4.023   4.274   3.344 -1.9841 -1.3851 -2.4115
 8100SOL     OW35758   4.160   3.967   4.450 -0.6039  0.0468  0.3215
 8100SOL    HW135759   4.225   3.962   4.380  0.1921  0.6805  1.0297
 8100SOL    HW235760   4.206   3.938   4.529 -0.5966  1.8710  0.9704
 8101SOL     OW35761   3.407   0.916   7.937  0.0121  0.3122  0.3492
 8101SOL    HW135762   3.446   0.838   7.977 -2.1044  0.6272  3.0392
 8101SOL    HW235763   3.415   0.976   8.011  0.6091 -0.2134  0.7131
 8102SOL     OW35764   3.473   3.530   2.069 -0.2799  0.2421 -0.4653
 8102SOL    HW135765   3.402   3.487   2.116  0.8063 -0.2680  0.7028
 8102SOL    HW235766   3.484   3.609   2.122 -1.0885 -0.4802  0.7745
 8103SOL     OW35767   2.315   4.182   4.951  0.0254  0.1771  0.5020
 8103SOL    HW135768   2.313   4.277   4.938 -0.0244  0.1478  0.2889
 8103SOL    HW235769   2.329   4.175   5.046 -1.7501 -0.8771  0.6993
 8104SOL     OW35770   4.007   3.643   0.366  0.0366 -0.1439  0.4887
 8104SOL    HW135771   3.992   3.655   0.460 -1.5341  1.6123  0.0038
 8104SOL    HW235772   4.025   3.731   0.335  0.0052 -1.4225 -3.1046
 8105SOL     OW35773   4.230   2.143  12.103  0.1795 -0.2025  0.2580
 8105SOL    HW135774   4.164   2.211  12.115  0.1496 -0.1194 -0.3852
 8105SOL    HW235775   4.265   2.165  12.017  2.3103 -0.1393  1.1381
 8106SOL     OW35776   0.100   3.687  10.806 -0.7061  0.4285  0.5032
 8106SOL    HW135777   0.038   3.675  10.879  0.9764  1.0968  2.0250
 8106SOL    HW235778   0.045   3.705  10.729  1.6752  1.6096 -0.9064
 8107SOL     OW35779   4.035   3.655  15.035  0.2658 -0.9151 -0.3859
 8107SOL    HW135780   4.128   3.663  15.053 -0.2400 -0.9178  2.2771
 8107SOL    HW235781   4.033   3.715  14.962  0.6844 -0.2017  0.1913
 8108SOL     OW35782   4.163   2.243  10.946  0.1496 -1.0453  0.1410
 8108SOL    HW135783   4.077   2.208  10.970 -0.7243  0.6124 -0.5282
 8108SOL    HW235784   4.178   2.196  10.864  0.1736 -0.9721  0.1035
 8109SOL     OW35785   2.627   0.521   6.721 -0.4347  0.0669 -0.2155
 8109SOL    HW135786   2.579   0.602   6.703 -2.9014 -1.2529  0.4164
 8109SOL    HW235787   2.688   0.536   6.793 -1.2760 -0.9324  0.7026
 8110SOL     OW35788   2.981   3.117   1.665  0.1931 -0.0063  0.6068
 8110SOL    HW135789   2.936   3.067   1.732 -1.6434  1.2955  0.3582
 8110SOL    HW235790   2.910   3.177   1.641 -0.9023 -0.5413  2.5661
 8111SOL     OW35791   4.691   1.055   7.160  0.2085 -0.2959  0.3143
 8111SOL    HW135792   4.711   1.140   7.121 -2.6006  0.8926  1.4983
 8111SOL    HW235793   0.048   1.009   7.138  0.5516  1.0503 -1.2414
 8112SOL     OW35794   3.228   4.326  17.480  0.1944  0.0342 -0.6388
 8112SOL    HW135795   3.165   4.256  17.465 -2.6304  2.1242  1.4098
 8112SOL    HW235796   3.242   4.318  17.575  1.0674  1.6228 -0.6290
 8113SOL     OW35797   4.199   2.861   7.430  0.1748 -0.5511 -0.0316
 8113SOL    HW135798   4.208   2.952   7.401 -1.2361 -0.6550 -0.8099
 8113SOL    HW235799   4.160   2.827   7.349  0.5505  1.0500 -0.8879
 8114SOL     OW35800   1.571   4.016   4.951  0.0470 -0.4335 -0.8204
 8114SOL    HW135801   1.542   3.975   4.870 -0.2727 -2.2887  0.2223
 8114SOL    HW235802   1.527   4.100   4.940  1.2488  0.2439 -0.4513
 8115SOL     OW35803   0.580   3.831   5.856 -0.1203 -0.6902  0.3220
 8115SOL    HW135804   0.582   3.743   5.818 -3.1436  0.6727 -2.9580
 8115SOL    HW235805   0.502   3.871   5.818  1.4353 -0.0054 -2.1836
 8116SOL     OW35806   3.652   0.621  16.815  0.1807 -0.4733 -0.1317
 8116SOL    HW135807   3.572   0.570  16.826 -0.8282  0.8188 -1.4805
 8116SOL    HW235808   3.713   0.579  16.876  1.0710  1.0693  0.0555
 8117SOL     OW35809   0.316   4.696   5.924  0.2001  0.4413 -0.2670
 8117SOL    HW135810   0.371   4.641   5.980 -0.9164 -1.5743 -1.1634
 8117SOL    HW235811   0.290   0.038   5.989  0.5034  0.8816 -0.5905
 8118SOL     OW35812   4.383   3.662   2.802 -0.1960 -0.1703  0.6153
 8118SOL    HW135813   4.435   3.602   2.855 -0.9435 -1.3744 -0.0248
 8118SOL    HW235814   4.390   3.745   2.850 -1.5484  0.5272 -0.3890
 8119SOL     OW35815   4.575   4.653  10.112  0.1445 -0.0959 -0.3449
 8119SOL    HW135816   4.663   4.680  10.084 -0.5762  1.7602 -0.7871
 8119SOL    HW235817   4.560   4.589  10.042 -0.4996  0.4136 -0.6642
 8120SOL     OW35818   4.570   2.208   4.997  0.0977  0.7989  0.0521
 8120SOL    HW135819   4.661   2.181   5.011  0.0627  0.4523 -0.3867
 8120SOL    HW235820   4.567   2.271   5.070  0.8716  1.5794 -0.5934
 8121SOL     OW35821   2.965   2.201  15.407  0.0371  0.1127  0.1113
 8121SOL    HW135822   2.995   2.111  15.403  3.0415  1.1546 -1.5801
 8121SOL    HW235823   3.040   2.246  15.446  0.6640 -0.5385 -0.3408
 8122SOL     OW35824   2.261   1.546  11.782  0.5010  0.1615  0.0143
 8122SOL    HW135825   2.335   1.583  11.734  1.4628 -0.1154  1.2904
 8122SOL    HW235826   2.221   1.485  11.720  0.1577  0.7269 -0.3267
 8123SOL     OW35827   3.252   0.692   2.149 -0.0205  0.0216  0.1812
 8123SOL    HW135828   3.166   0.692   2.108 -0.4907  5.4960  1.1980
 8123SOL    HW235829   3.251   0.786   2.169 -1.2238  0.0925 -0.2128
 8124SOL     OW35830   1.330   4.477  12.774 -0.2460  0.0086  0.4427
 8124SOL    HW135831   1.366   4.390  12.755 -1.9941 -0.0417 -2.7648
 8124SOL    HW235832   1.402   4.530  12.740 -0.4475  1.1359  1.8170
 8125SOL     OW35833   0.894   1.682   2.472  0.5268 -0.6275  0.2496
 8125SOL    HW135834   0.802   1.684   2.446  1.2508  0.0142 -2.2461
 8125SOL    HW235835   0.913   1.773   2.494  2.6168 -0.5807 -1.7382
 8126SOL     OW35836   2.735   3.165  10.450 -0.3885 -0.1493  0.3031
 8126SOL    HW135837   2.659   3.108  10.437  0.5361 -1.8039  2.1838
 8126SOL    HW235838   2.694   3.220  10.517 -0.4064 -0.0619  0.2201
 8127SOL     OW35839   2.560   4.465   3.638  0.4394  0.3126  0.3994
 8127SOL    HW135840   2.645   4.462   3.593 -1.2564  0.4176 -2.7812
 8127SOL    HW235841   2.525   4.550   3.614 -1.1999 -0.7931 -1.1291
 8128SOL     OW35842   1.822   3.846   2.559 -0.5023 -0.0576  0.8340
 8128SOL    HW135843   1.773   3.767   2.539 -0.7155  0.5347 -0.9993
 8128SOL    HW235844   1.749   3.906   2.549 -0.5934  0.3929  4.0441
 8129SOL     OW35845   1.696   2.143  15.725  1.0569  0.2685  0.3931
 8129SOL    HW135846   1.659   2.055  15.720  0.8844  0.2924  1.3900
 8129SOL    HW235847   1.619   2.190  15.757  1.1551  0.5897  0.1605
 8130SOL     OW35848   0.487   4.406   1.196 -0.1927 -0.4237  0.3230
 8130SOL    HW135849   0.529   4.492   1.203  1.5461 -1.3038  0.8165
 8130SOL    HW235850   0.526   4.364   1.273  1.2071 -1.7437 -1.1023
 8131SOL     OW35851   4.247   2.331  16.426  0.2399  0.2152 -0.2110
 8131SOL    HW135852   4.315   2.284  16.474  0.3426  1.2928  0.6753
 8131SOL    HW235853   4.261   2.423  16.448  4.0777  0.2586 -2.7531
 8132SOL     OW35854   1.886   2.862  10.417 -0.1195  0.9233  0.3212
 8132SOL    HW135855   1.809   2.807  10.432 -2.1220  3.4237 -0.7567
 8132SOL    HW235856   1.955   2.823  10.470  0.7115  0.6056 -0.9929
 8133SOL     OW35857   3.966   4.478   1.544  0.2515  0.1961  0.3115
 8133SOL    HW135858   3.900   4.409   1.536  1.7197 -1.6968  4.4493
 8133SOL    HW235859   3.916   4.550   1.506  0.8270  0.0636 -0.6754
 8134SOL     OW35860   1.165   3.591  17.524  0.2438  0.0911  0.2258
 8134SOL    HW135861   1.206   3.525  17.468  0.0245  0.6640 -0.6139
 8134SOL    HW235862   1.171   3.668  17.467 -0.0537  1.1139  1.5733
 8135SOL     OW35863   0.982   1.814   6.656 -0.4763  0.1040 -0.0790
 8135SOL    HW135864   1.037   1.855   6.588  0.2261  1.3195  1.2166
 8135SOL    HW235865   1.047   1.764   6.705 -0.0636  1.5987  0.8921
 8136SOL     OW35866   3.953   3.532   8.179  0.1954 -0.4746  0.0951
 8136SOL    HW135867   4.037   3.486   8.174 -0.7943 -2.6545  3.4868
 8136SOL    HW235868   3.961   3.553   8.272  0.6554  1.1456 -0.3060
 8137SOL     OW35869   2.093   2.040  14.094  0.1253 -0.5732 -0.1873
 8137SOL    HW135870   2.180   2.021  14.128 -0.2324 -2.4726 -0.3246
 8137SOL    HW235871   2.083   1.964  14.037 -0.0427 -0.6536 -0.0540
 8138SOL     OW35872   4.627   0.052   6.000  0.1411  0.3676  0.5071
 8138SOL    HW135873   4.707   0.104   5.992  0.9326 -1.1530 -1.3051
 8138SOL    HW235874   4.585   0.076   5.917  0.6385 -0.9158 -0.1056
 8139SOL     OW35875   4.015   3.884  12.227  0.6048  0.3738  0.0556
 8139SOL    HW135876   4.053   3.802  12.195 -1.4712 -0.4600 -0.2817
 8139SOL    HW235877   4.019   3.891  12.322  0.3921  1.0237  0.0177
 8140SOL     OW35878   3.488   2.143   1.634  0.2857 -0.8521 -0.4809
 8140SOL    HW135879   3.546   2.194   1.690 -0.0982 -1.3771  0.3883
 8140SOL    HW235880   3.497   2.056   1.671 -1.8944 -1.0478 -0.4000
 8141SOL     OW35881   0.072   2.356   6.472  0.1212 -0.2435 -0.3717
 8141SOL    HW135882   0.044   2.314   6.390  0.7780 -1.7582  0.1752
 8141SOL    HW235883   0.058   2.285   6.535  0.2482  0.8665  0.9238
 8142SOL     OW35884   0.320   4.422   0.164 -0.4990  0.3816  0.5848
 8142SOL    HW135885   0.269   4.352   0.205 -0.7903 -1.3902 -2.8215
 8142SOL    HW235886   0.340   4.476   0.241  2.9941 -1.2711  0.8522
 8143SOL     OW35887   4.028   2.017  11.801 -0.7710  0.5235 -0.7018
 8143SOL    HW135888   4.115   2.038  11.767 -0.7931  0.1955 -0.9659
 8143SOL    HW235889   3.987   2.099  11.828 -2.0951  0.0626 -1.2937
 8144SOL     OW35890   2.546   4.191   1.519 -0.0691 -0.3728 -0.2209
 8144SOL    HW135891   2.488   4.251   1.472 -0.7148 -1.1316 -0.3849
 8144SOL    HW235892   2.500   4.115   1.485  0.3508 -0.2157 -1.1587
 8145SOL     OW35893   0.010   1.239   3.303 -0.2148 -0.0258 -0.0467
 8145SOL    HW135894   4.715   1.293   3.226 -1.1961 -0.5684 -0.1893
 8145SOL    HW235895   0.087   1.191   3.272  1.1539  2.5567 -0.7327
 8146SOL     OW35896   3.264   4.383   4.067 -0.1102  0.5712  0.0071
 8146SOL    HW135897   3.195   4.426   4.015  1.6628  2.8083 -0.5006
 8146SOL    HW235898   3.310   4.339   3.995 -2.9420  0.1339 -1.5469
 8147SOL     OW35899   4.401   0.410   4.468 -0.2141  0.8544  0.4525
 8147SOL    HW135900   4.385   0.353   4.544  0.9830  0.3276  0.3108
 8147SOL    HW235901   4.496   0.425   4.465 -0.3287  1.6410  0.6902
 8148SOL     OW35902   1.676   2.755   0.793  0.4811  0.0585 -0.0757
 8148SOL    HW135903   1.766   2.789   0.798  0.1971  0.8190 -0.1408
 8148SOL    HW235904   1.671   2.735   0.699  0.5285 -3.1382  0.6028
 8149SOL     OW35905   2.899   2.029   5.162  0.2217  0.4071 -0.2252
 8149SOL    HW135906   2.962   2.100   5.175  2.7474 -1.7341 -0.7022
 8149SOL    HW235907   2.934   1.992   5.080 -2.8033  0.1865 -1.4227
 8150SOL     OW35908   0.506   1.667   7.446 -0.2664 -0.2724  0.2372
 8150SOL    HW135909   0.418   1.660   7.483 -0.0274 -1.0107  0.6606
 8150SOL    HW235910   0.488   1.626   7.361 -0.5372 -0.6719  0.4862
 8151SOL     OW35911   2.575   3.781   1.899  0.1693  0.1416 -1.2236
 8151SOL    HW135912   2.644   3.845   1.915  2.2566 -2.6197  0.7558
 8151SOL    HW235913   2.525   3.843   1.845 -4.0799 -0.9193  1.4399
 8152SOL     OW35914   0.668   3.533   3.855 -0.8168  0.2432  0.3923
 8152SOL    HW135915   0.721   3.610   3.834 -0.8337  0.3967  0.9321
 8152SOL    HW235916   0.690   3.468   3.788  2.7874  0.2315  1.6074
 8153SOL     OW35917   3.987   0.806  13.388  0.2756  0.2826  0.4895
 8153SOL    HW135918   4.021   0.813  13.299  0.1863  2.0423  0.6074
 8153SOL    HW235919   4.020   0.886  13.429 -0.8033  1.8933 -1.7669
 8154SOL     OW35920   2.667   3.086   4.980 -0.3245 -0.1368  0.2963
 8154SOL    HW135921   2.694   3.177   4.991 -1.3471  0.2333 -0.2714
 8154SOL    HW235922   2.747   3.062   4.933  0.0725  1.7300 -0.0035
 8155SOL     OW35923   1.978   2.998   6.942 -0.2364  0.0897  0.0905
 8155SOL    HW135924   2.016   2.954   7.017  0.1035  1.5047  0.7524
 8155SOL    HW235925   1.894   3.027   6.979  0.7843  3.5124 -0.2296
 8156SOL     OW35926   3.841   2.552   6.628  0.4638 -0.3349 -0.1966
 8156SOL    HW135927   3.923   2.528   6.585  0.3499 -0.3096 -0.4253
 8156SOL    HW235928   3.819   2.620   6.564  1.2772  1.0025  0.9404
 8157SOL     OW35929   3.522   1.030   8.300  0.2502 -0.3064  0.2118
 8157SOL    HW135930   3.492   1.116   8.331  2.7686  1.0721 -1.1251
 8157SOL    HW235931   3.474   1.026   8.217  0.8004  0.6257 -0.1595
 8158SOL     OW35932   0.921   4.147   3.490 -0.7665 -0.1639 -0.3602
 8158SOL    HW135933   0.865   4.206   3.541  0.1977 -0.5733  1.1625
 8158SOL    HW235934   0.851   4.104   3.441  0.0326 -1.6427 -0.1978
 8159SOL     OW35935   1.552   3.107   1.885 -0.0948 -0.9339 -0.2000
 8159SOL    HW135936   1.531   3.201   1.888  2.6827 -0.2905 -0.7955
 8159SOL    HW235937   1.637   3.117   1.842 -1.1177 -1.0011 -2.2128
 8160SOL     OW35938   1.943   1.598   5.578 -0.0932 -0.1065  0.1998
 8160SOL    HW135939   1.860   1.552   5.591  0.5240 -1.2323  0.1810
 8160SOL    HW235940   1.917   1.690   5.573 -0.9082 -0.3616 -0.2855
 8161SOL     OW35941   4.071   1.963   9.993  0.5103  0.0720  0.0280
 8161SOL    HW135942   3.978   1.951  10.014  0.4477 -0.8176 -0.7473
 8161SOL    HW235943   4.101   1.873  10.002 -0.1982 -0.4409 -2.8247
 8162SOL     OW35944   1.536   3.134   6.576 -0.6248 -0.8532 -0.3229
 8162SOL    HW135945   1.483   3.062   6.610  0.1924 -0.2359  2.2294
 8162SOL    HW235946   1.553   3.070   6.507 -0.0578 -0.5005 -0.5034
 8163SOL     OW35947   2.012   3.634   4.548 -0.3094 -0.3950  0.2529
 8163SOL    HW135948   2.013   3.699   4.618  0.6238 -1.1446  0.9380
 8163SOL    HW235949   1.971   3.674   4.472  0.3552 -0.1523  0.0257
 8164SOL     OW35950   0.996   1.517  16.496  0.2994  0.7231  0.5936
 8164SOL    HW135951   0.903   1.508  16.515  0.8047  0.5361  2.9246
 8164SOL    HW235952   1.016   1.437  16.447  1.2404  0.4359  1.4482
 8165SOL     OW35953   3.544   1.852  11.194  0.6218  0.4708  0.8387
 8165SOL    HW135954   3.498   1.837  11.276 -2.8727  0.3646 -1.1301
 8165SOL    HW235955   3.575   1.762  11.180  1.8784  1.2846 -1.6318
 8166SOL     OW35956   2.822   4.021   2.698  0.4655 -0.0816 -0.5320
 8166SOL    HW135957   2.876   4.099   2.684  1.8795 -1.2118 -1.3154
 8166SOL    HW235958   2.875   3.972   2.761 -0.6883 -0.3718  0.2174
 8167SOL     OW35959   1.964   0.491   2.008  0.0925 -0.1082 -0.3548
 8167SOL    HW135960   2.030   0.554   1.980 -2.1004  2.1426 -0.5644
 8167SOL    HW235961   2.022   0.417   2.023 -2.2818 -2.0490 -0.6005
 8168SOL     OW35962   3.038   1.105   3.271 -0.2239 -0.5350 -0.8411
 8168SOL    HW135963   3.097   1.071   3.338 -0.6771 -1.5163 -0.9360
 8168SOL    HW235964   3.083   1.061   3.198  0.9805 -1.7364  0.6428
 8169SOL     OW35965   1.466   4.105   1.600  0.0123  0.4944 -0.1672
 8169SOL    HW135966   1.418   4.035   1.644  0.4226  1.1616  1.3540
 8169SOL    HW235967   1.406   4.106   1.526  2.0226 -0.5411 -1.7978
 8170SOL     OW35968   3.385   0.188  12.100 -0.6848 -0.1961  0.6266
 8170SOL    HW135969   3.399   0.278  12.130  0.0780  0.6028 -2.0974
 8170SOL    HW235970   3.395   0.140  12.183  0.5416 -1.9515 -0.5357
 8171SOL     OW35971   0.655   1.345   6.550  0.3119 -0.2833 -0.4243
 8171SOL    HW135972   0.714   1.302   6.489  1.1636  1.4047 -0.7760
 8171SOL    HW235973   0.586   1.368   6.488  1.9944  0.5688 -1.9629
 8172SOL     OW35974   0.710   3.350   8.356 -0.1123 -0.5629 -0.7221
 8172SOL    HW135975   0.746   3.427   8.401 -1.1480 -0.2195 -0.4674
 8172SOL    HW235976   0.620   3.385   8.355  1.1462  2.7014 -0.8728
 8173SOL     OW35977   0.067   1.382  14.098 -0.0058 -0.0824  0.0245
 8173SOL    HW135978   0.101   1.429  14.022 -1.9216 -3.2277 -2.7895
 8173SOL    HW235979   0.001   1.324  14.060 -0.8221  0.2114  0.9779
 8174SOL     OW35980   3.243   3.725   2.563  0.2290  0.1498 -0.1523
 8174SOL    HW135981   3.297   3.712   2.485  1.8119  2.2914  0.5883
 8174SOL    HW235982   3.197   3.809   2.554  1.6864  1.0707  0.9959
 8175SOL     OW35983   1.987   0.926   8.064  0.0224  0.0555 -0.5709
 8175SOL    HW135984   2.036   1.008   8.064  0.4584 -0.1860  1.6298
 8175SOL    HW235985   2.048   0.869   8.019 -0.2094 -1.3459  0.8643
 8176SOL     OW35986   3.722   1.730   7.306 -0.3756 -0.2217  0.0787
 8176SOL    HW135987   3.795   1.678   7.271 -1.1922 -1.7589  0.6192
 8176SOL    HW235988   3.768   1.780   7.373  0.6342 -0.1438 -0.6723
 8177SOL     OW35989   0.617   0.534  12.709 -0.1422  0.2649  0.1659
 8177SOL    HW135990   0.680   0.516  12.639  0.7523 -0.0058  1.0353
 8177SOL    HW235991   0.633   0.627  12.727  1.1863  0.2783 -1.0420
 8178SOL     OW35992   2.008   2.575   8.601 -0.1540  0.1006 -0.3479
 8178SOL    HW135993   1.915   2.583   8.577 -0.5924  0.2773  1.3964
 8178SOL    HW235994   2.007   2.485   8.634  0.8287 -0.2140 -1.2021
 8179SOL     OW35995   4.097   2.011   8.681  0.0419 -0.1708  0.5142
 8179SOL    HW135996   4.005   1.987   8.670  0.2949 -1.0622  0.3412
 8179SOL    HW235997   4.104   2.039   8.772 -0.7138 -0.6215  0.7116
 8180SOL     OW35998   4.156   3.092   1.090 -0.2188 -0.1134  0.4847
 8180SOL    HW135999   4.172   3.092   0.995 -2.3922 -1.8723  0.1097
 8180SOL    HW236000   4.071   3.135   1.100  1.7704  3.4475  1.9509
 8181SOL     OW36001   3.713   0.812   1.309  0.0024  0.5289 -0.3796
 8181SOL    HW136002   3.698   0.845   1.397  0.6150 -0.2492  0.0105
 8181SOL    HW236003   3.690   0.893   1.263  0.1149  1.2812  0.9110
 8182SOL     OW36004   2.472   2.919   0.268 -0.4175 -0.3016 -0.4109
 8182SOL    HW136005   2.512   2.978   0.204  0.8320 -0.9863 -0.2676
 8182SOL    HW236006   2.508   2.835   0.240 -1.9913 -1.8893  2.3272
 8183SOL     OW36007   4.167   2.149   9.533 -0.3173 -0.8170  0.1678
 8183SOL    HW136008   4.086   2.115   9.495  0.6083 -3.6100  0.7032
 8183SOL    HW236009   4.214   2.071   9.563  1.7300 -0.3450 -1.8910
 8184SOL     OW36010   1.262   1.472   7.969  0.0058 -0.0732 -0.1067
 8184SOL    HW136011   1.201   1.463   8.042  1.8312 -3.3038  1.0643
 8184SOL    HW236012   1.228   1.410   7.904  0.7263  1.1602 -1.6624
 8185SOL     OW36013   2.804   1.199   3.841  0.3438 -0.3728  0.0577
 8185SOL    HW136014   2.895   1.174   3.856  0.3805 -0.8634 -0.9496
 8185SOL    HW236015   2.833   1.283   3.804  2.0900 -1.1630 -0.3665
 8186SOL     OW36016   1.830   1.161   8.808  0.1828 -0.0114  0.4240
 8186SOL    HW136017   1.891   1.232   8.787  3.1441 -2.3181  1.1778
 8186SOL    HW236018   1.833   1.163   8.904 -0.8485  2.0110  0.4110
 8187SOL     OW36019   3.282   3.021   3.077 -0.4467 -0.0504  0.0922
 8187SOL    HW136020   3.225   2.955   3.116 -0.0361 -1.7563 -2.2352
 8187SOL    HW236021   3.274   3.094   3.138 -0.7050  2.0119 -2.3966
 8188SOL     OW36022   2.229   3.962  12.823  0.2530  0.0156 -0.4024
 8188SOL    HW136023   2.305   3.926  12.868  0.3011  0.2445 -0.3040
 8188SOL    HW236024   2.180   3.998  12.896 -1.6220 -1.0214 -1.1481
 8189SOL     OW36025   0.337   3.122   1.023 -0.5775  0.3699  0.0301
 8189SOL    HW136026   0.249   3.147   1.050 -0.0356  0.7765  1.4541
 8189SOL    HW236027   0.366   3.087   1.108 -0.7891  0.9132  0.3261
 8190SOL     OW36028   2.256   0.759   3.785 -0.0415  0.2610 -0.5119
 8190SOL    HW136029   2.210   0.688   3.741  1.0922 -0.9050  0.1762
 8190SOL    HW236030   2.346   0.735   3.763 -0.9934 -2.2681 -1.5955
 8191SOL     OW36031   1.573   1.163   8.715 -0.3142 -0.5075 -0.4991
 8191SOL    HW136032   1.668   1.166   8.716 -0.3628  0.2604  0.9894
 8191SOL    HW236033   1.549   1.085   8.664  1.9961 -1.8211  0.4610
 8192SOL     OW36034   1.621   2.420   9.247  0.2758 -0.1947 -0.2706
 8192SOL    HW136035   1.604   2.386   9.335 -1.7659  1.8616  0.1173
 8192SOL    HW236036   1.533   2.439   9.217  0.9753  2.0579 -0.8532
 8193SOL     OW36037   1.156   0.954   4.190  0.4703  0.2583 -0.5895
 8193SOL    HW136038   1.127   0.879   4.138 -0.8141  2.0787 -2.4642
 8193SOL    HW236039   1.185   0.916   4.273 -2.7496 -1.1922 -0.1321
 8194SOL     OW36040   0.202   1.177   6.472  0.3845 -0.2733 -0.0789
 8194SOL    HW136041   0.172   1.227   6.397 -0.4049 -2.8066 -1.4628
 8194SOL    HW236042   0.136   1.108   6.476  0.6114 -0.5640 -1.3615
 8195SOL     OW36043   0.916   0.889   7.700  0.1061 -0.1651 -0.2974
 8195SOL    HW136044   0.857   0.813   7.700  0.7479 -0.6602  2.2574
 8195SOL    HW236045   0.957   0.873   7.616 -0.5321 -0.2112 -0.6004
 8196SOL     OW36046   3.100   1.717  13.373 -0.6468 -0.0110 -0.8628
 8196SOL    HW136047   3.094   1.800  13.325  0.7346  0.3771 -0.3696
 8196SOL    HW236048   3.102   1.747  13.464  0.7597 -0.6801 -0.6846
 8197SOL     OW36049   3.756   2.652   8.596 -0.0428  0.1600 -0.5116
 8197SOL    HW136050   3.739   2.606   8.678 -3.4158 -0.2581 -1.4366
 8197SOL    HW236051   3.790   2.734   8.631 -1.7080 -0.1998  1.9458
 8198SOL     OW36052   1.115   0.260  17.311 -0.8631 -0.0666  0.1466
 8198SOL    HW136053   1.043   0.320  17.290 -1.7261 -0.7339  1.2338
 8198SOL    HW236054   1.064   0.205  17.370  0.0494 -1.2069 -0.1389
 8199SOL     OW36055   2.927   3.439  13.654 -0.0416  0.0241  0.5656
 8199SOL    HW136056   2.923   3.425  13.748  1.3437  0.4348  0.6888
 8199SOL    HW236057   2.961   3.355  13.621  0.1169  0.6412 -0.8344
 8200SOL     OW36058   3.075   1.485   6.758 -0.2827 -0.3641  0.4772
 8200SOL    HW136059   3.037   1.547   6.694  0.1435 -0.0540  0.5257
 8200SOL    HW236060   3.110   1.430   6.688  0.2315 -0.4846  0.8347
 8201SOL     OW36061   2.323   0.232   9.796  0.5096 -0.8061 -0.3647
 8201SOL    HW136062   2.386   0.271   9.857 -2.1803  0.5320  1.5665
 8201SOL    HW236063   2.345   0.140   9.802  0.7849 -0.6143  1.5850
 8202SOL     OW36064   3.050   1.241   8.260 -0.4084  0.3464 -0.5351
 8202SOL    HW136065   3.076   1.254   8.169 -0.1633  2.8823 -0.1154
 8202SOL    HW236066   2.981   1.308   8.268 -0.6638  0.1473 -1.1007
 8203SOL     OW36067   3.148   0.488   4.259  0.2770 -0.2033  0.2589
 8203SOL    HW136068   3.132   0.484   4.165  2.1864 -0.9190 -0.0345
 8203SOL    HW236069   3.238   0.522   4.260  1.0905 -2.3270 -0.8371
 8204SOL     OW36070   1.229   4.337   2.662 -0.1059 -0.3471 -0.1794
 8204SOL    HW136071   1.196   4.359   2.575 -0.8873 -0.4489  0.0980
 8204SOL    HW236072   1.321   4.323   2.637 -0.5156 -0.5979 -1.5230
 8205SOL     OW36073   1.809   1.652   4.487  0.1786  0.2605 -0.1683
 8205SOL    HW136074   1.754   1.577   4.464 -1.2308  1.4902 -0.7897
 8205SOL    HW236075   1.881   1.610   4.535  1.0744 -0.8845 -2.5327
 8206SOL     OW36076   0.977   2.584  11.096 -0.4856  0.6051  0.6388
 8206SOL    HW136077   0.992   2.617  11.184 -1.0420  3.2608 -0.2701
 8206SOL    HW236078   1.013   2.649  11.035 -0.4798 -1.5757 -1.7036
 8207SOL     OW36079   2.934   4.024   2.143 -0.1302  0.2854  0.6389
 8207SOL    HW136080   2.848   4.016   2.100  1.5109  0.8161 -2.7261
 8207SOL    HW236081   2.931   3.951   2.204  2.8865 -1.0782 -0.8331
 8208SOL     OW36082   0.854   1.990   6.160 -0.6122 -0.4283 -0.8464
 8208SOL    HW136083   0.827   2.022   6.246  0.5745  2.1320 -1.4491
 8208SOL    HW236084   0.947   1.996   6.184 -0.2597 -0.2745 -2.3028
 8209SOL     OW36085   2.258   2.209   0.640  0.0362 -0.3378 -0.0461
 8209SOL    HW136086   2.218   2.283   0.593  2.9480  1.3344  0.1188
 8209SOL    HW236087   2.321   2.252   0.698  0.9682 -1.2774 -0.3570
 8210SOL     OW36088   0.879   3.270   8.837  0.0657 -0.2349  0.2371
 8210SOL    HW136089   0.796   3.278   8.791 -0.9816 -3.3922  1.5866
 8210SOL    HW236090   0.856   3.215   8.912  0.5546 -0.1214  0.4715
 8211SOL     OW36091   4.464   3.238  15.159 -0.2095  0.2054  0.5014
 8211SOL    HW136092   4.394   3.210  15.099 -0.6280  1.7262  0.2919
 8211SOL    HW236093   4.457   3.333  15.156 -0.0251  0.2340  1.0697
 8212SOL     OW36094   0.480   1.090   5.314 -0.3021  0.2522 -0.1327
 8212SOL    HW136095   0.558   1.132   5.351 -0.4162 -1.1745  1.7407
 8212SOL    HW236096   0.407   1.115   5.370 -0.6644 -1.2831  0.0880
 8213SOL     OW36097   0.513   1.204   5.728 -0.1712  0.2259 -0.4651
 8213SOL    HW136098   0.463   1.159   5.797  0.4954  0.4281  0.1550
 8213SOL    HW236099   0.466   1.177   5.649  0.3924 -0.1651 -0.6616
 8214SOL     OW36100   1.519   0.376   3.065 -0.4080 -0.5850  0.1115
 8214SOL    HW136101   1.550   0.345   2.980 -0.1537 -0.4319  0.1464
 8214SOL    HW236102   1.529   0.470   3.049  1.2943 -0.9518 -1.0043
 8215SOL     OW36103   0.370   3.931   4.588  0.0807  0.4686  0.1173
 8215SOL    HW136104   0.304   3.862   4.598  0.2649  0.4392  1.2117
 8215SOL    HW236105   0.373   3.949   4.494  4.1995 -2.5463 -0.2902
 8216SOL     OW36106   3.146   1.465   8.831 -0.4165  0.6756  0.0016
 8216SOL    HW136107   3.069   1.521   8.817 -0.0570  0.4657 -2.7499
 8216SOL    HW236108   3.209   1.531   8.801 -0.6715  0.8138 -0.2317
 8217SOL     OW36109   2.533   2.705  14.156 -0.1047 -0.1270 -0.1622
 8217SOL    HW136110   2.472   2.632  14.147 -0.7119  0.4006 -0.3671
 8217SOL    HW236111   2.546   2.748  14.071  1.0667 -0.6784 -0.2596
 8218SOL     OW36112   0.795   1.284  10.012  0.4344 -0.5818 -0.1972
 8218SOL    HW136113   0.796   1.371   9.971  0.2269 -1.6678 -2.4951
 8218SOL    HW236114   0.710   1.289  10.056 -0.4434 -3.3998 -1.5921
 8219SOL     OW36115   0.010   1.925   4.191 -0.0496  0.1574 -0.0645
 8219SOL    HW136116   0.004   1.829   4.187  0.8728  0.1737 -1.7050
 8219SOL    HW236117   0.099   1.925   4.225  0.3018  1.9822 -0.9983
 8220SOL     OW36118   0.190   0.187  11.052 -0.0539  0.0019 -0.3602
 8220SOL    HW136119   0.114   0.241  11.033 -0.4192 -0.6749 -0.7843
 8220SOL    HW236120   0.153   0.099  11.056 -0.0534 -0.0068 -0.5501
 8221SOL     OW36121   4.598   4.273   4.741  0.5686 -0.1244  0.2433
 8221SOL    HW136122   4.508   4.280   4.709  0.5853  0.9539  0.4404
 8221SOL    HW236123   4.635   4.358   4.721 -0.7873 -0.3146 -3.0157
 8222SOL     OW36124   0.852   3.431   3.658 -0.0675  0.0196 -0.1310
 8222SOL    HW136125   0.880   3.512   3.700  0.7182 -0.6110  0.5465
 8222SOL    HW236126   0.923   3.369   3.672 -1.2074 -1.5282 -1.1355
 8223SOL     OW36127   2.813   2.510   2.112 -0.2225  0.3333  0.0372
 8223SOL    HW136128   2.788   2.537   2.023 -0.1439  0.1393 -0.0425
 8223SOL    HW236129   2.903   2.541   2.105  0.2586 -1.3841 -1.3307
 8224SOL     OW36130   4.021   4.665  14.574 -0.4510 -0.1465  0.2902
 8224SOL    HW136131   3.989   4.577  14.593 -1.4868 -0.0472 -1.0076
 8224SOL    HW236132   4.114   4.650  14.557 -1.0864 -0.3084 -3.0094
 8225SOL     OW36133   1.037   4.139   1.211 -0.2329  0.2984 -0.0842
 8225SOL    HW136134   1.110   4.134   1.274  0.8972 -0.5377 -1.4580
 8225SOL    HW236135   1.011   4.231   1.219  0.0808  0.2032  2.0628
 8226SOL     OW36136   4.410   1.853   8.817  0.3131  0.0407  0.3785
 8226SOL    HW136137   4.426   1.905   8.896  0.2902  1.3265 -0.4579
 8226SOL    HW236138   4.461   1.775   8.836 -0.4428 -0.6715 -0.5113
 8227SOL     OW36139   1.129   2.759   0.097 -0.3431 -0.0196  0.0550
 8227SOL    HW136140   1.090   2.722   0.177 -0.3617 -0.0977  0.0091
 8227SOL    HW236141   1.100   2.704   0.025  1.5859 -2.0762  0.8730
 8228SOL     OW36142   0.592   1.133   6.777 -0.3708  0.0867  0.7000
 8228SOL    HW136143   0.589   1.172   6.690  0.8339 -0.8401  0.2449
 8228SOL    HW236144   0.675   1.168   6.808  0.4470 -0.0995 -1.2668
 8229SOL     OW36145   3.984   3.807  13.263 -0.1655 -0.0194 -0.1937
 8229SOL    HW136146   4.043   3.820  13.189 -0.2228  1.2961 -0.0161
 8229SOL    HW236147   4.039   3.775  13.335 -0.3107  0.1091 -0.0237
 8230SOL     OW36148   3.353   0.071   2.918 -0.4156 -0.0586  0.8060
 8230SOL    HW136149   3.269   0.077   2.963 -0.1819  1.7303  0.9763
 8230SOL    HW236150   3.314   0.052   2.832  0.9040  1.2266 -0.0847
 8231SOL     OW36151   0.024   4.651   5.347  0.5805  0.0658  0.0132
 8231SOL    HW136152   4.705   4.623   5.266  0.1553  2.0964 -0.4672
 8231SOL    HW236153   0.094   4.588   5.359 -0.0173 -0.0412  3.1207
 8232SOL     OW36154   1.076   2.815   6.483 -0.2677 -0.2217  0.1452
 8232SOL    HW136155   1.035   2.775   6.559 -1.4188 -1.5779 -1.2101
 8232SOL    HW236156   1.026   2.897   6.480  0.5479  0.2473 -0.7083
 8233SOL     OW36157   0.719   1.010  10.533 -0.4385  0.1067 -0.1684
 8233SOL    HW136158   0.803   0.969  10.556 -0.3267  0.8825  0.8360
 8233SOL    HW236159   0.716   1.074  10.604  0.2360 -1.4115  1.2467
 8234SOL     OW36160   2.935   0.753   6.261  0.0704 -0.3870  0.2495
 8234SOL    HW136161   2.890   0.705   6.331 -1.0454 -1.1194 -0.9607
 8234SOL    HW236162   2.945   0.838   6.304  3.1511 -1.1748  1.0485
 8235SOL     OW36163   2.954   2.946   6.534 -0.4901 -0.5600  0.4652
 8235SOL    HW136164   2.952   2.854   6.507  1.6289  0.1872 -2.2488
 8235SOL    HW236165   2.932   2.934   6.626  0.6993  2.4516  1.1406
 8236SOL     OW36166   4.600   0.201   5.171 -0.1485  0.2574  0.0037
 8236SOL    HW136167   4.684   0.247   5.171  0.2314 -0.4620  1.2786
 8236SOL    HW236168   4.578   0.192   5.263  0.1721 -2.3440 -0.1692
 8237SOL     OW36169   1.550   1.977  12.786 -0.1072 -0.1663  0.1649
 8237SOL    HW136170   1.590   2.033  12.719 -1.0824  0.0616 -0.2239
 8237SOL    HW236171   1.603   1.897  12.789 -1.5837 -1.1924 -1.0908
 8238SOL     OW36172   1.275   3.335   0.063 -0.3878  0.2477  0.0007
 8238SOL    HW136173   1.265   3.307  17.669  0.3649 -0.1133  0.0269
 8238SOL    HW236174   1.367   3.323   0.087  0.0205  0.1695 -1.6012
 8239SOL     OW36175   0.062   0.111   4.530 -0.0205  0.0329  0.0555
 8239SOL    HW136176   0.046   0.048   4.460  1.6791 -0.6945  0.3330
 8239SOL    HW236177   4.697   0.139   4.552  0.7050  1.9177  0.5638
 8240SOL     OW36178   3.928   1.360  16.846 -0.2380  0.8955  0.0047
 8240SOL    HW136179   3.931   1.270  16.814  1.2453  0.3400  1.6999
 8240SOL    HW236180   3.853   1.398  16.799 -0.0413 -0.2583 -1.2282
 8241SOL     OW36181   4.205   4.718   0.534 -0.5572  0.6657  0.1378
 8241SOL    HW136182   4.219   0.064   0.470 -0.8522 -0.3577 -1.0347
 8241SOL    HW236183   4.186   0.056   0.604  1.6411  0.3819  0.9754
 8242SOL     OW36184   4.074   3.845   7.290 -0.0053  0.1076  0.1862
 8242SOL    HW136185   4.019   3.847   7.211 -1.5122 -1.2030  1.2024
 8242SOL    HW236186   4.038   3.769   7.334  0.6331  0.1579  0.7919
 8243SOL     OW36187   3.630   3.211  12.559 -0.1286 -0.1976  0.1627
 8243SOL    HW136188   3.541   3.193  12.590 -0.9788 -0.5782 -2.5366
 8243SOL    HW236189   3.689   3.201  12.634 -2.7375 -0.6024  2.1768
 8244SOL     OW36190   3.307   3.168  13.959 -0.0824  0.0058  0.7157
 8244SOL    HW136191   3.243   3.175  14.029 -0.7291  0.0697  0.1192
 8244SOL    HW236192   3.333   3.257  13.936  0.6649 -0.4852 -0.3433
 8245SOL     OW36193   3.836   3.361   7.876  0.1067  0.0294  0.5092
 8245SOL    HW136194   3.745   3.333   7.879  0.5921 -1.5605  0.3390
 8245SOL    HW236195   3.831   3.432   7.813  1.8097 -1.8331 -1.7066
 8246SOL     OW36196   2.503   2.998  10.474 -0.0165  0.0075 -1.0236
 8246SOL    HW136197   2.421   3.030  10.437 -1.5650 -2.5321  0.1639
 8246SOL    HW236198   2.470   2.908  10.481 -0.3543  0.1504 -0.7191
 8247SOL     OW36199   0.708   3.969   6.507  0.0849 -0.4465  0.0941
 8247SOL    HW136200   0.801   3.995   6.501 -0.1453  0.1599 -0.7845
 8247SOL    HW236201   0.716   3.896   6.569 -1.0682 -1.7470 -1.2993
 8248SOL     OW36202   1.486   3.626   6.215 -0.3590 -0.1382  0.2931
 8248SOL    HW136203   1.577   3.604   6.237 -0.2561 -1.1195 -1.1096
 8248SOL    HW236204   1.436   3.564   6.267 -0.8403  0.8056  0.9608
 8249SOL     OW36205   3.880   2.517  15.241  0.1888 -0.2464  0.2114
 8249SOL    HW136206   3.928   2.596  15.216  0.2228 -0.4122 -0.2458
 8249SOL    HW236207   3.836   2.544  15.322  2.2253 -1.5427  1.7439
 8250SOL     OW36208   3.318   2.304  11.381 -0.3337  0.5210 -0.0420
 8250SOL    HW136209   3.393   2.244  11.378  1.5869  3.0845 -2.2138
 8250SOL    HW236210   3.340   2.369  11.315 -3.1419  2.0724  0.5412
 8251SOL     OW36211   3.708   3.621  16.894  0.2812 -0.1826  0.0958
 8251SOL    HW136212   3.767   3.547  16.904  1.2197  0.7953  1.7769
 8251SOL    HW236213   3.750   3.700  16.928  2.3286 -0.9988 -0.5541
 8252SOL     OW36214   0.082   1.513   5.776 -0.0307 -0.3074  0.0718
 8252SOL    HW136215   0.164   1.558   5.757 -0.1537 -1.1759 -2.5111
 8252SOL    HW236216   0.039   1.581   5.827  0.2743 -0.3013  0.3235
 8253SOL     OW36217   4.264   3.772  14.150  0.1595  0.7018  0.2468
 8253SOL    HW136218   4.299   3.730  14.229 -1.5663 -2.3098 -0.6045
 8253SOL    HW236219   4.258   3.693  14.096 -1.6112 -0.7131  2.5563
 8254SOL     OW36220   4.190   0.313   8.421 -0.3875  0.0245  0.3661
 8254SOL    HW136221   4.214   0.372   8.493 -0.9664  1.3717 -0.5575
 8254SOL    HW236222   4.235   0.236   8.458  1.3522  0.6809 -0.4000
 8255SOL     OW36223   1.186   1.609   6.408 -0.0275 -0.3534  0.3062
 8255SOL    HW136224   1.195   1.615   6.503  3.9450  2.8145 -0.2435
 8255SOL    HW236225   1.223   1.695   6.386  1.3400 -1.2105 -0.7519
 8256SOL     OW36226   0.660   3.295   8.667 -0.5696  0.2119  0.0558
 8256SOL    HW136227   0.569   3.323   8.659 -0.7356 -0.8201 -1.6238
 8256SOL    HW236228   0.657   3.200   8.658  0.7884  0.1637  0.1255
 8257SOL     OW36229   4.333   4.154   7.888 -0.4715  0.2828  0.4115
 8257SOL    HW136230   4.327   4.190   7.800  0.2208 -3.5780 -1.2303
 8257SOL    HW236231   4.268   4.084   7.880 -0.6142  0.3086  1.3752
 8258SOL     OW36232   4.034   0.444   2.918  0.2784  0.7042 -0.0011
 8258SOL    HW136233   3.979   0.391   2.975 -0.0461 -1.6579 -2.4769
 8258SOL    HW236234   4.125   0.424   2.938 -0.3944 -0.9149  1.3962
 8259SOL     OW36235   3.778   3.868   7.661  0.7304  0.7014 -0.1923
 8259SOL    HW136236   3.870   3.891   7.653  0.4370  2.2535  0.9290
 8259SOL    HW236237   3.744   3.934   7.601 -1.6110  0.3508  0.7383
 8260SOL     OW36238   1.646   4.233   7.013 -0.2928  0.1468 -0.5787
 8260SOL    HW136239   1.679   4.321   7.028 -1.1869 -0.1959  3.5329
 8260SOL    HW236240   1.648   4.185   7.096  0.9353 -1.1197 -1.3340
 8261SOL     OW36241   0.477   4.388  14.396  0.7449  0.5055 -0.3075
 8261SOL    HW136242   0.523   4.372  14.313 -0.4240 -0.7570 -0.6984
 8261SOL    HW236243   0.551   4.356  14.447  1.5871 -0.0650 -1.8796
 8262SOL     OW36244   0.550   3.573   3.096 -0.1622  0.1304 -0.3706
 8262SOL    HW136245   0.470   3.524   3.119  0.3884  0.4419  2.2197
 8262SOL    HW236246   0.588   3.570   3.184 -0.4062 -0.3920 -0.2804
 8263SOL     OW36247   1.833   2.179   7.462  0.2023  0.4119 -0.3465
 8263SOL    HW136248   1.799   2.164   7.551  1.9587  0.1295  0.2696
 8263SOL    HW236249   1.923   2.202   7.486  0.1295  0.4959 -0.1488
 8264SOL     OW36250   4.422   0.135   0.100 -0.0121 -1.1715 -0.1633
 8264SOL    HW136251   4.484   0.080   0.052  1.3432 -0.4784  0.8027
 8264SOL    HW236252   4.484   0.198   0.136 -0.3287 -0.4715 -0.8386
 8265SOL     OW36253   0.771   1.919   3.090 -0.8015  0.2826  0.3281
 8265SOL    HW136254   0.679   1.946   3.089 -0.5763  1.0530  0.3716
 8265SOL    HW236255   0.762   1.830   3.056  0.5620  0.9797 -1.8801
 8266SOL     OW36256   2.980   3.739   0.091 -0.4584  0.4263  0.2978
 8266SOL    HW136257   3.031   3.757   0.170 -2.6631  1.9748  1.3589
 8266SOL    HW236258   2.967   3.645   0.095 -0.0185  0.3556  0.1113
 8267SOL     OW36259   2.085   2.547   0.985  0.4511 -0.4124 -0.3152
 8267SOL    HW136260   2.095   2.638   1.011 -0.0122  0.0280 -1.6492
 8267SOL    HW236261   2.032   2.517   1.059 -1.3043 -1.4248 -1.9430
 8268SOL     OW36262   1.923   0.503   8.785  0.3568 -0.3801 -0.0051
 8268SOL    HW136263   1.903   0.465   8.699  1.4541  0.6887 -0.7238
 8268SOL    HW236264   1.842   0.477   8.830 -1.4428  2.4410 -1.5952
 8269SOL     OW36265   0.586   0.350  11.040 -0.1710  0.1021  0.1208
 8269SOL    HW136266   0.673   0.312  11.027 -0.2271 -0.9982  2.8214
 8269SOL    HW236267   0.537   0.305  10.972  1.0055  3.5785 -3.0522
 8270SOL     OW36268   1.363   1.262   1.799  0.2386  0.2487 -0.0654
 8270SOL    HW136269   1.449   1.300   1.819 -0.1995  0.1405  2.0180
 8270SOL    HW236270   1.366   1.195   1.867  1.3572  0.0300 -0.3212
 8271SOL     OW36271   2.383   2.836   2.866  0.1471 -0.1235 -0.1608
 8271SOL    HW136272   2.408   2.882   2.786  1.8530 -0.8892 -0.0717
 8271SOL    HW236273   2.380   2.741   2.852  1.3593 -0.5261  2.1649
 8272SOL     OW36274   2.980   0.169  16.607 -0.1950  0.0384  0.3530
 8272SOL    HW136275   2.994   0.076  16.621  1.3956  0.4406  1.4408
 8272SOL    HW236276   2.929   0.158  16.526  1.6409  0.0323 -0.8184
 8273SOL     OW36277   3.901   1.965   4.983 -0.0027 -0.3814 -0.2976
 8273SOL    HW136278   3.940   1.917   5.056  0.0332 -2.0756 -1.4478
 8273SOL    HW236279   3.822   2.003   5.022 -0.5366  0.5085 -2.2511
 8274SOL     OW36280   1.183   0.340  11.240  0.7614 -0.6535  0.1466
 8274SOL    HW136281   1.168   0.417  11.184 -3.2739 -0.9284  0.8896
 8274SOL    HW236282   1.095   0.304  11.229  0.9298 -1.1592  0.4951
 8275SOL     OW36283   3.306   1.853  13.712 -0.4895 -0.0494 -0.1835
 8275SOL    HW136284   3.358   1.823  13.637 -0.8995 -1.0757 -0.0622
 8275SOL    HW236285   3.317   1.775  13.767 -2.0996 -0.0471  0.1262
 8276SOL     OW36286   4.216   4.723  11.026 -0.5017 -0.5064 -0.0220
 8276SOL    HW136287   4.129   0.031  11.001 -0.0077  1.3386  0.5573
 8276SOL    HW236288   4.262   0.001  10.942  1.9503 -0.8269  1.3196
 8277SOL     OW36289   2.648   1.626   6.261 -0.0981  1.1149  0.7151
 8277SOL    HW136290   2.669   1.608   6.352 -1.0549  0.5551  0.8275
 8277SOL    HW236291   2.702   1.704   6.251 -0.5768  1.2140 -1.1048
 8278SOL     OW36292   3.809   0.926   6.471  0.6428 -0.9838  0.6285
 8278SOL    HW136293   3.838   0.980   6.398 -0.4735 -2.5638 -0.9804
 8278SOL    HW236294   3.866   0.849   6.465 -1.0000 -2.0411 -1.2092
 8279SOL     OW36295   0.400   4.403   6.915  0.4008  0.1526 -0.3638
 8279SOL    HW136296   0.319   4.444   6.944 -0.4586 -0.0212 -2.5064
 8279SOL    HW236297   0.449   4.485   6.904  0.0232  0.1792 -1.9175
 8280SOL     OW36298   1.259   2.390   8.535 -0.3519 -0.2530 -0.2937
 8280SOL    HW136299   1.200   2.445   8.483  0.2873 -0.7183 -1.5065
 8280SOL    HW236300   1.243   2.297   8.519  0.3040 -0.0415 -2.1030
 8281SOL     OW36301   2.980   4.653  11.596  0.0245 -0.2944 -0.1275
 8281SOL    HW136302   2.957   4.672  11.505 -1.9230 -1.7367  0.0846
 8281SOL    HW236303   2.901   4.685  11.639  0.2458  0.6312 -0.3996
 8282SOL     OW36304   2.080   0.204  15.631 -0.5836 -0.0384 -0.3894
 8282SOL    HW136305   2.089   0.277  15.571  0.4306 -0.4223 -0.7018
 8282SOL    HW236306   2.002   0.162  15.594 -0.4339  0.7173 -1.5483
 8283SOL     OW36307   2.194   1.764  10.796 -0.0934 -0.9435  0.4887
 8283SOL    HW136308   2.196   1.857  10.818  0.8601 -0.9123  0.2852
 8283SOL    HW236309   2.225   1.729  10.880 -1.4504  1.9274  2.1695
 8284SOL     OW36310   0.582   2.058   5.979  0.4176 -0.1498 -0.7881
 8284SOL    HW136311   0.503   2.024   5.937 -0.4491 -1.6212  2.0303
 8284SOL    HW236312   0.632   1.977   5.988  1.0481  0.2519 -0.6654
 8285SOL     OW36313   4.432   3.801   8.469  0.2079 -0.4865 -0.6056
 8285SOL    HW136314   4.377   3.726   8.490  1.4984 -0.4623  2.9805
 8285SOL    HW236315   4.361   3.850   8.428  0.5820  0.2907 -0.3444
 8286SOL     OW36316   4.074   1.638   3.891 -0.5970 -0.0925 -0.0578
 8286SOL    HW136317   4.147   1.580   3.871 -0.6826 -0.1814 -0.1150
 8286SOL    HW236318   4.107   1.703   3.954  0.8634  0.3379 -1.2769
 8287SOL     OW36319   3.328   2.992   2.396 -0.3190 -0.1140 -0.5891
 8287SOL    HW136320   3.270   2.929   2.438  2.2589 -1.9422  0.2018
 8287SOL    HW236321   3.332   3.055   2.469 -1.2119  2.8047 -3.0954
 8288SOL     OW36322   3.752   0.869   8.279 -0.4249 -0.4679 -0.0232
 8288SOL    HW136323   3.790   0.862   8.366  0.0187  0.0227 -0.1824
 8288SOL    HW236324   3.670   0.918   8.283  0.9361  1.6926  1.0030
 8289SOL     OW36325   2.440   0.724  13.294  0.5405  0.0546 -0.0760
 8289SOL    HW136326   2.433   0.684  13.380  0.4011  2.1667  0.9051
 8289SOL    HW236327   2.533   0.744  13.293 -0.0731  3.0302  1.4907
 8290SOL     OW36328   2.192   2.670   9.027 -0.7231  0.0066 -0.2984
 8290SOL    HW136329   2.144   2.587   9.027 -0.6682 -0.0386  1.9949
 8290SOL    HW236330   2.165   2.714   8.946 -1.6620  0.7711  0.4228
 8291SOL     OW36331   3.438   1.666  11.995  0.0100  0.4622  0.5605
 8291SOL    HW136332   3.392   1.609  11.934 -1.5459  1.5643  0.7133
 8291SOL    HW236333   3.423   1.618  12.077 -3.7786 -1.0852 -1.0585
 8292SOL     OW36334   0.503   0.664  11.392 -0.2942 -0.0136  0.3619
 8292SOL    HW136335   0.521   0.642  11.301  0.3260  3.6467 -0.4318
 8292SOL    HW236336   0.425   0.611  11.406  0.3606 -0.9347  0.4954
 8293SOL     OW36337   2.953   2.191   8.556  0.6513 -0.1232 -0.2629
 8293SOL    HW136338   2.999   2.235   8.484 -0.7770 -0.0046 -1.0976
 8293SOL    HW236339   2.981   2.101   8.542 -0.8180 -0.8016  1.2927
 8294SOL     OW36340   1.666   1.682   3.146 -0.4159 -0.8844 -0.3476
 8294SOL    HW136341   1.595   1.709   3.088 -0.3201  1.0352  0.4310
 8294SOL    HW236342   1.734   1.748   3.133 -1.3764  0.4392  1.2414
 8295SOL     OW36343   1.787   2.710   2.223 -0.0624  0.5468 -0.2134
 8295SOL    HW136344   1.715   2.719   2.285  0.9213  1.4105  0.8041
 8295SOL    HW236345   1.767   2.786   2.168 -0.1157 -0.0055 -0.9588
 8296SOL     OW36346   0.070   4.197   6.267  0.7832  0.6751 -0.2017
 8296SOL    HW136347   0.067   4.291   6.287 -1.0610  0.8046 -1.1637
 8296SOL    HW236348   0.165   4.184   6.264  0.5825 -0.8607  0.3688
 8297SOL     OW36349   2.098   3.233   4.336 -0.1388 -0.0753 -0.3459
 8297SOL    HW136350   2.061   3.270   4.416 -1.1276  0.5808 -1.0958
 8297SOL    HW236351   2.190   3.261   4.336 -0.7256  1.8735  1.6938
 8298SOL     OW36352   2.781   0.839  15.952  0.2260  0.2098 -0.4786
 8298SOL    HW136353   2.841   0.834  15.878  2.7711  0.0360  1.6064
 8298SOL    HW236354   2.703   0.871  15.907  0.7582  1.8366 -0.2536
 8299SOL     OW36355   3.612   0.136   1.643 -0.2049 -0.2566 -0.6349
 8299SOL    HW136356   3.520   0.134   1.670  0.0955 -0.5089  0.3261
 8299SOL    HW236357   3.636   0.082   1.718 -0.5780 -1.0548 -1.0854
 8300SOL     OW36358   3.877   1.320   9.229 -0.2866  0.2576 -0.0229
 8300SOL    HW136359   3.889   1.401   9.278  0.1192  1.2302 -1.7326
 8300SOL    HW236360   3.953   1.269   9.258 -1.0051  0.3874  2.1200
 8301SOL     OW36361   1.343   3.731   8.637 -0.2027 -0.7415  0.5595
 8301SOL    HW136362   1.384   3.791   8.699  1.2232 -0.8232 -0.3007
 8301SOL    HW236363   1.405   3.740   8.564 -2.2613  1.8353 -0.8417
 8302SOL     OW36364   2.434   3.953   1.441  0.4421  0.2461  0.5061
 8302SOL    HW136365   2.473   3.899   1.372  0.6517  3.2873 -1.7342
 8302SOL    HW236366   2.351   3.909   1.461  0.6587 -0.7529 -0.8180
 8303SOL     OW36367   0.723   2.802  13.940 -0.3188  0.1836 -0.2642
 8303SOL    HW136368   0.765   2.766  13.862  0.2319 -1.0894  0.6167
 8303SOL    HW236369   0.706   2.890  13.906  1.4955  0.5799 -0.1181
 8304SOL     OW36370   3.093   3.020  11.478  0.0859 -0.2824  0.2543
 8304SOL    HW136371   3.140   3.066  11.408 -0.3726  2.8255  1.9988
 8304SOL    HW236372   3.015   2.997  11.427  0.1433 -0.4063  0.2235
 8305SOL     OW36373   2.849   4.129   3.103 -0.1295 -0.1518 -0.2338
 8305SOL    HW136374   2.860   4.067   3.031 -1.9488  0.0016 -0.6545
 8305SOL    HW236375   2.844   4.214   3.060  4.6114  0.1413 -0.1208
 8306SOL     OW36376   0.462   0.297   0.756 -0.0548  0.4071 -0.0335
 8306SOL    HW136377   0.523   0.241   0.802 -1.5159 -0.2273  1.1285
 8306SOL    HW236378   0.488   0.382   0.791  1.5747  0.8558 -2.3120
 8307SOL     OW36379   3.577   1.115   2.534 -0.1173  0.4587 -0.3175
 8307SOL    HW136380   3.538   1.150   2.453  0.3189 -2.0161 -1.5854
 8307SOL    HW236381   3.596   1.199   2.577  3.0241 -0.7974  0.7319
 8308SOL     OW36382   3.990   0.736   6.430  0.2477  0.2626 -0.0645
 8308SOL    HW136383   4.021   0.646   6.439 -1.8464 -0.2294  2.2533
 8308SOL    HW236384   4.062   0.784   6.471  0.2099 -0.2549  0.5931
 8309SOL     OW36385   3.948   2.738  11.786 -0.3905 -0.0588 -0.2943
 8309SOL    HW136386   4.006   2.778  11.850 -1.9316 -0.7759  1.5477
 8309SOL    HW236387   3.966   2.791  11.708  0.0909 -1.5986 -1.2281
 8310SOL     OW36388   4.057   4.113   6.916 -0.3548  0.2322 -0.2239
 8310SOL    HW136389   4.070   4.056   6.840  1.3243  0.3460 -0.0374
 8310SOL    HW236390   4.141   4.158   6.905 -0.1468  0.4914  2.3576
 8311SOL     OW36391   3.671   1.857   5.347  0.2701  0.0580 -0.4056
 8311SOL    HW136392   3.664   1.918   5.420 -0.8101 -0.1240 -0.3555
 8311SOL    HW236393   3.697   1.909   5.271  1.5864  0.8918  0.6404
 8312SOL     OW36394   0.370   0.146  11.828  0.5846  0.2235 -0.1446
 8312SOL    HW136395   0.330   0.223  11.870  2.2090  1.4992 -0.9458
 8312SOL    HW236396   0.368   0.180  11.739  1.8887 -0.2921 -0.3615
 8313SOL     OW36397   0.702   3.780  11.576 -0.0062 -0.2573  0.0731
 8313SOL    HW136398   0.629   3.805  11.519  0.2866  1.8555  0.6372
 8313SOL    HW236399   0.660   3.783  11.662  0.3128  0.4478  0.2018
 8314SOL     OW36400   1.283   1.081   0.699 -1.0542  0.7365 -0.2705
 8314SOL    HW136401   1.342   1.094   0.773 -1.0629 -0.0354 -0.1344
 8314SOL    HW236402   1.346   1.053   0.632 -1.3591  1.2082 -0.7615
 8315SOL     OW36403   0.017   4.532   3.123  0.4244  0.4183 -0.1154
 8315SOL    HW136404   4.667   4.500   3.173 -0.2025 -0.0987 -1.3599
 8315SOL    HW236405   0.076   4.459   3.143 -0.8532  0.1353  2.5179
 8316SOL     OW36406   3.412   0.452   4.652  0.3599 -0.9971  0.3972
 8316SOL    HW136407   3.479   0.447   4.720  1.5418  1.3267 -0.5555
 8316SOL    HW236408   3.433   0.536   4.611 -0.1453 -1.3566 -0.6048
 8317SOL     OW36409   3.392   4.530   2.596  0.3984 -0.0305  0.5421
 8317SOL    HW136410   3.357   4.593   2.659  0.3422 -1.1389  1.6113
 8317SOL    HW236411   3.409   4.585   2.518  0.1958  2.1526  2.0315
 8318SOL     OW36412   3.207   0.163   6.186  0.3241 -0.4380  0.5168
 8318SOL    HW136413   3.182   0.250   6.156 -0.0310  0.0071  2.1152
 8318SOL    HW236414   3.175   0.145   6.274 -0.1783 -0.4312  0.3379
 8319SOL     OW36415   0.840   3.542   8.690 -0.0928 -0.0435  0.1611
 8319SOL    HW136416   0.865   3.450   8.679  0.3963 -0.0372  1.1518
 8319SOL    HW236417   0.759   3.536   8.741 -1.6681  2.8433 -1.9978
 8320SOL     OW36418   2.399   0.632   5.776 -0.1071 -0.2977 -0.1786
 8320SOL    HW136419   2.390   0.704   5.839  1.7453 -0.2663  0.0513
 8320SOL    HW236420   2.355   0.560   5.821  2.0522 -0.4829  1.6135
 8321SOL     OW36421   3.171   2.241  10.068  0.0975  0.1428 -0.1643
 8321SOL    HW136422   3.091   2.202  10.104 -0.4263  1.4923  0.1270
 8321SOL    HW236423   3.203   2.308  10.129  0.5643  2.0220 -2.4808
 8322SOL     OW36424   3.966   3.795   3.358 -0.1942  0.4232  0.6147
 8322SOL    HW136425   4.042   3.797   3.416  0.4197  0.1901 -0.1967
 8322SOL    HW236426   3.922   3.871   3.397 -1.7410 -0.4210  0.5365
 8323SOL     OW36427   4.352   2.785   0.275  0.5143  0.1153  0.3930
 8323SOL    HW136428   4.335   2.757   0.365  1.6444 -0.9112  0.2906
 8323SOL    HW236429   4.445   2.809   0.274  0.4296  0.4376  0.5133
 8324SOL     OW36430   2.472   2.610   4.326  0.1342 -0.0476  0.5855
 8324SOL    HW136431   2.448   2.526   4.288 -1.8570  0.7228  0.1303
 8324SOL    HW236432   2.430   2.618   4.412 -1.3604 -0.8497 -0.0753
 8325SOL     OW36433   1.937   2.904   0.737 -0.3756 -0.5954 -0.0356
 8325SOL    HW136434   1.993   2.949   0.801 -1.5711 -0.1202  0.6619
 8325SOL    HW236435   1.925   2.971   0.669  1.6050 -0.9840 -0.7997
 8326SOL     OW36436   3.256   2.140   7.483 -0.2451  0.0167 -0.2653
 8326SOL    HW136437   3.347   2.118   7.503  0.1214  0.4520 -1.4438
 8326SOL    HW236438   3.259   2.198   7.406  0.4320 -1.8481 -1.6319
 8327SOL     OW36439   4.656   1.496  14.765 -0.7285  0.0770  0.2422
 8327SOL    HW136440   0.011   1.532  14.807  0.5497  0.8627 -2.8031
 8327SOL    HW236441   4.650   1.553  14.688 -0.7965 -0.0221  0.1737
 8328SOL     OW36442   4.129   1.694  13.255  0.1679  0.6398 -0.2391
 8328SOL    HW136443   4.191   1.757  13.290  0.2805 -0.3592  1.3771
 8328SOL    HW236444   4.060   1.758  13.236  0.3676  1.0078  0.2932
 8329SOL     OW36445   4.018   3.250   5.155 -0.1284 -0.0396  0.1169
 8329SOL    HW136446   4.042   3.171   5.106 -0.2351  1.7487 -2.7624
 8329SOL    HW236447   3.962   3.297   5.095 -0.8470 -0.4225  0.4802
 8330SOL     OW36448   3.560   3.957   8.570 -0.1870 -0.2250 -0.3126
 8330SOL    HW136449   3.544   3.881   8.514 -1.6787 -1.6323  2.0346
 8330SOL    HW236450   3.655   3.950   8.573 -0.3659 -1.5415  2.0125
 8331SOL     OW36451   2.411   1.101   5.460  1.1085  0.4367 -0.1556
 8331SOL    HW136452   2.473   1.078   5.530  0.1146  0.8731  0.8617
 8331SOL    HW236453   2.332   1.052   5.484  1.6011 -1.4584 -2.4005
 8332SOL     OW36454   4.505   2.098   7.512  0.7803  0.0201  0.2400
 8332SOL    HW136455   4.546   2.022   7.555 -1.0177 -0.1894  1.6068
 8332SOL    HW236456   4.462   2.055   7.439 -1.4329  0.4435  1.2897
 8333SOL     OW36457   2.990   0.866   3.087 -0.2975  0.3684  0.0208
 8333SOL    HW136458   3.027   0.881   3.000  0.7247  1.0179  0.5578
 8333SOL    HW236459   3.042   0.789   3.110 -0.1309  0.4196 -0.1812
 8334SOL     OW36460   4.670   4.616   8.758  0.3590 -0.3338 -0.0632
 8334SOL    HW136461   4.723   4.690   8.788  1.0014 -0.1836 -1.5573
 8334SOL    HW236462   0.017   4.556   8.734  0.4847 -0.1020 -0.2672
 8335SOL     OW36463   2.187   1.623  12.607  0.1289  0.2801 -0.3147
 8335SOL    HW136464   2.198   1.528  12.611  1.4173  0.4438  0.0052
 8335SOL    HW236465   2.244   1.655  12.537  0.3859 -0.0385 -0.2472
 8336SOL     OW36466   2.631   2.365   6.905 -0.3576  0.2442  0.5559
 8336SOL    HW136467   2.687   2.316   6.964 -2.1968 -0.0575  2.0377
 8336SOL    HW236468   2.566   2.393   6.969  1.0625  1.4178  1.4765
 8337SOL     OW36469   0.639   2.351   6.056 -0.2798  0.6438  0.4465
 8337SOL    HW136470   0.649   2.261   6.025  1.3776  1.1519 -0.4691
 8337SOL    HW236471   0.655   2.387   5.969  2.1890 -1.2760  0.1007
 8338SOL     OW36472   4.572   1.272   0.077  0.3158 -0.1333  0.0315
 8338SOL    HW136473   4.565   1.339   0.145 -4.2553  0.5543 -1.0512
 8338SOL    HW236474   4.626   1.312   0.010 -1.0626  0.2395 -0.8710
 8339SOL     OW36475   4.539   0.571  13.650 -0.4251 -0.1628 -0.0383
 8339SOL    HW136476   4.603   0.624  13.697 -1.0662 -0.5960  1.3075
 8339SOL    HW236477   4.495   0.640  13.599 -0.3000 -0.5810 -0.7153
 8340SOL     OW36478   1.372   1.374   6.438  0.5345 -0.2707 -0.5435
 8340SOL    HW136479   1.289   1.355   6.483  0.3683  0.5574 -0.4904
 8340SOL    HW236480   1.398   1.455   6.482 -0.7772  0.9080 -1.9083
 8341SOL     OW36481   0.635   0.030  15.524 -0.1078 -0.0080 -0.0307
 8341SOL    HW136482   0.581   0.043  15.601  0.2055 -0.2672  0.2343
 8341SOL    HW236483   0.633   0.120  15.492 -0.8402 -0.1414 -0.3498
 8342SOL     OW36484   4.120   1.652  15.038 -0.7057 -0.2662  0.5125
 8342SOL    HW136485   4.113   1.557  15.045 -0.4995 -0.1782  1.8402
 8342SOL    HW236486   4.134   1.652  14.943  1.5961 -0.3134  0.8479
 8343SOL     OW36487   1.060   1.056   4.571  0.1496 -0.2041 -0.5230
 8343SOL    HW136488   0.998   1.122   4.540  1.9725  1.9657  0.4264
 8343SOL    HW236489   1.098   1.022   4.490  0.3184  1.2028 -1.0473
 8344SOL     OW36490   1.638   2.259  10.536 -0.5982  0.1499 -0.0108
 8344SOL    HW136491   1.675   2.346  10.520 -1.0214  0.1470 -1.0526
 8344SOL    HW236492   1.651   2.245  10.629 -1.7665 -2.6812 -0.2772
 8345SOL     OW36493   1.429   4.697  11.721 -0.1453  0.0483  0.0215
 8345SOL    HW136494   1.423   4.689  11.816 -0.8174  0.1640 -0.0138
 8345SOL    HW236495   1.511   4.655  11.696  0.4965  0.3522  1.6573
 8346SOL     OW36496   1.407   1.384   4.551  0.4803  0.0851 -0.2696
 8346SOL    HW136497   1.388   1.335   4.470  2.6215 -0.5895 -0.3599
 8346SOL    HW236498   1.409   1.474   4.518  1.2203  0.5472  1.0680
 8347SOL     OW36499   3.433   4.197   8.650 -0.5726 -0.3492  0.2241
 8347SOL    HW136500   3.346   4.188   8.611 -0.4952  1.3489 -0.3044
 8347SOL    HW236501   3.464   4.106   8.655 -0.9498 -0.5865 -1.6047
 8348SOL     OW36502   0.345   0.311   7.279  0.2065  0.1694  0.1601
 8348SOL    HW136503   0.333   0.223   7.243 -1.7540  0.2042  0.7524
 8348SOL    HW236504   0.440   0.317   7.269  0.1049 -0.2858 -1.0368
 8349SOL     OW36505   3.014   2.143  11.378 -0.4693 -0.2542  0.5380
 8349SOL    HW136506   2.999   2.189  11.461  1.4819 -1.1049  1.3542
 8349SOL    HW236507   2.928   2.104  11.363  0.3153 -0.5484 -3.1151
 8350SOL     OW36508   1.901   2.855   6.629 -0.0403 -0.6046 -0.0345
 8350SOL    HW136509   1.933   2.876   6.717 -0.2053  0.1871 -0.1660
 8350SOL    HW236510   1.826   2.801   6.654 -1.0731  1.5475  1.5022
 8351SOL     OW36511   2.306   2.211  17.539  0.5483 -0.2331  0.1410
 8351SOL    HW136512   2.303   2.140  17.602  0.8638  0.0038  0.4260
 8351SOL    HW236513   2.234   2.185  17.481  1.5500 -0.4572 -1.0186
 8352SOL     OW36514   2.656   3.017   3.385  0.6237  0.6277  0.2127
 8352SOL    HW136515   2.585   3.049   3.440  0.5804 -0.5351  0.8193
 8352SOL    HW236516   2.641   3.070   3.306 -2.5469  0.2003  0.5466
 8353SOL     OW36517   3.843   4.041   2.893 -0.2552 -0.1600  0.0979
 8353SOL    HW136518   3.885   4.026   2.978 -0.7299  0.0168  0.3630
 8353SOL    HW236519   3.924   4.057   2.844 -0.6065  0.8897 -0.1470
 8354SOL     OW36520   3.675   4.557   7.621 -0.2536  0.0116  0.9147
 8354SOL    HW136521   3.610   4.583   7.687 -0.5795  1.2589  0.1086
 8354SOL    HW236522   3.737   4.629   7.623 -1.1007  0.7150  1.6641
 8355SOL     OW36523   3.924   0.857  10.844 -0.0623 -0.1388  0.7032
 8355SOL    HW136524   3.832   0.863  10.821  0.0751  2.1229  0.7276
 8355SOL    HW236525   3.931   0.803  10.923  2.5463 -0.6526  0.0998
 8356SOL     OW36526   4.559   0.261  10.215  0.1058 -0.0033  0.0975
 8356SOL    HW136527   4.468   0.286  10.227  0.4579  0.6036  1.5056
 8356SOL    HW236528   4.566   0.183  10.269  1.7672 -0.3679 -0.6469
 8357SOL     OW36529   2.927   4.473  13.103 -0.1881 -0.1488  0.1796
 8357SOL    HW136530   2.950   4.564  13.117 -0.2942 -0.1535  0.3887
 8357SOL    HW236531   2.869   4.478  13.028 -0.1194 -0.6126  0.0961
 8358SOL     OW36532   1.800   4.440   5.501  0.2787 -0.4021  0.6658
 8358SOL    HW136533   1.777   4.516   5.448 -2.2970 -1.5946  0.0980
 8358SOL    HW236534   1.886   4.465   5.535  1.1645 -1.9428 -0.4208
 8359SOL     OW36535   4.434   4.628  15.559 -0.5280  0.7461  0.1239
 8359SOL    HW136536   4.421   4.710  15.511 -3.8840  0.4332  0.4981
 8359SOL    HW236537   4.351   4.580  15.552 -0.7920  1.6047 -2.5863
 8360SOL     OW36538   3.654   0.929   3.361  0.5261 -0.0838  0.2165
 8360SOL    HW136539   3.623   1.001   3.305 -0.5226 -1.3587 -0.8300
 8360SOL    HW236540   3.591   0.858   3.353 -1.7760  1.8493  1.0357
 8361SOL     OW36541   1.661   3.332   8.265  0.2512  0.7451  0.1676
 8361SOL    HW136542   1.616   3.291   8.191  1.9773  1.0019 -1.0263
 8361SOL    HW236543   1.684   3.422   8.241 -1.9107  1.2525  0.0252
 8362SOL     OW36544   2.866   0.692   0.074  0.3540  0.5469 -0.0268
 8362SOL    HW136545   2.935   0.694   0.140  1.4308 -0.7976 -1.0937
 8362SOL    HW236546   2.782   0.687   0.119  0.6388 -0.2017  0.4220
 8363SOL     OW36547   0.121   3.203   8.089  0.4530 -0.2444  0.2312
 8363SOL    HW136548   0.078   3.227   8.172 -0.5954 -2.1484  0.2430
 8363SOL    HW236549   0.141   3.110   8.099 -0.0297 -0.2812  0.8911
 8364SOL     OW36550   0.474   1.589   7.177  0.1963  0.2806  0.0398
 8364SOL    HW136551   0.532   1.586   7.100 -0.6300 -1.1695 -0.5259
 8364SOL    HW236552   0.450   1.681   7.177  0.3219  0.3151 -0.2280
 8365SOL     OW36553   2.540   4.055   8.432 -0.4157 -0.4212 -0.2193
 8365SOL    HW136554   2.459   4.102   8.410 -0.1566  0.0387 -0.1676
 8365SOL    HW236555   2.608   4.102   8.384  0.9085 -1.0058  1.0858
 8366SOL     OW36556   2.184   1.991  10.979  0.2375  0.0967  0.1669
 8366SOL    HW136557   2.152   1.945  11.056 -2.1520 -1.6960 -1.9047
 8366SOL    HW236558   2.137   2.073  10.991 -0.3106  0.4851 -4.8709
 8367SOL     OW36559   4.130   2.815   5.783  1.1844 -0.4583 -0.7110
 8367SOL    HW136560   4.138   2.814   5.879 -2.4087  1.8985 -0.3761
 8367SOL    HW236561   4.163   2.726   5.768 -0.5345 -0.7825 -2.5844
 8368SOL     OW36562   2.532   0.704   1.400 -0.2381 -0.3493  0.0281
 8368SOL    HW136563   2.450   0.693   1.352 -1.0843  1.3785  1.0516
 8368SOL    HW236564   2.549   0.792   1.365 -1.5398  1.0694  2.8942
 8369SOL     OW36565   1.889   1.652  11.402  0.1309  0.1604 -0.3470
 8369SOL    HW136566   1.855   1.615  11.320  0.3788  1.8996 -1.2347
 8369SOL    HW236567   1.805   1.663  11.447 -0.5524 -0.3788 -1.4898
 8370SOL     OW36568   0.605   0.617   4.528 -0.0195 -0.5148 -0.4018
 8370SOL    HW136569   0.551   0.678   4.479 -0.4290  0.0408  0.7520
 8370SOL    HW236570   0.542   0.586   4.593  2.5824 -1.6071  1.6214
 8371SOL     OW36571   4.495   1.549   5.217  0.5125  0.2248  0.0166
 8371SOL    HW136572   4.589   1.535   5.206  0.1592 -1.9261 -0.2925
 8371SOL    HW236573   4.501   1.643   5.232 -0.5802  0.2718  0.1251
 8372SOL     OW36574   2.031   4.124  13.130 -0.9073  0.5466 -0.1107
 8372SOL    HW136575   2.019   4.168  13.045  0.4921 -0.1140 -0.6482
 8372SOL    HW236576   1.954   4.067  13.128 -0.4562 -0.0391 -0.8217
 8373SOL     OW36577   4.014   1.405   9.620  0.5280 -0.6095  0.2710
 8373SOL    HW136578   3.992   1.411   9.713  1.2525  0.5220  0.3767
 8373SOL    HW236579   4.076   1.479   9.624 -0.6163  0.4226 -1.1368
 8374SOL     OW36580   1.278   0.828   3.620  0.7207  0.1024 -0.3688
 8374SOL    HW136581   1.369   0.857   3.618  0.6764  0.2368 -0.4024
 8374SOL    HW236582   1.229   0.908   3.602 -0.0949 -0.3736 -0.3202
 8375SOL     OW36583   0.113   4.205  11.862 -0.1468  0.1704 -0.3762
 8375SOL    HW136584   0.053   4.245  11.799  0.5078  0.6099 -0.7230
 8375SOL    HW236585   0.065   4.187  11.943  1.1076 -2.2029 -0.1675
 8376SOL     OW36586   3.418   3.016   4.204  0.6760  0.6957  0.0119
 8376SOL    HW136587   3.424   2.947   4.270  0.8606  1.2813  0.6039
 8376SOL    HW236588   3.495   3.064   4.236  0.1716  0.3009  1.7785
 8377SOL     OW36589   2.259   0.467   4.507  0.6324  0.3736 -0.3281
 8377SOL    HW136590   2.210   0.387   4.486 -0.9620  0.6312  2.4886
 8377SOL    HW236591   2.188   0.527   4.529 -0.3378 -1.1326  0.6203
 8378SOL     OW36592   3.223   2.731  15.077 -0.2693  0.4197  1.0128
 8378SOL    HW136593   3.241   2.804  15.135  1.0559 -0.4123  1.6369
 8378SOL    HW236594   3.173   2.782  15.013  0.3685  0.1472  0.2908
 8379SOL     OW36595   3.690   4.548   2.084 -0.1921 -0.6023 -0.2671
 8379SOL    HW136596   3.605   4.591   2.079  1.1005  1.8251 -1.6528
 8379SOL    HW236597   3.699   4.551   2.179  0.5967  0.7386 -0.3883
 8380SOL     OW36598   3.768   0.793  12.675  0.1715  0.3345 -0.4810
 8380SOL    HW136599   3.824   0.784  12.752 -0.0769  1.9122 -0.1158
 8380SOL    HW236600   3.685   0.749  12.692  0.7569 -0.5501  0.0655
 8381SOL     OW36601   3.217   0.571   8.981  0.7879  0.3417  0.1358
 8381SOL    HW136602   3.125   0.548   8.965  1.3266  0.2693 -2.8356
 8381SOL    HW236603   3.205   0.613   9.066 -1.1819  3.1063 -1.4983
 8382SOL     OW36604   0.942   3.872  11.708 -0.0201  0.5146  0.4917
 8382SOL    HW136605   0.940   3.817  11.786  0.7515 -1.4004 -0.8517
 8382SOL    HW236606   0.865   3.844  11.659  0.8124  1.8588 -1.5558
 8383SOL     OW36607   2.094   3.685  17.066 -0.4232 -0.3465 -0.0687
 8383SOL    HW136608   2.030   3.684  16.994 -1.8577  0.1928  1.1782
 8383SOL    HW236609   2.060   3.761  17.113  0.3700  0.1886 -0.3722
 8384SOL     OW36610   0.221   4.152   3.917 -0.2647  0.8479  0.1399
 8384SOL    HW136611   0.179   4.205   3.849  0.3537 -1.9643 -2.4207
 8384SOL    HW236612   0.148   4.105   3.956 -1.7314  2.5456 -0.5260
 8385SOL     OW36613   0.839   4.539   3.311  0.0031 -0.0675 -0.9974
 8385SOL    HW136614   0.913   4.554   3.253 -0.2457  2.0036 -0.7801
 8385SOL    HW236615   0.865   4.462   3.362  0.0161  0.5076 -0.1379
 8386SOL     OW36616   0.064   0.360   7.756 -0.2209 -0.4453 -0.3929
 8386SOL    HW136617   0.129   0.299   7.721 -1.0590 -1.4587 -0.1688
 8386SOL    HW236618   0.078   0.344   7.849  0.6090 -0.6725 -0.5629
 8387SOL     OW36619   1.355   0.777   6.944 -0.4568 -0.3117  0.1587
 8387SOL    HW136620   1.407   0.742   7.016 -1.3185 -0.0232  0.9233
 8387SOL    HW236621   1.350   0.699   6.887 -1.6654 -0.4175  0.4146
 8388SOL     OW36622   1.729   1.487   2.802 -0.1382  0.2583 -0.1915
 8388SOL    HW136623   1.703   1.397   2.783  1.0456 -0.0141 -0.5225
 8388SOL    HW236624   1.816   1.473   2.763 -1.0712 -3.1774 -1.0135
 8389SOL     OW36625   2.566   1.854   6.901  0.4818  0.0902  0.2020
 8389SOL    HW136626   2.538   1.854   6.992 -0.0134 -3.2366  0.0809
 8389SOL    HW236627   2.593   1.763   6.889 -1.5162 -0.0574 -3.1880
 8390SOL     OW36628   3.985   3.060   9.867 -0.4923 -0.4958 -0.3045
 8390SOL    HW136629   3.949   3.148   9.879  1.9681  0.4518  0.2189
 8390SOL    HW236630   4.079   3.075   9.853  0.0219 -0.5575  2.9879
 8391SOL     OW36631   4.040   3.443  13.234  0.3360  0.0613  0.3999
 8391SOL    HW136632   3.964   3.494  13.205  1.9231  1.8930 -0.5012
 8391SOL    HW236633   3.997   3.358  13.247  0.6216 -0.4490 -2.0356
 8392SOL     OW36634   4.390   3.755   2.532  0.3695 -0.1139 -0.3400
 8392SOL    HW136635   4.449   3.683   2.511  2.4454  1.3349  0.5687
 8392SOL    HW236636   4.409   3.768   2.625  3.4332 -2.6825 -0.5978
 8393SOL     OW36637   2.398   0.219   7.877  0.4900 -0.1066 -0.1399
 8393SOL    HW136638   2.376   0.180   7.961  2.2822 -1.2581 -0.1999
 8393SOL    HW236639   2.374   0.308   7.904 -1.3337 -1.5833  3.0742
 8394SOL     OW36640   3.880   3.642  11.202  0.9113  0.6754 -0.3817
 8394SOL    HW136641   3.871   3.616  11.293 -0.8492  1.7207 -0.2386
 8394SOL    HW236642   3.856   3.557  11.165 -1.0530  0.7928  0.5928
 8395SOL     OW36643   4.331   2.962  16.063  0.4582  0.4142  0.1677
 8395SOL    HW136644   4.399   2.985  16.127 -1.4131 -1.4561  2.8142
 8395SOL    HW236645   4.253   2.952  16.118  0.1204 -2.1923 -0.8095
 8396SOL     OW36646   1.800   3.179   1.128 -0.1156 -0.1991  0.6099
 8396SOL    HW136647   1.891   3.154   1.142 -0.6558 -2.5653 -0.0939
 8396SOL    HW236648   1.798   3.239   1.053 -0.4870  0.8808  1.4899
 8397SOL     OW36649   1.796   2.972   9.845 -0.3706 -0.2919 -0.2248
 8397SOL    HW136650   1.849   2.909   9.893  1.6352  0.5956 -1.2609
 8397SOL    HW236651   1.852   2.979   9.767 -1.2781  0.3521 -0.8204
 8398SOL     OW36652   1.898   2.376   1.417  0.2103  0.4924  0.1404
 8398SOL    HW136653   1.846   2.323   1.478 -1.1579  1.5323 -0.1279
 8398SOL    HW236654   1.986   2.363   1.454 -0.8147  0.4783  2.5377
 8399SOL     OW36655   4.051   0.531   4.912 -0.2911 -0.4938 -0.4195
 8399SOL    HW136656   4.045   0.467   4.841  1.2551 -0.6790 -0.3980
 8399SOL    HW236657   4.146   0.538   4.924 -0.4105 -0.0333  0.2366
 8400SOL     OW36658   2.446   0.556   7.049 -0.5081  0.4792 -0.8155
 8400SOL    HW136659   2.353   0.576   7.036 -0.9038 -0.0280  1.2208
 8400SOL    HW236660   2.483   0.600   6.972  1.1795  0.2907 -0.1161
 8401SOL     OW36661   2.756   1.626   7.257 -0.1170 -0.3950 -0.1527
 8401SOL    HW136662   2.822   1.671   7.310  0.3261  1.2681 -2.1359
 8401SOL    HW236663   2.801   1.630   7.173 -1.6900  0.1513 -0.9674
 8402SOL     OW36664   2.449   1.366   2.537 -0.4612 -0.6630 -0.3469
 8402SOL    HW136665   2.441   1.279   2.496 -2.7686 -0.3452 -0.5821
 8402SOL    HW236666   2.522   1.417   2.503 -1.3231  0.4128 -0.5858
 8403SOL     OW36667   2.660   4.298  14.097  0.3895  0.3223  0.9105
 8403SOL    HW136668   2.743   4.252  14.088  0.1709  0.0869  0.1332
 8403SOL    HW236669   2.704   4.373  14.138  2.8293 -1.0289  0.7765
 8404SOL     OW36670   0.118   2.079  14.204  0.1218 -0.2942 -0.0765
 8404SOL    HW136671   0.047   2.050  14.261  0.5356 -0.0695  0.5431
 8404SOL    HW236672   0.152   2.154  14.252 -1.3371  0.6828 -0.5681
 8405SOL     OW36673   1.114   3.697   9.524 -0.8696  0.2369  0.4629
 8405SOL    HW136674   1.063   3.659   9.595  0.6013 -0.5920  1.0868
 8405SOL    HW236675   1.097   3.639   9.449 -3.4933 -2.5162  3.1818
 8406SOL     OW36676   3.443   4.585  11.586 -1.1138 -0.9109  0.2818
 8406SOL    HW136677   3.367   4.643  11.582 -0.3629 -0.1098 -2.3409
 8406SOL    HW236678   3.485   4.584  11.500 -0.1453 -3.2958  0.7957
 8407SOL     OW36679   0.912   0.113   2.654  0.3548  0.2008 -0.0494
 8407SOL    HW136680   0.967   0.134   2.579 -0.1933 -0.3762 -0.6203
 8407SOL    HW236681   0.941   0.023   2.670 -0.8554 -0.1780  0.0297
 8408SOL     OW36682   0.311   4.448   3.352  0.2890 -0.3461 -0.2311
 8408SOL    HW136683   0.387   4.489   3.312  1.1934 -1.9444 -0.1369
 8408SOL    HW236684   0.265   4.426   3.270  0.2062 -0.2084 -0.2219
 8409SOL     OW36685   0.375   0.798   1.657  0.4488 -0.2215  0.1083
 8409SOL    HW136686   0.338   0.720   1.616 -1.3139  1.2534 -1.1377
 8409SOL    HW236687   0.299   0.839   1.699  1.6255  0.5932  1.4295
 8410SOL     OW36688   4.573   2.653   5.060  0.1406 -0.1374 -0.2534
 8410SOL    HW136689   4.541   2.718   5.123  2.3231 -0.9184  1.6758
 8410SOL    HW236690   4.495   2.646   5.005  1.3052 -4.2218 -1.3948
 8411SOL     OW36691   1.967   4.204  12.113  0.1822 -0.1984 -0.2267
 8411SOL    HW136692   1.915   4.147  12.170  1.2184 -0.3868  0.5321
 8411SOL    HW236693   1.929   4.287  12.142  2.4623  0.3795  1.1167
 8412SOL     OW36694   0.844   0.981   8.900 -0.6544  0.4917 -0.0061
 8412SOL    HW136695   0.921   1.021   8.860 -0.0884  0.4487  1.0300
 8412SOL    HW236696   0.787   1.054   8.924  0.8297  1.6827 -0.1052
 8413SOL     OW36697   1.006   1.476   6.929  0.4390  0.4964 -0.0230
 8413SOL    HW136698   1.071   1.405   6.927 -1.5679 -1.3088 -1.2623
 8413SOL    HW236699   1.011   1.523   6.846 -1.1360  1.0041  0.1709
 8414SOL     OW36700   0.406   4.219  17.280 -0.0813  0.3769 -0.0326
 8414SOL    HW136701   0.375   4.300  17.321 -1.7619 -1.5879  2.5457
 8414SOL    HW236702   0.463   4.257  17.213 -0.1943  1.2384  0.3512
 8415SOL     OW36703   2.321   2.491  17.578 -0.1049 -0.8268  0.3463
 8415SOL    HW136704   2.321   2.407  17.623  1.1239 -1.6616 -1.2121
 8415SOL    HW236705   2.309   2.462  17.488  0.0721  0.8155 -0.2137
 8416SOL     OW36706   1.977   4.210   1.673 -0.1123 -0.1024  0.2044
 8416SOL    HW136707   1.978   4.279   1.740 -3.2858 -0.5638  0.6839
 8416SOL    HW236708   1.885   4.187   1.664 -0.2514  1.1734 -1.5729
 8417SOL     OW36709   3.519   2.392   8.441 -0.0152 -0.1907 -0.1309
 8417SOL    HW136710   3.527   2.480   8.477 -3.0946  0.8483 -1.9647
 8417SOL    HW236711   3.468   2.353   8.513  0.0517  2.8797  1.5590
 8418SOL     OW36712   3.516   1.829   6.701  0.3650  0.0463 -0.2057
 8418SOL    HW136713   3.561   1.795   6.624 -0.9960 -0.7666 -0.6483
 8418SOL    HW236714   3.543   1.765   6.767  1.8125  2.2717  1.3187
 8419SOL     OW36715   3.939   0.658   0.713 -0.3749 -0.6151  0.5868
 8419SOL    HW136716   3.941   0.663   0.618 -1.7379 -1.8120  0.5009
 8419SOL    HW236717   3.891   0.738   0.738  1.2220  0.0562  1.4898
 8420SOL     OW36718   4.070   0.576   7.004  0.7775  0.4873  0.1003
 8420SOL    HW136719   4.007   0.510   7.032  1.3110  0.0998  0.3858
 8420SOL    HW236720   4.119   0.528   6.938  0.3967 -1.7290  1.4275
 8421SOL     OW36721   3.404   0.263   6.735  0.1647  0.0085 -0.1902
 8421SOL    HW136722   3.319   0.307   6.739  0.6119  0.7275  1.6969
 8421SOL    HW236723   3.450   0.315   6.670  0.5266  0.1119  0.1493
 8422SOL     OW36724   3.719   2.613   5.641 -0.2539  0.0372 -0.1343
 8422SOL    HW136725   3.757   2.646   5.559  2.1493 -5.0623 -1.0555
 8422SOL    HW236726   3.745   2.674   5.710  2.1863 -2.2030  0.8935
 8423SOL     OW36727   2.176   4.240   0.317  0.2775 -0.1776 -0.0374
 8423SOL    HW136728   2.101   4.195   0.357 -0.1552 -0.7859 -1.5559
 8423SOL    HW236729   2.150   4.234   0.225  2.3250 -1.2825 -0.5324
 8424SOL     OW36730   2.238   1.888   7.938 -0.2069  0.1080 -0.6459
 8424SOL    HW136731   2.331   1.908   7.922 -0.3230  1.4687  0.3535
 8424SOL    HW236732   2.231   1.805   7.891  2.6007 -0.4053 -0.1779
 8425SOL     OW36733   1.561   1.888   5.485 -0.2641 -0.2801  0.0395
 8425SOL    HW136734   1.559   1.854   5.575  2.2548 -1.7333 -0.4209
 8425SOL    HW236735   1.472   1.918   5.467 -0.1717  0.0219  0.0895
 8426SOL     OW36736   4.568   4.041   1.760 -0.1531 -0.8348  0.1519
 8426SOL    HW136737   4.602   3.982   1.692  0.5235 -2.2687  1.7397
 8426SOL    HW236738   4.475   4.043   1.738  0.1386  3.8294 -0.6058
 8427SOL     OW36739   1.051   1.996   3.566  0.8349 -0.0919 -0.4085
 8427SOL    HW136740   1.048   1.940   3.644 -1.7311 -0.9924 -1.1553
 8427SOL    HW236741   0.995   1.947   3.506 -0.7555  0.6806  0.4608
 8428SOL     OW36742   1.227   1.888  14.920 -0.6345  0.2459 -0.3940
 8428SOL    HW136743   1.249   1.803  14.959  1.2928  0.2011 -1.6108
 8428SOL    HW236744   1.270   1.945  14.982 -1.8051  0.2423  0.4219
 8429SOL     OW36745   0.456   1.559  12.360  0.3153 -0.3776  0.3646
 8429SOL    HW136746   0.488   1.649  12.366 -1.0405  0.0193  1.7866
 8429SOL    HW236747   0.482   1.545  12.269 -2.1822 -0.5734 -0.3285
 8430SOL     OW36748   3.798   1.229   2.336 -0.0977  0.4721 -0.0220
 8430SOL    HW136749   3.736   1.179   2.284  1.4871 -1.1390 -0.3239
 8430SOL    HW236750   3.854   1.155   2.358  0.0355  0.2997 -0.9573
 8431SOL     OW36751   1.190   3.435   5.362 -0.5535 -0.2974  0.0798
 8431SOL    HW136752   1.121   3.408   5.301 -0.1153  1.2750 -1.1050
 8431SOL    HW236753   1.250   3.482   5.304 -0.9928  2.3193  1.7876
 8432SOL     OW36754   1.092   3.112   6.002  0.1290 -0.1210 -0.2437
 8432SOL    HW136755   1.094   3.024   5.963  1.5801 -0.8765  1.5354
 8432SOL    HW236756   1.103   3.163   5.922 -0.3099  0.3870  0.0231
 8433SOL     OW36757   3.166   2.459   4.839 -0.4423  0.0302 -0.3631
 8433SOL    HW136758   3.136   2.372   4.814 -0.2877 -0.0956 -0.1157
 8433SOL    HW236759   3.248   2.442   4.886 -1.1134  1.2345  1.2779
 8434SOL     OW36760   0.940   0.557   6.980  0.4422  0.2906  0.4092
 8434SOL    HW136761   0.851   0.581   7.003  1.3491  3.0147  1.0571
 8434SOL    HW236762   0.935   0.577   6.887  0.5179  0.0667  0.3557
 8435SOL     OW36763   0.220   0.453   6.696 -0.5708  0.3150 -0.5456
 8435SOL    HW136764   0.146   0.463   6.756 -0.4009  1.0505 -0.4572
 8435SOL    HW236765   0.169   0.409   6.628 -0.7256 -0.7330  0.2418
 8436SOL     OW36766   3.097   1.443  13.016  0.4452  0.3489 -0.2328
 8436SOL    HW136767   3.033   1.460  13.085  1.1130 -0.2623  0.5340
 8436SOL    HW236768   3.121   1.356  13.049 -0.5310  0.4637  0.7877
 8437SOL     OW36769   4.643   0.717   2.001 -0.0067 -0.4522 -0.1888
 8437SOL    HW136770   4.710   0.671   1.950  2.1508  0.5427  1.7474
 8437SOL    HW236771   4.570   0.713   1.938 -1.3708 -3.4247  1.5754
 8438SOL     OW36772   2.309   2.232   1.230  0.0441  0.3928 -0.1039
 8438SOL    HW136773   2.310   2.291   1.154 -2.9760  0.7765  0.1229
 8438SOL    HW236774   2.263   2.158   1.190  2.0480 -0.9199  0.0102
 8439SOL     OW36775   2.497   1.674   7.201 -0.7351  0.6779  0.0610
 8439SOL    HW136776   2.449   1.591   7.195  0.7269  0.0289 -2.8211
 8439SOL    HW236777   2.583   1.651   7.237  0.7221  0.9337 -3.2711
 8440SOL     OW36778   2.219   0.079   6.795 -0.4132 -0.3757 -0.1982
 8440SOL    HW136779   2.250   4.712   6.801  2.1281  0.3022 -2.7771
 8440SOL    HW236780   2.298   0.114   6.754 -0.9342  0.9670 -0.0336
 8441SOL     OW36781   2.903   0.547   3.986  0.5033  0.0567  0.2765
 8441SOL    HW136782   2.846   0.471   3.992  0.7240 -0.2731 -2.0599
 8441SOL    HW236783   2.987   0.501   3.980  1.2566  1.8875 -3.0670
 8442SOL     OW36784   1.863   2.573   2.700 -0.2976 -0.4880 -0.0925
 8442SOL    HW136785   1.884   2.648   2.644 -1.5928  0.6052  0.8897
 8442SOL    HW236786   1.849   2.512   2.627 -3.0417 -0.3992  0.3716
 8443SOL     OW36787   0.437   4.353   2.479  0.2742 -0.1341  0.2941
 8443SOL    HW136788   0.408   4.371   2.389 -0.5412 -1.1804  0.3443
 8443SOL    HW236789   0.531   4.349   2.464  0.3378  0.6352  0.5055
 8444SOL     OW36790   4.428   3.159   1.428 -0.0657 -0.1780 -0.2154
 8444SOL    HW136791   4.344   3.118   1.410 -1.5997  2.1115  1.7507
 8444SOL    HW236792   4.422   3.150   1.523  3.2325  1.9030  0.1975
 8445SOL     OW36793   3.739   3.534   4.090  0.8150 -0.2143 -0.5355
 8445SOL    HW136794   3.728   3.517   4.184  0.5705  1.3357 -0.2824
 8445SOL    HW236795   3.687   3.458   4.063  2.4072 -2.0853  1.5991
 8446SOL     OW36796   0.091   0.177   2.613 -0.1730 -0.1163  0.2836
 8446SOL    HW136797   0.009   0.200   2.569 -1.1622 -0.4543  1.9440
 8446SOL    HW236798   0.143   0.187   2.534  1.3720 -3.0168  0.9446
 8447SOL     OW36799   1.750   3.545   3.992 -0.3052 -0.0391 -0.0021
 8447SOL    HW136800   1.822   3.487   4.017 -0.6372 -0.7922 -0.7531
 8447SOL    HW236801   1.793   3.629   4.005  1.9303 -1.4431  1.6447
 8448SOL     OW36802   0.991   1.164   1.953  0.6816  0.5307  0.4194
 8448SOL    HW136803   1.033   1.247   1.930  2.9586 -0.7304 -0.0067
 8448SOL    HW236804   0.968   1.130   1.867 -1.3253 -1.0763  1.6088
 8449SOL     OW36805   0.488   0.163   8.666  0.7702 -0.5115  0.5348
 8449SOL    HW136806   0.501   0.248   8.623  1.7279 -0.6706  0.5050
 8449SOL    HW236807   0.499   0.179   8.760  0.5704 -1.8789  0.7928
 8450SOL     OW36808   3.993   3.213   3.921  0.5764 -0.2823 -0.3920
 8450SOL    HW136809   4.020   3.131   3.880 -0.1812 -1.7964  2.1233
 8450SOL    HW236810   4.076   3.242   3.957  0.7383 -0.2102 -0.8268
 8451SOL     OW36811   1.975   2.273   5.016 -0.4888  0.1132  0.2298
 8451SOL    HW136812   1.991   2.183   5.043 -1.1277 -0.2215 -0.4997
 8451SOL    HW236813   1.880   2.266   5.010 -0.3816 -1.0499  0.0285
 8452SOL     OW36814   3.106   4.392   5.140 -0.0185 -0.5091  0.1076
 8452SOL    HW136815   3.162   4.451   5.189 -2.0184  2.4268 -1.1407
 8452SOL    HW236816   3.054   4.355   5.212  0.4077 -1.2306  0.0363
 8453SOL     OW36817   4.197   1.410   8.709  0.2448  0.0083 -0.7008
 8453SOL    HW136818   4.205   1.498   8.673 -0.1423 -0.2774 -1.4961
 8453SOL    HW236819   4.255   1.425   8.783  2.0197  0.0789 -2.1104
 8454SOL     OW36820   3.077   4.714   3.598  0.5999 -0.2801  0.2053
 8454SOL    HW136821   3.157   0.043   3.598  0.4845 -0.1045  0.2610
 8454SOL    HW236822   3.067   4.694   3.505  1.6240 -1.8137  0.4266
 8455SOL     OW36823   1.184   4.088   3.540  0.0935  0.8425 -0.1895
 8455SOL    HW136824   1.230   4.170   3.555 -1.3190  1.7263 -0.6169
 8455SOL    HW236825   1.099   4.127   3.561 -1.4061 -2.6297  0.2206
 8456SOL     OW36826   0.301   1.942   1.263 -0.1886  0.0487 -0.0491
 8456SOL    HW136827   0.336   1.911   1.179 -1.1027 -0.7280 -0.1391
 8456SOL    HW236828   0.307   1.866   1.322  0.6415 -0.3034 -0.5800
 8457SOL     OW36829   1.948   2.742   0.326  0.0650  0.8213  0.2103
 8457SOL    HW136830   2.042   2.737   0.347  0.4314  1.6796 -1.2193
 8457SOL    HW236831   1.941   2.761   0.233 -0.4189 -0.3298  0.0131
 8458SOL     OW36832   2.122   4.169  14.837 -0.4255  0.2487  0.2342
 8458SOL    HW136833   2.058   4.191  14.769 -1.3125  0.2212  1.0704
 8458SOL    HW236834   2.162   4.255  14.849  1.1151 -0.4860  0.4392
 8459SOL     OW36835   4.377   4.232  13.023 -0.9376  0.0232  0.0441
 8459SOL    HW136836   4.429   4.156  12.999 -3.1649 -0.5839 -2.8763
 8459SOL    HW236837   4.448   4.295  13.037  1.4995 -2.2404 -2.0992
 8460SOL     OW36838   3.138   3.157   8.726 -0.3752  0.6129  0.3966
 8460SOL    HW136839   3.222   3.157   8.681 -0.3549  0.5251  0.4345
 8460SOL    HW236840   3.078   3.104   8.674  1.9863 -3.1597  1.5157
 8461SOL     OW36841   1.694   4.185   1.733  0.2013  0.0870  0.0449
 8461SOL    HW136842   1.625   4.143   1.682 -1.3451 -0.1739  2.3384
 8461SOL    HW236843   1.659   4.270   1.761  0.3657  0.0283  0.4409
 8462SOL     OW36844   4.119   0.164  13.732 -0.1254  0.0255 -0.3008
 8462SOL    HW136845   4.074   0.114  13.800 -2.2593  0.1950 -1.5680
 8462SOL    HW236846   4.071   0.246  13.744 -2.5104 -1.4526  0.4321
 8463SOL     OW36847   1.457   0.969   3.928  0.2057 -0.2656 -0.3559
 8463SOL    HW136848   1.433   0.878   3.914 -3.2205  0.5683  0.0400
 8463SOL    HW236849   1.495   0.985   3.841  0.7479 -0.7428 -0.2032
 8464SOL     OW36850   4.108   2.648   2.735  0.1402 -0.1928  0.8747
 8464SOL    HW136851   4.171   2.577   2.743  2.3435  1.8346  1.5749
 8464SOL    HW236852   4.152   2.696   2.664  1.9271  2.6183  3.9191
 8465SOL     OW36853   2.418   3.071   0.961  0.0782 -0.6806 -0.3358
 8465SOL    HW136854   2.426   2.985   1.003 -1.1631 -1.4106 -1.5715
 8465SOL    HW236855   2.506   3.107   0.973 -0.7344  0.8598  1.0884
 8466SOL     OW36856   1.266   3.476   3.572 -0.6610 -0.1308  0.3701
 8466SOL    HW136857   1.193   3.467   3.511 -0.1652 -0.4429 -0.1723
 8466SOL    HW236858   1.233   3.439   3.654 -0.0471 -0.4974  0.4515
 8467SOL     OW36859   1.459   2.216   2.662 -0.1573 -0.4928 -0.1249
 8467SOL    HW136860   1.524   2.198   2.729 -2.0457 -1.9766  1.2800
 8467SOL    HW236861   1.452   2.311   2.656 -1.9457 -0.7094 -1.4564
 8468SOL     OW36862   4.406   2.086   7.199  0.2470 -0.3674  0.2823
 8468SOL    HW136863   4.400   1.995   7.229  1.1313  0.3086  2.5808
 8468SOL    HW236864   4.498   2.095   7.173  1.2293 -0.8421  3.5818
 8469SOL     OW36865   3.874   0.805  17.544 -0.1034  0.3734 -0.0454
 8469SOL    HW136866   3.905   0.770  17.461 -2.1174 -0.6747 -0.3589
 8469SOL    HW236867   3.781   0.818  17.528 -0.3445  2.0661  2.6635
 8470SOL     OW36868   0.806   4.445   8.702  0.3063 -0.2982 -0.0345
 8470SOL    HW136869   0.791   4.539   8.713 -1.2079 -0.4257 -1.0041
 8470SOL    HW236870   0.753   4.424   8.625 -0.7558 -0.7443  0.8043
 8471SOL     OW36871   3.932   3.387   6.844  0.4190 -0.2022 -0.4214
 8471SOL    HW136872   3.904   3.426   6.761  0.2816  0.6465  0.0223
 8471SOL    HW236873   3.942   3.467   6.895  0.3705 -1.0421  0.9163
 8472SOL     OW36874   3.500   3.788   6.673  0.0504  0.1170 -0.1105
 8472SOL    HW136875   3.444   3.805   6.597 -0.4083  1.9127  0.6402
 8472SOL    HW236876   3.531   3.702   6.644 -1.1472 -1.2701  2.7772
 8473SOL     OW36877   1.706   2.144   9.026  0.2549  0.2202 -0.2583
 8473SOL    HW136878   1.610   2.145   9.025  0.2860 -1.6262 -2.9348
 8473SOL    HW236879   1.707   2.118   8.934  3.5035 -1.1966  0.1862
 8474SOL     OW36880   4.218   1.598   3.093 -0.7790 -0.5494 -0.0742
 8474SOL    HW136881   4.225   1.502   3.090 -1.3254 -0.5091 -3.0558
 8474SOL    HW236882   4.258   1.627   3.175 -0.5849 -0.1310 -0.3204
 8475SOL     OW36883   4.017   1.111   4.716  0.0470  0.3335 -0.0968
 8475SOL    HW136884   4.053   1.024   4.734 -0.8800 -0.1008 -0.3541
 8475SOL    HW236885   4.047   1.159   4.793  0.4613 -0.1959  0.0705
 8476SOL     OW36886   0.400   2.627   2.818  0.4068 -0.3118  0.0838
 8476SOL    HW136887   0.393   2.722   2.812  1.1720 -0.2490  0.1597
 8476SOL    HW236888   0.310   2.608   2.844  0.8777 -0.9675  1.2554
 8477SOL     OW36889   1.653   3.134   3.516  0.0536  0.5331  0.1466
 8477SOL    HW136890   1.601   3.192   3.461  0.7471  2.3242  1.3915
 8477SOL    HW236891   1.629   3.171   3.601 -0.2662  1.9790 -0.5782
 8478SOL     OW36892   2.159   1.883   8.232 -0.4196 -0.1655  0.1801
 8478SOL    HW136893   2.152   1.787   8.236  0.5549 -0.2754 -0.8588
 8478SOL    HW236894   2.210   1.900   8.153  0.5942 -1.3086  0.5821
 8479SOL     OW36895   0.283   3.400   9.614 -0.4458 -0.0482  0.0057
 8479SOL    HW136896   0.301   3.310   9.586 -1.2167 -0.1387 -0.1752
 8479SOL    HW236897   0.262   3.440   9.530  0.1767 -1.0266 -0.6201
 8480SOL     OW36898   1.268   0.164  11.638  0.1325 -0.4639  0.1603
 8480SOL    HW136899   1.220   0.117  11.571  3.0654 -1.3665 -1.3080
 8480SOL    HW236900   1.334   0.101  11.668 -0.0308 -0.3685  0.7171
 8481SOL     OW36901   3.070   3.565   4.540 -0.4586 -0.0478 -0.6456
 8481SOL    HW136902   3.012   3.640   4.548  1.6217  1.5124 -0.2225
 8481SOL    HW236903   3.064   3.546   4.446  0.0567  0.1879 -0.7217
 8482SOL     OW36904   2.212   0.898  17.460  0.4565 -0.3295 -0.3989
 8482SOL    HW136905   2.140   0.854  17.415  0.1448  2.9351 -3.1412
 8482SOL    HW236906   2.197   0.875  17.552  1.1771  0.9976  0.0504
 8483SOL     OW36907   0.734   3.857   3.098 -0.0133 -0.5141 -0.3512
 8483SOL    HW136908   0.650   3.825   3.065 -0.3341 -0.2535  0.2104
 8483SOL    HW236909   0.764   3.781   3.148 -0.4718 -0.6343 -0.2518
 8484SOL     OW36910   4.223   2.196   6.207 -0.0243 -0.1145 -0.1288
 8484SOL    HW136911   4.173   2.215   6.127 -0.6176  1.9581  0.7130
 8484SOL    HW236912   4.291   2.140   6.171 -2.2152 -2.5502 -0.5119
 8485SOL     OW36913   2.260   2.648  14.027  0.3650  0.1834 -1.0219
 8485SOL    HW136914   2.281   2.741  14.029  0.3199  0.2119 -1.7404
 8485SOL    HW236915   2.178   2.663  13.979 -0.4016  0.0121  0.2424
 8486SOL     OW36916   0.231   3.485   8.510 -0.1996 -0.2165  0.0956
 8486SOL    HW136917   0.244   3.577   8.534  0.2392 -0.5668  1.1991
 8486SOL    HW236918   0.141   3.472   8.538 -0.3516  0.1028 -0.2469
 8487SOL     OW36919   0.789   2.761   5.230  0.3022  0.0505  0.5518
 8487SOL    HW136920   0.794   2.667   5.210  0.6060 -0.0204  0.9644
 8487SOL    HW236921   0.827   2.796   5.150 -0.0659  0.8297  0.7159
 8488SOL     OW36922   1.978   1.016  15.207 -0.1018 -0.0103 -0.4798
 8488SOL    HW136923   1.900   1.053  15.165 -0.5480 -0.7670 -0.3247
 8488SOL    HW236924   1.942   0.970  15.283 -1.9290  4.0650  1.1287
 8489SOL     OW36925   0.746   3.605   9.278  0.9849 -0.2368 -0.0744
 8489SOL    HW136926   0.743   3.678   9.340 -0.2963 -1.0049  0.7591
 8489SOL    HW236927   0.777   3.659   9.205 -2.1517  1.6680  0.0219
 8490SOL     OW36928   2.550   0.953   1.315 -0.2191  0.0100  0.2025
 8490SOL    HW136929   2.480   1.015   1.294  0.8732  0.5912 -1.7317
 8490SOL    HW236930   2.597   0.962   1.232 -0.8143 -0.8982 -0.2366
 8491SOL     OW36931   1.060   1.856   7.013  0.4910  0.5984  0.0391
 8491SOL    HW136932   1.063   1.769   7.054 -0.5778  0.4952 -0.0827
 8491SOL    HW236933   1.098   1.912   7.081  1.4589 -0.8146  0.6560
 8492SOL     OW36934   3.046   4.138   0.362 -0.5378 -0.0222  0.8058
 8492SOL    HW136935   3.026   4.128   0.455  0.3072 -2.4288  0.7377
 8492SOL    HW236936   3.013   4.226   0.347 -1.0563 -0.0479  1.7909
 8493SOL     OW36937   2.707   2.525   7.388 -0.1029 -0.1518  0.4276
 8493SOL    HW136938   2.778   2.589   7.383 -0.6448  0.5648  1.9069
 8493SOL    HW236939   2.666   2.569   7.463  0.3489  0.2250  0.4566
 8494SOL     OW36940   1.132   0.109  10.517 -0.3411  0.5451 -0.1651
 8494SOL    HW136941   1.139   0.198  10.482  0.2450  0.0290 -1.3633
 8494SOL    HW236942   1.086   0.135  10.597 -1.2877 -0.9237 -0.2330
 8495SOL     OW36943   0.692   1.743   3.443 -0.1617  0.1779 -0.2138
 8495SOL    HW136944   0.728   1.667   3.396 -0.4317 -0.8459  1.2696
 8495SOL    HW236945   0.625   1.699   3.493  1.1858 -0.0373  1.3971
 8496SOL     OW36946   4.469   1.857  12.472  0.0777 -0.4143 -0.7400
 8496SOL    HW136947   4.404   1.919  12.439  2.4067 -1.0579 -6.5922
 8496SOL    HW236948   4.538   1.922  12.477  0.2466 -0.5526 -1.3195
 8497SOL     OW36949   1.194   2.144   8.445 -0.0744  0.0063 -0.3447
 8497SOL    HW136950   1.279   2.102   8.459 -0.6770 -0.6324  1.3647
 8497SOL    HW236951   1.158   2.091   8.373 -0.0525  1.8888 -1.7243
 8498SOL     OW36952   2.025   2.161  13.213 -0.6520  0.1618  0.8275
 8498SOL    HW136953   2.083   2.171  13.288 -0.2316 -0.8866  0.6470
 8498SOL    HW236954   2.028   2.248  13.174 -1.2763 -0.4353 -0.5464
 8499SOL     OW36955   0.390   2.110   3.992 -0.7430 -0.4727  0.3461
 8499SOL    HW136956   0.388   2.026   3.945  0.7756 -0.1277 -0.3273
 8499SOL    HW236957   0.397   2.085   4.084 -3.6514 -1.2603  0.3465
 8500SOL     OW36958   1.705   2.880   2.511  0.4344  0.0946  0.3284
 8500SOL    HW136959   1.666   2.936   2.578  2.1076  3.1085 -1.2241
 8500SOL    HW236960   1.798   2.899   2.523  0.8592 -2.0609  0.5497
 8501SOL     OW36961   3.301   0.193   7.757 -0.0456 -0.4234 -0.4766
 8501SOL    HW136962   3.311   0.111   7.806 -2.6927 -0.4327  0.0379
 8501SOL    HW236963   3.207   0.209   7.764  0.1048  0.0821  0.4165
 8502SOL     OW36964   2.351   0.808   4.839  0.1082  1.0546  0.1633
 8502SOL    HW136965   2.259   0.822   4.861  0.0093 -0.0660  0.4670
 8502SOL    HW236966   2.358   0.850   4.753 -0.8863  0.5651 -0.1586
 8503SOL     OW36967   2.419   0.107   8.660  0.4041 -0.4354 -0.3492
 8503SOL    HW136968   2.374   0.061   8.731 -0.0547  0.7217  0.0987
 8503SOL    HW236969   2.407   0.042   8.590 -0.8931 -0.8095  0.2183
 8504SOL     OW36970   3.382   2.836  14.271  0.1382 -0.5124 -0.3140
 8504SOL    HW136971   3.399   2.924  14.236  0.6089 -0.3719  0.2677
 8504SOL    HW236972   3.421   2.780  14.203 -0.2349 -1.6276  0.3883
 8505SOL     OW36973   4.551   0.681   2.257  0.5578  0.5225  0.1811
 8505SOL    HW136974   4.549   0.767   2.300 -3.4569  1.1706 -1.2489
 8505SOL    HW236975   4.590   0.695   2.171  0.2948 -1.9318 -0.3300
 8506SOL     OW36976   4.403   2.939   7.176  0.5148 -0.0720 -0.4772
 8506SOL    HW136977   4.337   2.935   7.108  0.5301 -0.7014 -0.4500
 8506SOL    HW236978   4.406   2.844   7.188 -0.8195 -0.1580 -0.8819
 8507SOL     OW36979   3.804   3.287   2.971 -0.1804 -0.1976 -0.1407
 8507SOL    HW136980   3.811   3.192   2.975  2.7635  0.0353  0.6277
 8507SOL    HW236981   3.794   3.314   3.062  0.7199 -0.7599  0.1248
 8508SOL     OW36982   4.282   1.930   6.406  0.7671 -0.1463  0.1651
 8508SOL    HW136983   4.225   1.855   6.424 -0.0055  0.5194  0.4849
 8508SOL    HW236984   4.222   1.984   6.354 -0.1940 -1.1725  0.1982
 8509SOL     OW36985   3.582   1.705   6.186  0.1817  0.2880 -0.5330
 8509SOL    HW136986   3.551   1.742   6.104  0.0029  0.5054 -0.3690
 8509SOL    HW236987   3.678   1.706   6.179  0.3250 -0.6092  1.2761
 8510SOL     OW36988   0.755   0.438   6.004  0.2386  0.1194 -0.1593
 8510SOL    HW136989   0.777   0.485   5.924  0.6308 -1.5862 -1.0502
 8510SOL    HW236990   0.771   0.350   5.972 -2.5561 -0.4430 -0.0449
 8511SOL     OW36991   1.925   1.435   5.232  0.3186  0.1688  0.1833
 8511SOL    HW136992   1.962   1.458   5.147 -1.6025  0.5567 -0.5496
 8511SOL    HW236993   1.875   1.516   5.236 -1.7116 -1.0142 -1.6342
 8512SOL     OW36994   2.183   1.474   7.910 -0.0302 -0.2190  0.4567
 8512SOL    HW136995   2.267   1.436   7.936  0.9702  3.3190  2.5562
 8512SOL    HW236996   2.152   1.497   7.998  1.5083 -0.6058  1.1001
 8513SOL     OW36997   2.205   4.422  15.186  0.5425 -0.5828  0.1677
 8513SOL    HW136998   2.123   4.398  15.143 -0.5115  3.5758 -0.0658
 8513SOL    HW236999   2.269   4.406  15.117 -1.9577  0.0622 -2.2727
 8514SOL     OW37000   2.970   3.100  15.467 -0.6649 -0.0504  0.0847
 8514SOL    HW137001   2.891   3.151  15.486 -0.2530  0.6619 -0.1374
 8514SOL    HW237002   3.019   3.147  15.400  1.1266 -1.7424  0.2086
 8515SOL     OW37003   4.418   2.845   5.188 -0.1298  0.3088  0.0609
 8515SOL    HW137004   4.330   2.816   5.208  0.2282  0.3619  1.6944
 8515SOL    HW237005   4.466   2.821   5.267  1.4524 -0.5843 -1.1686
 8516SOL     OW37006   0.929   3.965   4.898  0.2430  0.1358  0.3794
 8516SOL    HW137007   0.890   4.003   4.977 -2.6903 -0.1173 -0.9459
 8516SOL    HW237008   0.991   3.903   4.935 -0.3578 -0.7002 -0.0136
 8517SOL     OW37009   0.385   3.090  10.729 -0.1701 -0.2510  0.0195
 8517SOL    HW137010   0.387   2.995  10.721  2.0195 -0.5196  3.5253
 8517SOL    HW237011   0.299   3.104  10.688  1.7977  0.0528 -3.9409
 8518SOL     OW37012   3.549   2.902   8.258  0.3018 -0.1902 -0.1111
 8518SOL    HW137013   3.602   2.829   8.225  1.4479  0.3512  0.5084
 8518SOL    HW237014   3.481   2.858   8.308  0.7518 -1.2433 -0.4283
 8519SOL     OW37015   1.791   0.984   7.889  0.2104 -0.0114 -0.0273
 8519SOL    HW137016   1.722   0.920   7.878 -0.6294  1.3533 -2.5986
 8519SOL    HW237017   1.835   0.962   7.972  2.7525  0.6008 -1.2103
 8520SOL     OW37018   1.654   0.410  13.276 -0.3979  0.1072  0.5388
 8520SOL    HW137019   1.712   0.470  13.229 -2.1223 -0.3539 -2.2303
 8520SOL    HW237020   1.571   0.418  13.229 -0.2062 -0.6580  0.0613
 8521SOL     OW37021   4.142   2.772   9.512 -0.0755 -0.2093 -0.3467
 8521SOL    HW137022   4.166   2.683   9.487 -0.1382 -0.0007 -1.1741
 8521SOL    HW237023   4.198   2.833   9.464  0.7317 -0.5659  0.1509
 8522SOL     OW37024   2.072   3.245  15.978 -0.1924 -0.0366  0.4551
 8522SOL    HW137025   2.031   3.316  15.929  1.7537  0.1396 -0.9356
 8522SOL    HW237026   2.023   3.251  16.060 -0.5485  2.2441  0.0762
 8523SOL     OW37027   2.655   4.095   6.812 -0.3002 -0.1950  0.6025
 8523SOL    HW137028   2.702   4.064   6.735  0.5585  0.1370  0.9901
 8523SOL    HW237029   2.567   4.112   6.778 -0.7058 -2.0619  0.7236
 8524SOL     OW37030   2.318   1.313   6.307 -0.5954  0.2524 -0.0337
 8524SOL    HW137031   2.406   1.289   6.333 -0.0101  2.8011  0.3326
 8524SOL    HW237032   2.332   1.345   6.218  2.4445 -0.5748  0.1507
 8525SOL     OW37033   2.083   3.090   6.701  0.2737  0.1291  0.2316
 8525SOL    HW137034   1.990   3.101   6.681  0.1720 -0.8160  0.1762
 8525SOL    HW237035   2.085   3.065   6.794  2.2883  1.2291  0.4962
 8526SOL     OW37036   3.307   2.057   3.929 -0.3076 -0.2382 -0.7704
 8526SOL    HW137037   3.344   2.135   3.971 -2.3901  1.2032 -1.6266
 8526SOL    HW237038   3.359   2.078   3.851 -0.6177 -1.2011 -1.2306
 8527SOL     OW37039   3.013   4.633  16.557  0.7791 -0.1955 -0.8305
 8527SOL    HW137040   3.021   4.644  16.463  0.0285  0.0333 -0.8696
 8527SOL    HW237041   2.922   4.604  16.549  0.5062  1.3359 -3.3509
 8528SOL     OW37042   0.865   1.111   6.014 -0.0405 -0.6203  0.0433
 8528SOL    HW137043   0.928   1.121   6.085 -0.5420  0.4071  0.3474
 8528SOL    HW237044   0.880   1.194   5.970 -0.6897  0.4005  1.7595
 8529SOL     OW37045   4.082   3.593  12.167  0.1325  0.1875 -0.3998
 8529SOL    HW137046   4.078   3.519  12.228 -0.9542 -0.2680 -1.0180
 8529SOL    HW237047   4.175   3.615  12.170 -0.0603  0.8693  0.5907
 8530SOL     OW37048   1.803   1.640   3.740  0.4012 -0.9818  1.3270
 8530SOL    HW137049   1.729   1.694   3.767 -0.2433 -1.1439 -0.1110
 8530SOL    HW237050   1.826   1.684   3.658  0.8474 -0.8483  1.5213
 8531SOL     OW37051   4.185   3.341   0.999 -0.5445 -0.3540 -0.3770
 8531SOL    HW137052   4.195   3.270   1.062 -0.9317  0.4026  0.5570
 8531SOL    HW237053   4.256   3.398   1.027 -0.1980 -1.7342  1.5226
 8532SOL     OW37054   1.342   3.547   4.900  0.0873  0.4115  0.5728
 8532SOL    HW137055   1.275   3.517   4.838  0.7469 -1.9758  0.9972
 8532SOL    HW237056   1.329   3.641   4.900  1.3457  0.5896  1.2666
 8533SOL     OW37057   2.975   2.151   8.880  0.6846  0.3648  0.5471
 8533SOL    HW137058   3.014   2.181   8.798  1.8745 -1.2416  0.5255
 8533SOL    HW237059   2.883   2.130   8.860  0.9942 -0.7718  0.3433
 8534SOL     OW37060   4.614   4.467   7.489 -0.1355  0.1854 -0.3323
 8534SOL    HW137061   4.576   4.474   7.402  1.9815 -0.6458 -1.3384
 8534SOL    HW237062   4.593   4.551   7.529 -1.3389  0.7044 -2.0478
 8535SOL     OW37063   1.524   0.605   5.436  0.0089  0.0481 -0.0202
 8535SOL    HW137064   1.556   0.691   5.410 -2.9667  1.1060 -0.2496
 8535SOL    HW237065   1.548   0.556   5.358  0.6366  0.4546 -0.0852
 8536SOL     OW37066   0.759   4.085   7.608 -0.2846  0.1936 -0.3356
 8536SOL    HW137067   0.693   4.025   7.572  0.0816 -1.0965  1.1301
 8536SOL    HW237068   0.712   4.168   7.615  0.3269  0.5386 -0.3419
 8537SOL     OW37069   0.011   2.702   9.484 -0.2675  0.1706 -0.2101
 8537SOL    HW137070   0.041   2.771   9.543  1.3117  1.1298 -2.1251
 8537SOL    HW237071   0.089   2.657   9.451  0.1511 -1.0733  2.4403
 8538SOL     OW37072   1.590   0.380   7.358 -0.3192  0.5673 -0.1361
 8538SOL    HW137073   1.518   0.386   7.295  0.3746  0.0376 -0.9730
 8538SOL    HW237074   1.646   0.316   7.315  0.8785 -0.0266  2.3114
 8539SOL     OW37075   2.189   1.292   8.228  0.5945 -0.2017 -0.5113
 8539SOL    HW137076   2.156   1.240   8.154  3.9023 -1.9333 -0.7655
 8539SOL    HW237077   2.246   1.234   8.278 -0.2171 -0.5050  0.0536
 8540SOL     OW37078   0.729   0.869   8.215 -0.1303  0.0857 -0.3135
 8540SOL    HW137079   0.807   0.897   8.263 -0.2956  0.1174 -0.0640
 8540SOL    HW237080   0.673   0.858   8.292 -0.9223  0.9062 -0.7788
 8541SOL     OW37081   2.583   1.993  15.641 -0.0747  0.5671 -0.0904
 8541SOL    HW137082   2.534   1.973  15.562 -2.1256 -1.2941  1.6472
 8541SOL    HW237083   2.636   2.066  15.610  0.2457 -0.5616 -2.1849
 8542SOL     OW37084   1.983   2.698   2.433 -0.4243  0.1518  0.8902
 8542SOL    HW137085   1.930   2.701   2.353  0.4917 -1.2567  0.2455
 8542SOL    HW237086   2.046   2.767   2.413  0.4003 -1.2246 -1.2609
 8543SOL     OW37087   4.395   0.656  15.020 -0.4337  0.3347  0.0670
 8543SOL    HW137088   4.406   0.641  14.927  2.1720  1.8023  0.1646
 8543SOL    HW237089   4.483   0.647  15.057 -0.3897 -1.5575 -0.5145
 8544SOL     OW37090   1.686   2.208   2.833 -0.4483 -0.0004  0.1099
 8544SOL    HW137091   1.706   2.293   2.873  0.0074  0.9519 -2.0874
 8544SOL    HW237092   1.756   2.161   2.878  0.5619 -1.0077 -2.5434
 8545SOL     OW37093   2.459   2.616   2.493  0.3955 -0.6607 -0.1846
 8545SOL    HW137094   2.472   2.710   2.476  2.8590 -0.3371  3.5661
 8545SOL    HW237095   2.364   2.622   2.490  0.3132 -1.0805  1.6217
 8546SOL     OW37096   3.560   0.458  15.851  0.2930  0.3221 -0.0637
 8546SOL    HW137097   3.561   0.380  15.906  1.7177  1.2035  1.1671
 8546SOL    HW237098   3.498   0.445  15.779  2.3851 -0.0321 -1.8409
 8547SOL     OW37099   3.509   2.420   6.631  0.3742 -0.5108  0.4571
 8547SOL    HW137100   3.476   2.508   6.612 -0.2029 -0.6287  0.9254
 8547SOL    HW237101   3.573   2.431   6.701  0.4839  0.7841  0.1563
 8548SOL     OW37102   4.555   0.435   4.221  0.0887 -0.0343 -0.0639
 8548SOL    HW137103   4.472   0.426   4.267  0.5439  0.0323  0.7673
 8548SOL    HW237104   4.560   0.530   4.214  1.3603 -0.1388 -0.6459
 8549SOL     OW37105   0.434   0.779   4.418  0.2691  0.6359  0.4833
 8549SOL    HW137106   0.412   0.835   4.493  0.7006  1.2688  0.1342
 8549SOL    HW237107   0.399   0.828   4.344  0.7841  0.1074 -0.1025
 8550SOL     OW37108   0.578   1.949   7.231  0.2619  0.4911  0.0085
 8550SOL    HW137109   0.489   1.924   7.204  0.2424  2.8805 -2.1153
 8550SOL    HW237110   0.625   1.877   7.189 -1.1476 -0.1229 -0.5159
 8551SOL     OW37111   3.084   1.032   7.547 -0.7012 -0.4550 -0.3488
 8551SOL    HW137112   3.125   0.980   7.478 -2.6697 -0.9315 -1.1369
 8551SOL    HW237113   3.153   1.078   7.595 -0.9293 -0.5497  0.0667
 8552SOL     OW37114   0.386   2.962   1.258 -1.0052  0.3650  0.5028
 8552SOL    HW137115   0.405   3.044   1.303  1.3527 -0.6971  1.4468
 8552SOL    HW237116   0.293   2.965   1.280 -0.9721 -0.1270  0.7152
 8553SOL     OW37117   1.415   1.450   2.235  0.0823  0.5467  0.5671
 8553SOL    HW137118   1.398   1.359   2.259 -1.8113  1.1804  1.6497
 8553SOL    HW237119   1.510   1.447   2.226 -0.0588 -0.3219 -0.6639
 8554SOL     OW37120   3.006   4.673   7.062  0.0292 -0.0851 -0.5363
 8554SOL    HW137121   2.978   4.706   6.977 -1.2429 -1.2244 -0.5637
 8554SOL    HW237122   3.075   0.013   7.080  2.1643 -2.2396 -1.1352
 8555SOL     OW37123   0.844   4.427   5.105  0.1497 -0.1621 -0.2360
 8555SOL    HW137124   0.834   4.486   5.031  0.7682 -0.8420 -0.8546
 8555SOL    HW237125   0.763   4.377   5.099  0.3162 -0.5371  0.4883
 8556SOL     OW37126   4.016   2.810   4.853 -0.4328  0.0128 -0.1236
 8556SOL    HW137127   4.064   2.727   4.849 -0.0482  0.2365 -0.1125
 8556SOL    HW237128   3.952   2.777   4.917  0.0100 -0.7646 -0.0728
 8557SOL     OW37129   1.874   3.916   1.335  0.4700 -0.1438 -0.6223
 8557SOL    HW137130   1.811   3.936   1.404  1.6533  0.1172  0.3825
 8557SOL    HW237131   1.957   3.916   1.382  0.4653 -1.8596 -0.6108
 8558SOL     OW37132   1.457   4.102   2.785  0.1491  0.9992 -0.4999
 8558SOL    HW137133   1.370   4.072   2.811  0.4541 -1.7078 -2.5833
 8558SOL    HW237134   1.505   4.090   2.867  1.4222 -0.2934 -1.4434
 8559SOL     OW37135   4.385   1.682   0.621 -0.0979  0.5409 -0.1444
 8559SOL    HW137136   4.398   1.610   0.683  0.4733  0.3369 -0.4953
 8559SOL    HW237137   4.324   1.737   0.670  2.8437  0.4205  3.7007
 8560SOL     OW37138   2.738   0.446   3.276  0.1152 -0.9832 -0.1119
 8560SOL    HW137139   2.678   0.474   3.207 -1.1061 -0.4453  1.1628
 8560SOL    HW237140   2.675   0.397   3.329 -2.7394  0.9851 -1.6686
 8561SOL     OW37141   4.509   3.614   4.003  0.1141  0.5688 -0.2458
 8561SOL    HW137142   4.519   3.548   3.935 -1.6959 -0.4780  0.5042
 8561SOL    HW237143   4.596   3.656   4.003  1.3123 -1.9403 -3.2525
 8562SOL     OW37144   2.249   1.291  10.260  0.1474 -0.0372  0.4835
 8562SOL    HW137145   2.250   1.384  10.237  1.9817 -0.5957 -1.7716
 8562SOL    HW237146   2.281   1.241  10.185  0.4072 -1.1231  1.3114
 8563SOL     OW37147   0.873   1.371   5.926  0.1869  0.3364  0.5057
 8563SOL    HW137148   0.860   1.419   6.007 -0.5129  0.3192  0.3992
 8563SOL    HW237149   0.880   1.440   5.859 -0.8354 -1.2719 -1.2755
 8564SOL     OW37150   2.251   4.329   3.148  0.3695  0.2842  0.0191
 8564SOL    HW137151   2.263   4.254   3.090 -1.5743 -0.2801  0.3477
 8564SOL    HW237152   2.203   4.392   3.095 -0.0867 -0.3940 -0.3854
 8565SOL     OW37153   2.451   2.097  10.507  0.5001 -0.5940  0.4885
 8565SOL    HW137154   2.520   2.158  10.534  0.9642 -0.9581  0.1247
 8565SOL    HW237155   2.452   2.087  10.412 -0.6411  1.7791  0.2364
 8566SOL     OW37156   1.574   0.614   7.056  0.6577  0.1703  0.1045
 8566SOL    HW137157   1.534   0.567   6.983 -2.6896  0.8670  1.4899
 8566SOL    HW237158   1.618   0.537   7.092 -0.5021  0.0156  1.2220
 8567SOL     OW37159   1.960   3.359   3.301 -0.2475  0.3041 -0.1843
 8567SOL    HW137160   2.040   3.391   3.260  0.8393 -1.5944  0.4690
 8567SOL    HW237161   1.893   3.388   3.239  0.8828 -0.7519 -1.8898
 8568SOL     OW37162   2.013   2.079   7.923  0.1555 -0.2938  0.4339
 8568SOL    HW137163   2.081   2.015   7.901  0.7245  0.2405  0.6389
 8568SOL    HW237164   2.054   2.143   7.981  0.0811 -1.2821  1.5713
 8569SOL     OW37165   2.797   0.424   5.676  0.6368 -0.9249  0.0288
 8569SOL    HW137166   2.860   0.380   5.619  0.6527  1.2369 -1.6092
 8569SOL    HW237167   2.718   0.380   5.644  0.3115 -0.5726  0.3434
 8570SOL     OW37168   4.242   3.167   5.345  0.3373 -0.4683  0.5501
 8570SOL    HW137169   4.215   3.180   5.436 -1.6290 -0.2961 -0.0506
 8570SOL    HW237170   4.178   3.224   5.302  1.1925  1.1290  1.4123
 8571SOL     OW37171   1.723   1.882   9.265  0.5345 -0.6356  0.0364
 8571SOL    HW137172   1.772   1.939   9.205  0.1817 -0.9647 -0.5702
 8571SOL    HW237173   1.633   1.914   9.260  0.4965 -1.1524 -3.0983
 8572SOL     OW37174   0.907   2.428   7.130  0.2258  0.1016  0.5181
 8572SOL    HW137175   0.927   2.429   7.223  0.5673  0.3222  0.4411
 8572SOL    HW237176   0.872   2.340   7.118 -2.1151  1.3604 -1.9608
 8573SOL     OW37177   0.197   1.788   1.520 -0.4182  0.4908  0.1150
 8573SOL    HW137178   0.151   1.715   1.563  1.1744  0.1595  1.2592
 8573SOL    HW237179   0.191   1.750   1.433  0.2610  0.7338 -0.0386
 8574SOL     OW37180   1.740   3.765   1.120 -0.1089 -0.0294  0.3318
 8574SOL    HW137181   1.798   3.779   1.195  1.2686 -0.1775 -0.6855
 8574SOL    HW237182   1.804   3.734   1.055  0.3965  1.9723 -0.1402
 8575SOL     OW37183   0.930   0.159   4.312 -0.8864 -0.5328 -0.4523
 8575SOL    HW137184   0.876   0.081   4.318 -1.3915 -0.1459  0.1233
 8575SOL    HW237185   0.874   0.220   4.360 -1.0603 -0.3468 -0.8874
 8576SOL     OW37186   0.118   2.777   5.283  0.2299  0.0115  0.4812
 8576SOL    HW137187   0.156   2.706   5.232 -3.2657 -0.6391 -1.1997
 8576SOL    HW237188   0.189   2.826   5.324 -0.1358  1.8671 -1.1095
 8577SOL     OW37189   0.180   0.823  17.334  0.2030 -0.7312 -0.3359
 8577SOL    HW137190   0.172   0.771  17.414  2.5554 -0.4788  0.0601
 8577SOL    HW237191   0.184   0.908  17.379 -1.2992 -0.4557 -0.7240
 8578SOL     OW37192   2.585   2.573  10.239  0.0749  0.9834  0.5407
 8578SOL    HW137193   2.525   2.499  10.239  2.4271 -0.8919  0.4293
 8578SOL    HW237194   2.669   2.533  10.217  0.4128  1.9039  0.1531
 8579SOL     OW37195   1.217   3.791   0.157  0.3494 -0.3271  0.2999
 8579SOL    HW137196   1.275   3.865   0.174 -0.7297  0.5921 -0.0409
 8579SOL    HW237197   1.280   3.724   0.129  1.2364  1.5617 -2.2821
 8580SOL     OW37198   3.591   3.609   2.466  0.3679 -0.1092  0.5442
 8580SOL    HW137199   3.538   3.531   2.449 -0.9318  0.3314  2.5231
 8580SOL    HW237200   3.649   3.569   2.531  1.3732 -0.6701 -0.7057
 8581SOL     OW37201   1.677   0.918   0.795  0.1830 -0.3248  0.4540
 8581SOL    HW137202   1.628   0.840   0.768 -0.0296  0.1613 -0.5855
 8581SOL    HW237203   1.713   0.891   0.879  1.5409 -0.5259 -0.1800
 8582SOL     OW37204   0.713   3.358  11.288 -0.8968  0.4928  0.3249
 8582SOL    HW137205   0.619   3.378  11.284 -0.3877  2.8478  0.0192
 8582SOL    HW237206   0.743   3.398  11.370 -1.5036  1.2968  0.1544
 8583SOL     OW37207   3.584   3.871   2.374 -0.0641  0.5048 -0.5614
 8583SOL    HW137208   3.556   3.864   2.465  2.3320 -0.5507  0.0923
 8583SOL    HW237209   3.610   3.780   2.360 -1.8336  0.0118 -0.7087
 8584SOL     OW37210   0.534   2.731   9.429 -0.3139  0.3015 -0.7060
 8584SOL    HW137211   0.561   2.790   9.359 -0.6234  1.4422  0.1357
 8584SOL    HW237212   0.541   2.787   9.506  1.4952  0.0193 -0.6598
 8585SOL     OW37213   1.780   0.621   4.491  0.4254  0.0057 -0.0529
 8585SOL    HW137214   1.718   0.660   4.553 -0.1621  1.3920 -1.5441
 8585SOL    HW237215   1.741   0.651   4.409  4.1436 -0.5046 -2.0359
 8586SOL     OW37216   2.849   2.927   1.854 -0.2551 -0.2220  0.0336
 8586SOL    HW137217   2.870   2.914   1.947 -0.5290 -1.9762 -0.1520
 8586SOL    HW237218   2.770   2.981   1.861 -1.5623 -2.0599 -0.4758
 8587SOL     OW37219   2.398   2.365  16.086 -0.1799  0.0013 -0.0663
 8587SOL    HW137220   2.324   2.334  16.139 -2.0890  2.0852 -1.4535
 8587SOL    HW237221   2.453   2.287  16.086 -2.1984 -1.4261 -0.3742
 8588SOL     OW37222   1.135   3.367   6.164  0.0188  0.6678 -0.2275
 8588SOL    HW137223   1.060   3.328   6.210  1.5760 -0.4531  1.3521
 8588SOL    HW237224   1.146   3.309   6.088 -1.9637 -0.1485  0.1068
 8589SOL     OW37225   2.114   2.217  14.755  0.7342  0.4391 -0.1428
 8589SOL    HW137226   2.180   2.251  14.815 -0.0707 -0.7004  1.3742
 8589SOL    HW237227   2.155   2.245  14.673  1.6970  2.5416  1.0674
 8590SOL     OW37228   1.430   1.203   2.828 -0.5347  0.9406  0.0968
 8590SOL    HW137229   1.520   1.173   2.819  0.8174  4.4696  2.1267
 8590SOL    HW237230   1.410   1.216   2.921 -1.1660 -1.5163  0.3106
 8591SOL     OW37231   2.508   3.264   7.837  0.5333  0.0189  0.6256
 8591SOL    HW137232   2.479   3.355   7.835 -0.4935 -0.3050  0.7760
 8591SOL    HW237233   2.449   3.237   7.907 -0.8947  3.4858  0.7248
 8592SOL     OW37234   2.075   3.934   7.955  0.4270  0.5047 -0.6710
 8592SOL    HW137235   2.048   3.969   8.039 -1.9879  0.6061 -1.4929
 8592SOL    HW237236   2.035   3.992   7.890 -0.3262 -0.0597 -0.7077
 8593SOL     OW37237   4.064   2.810   6.373 -0.2773 -0.4321 -0.0490
 8593SOL    HW137238   4.050   2.872   6.301  0.6161  0.4401  0.5221
 8593SOL    HW237239   4.122   2.854   6.435 -2.1728  0.3643  1.1685
 8594SOL     OW37240   1.048   3.978   0.470  0.2836  0.0881 -0.4837
 8594SOL    HW137241   1.033   4.058   0.419  0.0659  1.5528  1.8787
 8594SOL    HW237242   1.039   4.013   0.559 -1.1700 -1.4626 -0.0215
 8595SOL     OW37243   2.763   0.664   7.258 -0.3947  0.1562 -0.5521
 8595SOL    HW137244   2.771   0.573   7.231 -0.8533 -0.6202  1.9169
 8595SOL    HW237245   2.722   0.659   7.345 -0.3710  1.0136 -0.4898
 8596SOL     OW37246   0.348   0.267   1.675 -0.1254 -0.2451  0.4067
 8596SOL    HW137247   0.257   0.241   1.686  0.7105 -1.7389  3.7654
 8596SOL    HW237248   0.391   0.185   1.652  1.3765  0.5207  0.4850
 8597SOL     OW37249   2.592   3.871  16.174  0.4997 -0.1275  0.1825
 8597SOL    HW137250   2.646   3.820  16.235 -0.5972 -0.6146  0.7481
 8597SOL    HW237251   2.652   3.929  16.128  0.5049 -0.4841 -0.2570
 8598SOL     OW37252   2.637   2.550  11.344 -0.1717  0.2988 -0.1987
 8598SOL    HW137253   2.663   2.461  11.320  0.1099 -0.3274  2.3644
 8598SOL    HW237254   2.687   2.547  11.426  0.4602  1.3593 -0.5432
 8599SOL     OW37255   0.689   3.120   1.111 -0.4740 -0.0640 -0.0728
 8599SOL    HW137256   0.660   3.206   1.141  1.6441  1.0002 -1.1231
 8599SOL    HW237257   0.710   3.082   1.196  2.6535 -2.8518 -2.0908
 8600SOL     OW37258   0.813   1.595  12.600  0.5618  0.5520  0.4480
 8600SOL    HW137259   0.861   1.539  12.660 -1.5104  0.3721  1.9283
 8600SOL    HW237260   0.729   1.598  12.646  0.5982  0.5972  0.5102
 8601SOL     OW37261   4.475   0.010   4.244 -0.2652  0.0973  0.1856
 8601SOL    HW137262   4.550   0.042   4.193 -0.7029 -0.5515 -0.8626
 8601SOL    HW237263   4.467   4.651   4.197 -0.7682 -0.7621  1.7841
 8602SOL     OW37264   0.594   0.135  13.850  0.1207 -0.2868 -0.6341
 8602SOL    HW137265   0.509   0.098  13.875 -0.2509 -0.6763 -2.5433
 8602SOL    HW237266   0.580   0.222  13.888  1.6487 -0.3317  0.0309
 8603SOL     OW37267   2.449   2.129   3.700 -0.4403 -0.0471 -0.3474
 8603SOL    HW137268   2.470   2.167   3.615  1.1499 -0.9269 -0.3437
 8603SOL    HW237269   2.504   2.177   3.762  0.2647 -0.0529 -0.9722
 8604SOL     OW37270   4.224   1.987   7.840 -0.5820  0.0816 -0.5890
 8604SOL    HW137271   4.296   1.924   7.835  0.0782  0.5303  2.8792
 8604SOL    HW237272   4.272   2.069   7.840 -2.7013  1.3213  1.1544
 8605SOL     OW37273   3.355   1.487   0.413  0.6056  0.0176 -0.1254
 8605SOL    HW137274   3.423   1.529   0.360  2.4197 -1.7974  0.7499
 8605SOL    HW237275   3.336   1.556   0.476 -3.8078  0.2465 -1.7343
 8606SOL     OW37276   0.164   1.536   5.343 -0.7103  0.5461  0.8553
 8606SOL    HW137277   0.207   1.497   5.420  0.9464 -0.2699 -0.4920
 8606SOL    HW237278   0.133   1.618   5.382 -2.5487  0.3432 -0.1563
 8607SOL     OW37279   0.234   2.255   6.873 -0.2286  0.3992 -0.2347
 8607SOL    HW137280   0.304   2.200   6.836  1.0259  2.2591 -0.6383
 8607SOL    HW237281   0.266   2.297   6.953  1.2861 -0.0742 -0.5928
 8608SOL     OW37282   1.775   3.522   6.884  0.2247 -0.5743  0.4346
 8608SOL    HW137283   1.829   3.443   6.887 -1.2917 -1.6562 -0.9443
 8608SOL    HW237284   1.828   3.568   6.948  2.0202  0.5295 -1.8868
 8609SOL     OW37285   2.960   3.838   2.351 -0.1607  0.1414  0.3007
 8609SOL    HW137286   2.948   3.759   2.404 -2.9821  1.0073  0.9622
 8609SOL    HW237287   3.037   3.874   2.395 -0.3926 -1.5305  2.0542
 8610SOL     OW37288   0.873   2.071   9.620 -1.1877  0.4402  0.6081
 8610SOL    HW137289   0.847   2.132   9.551 -0.8517 -1.9411 -1.5951
 8610SOL    HW237290   0.958   2.100   9.654 -0.2222 -2.1314  0.3610
 8611SOL     OW37291   1.727   2.453   3.155 -0.2074  0.1638 -0.1797
 8611SOL    HW137292   1.681   2.536   3.161 -2.4768 -1.1455  0.3501
 8611SOL    HW237293   1.760   2.442   3.066  2.9413  0.2804  0.9671
 8612SOL     OW37294   0.189   2.571   1.339  0.1408 -0.4202 -0.0152
 8612SOL    HW137295   0.260   2.508   1.323  0.5795 -0.3493  1.6783
 8612SOL    HW237296   0.188   2.632   1.265  1.0380  1.8759  1.8651
 8613SOL     OW37297   3.582   4.650  12.089 -0.5215 -0.4434 -0.1909
 8613SOL    HW137298   3.535   4.679  12.011 -0.5141  1.6559  0.5868
 8613SOL    HW237299   3.659   4.611  12.049 -0.9428 -0.6092 -0.8258
 8614SOL     OW37300   3.827   0.463   8.652  0.4513  0.3124  0.5187
 8614SOL    HW137301   3.817   0.547   8.695 -0.8644 -1.4512  3.6382
 8614SOL    HW237302   3.913   0.470   8.610 -0.3725  0.7164 -1.0910
 8615SOL     OW37303   1.719   0.250   3.885 -0.6022  0.0554 -0.0094
 8615SOL    HW137304   1.627   0.263   3.904 -0.6138 -0.3348  0.1910
 8615SOL    HW237305   1.743   0.185   3.950 -0.3258  0.6039  0.4409
 8616SOL     OW37306   3.836   1.500   8.423 -0.0391 -0.4242  0.2156
 8616SOL    HW137307   3.893   1.432   8.459 -1.9120 -1.3751  1.3830
 8616SOL    HW237308   3.858   1.581   8.470  0.8698 -0.8528  0.5252
 8617SOL     OW37309   1.597   1.830  11.722  0.1925  0.3185 -0.7392
 8617SOL    HW137310   1.612   1.767  11.651  2.2379 -0.6710  0.5765
 8617SOL    HW237311   1.663   1.899  11.712 -0.3101  1.0596  1.1938
 8618SOL     OW37312   3.717   0.462   6.872 -0.1480 -0.3285  0.1478
 8618SOL    HW137313   3.781   0.494   6.936 -0.3305  0.4056 -0.0381
 8618SOL    HW237314   3.708   0.540   6.817  0.3062  0.3192  0.9955
 8619SOL     OW37315   1.468   1.865   8.928  0.1401  0.0795 -0.4222
 8619SOL    HW137316   1.444   1.912   9.008  0.2226  2.8180 -1.9904
 8619SOL    HW237317   1.561   1.859   8.950  0.0852 -1.9407 -0.7454
 8620SOL     OW37318   4.012   2.204   5.789  0.5688 -0.1492 -0.6375
 8620SOL    HW137319   3.938   2.263   5.775 -0.5060 -1.0038  1.4152
 8620SOL    HW237320   4.004   2.205   5.885  1.0543  1.4740 -0.6221
 8621SOL     OW37321   1.293   4.075  11.349 -0.1012  0.0312 -0.1128
 8621SOL    HW137322   1.309   4.152  11.405 -2.1129 -0.0692  0.5925
 8621SOL    HW237323   1.379   4.039  11.326  0.7548 -0.0495  3.2421
 8622SOL     OW37324   0.450   1.848  10.812  0.6161  0.2562 -0.4539
 8622SOL    HW137325   0.411   1.933  10.833  0.8670 -0.1049  1.4604
 8622SOL    HW237326   0.524   1.860  10.872 -1.9079  0.3980  2.5711
 8623SOL     OW37327   2.918   0.426   7.757 -0.0790  0.4308  0.3667
 8623SOL    HW137328   2.924   0.350   7.815 -1.5153  1.5468  2.0124
 8623SOL    HW237329   2.824   0.431   7.737 -0.4235 -1.8329  1.3307
 8624SOL     OW37330   0.890   3.234  15.455  0.4610 -0.1381 -0.1621
 8624SOL    HW137331   0.970   3.217  15.406  0.3800 -1.8007  0.2846
 8624SOL    HW237332   0.849   3.305  15.406  4.3100  1.4319 -1.0378
 8625SOL     OW37333   0.837   1.619  12.128 -0.4740 -0.1534  0.1615
 8625SOL    HW137334   0.871   1.707  12.108  0.7437 -0.6057  0.2567
 8625SOL    HW237335   0.904   1.582  12.186  0.7901  1.7941 -0.0103
 8626SOL     OW37336   1.585   0.644   4.232  0.0206 -0.2958 -0.4577
 8626SOL    HW137337   1.521   0.575   4.216 -1.0535  1.4615 -3.7722
 8626SOL    HW237338   1.522   0.707   4.266  1.2871  2.2152 -2.6622
 8627SOL     OW37339   2.371   2.419  15.747  0.3003  0.5387 -0.6501
 8627SOL    HW137340   2.400   2.381  15.829 -0.8943  3.8499  1.3054
 8627SOL    HW237341   2.328   2.340  15.714  2.4908  0.0257 -2.3258
 8628SOL     OW37342   0.277   0.691  13.342  0.2485  0.1391 -0.2400
 8628SOL    HW137343   0.371   0.671  13.345  0.0262 -0.6775  1.6349
 8628SOL    HW237344   0.241   0.604  13.324 -1.4394  0.8831 -0.4378
 8629SOL     OW37345   4.264   1.327  14.754 -0.0144 -0.1553 -0.1254
 8629SOL    HW137346   4.271   1.367  14.841 -0.8027  0.1541 -0.2065
 8629SOL    HW237347   4.251   1.406  14.703 -1.5728 -1.2257 -1.4018
 8630SOL     OW37348   4.327   3.784  15.924 -0.1732 -0.0444  0.3957
 8630SOL    HW137349   4.324   3.805  15.831  1.2576 -1.3961  0.0602
 8630SOL    HW237350   4.295   3.864  15.966  4.3258  0.7391  2.2981
 8631SOL     OW37351   1.565   3.087   7.661  0.1698  0.2035  0.5370
 8631SOL    HW137352   1.576   2.993   7.680  0.7513  0.3350  0.8462
 8631SOL    HW237353   1.598   3.135   7.737 -1.2513  2.5760 -0.3779
 8632SOL     OW37354   3.305   2.917   3.959 -0.0071 -0.3513  0.0129
 8632SOL    HW137355   3.335   2.944   4.046 -0.3353 -1.0146  0.3284
 8632SOL    HW237356   3.253   2.838   3.976  0.3210 -0.9951 -1.9354
 8633SOL     OW37357   0.581   4.058   2.403 -0.5844  0.2125 -0.2515
 8633SOL    HW137358   0.550   4.036   2.315 -0.4719  0.2910 -0.3104
 8633SOL    HW237359   0.501   4.092   2.444  1.4375  0.9498  3.0208
 8634SOL     OW37360   0.437   3.761  13.347 -0.3946  0.2767  0.6099
 8634SOL    HW137361   0.384   3.695  13.301  0.2616  0.2696 -0.1321
 8634SOL    HW237362   0.435   3.726  13.436  1.9363  0.3630  0.6943
 8635SOL     OW37363   1.385   0.013  12.457  0.0169 -0.0015 -0.1044
 8635SOL    HW137364   1.430   4.715  12.539 -2.7764  0.8294  1.6438
 8635SOL    HW237365   1.297   4.703  12.474  1.2181 -2.2308  1.7752
 8636SOL     OW37366   0.451   1.979   2.047  0.5196  0.0958  0.3953
 8636SOL    HW137367   0.468   2.069   2.016  1.4855 -0.8702 -1.9208
 8636SOL    HW237368   0.497   1.925   1.983  2.0796  1.4059  0.4026
 8637SOL     OW37369   2.846   2.496  13.635 -0.4244  0.5819 -0.1078
 8637SOL    HW137370   2.844   2.505  13.539 -0.1541 -0.7036 -0.2278
 8637SOL    HW237371   2.844   2.590  13.656 -0.0295  0.8421 -1.2168
 8638SOL     OW37372   0.403   2.863   1.572 -0.0638 -0.2891  0.4806
 8638SOL    HW137373   0.473   2.810   1.534 -0.7416 -1.4862  0.8971
 8638SOL    HW237374   0.375   2.911   1.494 -1.3168  1.0637  1.7571
 8639SOL     OW37375   1.260   1.151   4.737 -0.1009 -0.0810  0.7763
 8639SOL    HW137376   1.179   1.135   4.689  0.6825 -1.8939  0.0400
 8639SOL    HW237377   1.259   1.247   4.741  0.3509 -0.1737  2.7848
 8640SOL     OW37378   1.957   2.075   9.112  0.5733  0.4911 -0.1334
 8640SOL    HW137379   1.875   2.120   9.092  0.1735 -0.2473 -0.1400
 8640SOL    HW237380   2.017   2.098   9.042  0.6052 -0.7465 -0.5075
 8641SOL     OW37381   3.890   4.520   3.999 -0.1188 -0.6372 -0.2036
 8641SOL    HW137382   3.944   4.545   4.074  0.8774 -0.2403 -1.0462
 8641SOL    HW237383   3.815   4.478   4.041 -0.2202 -0.8012 -0.5444
 8642SOL     OW37384   2.761   4.180   0.295 -0.3953  0.4479 -0.0248
 8642SOL    HW137385   2.735   4.256   0.347 -1.1913  0.5536 -0.5772
 8642SOL    HW237386   2.721   4.191   0.209 -0.7967 -2.1500 -0.1749
 8643SOL     OW37387   1.583   2.929   4.359 -0.1048  0.0598 -0.2565
 8643SOL    HW137388   1.540   2.998   4.309  0.2173  0.0030 -0.6090
 8643SOL    HW237389   1.528   2.855   4.333  1.3743 -0.9190 -0.5983
 8644SOL     OW37390   4.156   4.255   5.341  0.0256 -0.3254 -0.3185
 8644SOL    HW137391   4.246   4.233   5.366 -0.2287  0.1194  0.9716
 8644SOL    HW237392   4.132   4.324   5.403  0.7670 -3.0223  2.9942
 8645SOL     OW37393   3.253   4.103  12.240  0.7256  0.0816 -0.4552
 8645SOL    HW137394   3.314   4.176  12.246  3.7084 -2.4139 -0.4131
 8645SOL    HW237395   3.188   4.128  12.306  2.9400  0.7743  1.4503
 8646SOL     OW37396   2.630   3.635  11.441 -0.1939 -0.2215 -0.8632
 8646SOL    HW137397   2.601   3.710  11.493  0.8629 -0.5150  0.1564
 8646SOL    HW237398   2.602   3.561  11.495  1.7189 -1.1327 -1.1251
 8647SOL     OW37399   3.408   4.352   6.191 -0.0196  0.6622 -0.3464
 8647SOL    HW137400   3.358   4.277   6.223  0.2425  0.6705  0.0856
 8647SOL    HW237401   3.414   4.403   6.272 -4.2462  1.4936 -0.6002
 8648SOL     OW37402   2.845   3.524  10.274  0.3306 -0.1573  0.4845
 8648SOL    HW137403   2.887   3.440  10.292  0.5979  0.0014  0.5923
 8648SOL    HW237404   2.803   3.513  10.189 -1.4782 -0.7211  1.4519
 8649SOL     OW37405   1.652   2.494   8.835 -0.1810  0.1834 -0.6218
 8649SOL    HW137406   1.723   2.467   8.892  0.1645  1.2885 -0.5293
 8649SOL    HW237407   1.588   2.521   8.901  0.8419  0.3723  0.2854
 8650SOL     OW37408   0.125   0.027   4.199  0.2720 -0.7619 -0.3585
 8650SOL    HW137409   0.079   4.687   4.252  0.9665  1.0215  2.3786
 8650SOL    HW237410   0.061   0.055   4.133 -2.5734 -0.8085  2.3900
 8651SOL     OW37411   4.605   4.066   6.578 -0.2883  0.2701  0.4336
 8651SOL    HW137412   4.592   4.012   6.500 -0.4594  0.1963  0.5141
 8651SOL    HW237413   4.699   4.081   6.569 -0.1288 -0.5539  0.6949
 8652SOL     OW37414   1.315   0.759  11.398 -0.1938 -0.5130  0.0049
 8652SOL    HW137415   1.402   0.772  11.362 -0.4827  0.6528 -0.2756
 8652SOL    HW237416   1.265   0.722  11.325 -0.1779 -2.2852  0.8977
 8653SOL     OW37417   2.769   2.855  14.265 -0.6384 -0.1535  0.1355
 8653SOL    HW137418   2.822   2.785  14.303  0.2323 -0.7523 -2.1784
 8653SOL    HW237419   2.684   2.824  14.295 -1.1358  0.9770 -0.0990
 8654SOL     OW37420   0.735   2.954   7.171 -0.2445 -0.6322  0.1155
 8654SOL    HW137421   0.710   3.041   7.200  2.4409  0.3314 -0.4495
 8654SOL    HW237422   0.830   2.963   7.185 -0.1207  0.1025 -1.2029
 8655SOL     OW37423   4.380   1.727   2.455 -0.4024  0.0619 -0.3828
 8655SOL    HW137424   4.421   1.678   2.527 -0.4062 -1.9494 -1.7487
 8655SOL    HW237425   4.311   1.778   2.497 -1.2902 -1.5230  0.0597
 8656SOL     OW37426   2.689   3.610   7.283  0.0887  0.3236 -0.0577
 8656SOL    HW137427   2.639   3.689   7.267  0.1402  0.6773  1.4890
 8656SOL    HW237428   2.768   3.643   7.327  1.0964 -1.4170 -0.5574
 8657SOL     OW37429   4.351   0.905   8.421 -0.3408 -0.1591  0.4208
 8657SOL    HW137430   4.414   0.977   8.430  0.8720 -0.7218 -3.2511
 8657SOL    HW237431   4.319   0.923   8.332  0.0302 -2.0732 -0.1042
 8658SOL     OW37432   0.292   1.438   5.560  0.7821  0.1138 -0.2223
 8658SOL    HW137433   0.318   1.346   5.567  1.3720  0.4241  1.5208
 8658SOL    HW237434   0.312   1.471   5.647  0.2300  0.6583 -0.3038
 8659SOL     OW37435   1.928   2.636   0.662 -0.0712  0.1051  0.2858
 8659SOL    HW137436   1.877   2.660   0.584 -1.6827  0.5450  1.4943
 8659SOL    HW237437   1.944   2.714   0.715  0.3673 -1.8553  3.0302
 8660SOL     OW37438   2.929   0.093  17.180 -0.6838  0.2428  0.8028
 8660SOL    HW137439   3.005   0.133  17.136 -0.2254 -0.1814  1.2118
 8660SOL    HW237440   2.868   0.167  17.185  0.1119  0.9554  0.0881
 8661SOL     OW37441   2.354   3.953   5.770  0.0407 -0.1167 -0.1271
 8661SOL    HW137442   2.430   3.917   5.815 -0.8582  0.7529  2.1016
 8661SOL    HW237443   2.327   3.883   5.711  1.3652 -1.0933  0.4403
 8662SOL     OW37444   1.587   4.349   3.402 -0.6846  0.4486  0.0914
 8662SOL    HW137445   1.492   4.334   3.395 -0.8220  0.7572  1.3029
 8662SOL    HW237446   1.600   4.408   3.476 -2.2861  0.3499  0.4502
 8663SOL     OW37447   1.470   1.230   3.563 -0.2228 -1.0101 -0.2456
 8663SOL    HW137448   1.501   1.312   3.600 -2.3705  0.4543 -1.7201
 8663SOL    HW237449   1.454   1.171   3.637 -0.5632 -2.4495 -1.4472
 8664SOL     OW37450   4.043   0.300  17.023 -0.5628 -0.3369  0.0875
 8664SOL    HW137451   4.121   0.290  16.969 -0.7243  1.1891 -0.4235
 8664SOL    HW237452   3.978   0.253  16.970 -0.7619 -0.3935  0.3761
 8665SOL     OW37453   1.699   0.065  15.327  0.3799 -0.5051  0.0849
 8665SOL    HW137454   1.668   0.140  15.379  0.2195 -0.9440  0.6314
 8665SOL    HW237455   1.792   0.084  15.330  0.1892  0.5259 -0.7913
 8666SOL     OW37456   0.706   3.660   3.326 -0.4566 -0.6538  0.0839
 8666SOL    HW137457   0.682   3.712   3.403  1.1959 -1.2916  1.0175
 8666SOL    HW237458   0.721   3.578   3.372 -1.3684 -0.3203  0.9709
 8667SOL     OW37459   3.145   1.337   0.090  0.4999  0.0164 -0.0890
 8667SOL    HW137460   3.195   1.256   0.102 -3.2016 -2.0605  1.6667
 8667SOL    HW237461   3.119   1.360   0.179 -2.7004  0.9966 -1.2843
 8668SOL     OW37462   4.252   4.429   4.470  0.1774  0.1413  0.4211
 8668SOL    HW137463   4.170   4.459   4.510 -0.8619 -2.5059  0.2402
 8668SOL    HW237464   4.226   4.433   4.378 -2.9555 -1.0634  1.2622
 8669SOL     OW37465   2.927   1.658   7.039  0.4381 -0.1971 -0.2372
 8669SOL    HW137466   3.022   1.662   7.049  0.4093  2.2091 -0.7890
 8669SOL    HW237467   2.903   1.742   7.000 -0.8392 -1.3920 -2.0360
 8670SOL     OW37468   1.559   2.860  15.593 -1.1268 -0.1845  0.4614
 8670SOL    HW137469   1.538   2.769  15.573  0.4265 -0.1901 -1.1251
 8670SOL    HW237470   1.554   2.856  15.688 -0.7098  1.7491  0.5697
 8671SOL     OW37471   0.431   1.362   8.814 -0.1149  0.5661  0.4223
 8671SOL    HW137472   0.463   1.290   8.760 -2.0759  0.1391 -0.1712
 8671SOL    HW237473   0.463   1.444   8.774  0.9207 -1.0948 -2.1930
 8672SOL     OW37474   4.586   3.149   4.265 -0.0508  0.5350 -0.7633
 8672SOL    HW137475   4.671   3.182   4.293  0.1442 -0.2732 -0.4028
 8672SOL    HW237476   4.532   3.204   4.322 -1.6949 -1.0353 -0.7970
 8673SOL     OW37477   0.445   2.437   9.132 -0.3968  0.2287 -0.3938
 8673SOL    HW137478   0.405   2.513   9.090 -2.8473 -1.1521 -0.5416
 8673SOL    HW237479   0.377   2.410   9.193 -0.3844  1.0651 -0.0022
 8674SOL     OW37480   0.023   3.529   6.997 -0.2832  0.0013  0.1116
 8674SOL    HW137481   4.657   3.524   6.961 -0.4260  1.2610  0.2975
 8674SOL    HW237482   0.073   3.525   6.915  0.5341  2.4166  0.4996
 8675SOL     OW37483   0.874   0.696  16.088 -0.3116 -0.5076 -0.1037
 8675SOL    HW137484   0.877   0.715  15.994  2.3833  1.2186  0.3150
 8675SOL    HW237485   0.810   0.763  16.111  0.5590  0.0125  0.7711
 8676SOL     OW37486   3.823   0.042   2.288 -0.0315 -0.0481  0.0475
 8676SOL    HW137487   3.879   4.700   2.329  1.3917  0.6696 -0.7326
 8676SOL    HW237488   3.890   0.108   2.268 -1.4208  1.0398 -1.0598
 8677SOL     OW37489   0.899   1.004   7.973  0.3692 -0.6893 -0.0652
 8677SOL    HW137490   0.914   1.096   7.949 -1.6109 -0.5250 -0.6477
 8677SOL    HW237491   0.889   0.953   7.893  1.7176 -0.5762 -0.3106
 8678SOL     OW37492   0.933   0.822  15.848 -0.2683 -0.8895  0.2788
 8678SOL    HW137493   0.896   0.774  15.774  1.1896 -0.8822 -0.4704
 8678SOL    HW237494   1.026   0.834  15.829 -0.1823  0.4531  1.5608
 8679SOL     OW37495   4.691   3.246   8.323  0.2436  0.0051 -0.0573
 8679SOL    HW137496   4.617   3.235   8.384 -0.4009  2.1975 -0.4322
 8679SOL    HW237497   0.039   3.217   8.379 -0.4261  0.5890  1.1129
 8680SOL     OW37498   0.984   3.170   9.694 -0.6593 -0.4235  0.2176
 8680SOL    HW137499   0.967   3.088   9.740 -0.3990 -0.1306  0.8449
 8680SOL    HW237500   0.907   3.225   9.710  0.3325  0.4164  2.1564
 8681SOL     OW37501   2.965   2.506  14.896 -0.2925 -0.1646 -0.3296
 8681SOL    HW137502   3.037   2.470  14.948  1.9401  2.3486 -1.6723
 8681SOL    HW237503   2.925   2.561  14.963 -0.4760 -4.2771  2.9576
 8682SOL     OW37504   1.836   4.627  12.740 -0.0066 -0.1413  0.2169
 8682SOL    HW137505   1.799   4.709  12.773  1.8843  0.4865  0.7506
 8682SOL    HW237506   1.905   4.661  12.683 -0.3612  1.3419  0.6888
 8683SOL     OW37507   4.654   3.847  12.652 -0.5312 -0.6785  0.5081
 8683SOL    HW137508   0.020   3.845  12.686 -1.0279  0.7709  1.8989
 8683SOL    HW237509   4.632   3.758  12.624 -3.2229  0.6143 -1.5224
 8684SOL     OW37510   1.535   2.496   4.856  0.0822  0.1461 -0.0890
 8684SOL    HW137511   1.631   2.502   4.863 -0.0076  2.0386 -0.7195
 8684SOL    HW237512   1.503   2.583   4.877  1.6552  0.8255 -0.4897
 8685SOL     OW37513   1.877   1.896   4.116  0.8061 -0.7992  0.2084
 8685SOL    HW137514   1.874   1.807   4.083  0.3151 -0.3266 -1.0246
 8685SOL    HW237515   1.948   1.931   4.062  0.1461  1.1602  0.6125
 8686SOL     OW37516   3.912   3.436   6.363 -0.0840  0.1111  0.1709
 8686SOL    HW137517   3.827   3.475   6.380 -0.1340 -0.8405  2.0964
 8686SOL    HW237518   3.965   3.515   6.352 -0.3969  0.2320 -0.4405
 8687SOL     OW37519   0.332   0.747   0.203  0.3912 -0.2288 -0.1058
 8687SOL    HW137520   0.382   0.819   0.164 -2.7004  1.7160 -0.4504
 8687SOL    HW237521   0.352   0.667   0.153  1.7643  0.5888 -0.8587
 8688SOL     OW37522   0.008   2.823   7.228  0.0164  0.1219 -0.4691
 8688SOL    HW137523   4.706   2.915   7.227 -2.7192 -0.6544  0.9437
 8688SOL    HW237524   0.011   2.806   7.322  0.0311  1.4739 -0.2157
 8689SOL     OW37525   3.088   2.011  14.390  0.4115  0.3763 -0.1215
 8689SOL    HW137526   3.069   2.007  14.484 -0.6829 -2.2837 -0.4513
 8689SOL    HW237527   3.014   1.967  14.347 -1.0091 -0.2389  2.9208
 8690SOL     OW37528   1.126   0.967  10.439  0.2140 -0.1638 -0.0149
 8690SOL    HW137529   1.221   0.973  10.446  0.0710  2.3707 -0.2639
 8690SOL    HW237530   1.096   1.047  10.396 -1.1151  0.5118  2.1822
 8691SOL     OW37531   2.202   3.906  10.019  0.2775  0.1735  0.7035
 8691SOL    HW137532   2.180   3.991   9.980 -2.7565 -0.2194  1.5163
 8691SOL    HW237533   2.222   3.869   9.934 -2.4302  1.0877 -0.3419
 8692SOL     OW37534   0.190   1.265   8.133 -0.4624 -0.3557  0.2540
 8692SOL    HW137535   0.257   1.309   8.080 -0.3116  0.6117  1.2383
 8692SOL    HW237536   0.159   1.350   8.163  1.9355 -0.5032  3.1732
 8693SOL     OW37537   0.117   4.232   5.461  0.0459 -0.3410  0.7785
 8693SOL    HW137538   0.061   4.181   5.520 -1.0866 -0.4732 -0.4090
 8693SOL    HW237539   0.064   4.260   5.387  1.5002  1.2915  0.3591
 8694SOL     OW37540   1.292   4.553   0.873  0.0725  0.4064  0.2290
 8694SOL    HW137541   1.266   4.560   0.965  1.5684  0.8199  0.6157
 8694SOL    HW237542   1.269   4.644   0.852  2.4741  0.9199 -0.1535
 8695SOL     OW37543   1.971   0.633   8.123  0.0056 -0.2534 -0.4044
 8695SOL    HW137544   2.059   0.649   8.156  0.6357  0.4274 -2.4521
 8695SOL    HW237545   1.945   0.725   8.114 -0.4851 -0.1034  2.4493
 8696SOL     OW37546   4.120   2.720   6.936 -0.3930  0.0861  0.1130
 8696SOL    HW137547   4.113   2.663   7.012 -0.0049 -1.7566 -1.2537
 8696SOL    HW237548   4.178   2.785   6.975 -0.2409 -0.8805  1.4697
 8697SOL     OW37549   0.985   4.173   0.707 -0.0203 -0.1159  0.6732
 8697SOL    HW137550   0.997   4.261   0.672 -2.3251  0.6224  1.7363
 8697SOL    HW237551   0.958   4.197   0.796  0.0190 -0.1765  0.7010
 8698SOL     OW37552   2.518   4.447  13.502 -0.5502 -0.3525  0.3663
 8698SOL    HW137553   2.582   4.397  13.553 -0.5688 -1.2358 -0.4696
 8698SOL    HW237554   2.443   4.387  13.500 -0.1227 -0.9352  2.2888
 8699SOL     OW37555   2.589   3.197   6.027 -0.1064 -0.2826  0.2593
 8699SOL    HW137556   2.582   3.265   5.960 -0.0767 -1.7453 -1.2466
 8699SOL    HW237557   2.519   3.225   6.086 -0.2666 -2.8737  1.2939
 8700SOL     OW37558   1.487   0.947   8.559 -0.3188  0.0666  0.4754
 8700SOL    HW137559   1.406   0.911   8.596 -0.0579 -0.1457  0.8372
 8700SOL    HW237560   1.508   0.900   8.478 -1.3617 -1.1554  0.9112
 8701SOL     OW37561   4.336   3.905   6.946 -0.2623  0.4828 -0.8252
 8701SOL    HW137562   4.322   3.825   6.996  1.8213  1.7801  1.8177
 8701SOL    HW237563   4.311   3.877   6.858 -2.7407 -1.8307  0.6234
 8702SOL     OW37564   0.819   0.001  12.037 -0.2745 -0.4415  0.1043
 8702SOL    HW137565   0.902   0.021  11.995  0.1817 -3.4265 -0.4383
 8702SOL    HW237566   0.761   0.008  11.961  0.2374  0.8505 -0.1486
 8703SOL     OW37567   2.512   0.799   5.512  0.3608  0.1625  0.8066
 8703SOL    HW137568   2.541   0.725   5.565  0.5781  0.0972  0.5974
 8703SOL    HW237569   2.416   0.795   5.516  0.2194  0.8544 -1.8693
 8704SOL     OW37570   1.785   4.707   8.542  0.0311 -0.3061 -0.5571
 8704SOL    HW137571   1.694   4.711   8.572  0.0426  1.6233 -0.8271
 8704SOL    HW237572   1.770   4.705   8.448 -1.9695 -1.9006 -0.2093
 8705SOL     OW37573   2.288   3.653   4.496  0.1757 -0.7600  0.0570
 8705SOL    HW137574   2.193   3.644   4.507  0.3052 -2.1496 -0.0414
 8705SOL    HW237575   2.298   3.699   4.412  0.5009  0.4659  0.7745
 8706SOL     OW37576   4.046   1.528  16.553  0.0605  0.6726 -0.3474
 8706SOL    HW137577   3.967   1.563  16.511 -2.1979 -2.0172  1.5620
 8706SOL    HW237578   4.044   1.439  16.518 -2.1792  0.9354 -0.9348
 8707SOL     OW37579   3.670   0.888   6.191  0.7572  0.3215  0.8400
 8707SOL    HW137580   3.671   0.807   6.243  0.3073 -1.4217 -1.8756
 8707SOL    HW237581   3.578   0.902   6.169  1.1457  0.4768 -0.7186
 8708SOL     OW37582   2.336   2.825  10.691  0.5350 -0.0072 -0.2797
 8708SOL    HW137583   2.254   2.807  10.646 -0.6619  0.4447  1.7289
 8708SOL    HW237584   2.395   2.776  10.634  0.9502 -0.8043  0.8378
 8709SOL     OW37585   1.494   1.768   4.892  0.2831  0.2730  0.8797
 8709SOL    HW137586   1.566   1.768   4.956 -0.0022 -1.0678  1.1941
 8709SOL    HW237587   1.511   1.682   4.854  0.2577 -0.4205  2.4533
 8710SOL     OW37588   0.809   1.501  15.478 -0.3268 -0.3542 -0.4284
 8710SOL    HW137589   0.898   1.479  15.450  0.3847  1.5608  0.3017
 8710SOL    HW237590   0.763   1.485  15.396  0.6462  0.2588 -1.1006
 8711SOL     OW37591   2.890   2.751   0.190  0.1527  0.1477  0.7629
 8711SOL    HW137592   2.982   2.736   0.167  0.2780  0.0450  1.3414
 8711SOL    HW237593   2.873   2.683   0.255  0.4199 -0.8333 -0.1921
 8712SOL     OW37594   2.120   4.059  11.242  0.7028 -0.5347 -0.5056
 8712SOL    HW137595   2.124   4.081  11.335 -2.8358 -1.3427 -0.1501
 8712SOL    HW237596   2.189   4.116  11.208  1.3469  0.2260  2.1160
 8713SOL     OW37597   1.064   3.256   9.205  0.2082 -0.1297  0.2815
 8713SOL    HW137598   1.145   3.281   9.250  0.0757  0.3411  0.2535
 8713SOL    HW237599   1.105   3.254   9.118  0.3456 -0.0705  0.3451
 8714SOL     OW37600   2.011   3.672   1.947  0.1562  0.5891 -0.4275
 8714SOL    HW137601   2.015   3.613   1.872 -1.7766 -1.5369  1.1494
 8714SOL    HW237602   2.068   3.631   2.012 -1.3033  0.0796  0.5277
 8715SOL     OW37603   0.764   2.629   2.341 -0.2308  0.1931  0.6531
 8715SOL    HW137604   0.830   2.659   2.278 -2.8672 -2.0691 -3.2025
 8715SOL    HW237605   0.809   2.630   2.426  0.7615  0.3816  0.1258
 8716SOL     OW37606   4.302   1.578   5.410  0.2089 -0.1019  0.5353
 8716SOL    HW137607   4.220   1.559   5.366 -0.1273 -1.5353  1.7728
 8716SOL    HW237608   4.365   1.553   5.342 -0.6443  2.0029 -1.0130
 8717SOL     OW37609   2.293   0.558  13.149 -0.1941 -0.9142 -0.4169
 8717SOL    HW137610   2.294   0.479  13.203 -0.9879 -0.7224 -0.1200
 8717SOL    HW237611   2.341   0.626  13.196 -3.0391 -0.8915  2.4882
 8718SOL     OW37612   1.315   2.594   7.582 -0.2615 -0.4815 -0.2969
 8718SOL    HW137613   1.397   2.633   7.612 -1.7112  1.7275  0.7832
 8718SOL    HW237614   1.333   2.502   7.604  1.5244 -0.6277 -2.3658
 8719SOL     OW37615   1.648   1.276   4.627 -0.5732 -0.2495 -0.3295
 8719SOL    HW137616   1.675   1.255   4.538 -1.2944  1.0742 -0.8621
 8719SOL    HW237617   1.554   1.289   4.613 -0.6289 -1.5869 -1.1085
 8720SOL     OW37618   4.288   2.155   4.668  0.1452  0.3663  0.3320
 8720SOL    HW137619   4.377   2.124   4.653 -0.0387 -0.2491  0.5032
 8720SOL    HW237620   4.291   2.132   4.761  1.5494 -3.3847 -0.6352
 8721SOL     OW37621   2.503   0.664   6.413 -0.1093 -0.2357 -0.2841
 8721SOL    HW137622   2.438   0.702   6.472  1.4560  0.4807  0.9645
 8721SOL    HW237623   2.457   0.681   6.330 -1.6735 -0.3816  0.5623
 8722SOL     OW37624   3.483   0.431   2.452 -0.1104 -0.3302  0.4461
 8722SOL    HW137625   3.544   0.359   2.442  1.0270  0.6161  0.5692
 8722SOL    HW237626   3.544   0.500   2.477 -0.9245  1.3227 -2.2148
 8723SOL     OW37627   4.525   0.089   3.308  0.0134  0.1722  0.0942
 8723SOL    HW137628   4.522   0.113   3.215 -0.5564  1.4740  0.4516
 8723SOL    HW237629   4.617   0.065   3.318 -0.5111 -1.4238  1.0748
 8724SOL     OW37630   4.309   2.175   3.366  0.3221 -0.5975  0.1162
 8724SOL    HW137631   4.386   2.213   3.325  0.1729 -1.0608 -0.5989
 8724SOL    HW237632   4.276   2.249   3.416 -0.4609  0.7288 -2.3595
 8725SOL     OW37633   2.336   4.622   8.476 -0.2381  0.6782 -0.0376
 8725SOL    HW137634   2.408   4.634   8.414 -0.1222 -0.9071 -0.2035
 8725SOL    HW237635   2.278   4.562   8.430  1.4070  1.2015 -2.7854
 8726SOL     OW37636   2.225   3.319  12.174  0.0713  0.3141  0.7119
 8726SOL    HW137637   2.244   3.402  12.130  0.5191 -0.3714 -0.3834
 8726SOL    HW237638   2.312   3.288  12.200  0.1926  0.4553  0.4753
 8727SOL     OW37639   0.144   2.641   8.089  0.0587 -0.3884  0.1035
 8727SOL    HW137640   0.114   2.589   8.014 -1.3602 -1.1248  1.1954
 8727SOL    HW237641   0.235   2.610   8.094  0.6737  0.8901 -2.8601
 8728SOL     OW37642   2.090   1.982   0.647 -0.2632 -0.2797 -0.0278
 8728SOL    HW137643   2.052   2.001   0.561  1.2656 -0.2829 -0.7043
 8728SOL    HW237644   2.127   2.068   0.666 -0.6117 -0.0580 -0.3425
 8729SOL     OW37645   0.195   3.724   2.519 -0.4333 -0.2265  0.2181
 8729SOL    HW137646   0.174   3.715   2.426  0.7158  1.7368 -0.2223
 8729SOL    HW237647   0.198   3.632   2.543  4.8304 -0.4421 -1.4249
 8730SOL     OW37648   2.997   1.634  13.963  0.2847 -0.5169  0.0333
 8730SOL    HW137649   2.931   1.616  14.030 -1.2586  1.3436 -1.0067
 8730SOL    HW237650   2.938   1.658  13.891 -0.3317 -0.1074  0.6865
 8731SOL     OW37651   0.320   2.911   4.096 -0.3697 -0.4817 -0.0758
 8731SOL    HW137652   0.225   2.908   4.099 -0.2822 -0.7424  3.5773
 8731SOL    HW237653   0.336   2.963   4.018  0.0725 -1.3260 -0.5536
 8732SOL     OW37654   0.217   1.180  10.583  0.0217  0.1770 -0.6485
 8732SOL    HW137655   0.149   1.114  10.599 -1.7917  2.2962  0.3603
 8732SOL    HW237656   0.277   1.130  10.527 -0.4018 -2.1880  1.0212
 8733SOL     OW37657   4.104   0.915   8.623 -0.2738  0.0005 -0.1041
 8733SOL    HW137658   4.177   0.943   8.568 -0.7018 -2.4187 -1.9335
 8733SOL    HW237659   4.133   0.897   8.712 -1.6308  3.2107  0.9790
 8734SOL     OW37660   2.271   2.745   7.783  0.2445 -0.7902  0.3705
 8734SOL    HW137661   2.288   2.751   7.689  1.6302 -1.1155  0.6030
 8734SOL    HW237662   2.342   2.795   7.823 -1.7523  2.9880 -0.7087
 8735SOL     OW37663   0.331   1.908   3.413  0.4801 -0.0670  0.0071
 8735SOL    HW137664   0.283   1.850   3.472  0.6392  1.2016  1.3883
 8735SOL    HW237665   0.279   1.900   3.333 -0.1763  1.3832  0.2756
 8736SOL     OW37666   1.231   2.411   3.202 -0.3561  0.0940  0.5778
 8736SOL    HW137667   1.212   2.318   3.214 -1.7837  0.5218  1.6308
 8736SOL    HW237668   1.211   2.421   3.109  0.2149  0.9981  0.5536
 8737SOL     OW37669   0.466   4.423   7.411 -0.1629 -0.4378 -0.1746
 8737SOL    HW137670   0.481   4.496   7.471  1.6266 -0.7528 -0.2516
 8737SOL    HW237671   0.538   4.435   7.350 -1.4037  3.1240 -0.9629
 8738SOL     OW37672   4.435   2.489   8.324 -0.4750 -0.2698  0.1613
 8738SOL    HW137673   4.527   2.503   8.303 -0.4027  0.9687  1.3244
 8738SOL    HW237674   4.405   2.578   8.342  0.2083 -0.3557  1.6686
 8739SOL     OW37675   2.689   1.804  11.681  0.3186  0.3300  0.2703
 8739SOL    HW137676   2.743   1.789  11.603 -0.1569 -0.3639  0.0769
 8739SOL    HW237677   2.688   1.898  11.697 -0.3953  0.5431 -1.0957
 8740SOL     OW37678   4.024   2.688   4.035 -0.0360 -0.4215  0.3786
 8740SOL    HW137679   3.979   2.673   4.118  0.8692 -1.0182  0.7569
 8740SOL    HW237680   3.955   2.741   3.996 -1.3366 -1.2231  1.6196
 8741SOL     OW37681   0.786   1.615  16.719 -0.2362 -1.1064  0.8749
 8741SOL    HW137682   0.706   1.651  16.759 -0.6545  1.1345 -1.9981
 8741SOL    HW237683   0.747   1.570  16.644  0.4004 -2.7716  1.5431
 8742SOL     OW37684   1.309   4.479   2.298 -0.6026  0.1874  0.7930
 8742SOL    HW137685   1.394   4.437   2.282 -1.0095  0.3697 -1.8448
 8742SOL    HW237686   1.297   4.518   2.212  1.0087  0.7594  0.8263
 8743SOL     OW37687   0.127   3.904   4.856  0.3900 -0.1066  0.4432
 8743SOL    HW137688   0.118   3.834   4.791 -0.7974 -0.5968  1.1311
 8743SOL    HW237689   0.037   3.937   4.857  0.7515  0.8034  1.8984
 8744SOL     OW37690   2.171   2.256  13.611  0.1663  0.1470  0.0192
 8744SOL    HW137691   2.205   2.341  13.583 -0.7825  0.4769 -0.1239
 8744SOL    HW237692   2.077   2.276  13.613  0.3240  0.6947  1.5371
 8745SOL     OW37693   4.607   3.424   8.051 -0.4758  0.2343  0.4554
 8745SOL    HW137694   4.564   3.369   7.985  1.1791 -1.2532  0.6018
 8745SOL    HW237695   4.604   3.378   8.135 -1.8323  0.7292  0.6701
 8746SOL     OW37696   2.460   1.765   2.494 -0.5777 -0.6462 -0.4295
 8746SOL    HW137697   2.414   1.727   2.568 -0.5756 -0.2753 -0.2403
 8746SOL    HW237698   2.538   1.790   2.543 -1.5714  2.3636 -0.4130
 8747SOL     OW37699   1.209   3.947   8.044  0.4384 -0.2461 -0.5785
 8747SOL    HW137700   1.282   3.890   8.021  0.4028 -0.9530  1.0257
 8747SOL    HW237701   1.140   3.893   8.006  1.6053  0.3139 -3.5122
 8748SOL     OW37702   2.823   2.684   3.922 -0.0432  0.1918  0.3744
 8748SOL    HW137703   2.764   2.608   3.918  0.2961  0.0264 -1.3631
 8748SOL    HW237704   2.857   2.676   4.011 -0.5559  0.6980  0.6187
 8749SOL     OW37705   2.388   0.621   8.876  0.1407 -0.4066 -0.6101
 8749SOL    HW137706   2.425   0.536   8.851  0.8023 -0.1803 -0.3970
 8749SOL    HW237707   2.397   0.624   8.971 -1.4557  0.2623 -0.4813
 8750SOL     OW37708   3.158   4.429   6.960  0.0219  0.2715 -0.2680
 8750SOL    HW137709   3.244   4.422   7.002  0.2553 -1.9760 -1.0989
 8750SOL    HW237710   3.164   4.524   6.953 -0.4747  0.4937  2.3599
 8751SOL     OW37711   2.737   3.605   5.557  0.1454  0.3006 -0.4877
 8751SOL    HW137712   2.667   3.581   5.496 -0.5577  0.5839  0.2071
 8751SOL    HW237713   2.741   3.525   5.609 -1.4561 -1.0977 -2.4923
 8752SOL     OW37714   2.791   0.677   6.479 -0.2362 -0.4452  0.6124
 8752SOL    HW137715   2.816   0.702   6.568  0.3359  1.5470 -0.1070
 8752SOL    HW237716   2.696   0.678   6.494 -0.8396 -0.9133 -3.1303
 8753SOL     OW37717   2.045   1.243   2.386 -0.0244  0.2552 -0.2233
 8753SOL    HW137718   2.012   1.267   2.299  1.8633 -0.9093 -1.2504
 8753SOL    HW237719   2.074   1.324   2.428 -2.1012  1.4731 -1.1263
 8754SOL     OW37720   4.437   1.851  15.418  0.0850  0.0606  0.7466
 8754SOL    HW137721   4.432   1.919  15.351 -1.5610  0.4249  1.2594
 8754SOL    HW237722   4.368   1.801  15.375 -0.0713  0.6187  0.3558
 8755SOL     OW37723   0.943   3.455   7.269 -0.6406 -0.0602 -0.2813
 8755SOL    HW137724   1.017   3.437   7.212 -0.7448  0.2995 -0.5306
 8755SOL    HW237725   0.909   3.537   7.232 -1.1851 -0.5306 -0.8151
 8756SOL     OW37726   0.990   3.142   2.893  0.2995  0.2540 -0.5454
 8756SOL    HW137727   1.010   3.174   2.805 -1.5386  3.2137  0.1237
 8756SOL    HW237728   0.915   3.085   2.877  1.6977 -1.2731 -1.6514
 8757SOL     OW37729   1.571   2.554   6.042  0.1007  0.6161 -0.4268
 8757SOL    HW137730   1.529   2.531   6.125 -1.7233  2.7822 -0.7495
 8757SOL    HW237731   1.643   2.610   6.073  1.4549 -0.7475 -1.1335
 8758SOL     OW37732   3.246   1.318  10.029 -0.3278  0.0812  0.3911
 8758SOL    HW137733   3.337   1.293  10.042 -0.2383  0.2037  0.0188
 8758SOL    HW237734   3.203   1.239   9.994  1.3410 -0.4242 -0.5438
 8759SOL     OW37735   4.127   2.878  11.917  0.2869  0.1610 -0.0680
 8759SOL    HW137736   4.189   2.949  11.899  1.6353 -0.9327  0.3270
 8759SOL    HW237737   4.067   2.921  11.978  0.0574  0.1553 -0.2871
 8760SOL     OW37738   0.707   0.672   7.812  0.3465  0.2116 -0.1101
 8760SOL    HW137739   0.659   0.754   7.820 -1.6303 -0.9993  0.2316
 8760SOL    HW237740   0.720   0.657   7.905 -2.0713 -1.6851 -0.0745
 8761SOL     OW37741   3.059   0.455   4.931  0.4553 -0.3580 -0.3438
 8761SOL    HW137742   2.984   0.408   4.969 -0.2232  2.3605  1.6930
 8761SOL    HW237743   3.031   0.546   4.920  0.7447 -0.2740 -0.3715
 8762SOL     OW37744   1.840   3.111   7.594 -0.0589  0.5754  0.0015
 8762SOL    HW137745   1.840   3.175   7.523  2.8831  0.4353 -0.1243
 8762SOL    HW237746   1.750   3.079   7.590  0.7040 -1.5610 -0.1412
 8763SOL     OW37747   2.585   2.285   7.310  0.0401  0.0730  0.0625
 8763SOL    HW137748   2.611   2.360   7.363  0.1289 -0.3152  0.5700
 8763SOL    HW237749   2.658   2.283   7.248  1.1645 -1.0883  1.4238
 8764SOL     OW37750   3.858   4.274   5.250  0.2667 -0.6251  0.1999
 8764SOL    HW137751   3.859   4.316   5.336 -2.1815  1.7972 -0.9350
 8764SOL    HW237752   3.937   4.311   5.211 -0.4513 -1.2639 -1.8292
 8765SOL     OW37753   2.879   0.854   5.701 -0.6390  0.0147 -0.2115
 8765SOL    HW137754   2.945   0.785   5.696 -1.9227 -1.1668 -0.9142
 8765SOL    HW237755   2.807   0.795   5.724 -0.6453  0.4420  0.8500
 8766SOL     OW37756   2.751   4.431  14.929  0.1695 -0.2780  0.2781
 8766SOL    HW137757   2.727   4.413  15.020  1.2427  0.4078  0.6926
 8766SOL    HW237758   2.766   4.525  14.933 -1.7044  0.1589 -2.7839
 8767SOL     OW37759   4.497   3.569   7.328  0.2016  0.4418  0.2072
 8767SOL    HW137760   4.465   3.550   7.417  0.0497  0.0315  0.0680
 8767SOL    HW237761   4.417   3.538   7.285  1.6152 -1.4338 -1.0966
 8768SOL     OW37762   1.531   4.500   6.395  0.4248  0.0433 -0.0362
 8768SOL    HW137763   1.525   4.418   6.345  0.6111  0.4072 -0.6592
 8768SOL    HW237764   1.467   4.494   6.465  0.6114  0.2442  0.1511
 8769SOL     OW37765   2.557   3.695  11.743  0.3710  0.0546  0.4789
 8769SOL    HW137766   2.574   3.602  11.728 -1.4333 -0.6871  3.0671
 8769SOL    HW237767   2.505   3.704  11.823 -1.3648 -0.8713 -0.5598
 8770SOL     OW37768   0.723   3.872  16.122 -0.0741  0.3502 -0.0124
 8770SOL    HW137769   0.762   3.801  16.070  1.7965 -0.2394  2.2103
 8770SOL    HW237770   0.645   3.895  16.071 -1.3500 -2.5874  0.6232
 8771SOL     OW37771   1.512   0.770   2.747 -0.2049  0.5251 -0.0762
 8771SOL    HW137772   1.483   0.838   2.685  0.2660 -0.0342 -0.9097
 8771SOL    HW237773   1.469   0.692   2.713  1.0463  0.3027 -1.1471
 8772SOL     OW37774   0.929   1.372   3.517 -0.1453 -0.1844 -0.1933
 8772SOL    HW137775   0.894   1.427   3.446  2.8821  0.8961 -0.8538
 8772SOL    HW237776   0.974   1.310   3.460  0.6669 -0.2380  0.5055
 8773SOL     OW37777   2.145   0.757   4.073 -0.2436  0.1064  0.0287
 8773SOL    HW137778   2.202   0.795   4.139 -0.2347  1.9402 -1.0230
 8773SOL    HW237779   2.146   0.814   3.995 -0.1131  0.5230  0.3353
 8774SOL     OW37780   1.584   2.506   1.182 -0.3971 -0.1153  0.6296
 8774SOL    HW137781   1.514   2.551   1.134 -0.3130 -0.1189  0.5049
 8774SOL    HW237782   1.610   2.577   1.241 -0.6727  0.3718  0.1675
 8775SOL     OW37783   3.325   3.917   6.839 -0.1261  0.7822 -0.4206
 8775SOL    HW137784   3.383   3.846   6.813  0.8480  1.3580  0.1925
 8775SOL    HW237785   3.364   3.952   6.919  0.1405 -1.1318  0.2786
 8776SOL     OW37786   4.085   2.322   7.223  0.2837 -0.1677 -0.6476
 8776SOL    HW137787   3.990   2.311   7.220  0.1844  0.3979  0.5949
 8776SOL    HW237788   4.102   2.322   7.129  2.8289  1.0240 -0.1681
 8777SOL     OW37789   1.721   4.344   8.800  0.0125  0.4324 -0.2640
 8777SOL    HW137790   1.813   4.365   8.813  0.4133 -1.4724 -0.0015
 8777SOL    HW237791   1.714   4.248   8.806  4.1151  0.0647 -1.3878
 8778SOL     OW37792   0.051   2.715   5.998  0.3175  0.4793  0.1412
 8778SOL    HW137793   0.061   2.786   6.061 -0.5076  1.5191 -0.8877
 8778SOL    HW237794   0.132   2.665   6.005 -0.5813 -0.6213  2.8960
 8779SOL     OW37795   1.874   0.471   8.320  0.2122 -0.2448  0.2188
 8779SOL    HW137796   1.845   0.553   8.360  1.1876 -0.2567  0.9411
 8779SOL    HW237797   1.919   0.515   8.248 -1.4581  3.3044  1.3533
 8780SOL     OW37798   3.309   1.876   4.584  0.4370 -0.1726  0.6727
 8780SOL    HW137799   3.395   1.834   4.590 -0.0630 -1.4199 -0.7366
 8780SOL    HW237800   3.262   1.797   4.611 -1.6939  0.8079 -0.1888
 8781SOL     OW37801   3.260   1.994   4.846  0.5827  0.4102  0.3209
 8781SOL    HW137802   3.287   1.955   4.763  0.5185  1.0752 -0.0060
 8781SOL    HW237803   3.342   2.032   4.876  1.0496 -0.6318  0.3870
 8782SOL     OW37804   1.944   1.833   5.238 -0.2926 -0.5992 -0.2031
 8782SOL    HW137805   1.916   1.762   5.180  1.9563 -2.4686  0.9867
 8782SOL    HW237806   1.903   1.806   5.320 -0.1419  2.0149  0.7430
 8783SOL     OW37807   3.401   2.171  14.195  0.5282 -0.0839  0.4509
 8783SOL    HW137808   3.452   2.219  14.261 -0.3632 -0.0485  1.1271
 8783SOL    HW237809   3.430   2.209  14.112  0.3646  0.8868  0.8385
 8784SOL     OW37810   1.476   2.681   8.338 -0.1661 -0.0987  0.0551
 8784SOL    HW137811   1.461   2.596   8.379 -1.0496 -0.5612 -1.2007
 8784SOL    HW237812   1.569   2.670   8.318 -0.3270 -2.4224  0.5684
 8785SOL     OW37813   2.100   2.413   8.989 -0.2820  0.1745  0.2619
 8785SOL    HW137814   2.110   2.350   8.918 -1.8844 -0.1843  0.3512
 8785SOL    HW237815   2.009   2.388   9.006 -0.0297 -0.3077  0.8725
 8786SOL     OW37816   0.892   1.563   8.385 -0.2979 -0.5309  0.0932
 8786SOL    HW137817   0.959   1.502   8.415 -0.0960  0.2195  1.1728
 8786SOL    HW237818   0.940   1.641   8.415  0.1041 -0.8717  0.3404
 8787SOL     OW37819   3.805   4.244   8.949  0.5168 -0.1310 -0.5370
 8787SOL    HW137820   3.719   4.262   8.986  0.2317 -3.4177  0.4247
 8787SOL    HW237821   3.789   4.276   8.860  0.6744  1.7403  0.1009
 8788SOL     OW37822   1.695   2.368   6.718 -0.1803 -0.3065  0.1245
 8788SOL    HW137823   1.675   2.417   6.798  0.5493 -0.8402  0.6226
 8788SOL    HW237824   1.773   2.411   6.683 -1.1914  1.3968 -0.0678
 8789SOL     OW37825   2.140   0.847   3.253 -0.6099  0.2736 -0.6786
 8789SOL    HW137826   2.098   0.932   3.245 -1.1900  0.1955  1.3307
 8789SOL    HW237827   2.070   0.797   3.210 -2.7330  1.7641  1.0276
 8790SOL     OW37828   0.593   0.297  15.114  0.7949 -0.0463  0.3169
 8790SOL    HW137829   0.675   0.315  15.161  0.2380 -1.4091  1.8145
 8790SOL    HW237830   0.569   0.386  15.087 -3.2760 -1.0771  0.5588
 8791SOL     OW37831   4.200   0.661   0.836 -0.1274  0.1062  0.3209
 8791SOL    HW137832   4.176   0.753   0.828 -1.8671 -0.5053 -1.6555
 8791SOL    HW237833   4.114   0.628   0.809 -0.3057  1.8403 -1.2282
 8792SOL     OW37834   0.336   3.915   4.315 -0.9043  0.0477  0.6086
 8792SOL    HW137835   0.409   3.966   4.280 -1.8327  0.2744 -0.9827
 8792SOL    HW237836   0.351   3.835   4.265  1.0372  1.4316 -1.0046
 8793SOL     OW37837   0.195   3.486   0.786  0.5391  0.1753 -0.1061
 8793SOL    HW137838   0.099   3.479   0.784  0.4735  1.3723 -1.5206
 8793SOL    HW237839   0.202   3.473   0.880  0.4702 -0.9173 -0.2561
 8794SOL     OW37840   2.635   1.813   8.536  0.1124 -0.0246  0.1923
 8794SOL    HW137841   2.677   1.857   8.462  0.9391  1.5176  1.5729
 8794SOL    HW237842   2.550   1.856   8.540 -0.7587 -1.6438 -0.7741
 8795SOL     OW37843   0.590   3.230   2.842 -0.1440 -0.5841 -0.4395
 8795SOL    HW137844   0.522   3.242   2.776  2.3605 -0.8380 -3.0424
 8795SOL    HW237845   0.668   3.266   2.802 -1.8040  1.7062 -1.5974
 8796SOL     OW37846   0.950   0.150  15.581 -0.3249  0.4830  0.1015
 8796SOL    HW137847   0.946   0.056  15.600  1.4116  0.1784 -1.0439
 8796SOL    HW237848   0.873   0.172  15.634  0.1336  1.3932  0.3965
 8797SOL     OW37849   1.580   3.783   0.177 -0.1161  0.0205  0.1602
 8797SOL    HW137850   1.500   3.741   0.145  1.2057 -2.9089  0.6803
 8797SOL    HW237851   1.572   3.874   0.147 -0.2368 -0.1833 -0.4204
 8798SOL     OW37852   1.887   0.918   6.741  0.0745  0.6354  0.3755
 8798SOL    HW137853   1.809   0.894   6.791 -0.0203  0.2856  0.0605
 8798SOL    HW237854   1.859   0.975   6.670  0.3135  1.7680  1.1904
 8799SOL     OW37855   4.225   4.060   7.194 -0.2761  0.3760 -0.1531
 8799SOL    HW137856   4.195   3.997   7.260  3.1888 -0.9158  0.1734
 8799SOL    HW237857   4.232   4.007   7.115 -0.4594  0.6140 -0.3285
 8800SOL     OW37858   3.433   1.951   9.034 -0.3278 -0.0586 -0.5061
 8800SOL    HW137859   3.520   1.914   9.050 -1.4870 -3.5990 -2.3801
 8800SOL    HW237860   3.419   1.994   9.118  1.5769 -0.8315  0.2128
 8801SOL     OW37861   2.465   3.961   1.727  0.4503 -0.4236 -0.0238
 8801SOL    HW137862   2.496   3.963   1.636 -0.5919  0.1498 -0.3652
 8801SOL    HW237863   2.376   3.995   1.722  0.3696 -0.8588 -1.4256
 8802SOL     OW37864   1.453   1.791  11.420 -0.3309 -0.3902  0.0170
 8802SOL    HW137865   1.388   1.754  11.361 -0.6995  1.2367 -0.5913
 8802SOL    HW237866   1.420   1.780  11.509  2.1654 -1.2285  0.8612
 8803SOL     OW37867   3.100   2.333   8.381 -0.3092 -0.0964 -0.5703
 8803SOL    HW137868   3.131   2.416   8.415 -0.1199 -0.8677  1.1672
 8803SOL    HW237869   3.181   2.318   8.332 -0.1551 -0.9733 -0.0444
 8804SOL     OW37870   0.866   4.495   7.829 -0.4209  0.5679 -0.1224
 8804SOL    HW137871   0.954   4.458   7.837 -0.3381  0.9687  0.8455
 8804SOL    HW237872   0.826   4.451   7.905 -0.5299  0.2825 -0.3472
 8805SOL     OW37873   2.218   3.121   7.093 -0.6643 -0.4268 -0.8205
 8805SOL    HW137874   2.169   3.186   7.144 -2.6919 -1.2500 -1.7505
 8805SOL    HW237875   2.197   3.038   7.135  1.2671  0.0856  1.1872
 8806SOL     OW37876   1.795   0.619  16.343  0.6846 -0.2038 -0.3619
 8806SOL    HW137877   1.773   0.706  16.309  0.5275 -0.6581 -1.4340
 8806SOL    HW237878   1.712   0.577  16.362  0.3230  1.2838  1.3057
 8807SOL     OW37879   1.899   0.608   3.968 -0.2627 -0.3323  0.4827
 8807SOL    HW137880   1.970   0.655   4.011  1.7901 -1.3194 -1.8157
 8807SOL    HW237881   1.821   0.664   3.971 -0.0635 -0.0758  0.8441
 8808SOL     OW37882   1.288   3.796   4.906  0.0461 -0.1153 -0.4182
 8808SOL    HW137883   1.300   3.873   4.849  0.2056  0.5401  0.5103
 8808SOL    HW237884   1.311   3.833   4.991 -1.7435  1.4640 -0.6329
 8809SOL     OW37885   3.394   2.070   9.281  0.1701  0.0017  0.6111
 8809SOL    HW137886   3.400   2.109   9.368  0.4968 -0.4474  0.7911
 8809SOL    HW237887   3.356   1.987   9.311  1.1440  0.2747  2.6301
 8810SOL     OW37888   3.060   0.957   7.995  0.2247  0.3491  0.0669
 8810SOL    HW137889   3.100   0.992   7.916  2.4705 -1.9185  0.1755
 8810SOL    HW237890   2.974   0.945   7.956  0.4735 -2.5318  0.3436
 8811SOL     OW37891   2.173   0.798   7.135 -0.4069  0.3628  0.0515
 8811SOL    HW137892   2.183   0.703   7.125  2.3138  0.5602  0.9414
 8811SOL    HW237893   2.113   0.830   7.067  0.9207  0.3068 -1.1332
 8812SOL     OW37894   4.055   0.809   5.715 -0.2452  0.5071  0.0140
 8812SOL    HW137895   4.107   0.890   5.721  1.4831 -0.7539  2.1515
 8812SOL    HW237896   4.072   0.781   5.805  3.3082 -0.5744 -1.0004
 8813SOL     OW37897   2.783   2.636   9.550 -0.3156  0.2364 -0.1916
 8813SOL    HW137898   2.797   2.725   9.517  0.3847 -0.5055 -1.9222
 8813SOL    HW237899   2.689   2.630   9.568 -0.2941 -0.0560 -0.1829
 8814SOL     OW37900   4.334   3.725   3.744 -0.6200  0.0157  0.3503
 8814SOL    HW137901   4.377   3.648   3.707  0.9680  0.7093  0.7590
 8814SOL    HW237902   4.289   3.682   3.818 -0.6850 -2.3151 -1.0555
 8815SOL     OW37903   2.928   3.571   5.890 -0.1310 -0.1634  0.9058
 8815SOL    HW137904   2.923   3.516   5.968  0.4983 -2.1245 -0.4501
 8815SOL    HW237905   3.017   3.551   5.858 -1.5926 -1.7924 -2.1449
 8816SOL     OW37906   3.837   1.722  13.531 -0.2928 -0.1009  0.3736
 8816SOL    HW137907   3.794   1.738  13.447  1.4462  1.3127 -0.2558
 8816SOL    HW237908   3.827   1.808  13.571 -2.6638  0.2291 -0.9395
 8817SOL     OW37909   4.239   2.781  15.302 -0.0997  0.3021 -0.1941
 8817SOL    HW137910   4.206   2.797  15.213 -0.1553  1.1775 -0.0137
 8817SOL    HW237911   4.309   2.846  15.304  0.7133 -0.6258  1.7619
 8818SOL     OW37912   1.870   1.005   4.010 -1.0207 -0.2968  0.1586
 8818SOL    HW137913   1.818   1.085   3.995  0.7478  0.9007  0.3787
 8818SOL    HW237914   1.927   1.008   3.933 -2.2453  2.2243 -0.6742
 8819SOL     OW37915   4.095   3.455   0.134  0.2556 -0.0196 -0.5737
 8819SOL    HW137916   4.190   3.452   0.121  0.6128  1.8626  1.5280
 8819SOL    HW237917   4.072   3.511   0.059 -2.1172  2.0451  1.7126
 8820SOL     OW37918   4.256   2.856  13.151  0.1706 -0.3113 -0.1491
 8820SOL    HW137919   4.210   2.925  13.103 -0.2190 -0.6070 -0.2015
 8820SOL    HW237920   4.345   2.886  13.167  0.7447 -1.5253 -1.0251
 8821SOL     OW37921   0.035   2.567  11.235  0.0129  0.2580  0.3879
 8821SOL    HW137922   0.113   2.621  11.247  0.7410 -0.5813 -0.6558
 8821SOL    HW237923   0.061   2.544  11.146 -0.5839  0.7511  0.0847
 8822SOL     OW37924   2.452   2.753   7.279  0.9221  0.4051  0.4890
 8822SOL    HW137925   2.445   2.781   7.371 -1.2078 -1.7364  0.9825
 8822SOL    HW237926   2.480   2.833   7.235  2.7572 -1.1421 -1.1546
 8823SOL     OW37927   3.087   3.164   8.279  0.5961  0.2370  0.7909
 8823SOL    HW137928   3.162   3.179   8.221  1.3538 -2.1323  1.1348
 8823SOL    HW237929   3.020   3.212   8.230  0.0673  1.2898  2.5423
 8824SOL     OW37930   3.952   2.460   8.224  0.0549  0.0401 -0.5273
 8824SOL    HW137931   4.015   2.430   8.290  1.6996 -0.4217 -2.3176
 8824SOL    HW237932   3.872   2.411   8.240  2.2482 -3.1602  0.7613
 8825SOL     OW37933   3.478   2.954   7.017  0.3022  0.0876  0.2659
 8825SOL    HW137934   3.442   3.035   6.982 -1.3018 -1.0386 -0.6860
 8825SOL    HW237935   3.404   2.918   7.066 -0.9905 -0.3917 -2.0271
 8826SOL     OW37936   1.139   3.532   5.662 -1.0028 -1.0786  0.0832
 8826SOL    HW137937   1.158   3.477   5.586  3.2000  2.1134 -1.1175
 8826SOL    HW237938   1.154   3.469   5.732  0.8995  1.0746  1.6126
 8827SOL     OW37939   1.802   2.788   1.089  0.2460  0.2476  0.0497
 8827SOL    HW137940   1.892   2.796   1.058 -0.8428  0.6140 -2.9812
 8827SOL    HW237941   1.806   2.697   1.118  0.3308  1.0650  2.5864
 8828SOL     OW37942   4.633   2.392  11.407  0.1961 -0.4016 -0.5875
 8828SOL    HW137943   4.673   2.460  11.354 -0.0196 -1.0947 -1.6284
 8828SOL    HW237944   4.711   2.337  11.409  0.9022  0.6138 -0.1842
 8829SOL     OW37945   4.658   1.879   7.274  0.0475 -0.2947  0.4824
 8829SOL    HW137946   0.005   1.943   7.262  0.7516 -1.1514  0.0933
 8829SOL    HW237947   4.703   1.796   7.260 -0.7270 -0.4953 -0.8615
 8830SOL     OW37948   2.966   3.191  11.639 -0.0591 -0.1982  0.2188
 8830SOL    HW137949   2.987   3.153  11.724  0.6864 -1.1402 -0.3802
 8830SOL    HW237950   3.004   3.130  11.575 -0.3055 -1.6979  1.5025
 8831SOL     OW37951   4.442   4.074   5.656 -0.0303  0.0427  0.0154
 8831SOL    HW137952   4.437   4.160   5.614 -0.9935 -0.6412 -1.2907
 8831SOL    HW237953   4.399   4.098   5.738 -0.5787  1.4215 -0.6700
 8832SOL     OW37954   0.866   2.689   7.195  0.0393  0.7909 -0.5576
 8832SOL    HW137955   0.903   2.616   7.145 -2.0205  0.6323 -1.8548
 8832SOL    HW237956   0.904   2.763   7.148  3.8451 -0.4645  0.5825
 8833SOL     OW37957   0.900   4.615   8.939 -0.2889  0.0106  0.1851
 8833SOL    HW137958   0.898   4.631   8.845  1.6408 -1.7228 -0.1712
 8833SOL    HW237959   0.828   4.674   8.959 -0.0682 -0.2240  1.7179
 8834SOL     OW37960   1.276   1.831  15.444  0.3531  0.0413  0.4139
 8834SOL    HW137961   1.263   1.845  15.538  2.0881 -3.3999  1.1615
 8834SOL    HW237962   1.366   1.798  15.446 -0.2326 -1.5012  1.8665
 8835SOL     OW37963   0.420   0.518  12.525  0.1029 -0.5759  0.3598
 8835SOL    HW137964   0.399   0.425  12.533 -0.1401 -0.4528  1.0960
 8835SOL    HW237965   0.468   0.535  12.606  0.0719  0.9029  0.0691
 8836SOL     OW37966   0.237   0.438   4.389  0.1291  0.1177 -0.2340
 8836SOL    HW137967   0.241   0.409   4.298 -3.3447  0.1591 -0.4028
 8836SOL    HW237968   0.286   0.520   4.386  0.6533 -0.2529 -1.7675
 8837SOL     OW37969   4.432   3.118   8.182  0.0890  0.1415  0.4144
 8837SOL    HW137970   4.487   3.039   8.191 -1.6685 -1.2313 -0.8341
 8837SOL    HW237971   4.407   3.105   8.091  1.4572  0.7918 -0.0475
 8838SOL     OW37972   0.601   0.401  13.933  0.0472  0.5014  0.1236
 8838SOL    HW137973   0.689   0.403  13.895  0.1157  0.7971  0.2980
 8838SOL    HW237974   0.568   0.489  13.917 -1.2209  0.3068  1.6833
 8839SOL     OW37975   3.208   1.369   2.225  0.0720 -0.1109 -0.2846
 8839SOL    HW137976   3.219   1.448   2.278  0.0108 -1.3493  1.5315
 8839SOL    HW237977   3.113   1.360   2.229  0.0927  0.1655  0.7637
 8840SOL     OW37978   2.160   3.766   0.459 -0.4022 -0.5884 -0.1493
 8840SOL    HW137979   2.102   3.839   0.480  1.7715  0.5790  1.7182
 8840SOL    HW237980   2.244   3.810   0.472 -0.2295 -1.2751  1.0547
 8841SOL     OW37981   4.123   0.726   2.888  0.1955 -0.2575  1.1242
 8841SOL    HW137982   4.202   0.680   2.915  0.6166  0.5954  1.3376
 8841SOL    HW237983   4.070   0.648   2.868  0.4960 -0.3508  0.7114
 8842SOL     OW37984   4.716   3.777  16.408 -0.2961  0.2006 -0.7746
 8842SOL    HW137985   0.013   3.757  16.317  2.3739  1.3919 -0.4183
 8842SOL    HW237986   4.713   3.689  16.445  2.3115  0.8591  0.9829
 8843SOL     OW37987   1.438   2.711   4.302  0.6528  0.2652  0.2795
 8843SOL    HW137988   1.355   2.724   4.257 -0.5227  0.3057  2.4547
 8843SOL    HW237989   1.451   2.618   4.284 -0.5747  0.0549  0.4592
 8844SOL     OW37990   0.576   1.766  10.558 -0.1475 -0.2242 -0.3065
 8844SOL    HW137991   0.555   1.678  10.528  1.1501 -0.0623 -1.6657
 8844SOL    HW237992   0.515   1.771  10.632  0.5577 -0.4794  0.2864
 8845SOL     OW37993   2.690   1.561   6.854  0.4840 -1.2456 -0.0621
 8845SOL    HW137994   2.766   1.550   6.911  0.7047  0.6161 -0.0007
 8845SOL    HW237995   2.647   1.479   6.879 -2.1698 -0.5436 -2.2793
 8846SOL     OW37996   0.734   2.902   2.616  0.5949 -0.1558  0.2103
 8846SOL    HW137997   0.724   2.807   2.614  2.0752 -0.2610 -2.3252
 8846SOL    HW237998   0.735   2.919   2.710 -2.1452  1.8112 -0.1372
 8847SOL     OW37999   3.885   3.072   0.331 -0.4933 -0.1479  0.4819
 8847SOL    HW138000   3.926   2.986   0.341 -1.3985 -0.4295  1.6860
 8847SOL    HW238001   3.885   3.077   0.235  1.9946 -0.0140  0.4775
 8848SOL     OW38002   0.768   4.335   9.313 -0.0295 -0.2014  0.4196
 8848SOL    HW138003   0.732   4.248   9.327 -0.6674  0.1499  0.9521
 8848SOL    HW238004   0.859   4.321   9.339 -0.4298  0.6677  2.2795
 8849SOL     OW38005   3.732   2.268  16.969  0.5304 -0.2864  0.1123
 8849SOL    HW138006   3.816   2.310  16.989  0.4877  0.0850 -0.4837
 8849SOL    HW238007   3.674   2.310  17.032  0.4822 -1.9468  1.1683
 8850SOL     OW38008   2.161   4.446   4.566  0.2625 -0.2788 -0.6989
 8850SOL    HW138009   2.233   4.384   4.575  0.2974  0.0837  1.5917
 8850SOL    HW238010   2.183   4.514   4.630  1.9109 -0.7890 -0.7175
 8851SOL     OW38011   3.694   2.053   7.275 -0.4915  0.4899  0.6488
 8851SOL    HW138012   3.627   2.058   7.207 -1.5778 -0.8713  1.6225
 8851SOL    HW238013   3.738   2.134   7.250  1.1164 -0.0250  1.7922
 8852SOL     OW38014   2.485   1.877  16.872  0.7656  0.1872  0.3604
 8852SOL    HW138015   2.417   1.858  16.936  1.5976 -0.2683  1.1023
 8852SOL    HW238016   2.540   1.798  16.867  0.0256 -0.3624  1.0492
 8853SOL     OW38017   2.075   3.848  12.618  0.1186 -0.6978 -0.0000
 8853SOL    HW138018   2.137   3.910  12.656  0.3140 -1.7263  1.3857
 8853SOL    HW238019   2.135   3.775  12.632  0.4903 -0.2754  0.6160
 8854SOL     OW38020   4.422   3.753   9.155 -0.5413 -0.0455 -0.3639
 8854SOL    HW138021   4.476   3.807   9.097 -1.7663 -0.0546 -1.5269
 8854SOL    HW238022   4.341   3.763   9.104 -1.4139 -0.1308  1.0231
 8855SOL     OW38023   1.165   1.724   9.588 -0.1051 -0.1369  0.0007
 8855SOL    HW138024   1.100   1.782   9.627 -2.1647 -0.9914 -2.1685
 8855SOL    HW238025   1.214   1.688   9.662 -2.0091  0.1621  1.3823
 8856SOL     OW38026   4.453   2.439   9.301 -0.5617 -0.3679 -0.6193
 8856SOL    HW138027   4.403   2.436   9.383 -0.3702 -1.0425 -0.5330
 8856SOL    HW238028   4.515   2.366   9.308 -0.2758 -0.0884 -0.1958
 8857SOL     OW38029   0.509   0.354   5.806  0.4364  0.3275 -0.0203
 8857SOL    HW138030   0.499   0.356   5.901  0.6649  1.4852 -0.0191
 8857SOL    HW238031   0.514   0.260   5.786 -0.0207  0.8122 -2.5031
 8858SOL     OW38032   3.376   1.333   3.246 -0.1572  0.0377 -0.0437
 8858SOL    HW138033   3.381   1.378   3.330  0.9455 -0.1559 -0.0026
 8858SOL    HW238034   3.312   1.390   3.203  1.1128  1.4164 -0.1250
 8859SOL     OW38035   2.326   4.374   0.800  0.0750  0.0159  0.1618
 8859SOL    HW138036   2.320   4.362   0.895 -1.0007 -1.6033 -0.1209
 8859SOL    HW238037   2.240   4.412   0.784  0.1985  1.1224  2.0728
 8860SOL     OW38038   1.472   1.633   2.418 -0.1917  0.0254 -0.1938
 8860SOL    HW138039   1.396   1.689   2.431 -0.8010 -0.6080 -1.0006
 8860SOL    HW238040   1.430   1.576   2.353 -0.6292  0.0173  0.0926
 8861SOL     OW38041   3.357   3.379   7.645  0.5621  0.0316 -0.3759
 8861SOL    HW138042   3.278   3.375   7.590  2.0904  0.6209 -2.5939
 8861SOL    HW238043   3.377   3.473   7.648  0.4403  0.0629 -0.5263
 8862SOL     OW38044   3.390   4.444   7.070 -0.1665  0.0461  0.0229
 8862SOL    HW138045   3.466   4.412   7.021 -0.8507  0.8337 -1.5618
 8862SOL    HW238046   3.424   4.520   7.119 -2.1964  0.3338  0.9717
 8863SOL     OW38047   3.113   3.579   7.034  0.5058 -0.0740  0.2913
 8863SOL    HW138048   3.041   3.586   6.971 -0.8497  0.9514  1.9607
 8863SOL    HW238049   3.130   3.671   7.054 -1.0145  0.3238 -0.1657
 8864SOL     OW38050   2.483   3.696   6.173  0.4239  0.1824 -0.7082
 8864SOL    HW138051   2.530   3.631   6.225  0.9197  2.2630  1.3777
 8864SOL    HW238052   2.426   3.640   6.120  0.0556  0.5608 -0.7019
 8865SOL     OW38053   4.605   4.395   8.028 -0.7202  0.3908 -0.5524
 8865SOL    HW138054   4.630   4.339   7.954 -0.4476 -1.5520  0.9987
 8865SOL    HW238055   4.681   4.397   8.087  0.0055  0.8542 -1.5134
 8866SOL     OW38056   1.900   1.295   3.048  0.2143  0.2625  0.5815
 8866SOL    HW138057   1.877   1.383   3.077 -1.7248 -0.1201  0.2098
 8866SOL    HW238058   1.952   1.318   2.971 -2.3553  1.5691 -0.7811
 8867SOL     OW38059   1.858   0.760   8.901  0.2258 -0.4191 -0.3279
 8867SOL    HW138060   1.884   0.671   8.879  1.2099 -0.0424 -0.7006
 8867SOL    HW238061   1.855   0.752   8.996 -0.8935 -0.9550 -0.4119
 8868SOL     OW38062   4.077   0.160   0.178 -0.0556 -0.1053  0.5069
 8868SOL    HW138063   4.113   0.232   0.128  0.4121 -0.4340  0.3685
 8868SOL    HW238064   3.992   0.193   0.207 -0.6665 -2.1071  1.0554
 8869SOL     OW38065   4.062   1.424   7.385  0.4128  0.0203  0.2203
 8869SOL    HW138066   4.060   1.335   7.420 -0.7235 -0.1888 -0.3723
 8869SOL    HW238067   4.156   1.438   7.378  0.5711 -0.6453  1.1702
 8870SOL     OW38068   4.555   0.086   8.559 -0.0185  0.7078 -0.2890
 8870SOL    HW138069   4.616   0.049   8.623 -0.3930 -1.5648 -1.2388
 8870SOL    HW238070   4.599   0.050   8.482  0.5626  0.4260  0.1782
 8871SOL     OW38071   0.944   1.576   2.220 -0.4046  0.8676 -0.3163
 8871SOL    HW138072   0.903   1.492   2.198  0.0607  1.6979 -4.3693
 8871SOL    HW238073   0.920   1.583   2.312  0.2705 -0.0952 -0.0702
 8872SOL     OW38074   1.814   3.178   5.020 -0.3932 -0.3865 -0.6829
 8872SOL    HW138075   1.864   3.258   5.003 -1.7325  0.4747 -0.5487
 8872SOL    HW238076   1.747   3.205   5.083 -0.4391 -1.1772 -0.3935
 8873SOL     OW38077   2.270   2.551   0.369 -0.0030  0.2795  0.1572
 8873SOL    HW138078   2.258   2.646   0.368  1.4654  0.4760  0.6790
 8873SOL    HW238079   2.206   2.527   0.436  0.9012 -0.8925  0.6060
 8874SOL     OW38080   1.377   3.960  15.728  0.1067  0.3886  0.5984
 8874SOL    HW138081   1.426   4.027  15.680 -1.6747  0.6769 -0.7941
 8874SOL    HW238082   1.345   4.020  15.796 -0.4591 -0.0998  0.7669
 8875SOL     OW38083   3.362   2.131   2.628 -0.4081  0.3590  0.7534
 8875SOL    HW138084   3.355   2.082   2.547  1.3255  0.1327  0.7488
 8875SOL    HW238085   3.401   2.215   2.604 -0.0955 -0.3354 -1.1588
 8876SOL     OW38086   3.141   3.795   4.108 -0.1194  0.3099  0.4799
 8876SOL    HW138087   3.192   3.721   4.141 -1.1665 -0.9476 -0.7173
 8876SOL    HW238088   3.193   3.870   4.136  1.9927 -0.7540 -0.5672
 8877SOL     OW38089   0.690   0.847  11.281  0.3587 -0.9097  0.1401
 8877SOL    HW138090   0.681   0.778  11.216 -1.7949 -0.7362  0.2399
 8877SOL    HW238091   0.626   0.811  11.342 -0.3416  0.5604  0.2964
 8878SOL     OW38092   1.855   4.396   6.256 -0.3942 -0.2372 -0.4301
 8878SOL    HW138093   1.835   4.303   6.242 -2.1490 -0.3788  3.1354
 8878SOL    HW238094   1.886   4.414   6.345  0.4005 -2.8579 -0.1663
 8879SOL     OW38095   0.977   3.694   8.867  0.5303  0.3824  0.2317
 8879SOL    HW138096   0.908   3.652   8.816 -1.4758  3.2088  0.6056
 8879SOL    HW238097   0.987   3.625   8.932  2.5592 -0.5588 -1.0550
 8880SOL     OW38098   3.869   4.121  14.828  0.0709 -0.4236  0.3088
 8880SOL    HW138099   3.933   4.054  14.804 -0.1359  0.5220 -2.9314
 8880SOL    HW238100   3.796   4.063  14.846 -0.2954  0.0384  0.3029
 8881SOL     OW38101   1.193   3.852   1.585  0.0265 -0.0333  0.4421
 8881SOL    HW138102   1.238   3.895   1.658  0.8339 -2.4197  1.3359
 8881SOL    HW238103   1.121   3.810   1.633 -0.4552 -0.8137 -0.9657
 8882SOL     OW38104   2.463   3.477   4.654 -0.0929  0.5332  0.4909
 8882SOL    HW138105   2.535   3.538   4.667 -0.6223  0.8259  2.1310
 8882SOL    HW238106   2.399   3.534   4.611 -0.2307  0.1906  0.2437
 8883SOL     OW38107   2.217   1.944  16.029  0.4815  0.3066  0.1738
 8883SOL    HW138108   2.174   2.011  16.083 -0.8494  0.2314 -0.7921
 8883SOL    HW238109   2.155   1.872  16.022  1.2579 -0.1520 -2.2393
 8884SOL     OW38110   3.687   1.168  15.223  0.1264  0.3985 -0.1259
 8884SOL    HW138111   3.615   1.134  15.170  0.6850  0.8254 -1.1805
 8884SOL    HW238112   3.752   1.179  15.153 -2.6758  1.4112 -2.6070
 8885SOL     OW38113   3.951   1.812   4.143  0.1168 -0.4288 -1.0933
 8885SOL    HW138114   3.909   1.764   4.213  1.2904 -0.1889 -0.2152
 8885SOL    HW238115   3.901   1.894   4.144 -1.8723 -1.6886  0.9208
 8886SOL     OW38116   4.656   0.540   0.057 -0.7740  0.2827  0.1274
 8886SOL    HW138117   4.714   0.559  17.680 -0.4178  1.3532  0.6847
 8886SOL    HW238118   4.698   0.590   0.126  1.4040 -2.2209  0.6061
 8887SOL     OW38119   0.817   1.525  14.630  0.0796  0.4504  0.4664
 8887SOL    HW138120   0.823   1.619  14.613  1.4997 -0.1600 -2.3169
 8887SOL    HW238121   0.874   1.513  14.706 -0.1455 -0.6590  0.4593
 8888SOL     OW38122   0.810   0.319   8.402 -0.0571  0.4922 -0.1050
 8888SOL    HW138123   0.735   0.341   8.346 -1.2329  1.0441  1.7054
 8888SOL    HW238124   0.881   0.348   8.344  1.3388 -0.4303  1.1283
 8889SOL     OW38125   1.642   3.681   8.164  0.5250  0.0330  0.6687
 8889SOL    HW138126   1.579   3.636   8.109  0.6040 -0.4789  1.0000
 8889SOL    HW238127   1.651   3.768   8.125  1.5436  0.9516  2.9255
 8890SOL     OW38128   0.771   3.759   0.088 -0.2365  0.5262 -0.0628
 8890SOL    HW138129   0.714   3.835   0.077 -2.5198 -0.9632  1.3784
 8890SOL    HW238130   0.848   3.804   0.122  1.2506 -0.6797 -1.8496
 8891SOL     OW38131   4.574   3.050   2.646  0.2692 -0.6515 -0.4337
 8891SOL    HW138132   4.570   2.962   2.684 -1.9074 -1.1906 -1.9272
 8891SOL    HW238133   4.508   3.045   2.577  0.4732 -1.0188 -0.6022
 8892SOL     OW38134   4.666   0.142   1.363 -0.2305 -0.0564  0.2994
 8892SOL    HW138135   4.628   0.228   1.384  0.3103 -0.3125  2.2861
 8892SOL    HW238136   4.682   0.155   1.270  2.1620  0.5551  0.7764
 8893SOL     OW38137   4.076   0.956  12.782  0.0641  0.0493  0.5255
 8893SOL    HW138138   4.129   1.017  12.834  1.0702  1.2312 -1.8934
 8893SOL    HW238139   4.117   0.870  12.792 -1.5362 -1.0791 -2.8402
 8894SOL     OW38140   0.041   2.419   8.517  1.0040 -0.2585  0.0177
 8894SOL    HW138141   0.086   2.345   8.557  0.0910  0.6071  2.6674
 8894SOL    HW238142   0.020   2.474   8.593 -0.1127 -0.3022 -0.2599
 8895SOL     OW38143   1.038   3.261   7.778 -0.5721 -0.2024 -0.3703
 8895SOL    HW138144   1.130   3.234   7.776  0.1207  1.8287  2.6604
 8895SOL    HW238145   1.015   3.183   7.829  1.0988  0.5111  1.5094
 8896SOL     OW38146   3.936   3.602  14.039  0.1783  0.0790  0.1706
 8896SOL    HW138147   3.910   3.694  14.034  0.8399  0.2438 -0.2333
 8896SOL    HW238148   3.857   3.567  13.998 -0.8341  2.6380 -0.0438
 8897SOL     OW38149   3.177   4.171   5.950 -0.0614  0.1299  0.5951
 8897SOL    HW138150   3.133   4.255   5.947  0.7929  0.4176 -3.9991
 8897SOL    HW238151   3.205   4.165   6.041  1.4628 -0.4042  0.1011
 8898SOL     OW38152   2.090   3.940   5.823 -0.2667 -0.1460  0.1416
 8898SOL    HW138153   2.181   3.969   5.819  0.2719 -1.7252  1.0542
 8898SOL    HW238154   2.113   3.849   5.842  0.8512 -0.0636 -0.8036
 8899SOL     OW38155   0.247   4.388   2.267 -0.2002  0.3907  0.2068
 8899SOL    HW138156   0.215   4.475   2.291  1.7948  1.2531 -0.3011
 8899SOL    HW238157   0.228   4.376   2.174  1.5031  1.0688 -0.2331
 8900SOL     OW38158   2.735   1.811  14.564  0.6633 -0.6026  0.0975
 8900SOL    HW138159   2.734   1.716  14.555  0.3506 -0.3711 -2.5055
 8900SOL    HW238160   2.826   1.836  14.546 -0.4993  4.4974  1.3070
 8901SOL     OW38161   1.012   1.489   7.497 -0.3643  0.0440  0.1495
 8901SOL    HW138162   0.941   1.525   7.445  1.1229  3.2004  0.3018
 8901SOL    HW238163   0.961   1.431   7.553 -1.1655  0.3790 -0.2382
 8902SOL     OW38164   3.493   2.699   6.569 -0.4836 -0.0893  0.2761
 8902SOL    HW138165   3.581   2.686   6.532 -0.6402  1.6296 -0.6805
 8902SOL    HW238166   3.509   2.720   6.661  1.2026 -0.9857  0.1940
 8903SOL     OW38167   2.301   4.067   1.180  0.2615 -0.2121 -0.4889
 8903SOL    HW138168   2.234   4.057   1.113  0.1732 -1.7330 -0.1809
 8903SOL    HW238169   2.246   4.069   1.258  0.5995  1.8341 -0.3250
 8904SOL     OW38170   1.710   4.310   4.648  0.5239 -0.4162  0.1258
 8904SOL    HW138171   1.728   4.228   4.693  3.6474  1.0615  1.5770
 8904SOL    HW238172   1.796   4.344   4.624 -0.7951  1.6724 -1.6084
 8905SOL     OW38173   1.985   2.840   3.729 -0.3051 -0.0082 -0.2103
 8905SOL    HW138174   1.975   2.832   3.634 -1.5336 -0.0182 -0.0799
 8905SOL    HW238175   1.894   2.863   3.745 -0.6311 -0.9055 -0.7552
 8906SOL     OW38176   3.276   4.580  13.246  0.1253  0.3257  0.5437
 8906SOL    HW138177   3.364   4.586  13.283  0.3522  0.3124  0.0193
 8906SOL    HW238178   3.291   4.539  13.160  0.7684 -1.8964  1.7280
 8907SOL     OW38179   4.650   4.306  16.143  0.4978 -0.3469  0.3348
 8907SOL    HW138180   4.638   4.213  16.124  1.1261 -0.2503 -0.5178
 8907SOL    HW238181   4.680   4.343  16.060 -0.7037 -0.8493 -0.3083
 8908SOL     OW38182   3.119   4.383   8.945  0.3525  0.2419  0.2724
 8908SOL    HW138183   3.180   4.456   8.944  1.6964 -0.8739 -0.0418
 8908SOL    HW238184   3.053   4.408   9.008  1.4425  2.4910  0.5147
 8909SOL     OW38185   2.162   1.838   5.479  0.5526 -0.1028 -0.1753
 8909SOL    HW138186   2.123   1.870   5.561 -0.2188 -1.0276 -0.1713
 8909SOL    HW238187   2.078   1.830   5.433  0.0004  0.0472  0.8005
 8910SOL     OW38188   4.604   1.950  11.091  0.5508  0.1620 -0.1153
 8910SOL    HW138189   4.512   1.966  11.070  1.5001  1.7465 -3.1012
 8910SOL    HW238190   4.648   2.034  11.100  1.1592 -0.2403  0.6731
 8911SOL     OW38191   2.831   3.746   8.079 -0.1574  0.2622 -0.3540
 8911SOL    HW138192   2.764   3.780   8.138 -2.0051 -0.8386 -1.7588
 8911SOL    HW238193   2.873   3.687   8.141 -0.4562  1.4217  0.9392
 8912SOL     OW38194   3.351   3.040  10.443  0.0798 -0.0045 -0.2165
 8912SOL    HW138195   3.439   3.079  10.440 -0.4002  1.0727 -0.1778
 8912SOL    HW238196   3.368   2.978  10.515  0.1598 -0.0156 -0.2444
 8913SOL     OW38197   1.538   3.833   4.738  0.2495 -0.5148 -0.4712
 8913SOL    HW138198   1.558   3.854   4.647  0.6926  1.1369  0.0050
 8913SOL    HW238199   1.454   3.788   4.732 -0.5654  0.9816 -0.2486
 8914SOL     OW38200   3.425   3.781   3.986  0.2831 -0.2715  0.1137
 8914SOL    HW138201   3.374   3.747   3.913  0.4454 -0.2091 -0.0276
 8914SOL    HW238202   3.396   3.734   4.065 -1.3401 -0.8200 -0.8040
 8915SOL     OW38203   0.738   4.420  12.117  0.0781 -0.8189  0.1832
 8915SOL    HW138204   0.764   4.490  12.177  0.8546  1.6871 -3.0212
 8915SOL    HW238205   0.648   4.400  12.141 -0.8823  1.0819 -1.8386
 8916SOL     OW38206   0.468   0.946   0.080  0.6325  0.4638  0.4921
 8916SOL    HW138207   0.546   0.985   0.119  1.2117  1.8526 -2.0238
 8916SOL    HW238208   0.441   1.021   0.026 -1.0164 -1.5649 -1.5241
 8917SOL     OW38209   3.483   3.049  15.786  0.1442  0.1791 -0.4293
 8917SOL    HW138210   3.509   2.958  15.801 -1.4113 -0.2586 -0.2965
 8917SOL    HW238211   3.389   3.041  15.804  0.8428 -1.6295  2.4566
 8918SOL     OW38212   0.435   0.567   5.656  0.6071 -0.5772  0.0400
 8918SOL    HW138213   0.489   0.535   5.583 -1.0735 -0.1167 -1.4065
 8918SOL    HW238214   0.455   0.500   5.721  0.0741 -0.2505  0.5320
 8919SOL     OW38215   4.075   3.078   3.082  0.4501 -0.4315 -0.1463
 8919SOL    HW138216   4.068   2.988   3.049  1.2403 -0.1589 -1.0689
 8919SOL    HW238217   4.049   3.130   3.005  1.7596 -1.8094 -1.5163
 8920SOL     OW38218   2.385   0.710   6.836 -0.2803  0.2532 -0.0799
 8920SOL    HW138219   2.359   0.799   6.860  0.0512  1.1687 -3.1541
 8920SOL    HW238220   2.354   0.713   6.746  0.1504 -1.4937 -0.2805
 8921SOL     OW38221   2.624   0.830  14.657 -0.4700  0.0339 -0.3107
 8921SOL    HW138222   2.711   0.800  14.682 -0.4494 -0.3773 -0.8820
 8921SOL    HW238223   2.581   0.747  14.636  0.0648 -0.5005  0.7161
 8922SOL     OW38224   2.497   4.713   3.581 -0.3147  0.6578 -0.2786
 8922SOL    HW138225   2.410   0.019   3.555  0.1370  2.1322 -0.1163
 8922SOL    HW238226   2.540   0.016   3.499 -0.1368 -0.7791 -0.6432
 8923SOL     OW38227   1.142   4.141   6.313  0.6196 -0.2735  0.0294
 8923SOL    HW138228   1.223   4.182   6.342 -1.0856  3.5325 -0.5652
 8923SOL    HW238229   1.090   4.144   6.393 -0.8790 -1.4379 -0.8979
 8924SOL     OW38230   3.489   1.528   8.702  0.7044 -0.1279 -1.1414
 8924SOL    HW138231   3.540   1.571   8.633  0.0931 -0.1058 -1.5779
 8924SOL    HW238232   3.536   1.537   8.785  0.6106 -0.0070 -1.1009
 8925SOL     OW38233   4.419   0.315   9.314  0.2173 -0.6343  0.8486
 8925SOL    HW138234   4.514   0.325   9.307  0.2726 -2.1246 -0.4836
 8925SOL    HW238235   4.399   0.226   9.286 -0.0197 -0.9329  1.9663
 8926SOL     OW38236   2.052   0.554   0.612 -0.5828  0.5698  0.1546
 8926SOL    HW138237   2.125   0.497   0.634 -0.4366  0.2978 -1.0220
 8926SOL    HW238238   2.025   0.515   0.528 -0.4802 -2.1101  1.3589
 8927SOL     OW38239   2.466   0.154   6.435 -0.7840 -0.0137 -0.0299
 8927SOL    HW138240   2.499   0.244   6.428 -1.4125  0.2555  0.5107
 8927SOL    HW238241   2.492   0.142   6.526 -0.5941  1.0890  0.0711
 8928SOL     OW38242   0.978   1.337  13.859  0.5615  0.4860 -0.3207
 8928SOL    HW138243   0.898   1.300  13.822  1.2190 -0.8808 -0.3736
 8928SOL    HW238244   0.971   1.426  13.824 -2.9054  0.3826  0.0319
 8929SOL     OW38245   4.506   0.537  12.666  0.2262  0.1956 -0.7912
 8929SOL    HW138246   4.466   0.451  12.676 -1.4899  0.6164 -4.0758
 8929SOL    HW238247   4.592   0.530  12.708 -0.7656 -3.4002  0.6099
 8930SOL     OW38248   4.525   3.111   0.593  0.0602 -0.0464  0.0494
 8930SOL    HW138249   4.520   3.192   0.644  2.2278 -1.5796  2.7034
 8930SOL    HW238250   4.439   3.077   0.614  1.8376 -3.5814  1.6347
 8931SOL     OW38251   0.999   2.021   2.028 -0.0690 -0.3878  0.0485
 8931SOL    HW138252   0.950   1.944   2.058  0.6313 -1.2424 -0.9785
 8931SOL    HW238253   0.962   2.034   1.941  2.9761  1.2221 -0.9920
 8932SOL     OW38254   0.692   0.116  11.341  0.0147  0.6168 -0.1055
 8932SOL    HW138255   0.638   0.039  11.357 -0.8164  0.9499 -1.3310
 8932SOL    HW238256   0.625   0.183  11.350 -1.3020 -0.6463 -0.4648
 8933SOL     OW38257   2.973   2.098   2.108  0.1934 -0.5882 -0.7171
 8933SOL    HW138258   2.991   2.170   2.047  1.0518  0.2032  0.4751
 8933SOL    HW238259   2.945   2.152   2.182  1.7323  1.7304 -1.8299
 8934SOL     OW38260   1.281   2.526  12.432 -0.0908 -0.1207 -0.0241
 8934SOL    HW138261   1.292   2.529  12.527 -1.3405  1.3633  0.0625
 8934SOL    HW238262   1.206   2.472  12.406  0.5963  0.1934 -2.6526
 8935SOL     OW38263   2.362   3.270   4.256  0.3499  0.2921  0.1003
 8935SOL    HW138264   2.345   3.321   4.177  0.2005  1.4162  0.8628
 8935SOL    HW238265   2.369   3.181   4.221  0.2375 -0.3254  1.6447
 8936SOL     OW38266   1.989   2.972  14.580 -0.1945  0.8318 -0.4670
 8936SOL    HW138267   1.913   2.971  14.523 -1.1646  0.8289  0.8231
 8936SOL    HW238268   1.957   2.933  14.661 -2.1701  0.8238 -1.2598
 8937SOL     OW38269   0.957   2.587  12.077  0.3313 -0.1602  0.3777
 8937SOL    HW138270   0.963   2.496  12.049 -0.1399 -0.1909  0.3834
 8937SOL    HW238271   1.045   2.609  12.046 -0.1918  0.4304 -0.6946
 8938SOL     OW38272   1.504   0.206   6.781  0.6991  0.1867  0.0551
 8938SOL    HW138273   1.553   0.124   6.772 -2.0020 -1.3414 -0.7400
 8938SOL    HW238274   1.464   0.216   6.694 -0.6786 -0.3597  0.6161
 8939SOL     OW38275   1.807   0.589   9.161  0.2586  0.4742  0.5371
 8939SOL    HW138276   1.855   0.556   9.238  1.4815  0.2791 -0.3148
 8939SOL    HW238277   1.756   0.663   9.194 -0.7776  1.1723 -2.6412
 8940SOL     OW38278   2.992   4.490   5.736  0.5392  0.2017 -0.0568
 8940SOL    HW138279   2.897   4.485   5.726  0.6421  0.5721 -1.1593
 8940SOL    HW238280   3.017   4.477   5.645 -0.4361 -1.5565 -0.0689
 8941SOL     OW38281   0.521   1.752   8.890  0.1707  0.1431  0.0428
 8941SOL    HW138282   0.529   1.847   8.891 -0.2284  0.1802 -0.1945
 8941SOL    HW238283   0.476   1.742   8.975 -1.1243  1.8823 -0.4348
 8942SOL     OW38284   0.795   3.897   7.790  0.4201  0.6498 -0.0491
 8942SOL    HW138285   0.725   3.833   7.779  1.9244 -0.2637 -4.0710
 8942SOL    HW238286   0.770   3.955   7.719  1.2771  2.1375  0.8666
 8943SOL     OW38287   1.202   4.153  16.510 -0.0830 -0.2567 -0.1666
 8943SOL    HW138288   1.153   4.072  16.526  0.7711 -1.2069 -2.2476
 8943SOL    HW238289   1.224   4.133  16.419  0.9118 -1.6237  0.3674
 8944SOL     OW38290   2.477   0.535  11.941  0.7418 -0.1519  0.4820
 8944SOL    HW138291   2.519   0.521  11.856 -0.7471  2.8984 -0.7866
 8944SOL    HW238292   2.470   0.445  11.973 -2.4036 -0.0278  0.2077
 8945SOL     OW38293   3.055   3.540   4.817 -0.4358 -0.3447 -0.7411
 8945SOL    HW138294   3.101   3.465   4.853 -0.4993  0.1449  0.3676
 8945SOL    HW238295   3.073   3.531   4.724  0.8062  2.0889 -0.7378
 8946SOL     OW38296   2.047   3.344   7.770  0.0153  0.4363  0.1807
 8946SOL    HW138297   2.019   3.304   7.688 -0.9671  0.4546  0.5095
 8946SOL    HW238298   2.134   3.372   7.742  0.4930 -0.4914  0.7437
 8947SOL     OW38299   0.583   3.277   0.905  0.3786  0.3598 -0.0950
 8947SOL    HW138300   0.633   3.218   0.962 -0.9348 -0.1697  0.4914
 8947SOL    HW238301   0.495   3.255   0.933  0.4193 -1.5630 -1.4500
 8948SOL     OW38302   1.704   3.720  14.981 -0.3118 -0.3134  0.4994
 8948SOL    HW138303   1.661   3.773  15.047 -2.2241 -1.0316 -0.1548
 8948SOL    HW238304   1.716   3.641  15.034  0.4836  1.1517  2.4597
 8949SOL     OW38305   2.323   0.766   1.747 -0.5168 -0.0882  0.0746
 8949SOL    HW138306   2.295   0.750   1.657  0.1803 -1.3075  0.0792
 8949SOL    HW238307   2.398   0.824   1.753 -0.3422 -0.4065  1.0536
 8950SOL     OW38308   0.833   1.293   1.455  0.4428 -0.2984 -0.4482
 8950SOL    HW138309   0.784   1.215   1.482 -0.2383  0.4914  0.6196
 8950SOL    HW238310   0.757   1.347   1.433  0.2995 -1.0660 -1.8440
 8951SOL     OW38311   3.696   1.821   3.225  0.1356 -0.1459 -0.5524
 8951SOL    HW138312   3.602   1.806   3.212 -0.0341  0.8891 -0.5288
 8951SOL    HW238313   3.695   1.811   3.321  3.0541 -0.4224 -0.5752
 8952SOL     OW38314   0.947   2.824   2.055 -0.1269 -0.4159 -0.1061
 8952SOL    HW138315   0.990   2.839   2.139  1.8433  1.0961 -1.4070
 8952SOL    HW238316   1.019   2.777   2.014 -2.0129 -1.4817 -2.2324
 8953SOL     OW38317   3.186   2.331   6.367 -0.5515 -0.3995  1.0140
 8953SOL    HW138318   3.252   2.358   6.303 -0.1083 -1.2911  1.0811
 8953SOL    HW238319   3.237   2.291   6.437  0.4015  0.9854  1.1085
 8954SOL     OW38320   3.971   3.901   6.354  0.0132  0.0559  0.2961
 8954SOL    HW138321   3.968   3.967   6.424  1.4952  0.2547  0.1650
 8954SOL    HW238322   4.047   3.941   6.312 -1.3993 -0.6929 -2.9946
 8955SOL     OW38323   1.091   3.336   8.392  0.0310  0.0761 -0.0603
 8955SOL    HW138324   1.109   3.266   8.330  2.5376  1.2355 -0.6521
 8955SOL    HW238325   1.054   3.292   8.469  0.2176  2.0128  1.1285
 8956SOL     OW38326   0.633   3.103  16.245 -0.2573  0.1159  0.7992
 8956SOL    HW138327   0.546   3.111  16.285 -0.2766  0.5139  0.6759
 8956SOL    HW238328   0.618   3.038  16.176 -2.2792 -0.2455  1.5625
 8957SOL     OW38329   2.781   3.065   8.583  0.1382  0.0983  0.8720
 8957SOL    HW138330   2.731   3.031   8.657 -0.2277  0.8138  0.9540
 8957SOL    HW238331   2.759   3.158   8.595  0.6783  0.1440  1.5056
 8958SOL     OW38332   2.820   4.450   9.768 -0.5987 -0.2273  0.0760
 8958SOL    HW138333   2.728   4.437   9.745 -0.3265 -0.4915 -0.8645
 8958SOL    HW238334   2.855   4.361   9.773  0.8697  0.3925  0.7142
 8959SOL     OW38335   1.904   3.653   7.129  0.5363  0.2965  0.3971
 8959SOL    HW138336   1.935   3.662   7.219  2.1603 -4.2099  0.3253
 8959SOL    HW238337   1.986   3.614   7.097 -0.3245 -2.7729  1.9823
 8960SOL     OW38338   0.977   3.159   1.087 -0.3931 -0.4232  0.0693
 8960SOL    HW138339   1.043   3.221   1.055 -0.7288 -0.1123 -0.0166
 8960SOL    HW238340   0.900   3.216   1.091  0.3046  0.5129  0.1652
 8961SOL     OW38341   3.060   2.553   5.838  0.0996  0.2568 -0.7647
 8961SOL    HW138342   2.982   2.510   5.804  0.3001  1.4252 -2.6934
 8961SOL    HW238343   3.067   2.618   5.769  0.9501  1.0573  0.0816
 8962SOL     OW38344   1.707   3.183   8.576 -0.3300 -0.0269 -0.6311
 8962SOL    HW138345   1.628   3.158   8.528 -0.4954 -0.2807 -0.2298
 8962SOL    HW238346   1.731   3.095   8.605 -0.3661 -0.3985 -1.7559
 8963SOL     OW38347   1.474   2.146   7.847 -0.2671  0.6234  0.5635
 8963SOL    HW138348   1.512   2.185   7.925 -0.4101 -0.2636  1.0856
 8963SOL    HW238349   1.470   2.052   7.867 -3.7509  1.0195  1.7318
 8964SOL     OW38350   0.740   0.244  13.211 -0.0368 -0.2044 -0.0840
 8964SOL    HW138351   0.712   0.183  13.143 -0.8825  1.0871 -0.8823
 8964SOL    HW238352   0.767   0.182  13.279 -1.9286 -2.4559 -1.3897
 8965SOL     OW38353   3.693   3.121   9.034 -0.0145  0.1197 -0.1166
 8965SOL    HW138354   3.658   3.096   9.120  2.5756  1.7791  1.4168
 8965SOL    HW238355   3.750   3.192   9.063  1.8716 -1.5671  0.2956
 8966SOL     OW38356   2.824   0.332  17.151 -0.0518  0.6460  0.1056
 8966SOL    HW138357   2.816   0.402  17.086 -0.6491 -0.7836 -1.3737
 8966SOL    HW238358   2.822   0.391  17.226 -0.6088  0.3788  0.3006
 8967SOL     OW38359   2.678   2.530   5.956  0.2381 -0.3789  0.0924
 8967SOL    HW138360   2.733   2.454   5.938  1.2905  0.4322 -0.0731
 8967SOL    HW238361   2.598   2.502   5.911  0.9235  1.0185 -2.0028
 8968SOL     OW38362   2.951   3.677   0.429 -0.1556 -0.1167 -0.0401
 8968SOL    HW138363   2.917   3.766   0.416  2.7629  1.1498  0.8505
 8968SOL    HW238364   2.985   3.690   0.518 -0.4695  0.6708 -0.0363
 8969SOL     OW38365   3.504   4.681   5.854 -0.1087 -0.1429 -1.0024
 8969SOL    HW138366   3.513   4.705   5.946 -0.0376 -0.6092 -0.8886
 8969SOL    HW238367   3.420   4.718   5.828  0.2378 -0.8329 -3.0542
 8970SOL     OW38368   3.389   3.151   2.616 -0.6347 -0.3103 -0.0287
 8970SOL    HW138369   3.462   3.125   2.672  0.7163  1.0143 -1.1664
 8970SOL    HW238370   3.316   3.145   2.679 -0.2030 -2.4233  0.2549
 8971SOL     OW38371   2.489   2.204   7.555  0.7414 -0.1918  0.3016
 8971SOL    HW138372   2.537   2.211   7.472 -1.1354 -1.7375 -0.9041
 8971SOL    HW238373   2.426   2.139   7.527 -1.3784  2.0857 -0.2500
 8972SOL     OW38374   2.370   0.165   5.318 -0.3825 -0.2365  0.5508
 8972SOL    HW138375   2.315   0.130   5.388 -1.5725  1.8677  0.6688
 8972SOL    HW238376   2.323   0.154   5.235  0.7330 -0.5864 -0.0331
 8973SOL     OW38377   1.898   1.294  13.401 -0.7155  0.2672 -0.8304
 8973SOL    HW138378   1.898   1.208  13.443  0.5059  2.1515  3.0495
 8973SOL    HW238379   1.993   1.304  13.399 -1.0552  3.8612  0.1624
 8974SOL     OW38380   0.189   3.622  14.611  0.2214  0.1306 -0.9124
 8974SOL    HW138381   0.240   3.542  14.626 -2.7264 -1.4487  0.8534
 8974SOL    HW238382   0.107   3.596  14.568  0.7170  1.6548 -2.7887
 8975SOL     OW38383   1.352   1.819   8.470  0.0298  0.6469  0.2733
 8975SOL    HW138384   1.425   1.833   8.409 -1.4377  0.1049 -1.6026
 8975SOL    HW238385   1.406   1.771   8.532  0.0705 -0.2794 -0.4701
 8976SOL     OW38386   4.449   0.351   9.020 -0.1174  0.3082 -0.1058
 8976SOL    HW138387   4.531   0.396   9.041 -0.7185  0.0810  2.7936
 8976SOL    HW238388   4.489   0.276   8.976  1.0286  1.7332 -1.4862
 8977SOL     OW38389   2.114   1.485   3.682 -0.3259  0.5234  0.1704
 8977SOL    HW138390   2.182   1.551   3.664 -0.4664  0.7678  0.5402
 8977SOL    HW238391   2.045   1.527   3.630 -0.0428 -0.6459 -1.1387
 8978SOL     OW38392   3.549   0.807   2.316  0.4360 -0.2829 -0.4448
 8978SOL    HW138393   3.539   0.761   2.399 -0.1377  1.1155  0.2681
 8978SOL    HW238394   3.643   0.828   2.324  0.0403  2.2154 -2.1060
 8979SOL     OW38395   0.131   4.504   7.811  0.1807 -0.0962  0.1946
 8979SOL    HW138396   0.129   4.422   7.761 -1.0643 -0.6945  1.2360
 8979SOL    HW238397   0.173   4.559   7.745  0.3594 -0.8331 -0.3026
 8980SOL     OW38398   3.824   0.247   2.942  0.1881 -0.7520  0.0680
 8980SOL    HW138399   3.737   0.222   2.973 -0.4398 -0.3111 -1.3982
 8980SOL    HW238400   3.809   0.293   2.860 -0.6871  1.9615  1.7309
 8981SOL     OW38401   4.177   0.443   9.112  0.1258 -0.7135  0.5751
 8981SOL    HW138402   4.263   0.402   9.125  0.8697  1.4881  2.5308
 8981SOL    HW238403   4.166   0.512   9.177 -1.9733  0.1546 -0.6987
 8982SOL     OW38404   4.493   4.127  11.563  0.6910  0.3546 -0.1519
 8982SOL    HW138405   4.401   4.103  11.574  0.9144  0.0900  1.1087
 8982SOL    HW238406   4.495   4.151  11.470  0.0344 -0.4658 -0.3774
 8983SOL     OW38407   3.542   0.428   4.912 -0.0886 -0.5904  0.3771
 8983SOL    HW138408   3.612   0.492   4.905  0.0743 -0.8785 -0.5955
 8983SOL    HW238409   3.570   0.340   4.889 -0.4379 -0.5115 -0.3538
 8984SOL     OW38410   4.446   2.634   1.453  0.3309 -0.2363  0.7149
 8984SOL    HW138411   4.367   2.685   1.472 -1.8242 -2.5592 -2.1683
 8984SOL    HW238412   4.418   2.587   1.375 -0.9599 -2.1059  2.3086
 8985SOL     OW38413   1.884   1.563  11.784 -0.4847 -0.5400  0.4816
 8985SOL    HW138414   1.816   1.499  11.764 -2.9924  2.4290 -0.5511
 8985SOL    HW238415   1.951   1.553  11.716 -0.2626  0.1184  0.6010
 8986SOL     OW38416   2.211   3.750   4.972  0.3226 -0.1270  0.0279
 8986SOL    HW138417   2.298   3.790   4.972  0.6886 -0.9097 -1.5279
 8986SOL    HW238418   2.181   3.762   5.062  2.5598  2.4768  0.4268
 8987SOL     OW38419   0.749   3.064  15.605  0.6806 -0.3806  0.0250
 8987SOL    HW138420   0.795   3.099  15.682  3.3819  2.0645 -2.6951
 8987SOL    HW238421   0.796   3.108  15.534  0.4054  1.3766  0.9294
 8988SOL     OW38422   0.610   1.534   6.952  0.6040  0.1462  0.4697
 8988SOL    HW138423   0.557   1.511   6.875  0.2642  0.7798  0.5163
 8988SOL    HW238424   0.676   1.465   6.952  1.6264  1.1171  0.0314
 8989SOL     OW38425   3.138   1.850   3.639 -0.1238  0.1777  0.1472
 8989SOL    HW138426   3.127   1.917   3.571  0.8750  0.9957  0.7960
 8989SOL    HW238427   3.051   1.864   3.676  0.0372  1.1120  0.1756
 8990SOL     OW38428   0.661   0.569   7.084 -0.5214  0.8387  0.3204
 8990SOL    HW138429   0.628   0.654   7.055  2.5282  2.1585  0.6571
 8990SOL    HW238430   0.614   0.572   7.167  0.1432  0.0177  0.7247
 8991SOL     OW38431   1.365   1.554   6.191 -0.1737 -0.7278  0.4292
 8991SOL    HW138432   1.323   1.482   6.145  1.7556 -0.4119 -1.8157
 8991SOL    HW238433   1.344   1.534   6.283 -3.1465  0.3849  0.0062
 8992SOL     OW38434   1.523   2.134   3.504 -0.1062  0.4291  0.7989
 8992SOL    HW138435   1.528   2.207   3.443 -1.0202  0.0578  0.2792
 8992SOL    HW238436   1.450   2.086   3.464  1.0835  0.4983 -1.4310
 8993SOL     OW38437   3.570   1.518   9.498 -0.1849  0.2295  0.6408
 8993SOL    HW138438   3.544   1.438   9.543  0.3943 -0.2764  0.0814
 8993SOL    HW238439   3.495   1.573   9.521 -1.9020 -1.6373 -0.5759
 8994SOL     OW38440   1.103   4.194  11.164 -0.0141  0.0233  0.1954
 8994SOL    HW138441   1.093   4.128  11.232  0.4007 -0.4267 -0.1795
 8994SOL    HW238442   1.187   4.170  11.125 -0.6412  1.6582 -2.1772
 8995SOL     OW38443   1.105   3.442   9.823  0.1615  0.0250 -0.1630
 8995SOL    HW138444   1.140   3.454   9.735  0.4324  2.5503  0.2910
 8995SOL    HW238445   1.142   3.513   9.876 -1.4061  0.1719  0.7309
 8996SOL     OW38446   1.209   3.085   3.014  0.5254 -0.4068 -0.1069
 8996SOL    HW138447   1.235   3.016   2.953 -2.2908 -2.7475  1.3413
 8996SOL    HW238448   1.124   3.120   2.986 -0.0336 -3.1422 -1.8596
 8997SOL     OW38449   3.780   3.322   0.128  0.0145 -0.0311  0.4442
 8997SOL    HW138450   3.802   3.244   0.078  2.0958 -0.5847  2.2171
 8997SOL    HW238451   3.700   3.350   0.085  1.0125  0.7074 -0.9403
 8998SOL     OW38452   1.041   0.582  15.490 -0.0389  0.0087  0.4202
 8998SOL    HW138453   1.116   0.637  15.514  0.5481 -0.5230 -0.1652
 8998SOL    HW238454   0.973   0.643  15.518  0.1338 -0.0572  0.9777
 8999SOL     OW38455   1.466   0.018   4.843  0.2585  0.4425 -0.4774
 8999SOL    HW138456   1.388   0.026   4.789  0.5002  0.9889 -0.7425
 8999SOL    HW238457   1.449   4.660   4.890 -0.9632  0.5531 -0.7281
 9000SOL     OW38458   4.456   1.812   7.425  0.5610  0.1738 -0.2626
 9000SOL    HW138459   4.501   1.770   7.499  1.0075 -1.6420 -1.5805
 9000SOL    HW238460   4.529   1.840   7.370  1.4803 -2.7353 -0.5421
 9001SOL     OW38461   3.602   1.421   9.005  0.2101 -0.3557  0.1070
 9001SOL    HW138462   3.697   1.433   9.007 -0.1190  2.2358 -0.0561
 9001SOL    HW238463   3.584   1.460   9.090 -0.0210  2.0317 -1.0342
 9002SOL     OW38464   3.041   2.339   0.742  0.1491 -0.3874 -0.1752
 9002SOL    HW138465   3.126   2.354   0.782  0.4558 -0.7255 -0.6993
 9002SOL    HW238466   2.997   2.284   0.807 -0.2588 -1.8819 -1.6940
 9003SOL     OW38467   3.799   1.360   6.090  0.3945  0.2230  0.7950
 9003SOL    HW138468   3.708   1.343   6.113 -0.0335 -1.3735 -2.0758
 9003SOL    HW238469   3.824   1.293   6.026  1.1708  0.6955  0.6009
 9004SOL     OW38470   1.138   1.982   0.844 -0.2620  0.0923 -0.1757
 9004SOL    HW138471   1.226   2.018   0.839 -1.2785  1.8923 -4.2480
 9004SOL    HW238472   1.120   1.978   0.938 -1.3032 -0.9715 -0.4082
 9005SOL     OW38473   0.826   2.731   6.310 -0.2581  0.5345  0.2949
 9005SOL    HW138474   0.838   2.637   6.295  0.7361  0.4985  1.3269
 9005SOL    HW238475   0.905   2.754   6.357  0.9911 -0.1553 -1.4666
 9006SOL     OW38476   2.700   4.094   4.118  0.4358 -0.6813 -0.6194
 9006SOL    HW138477   2.673   4.132   4.202 -1.2267 -0.4780 -1.2467
 9006SOL    HW238478   2.796   4.093   4.123  0.2747  0.3521  2.9974
 9007SOL     OW38479   1.368   0.833  10.203  0.1150 -0.0782  0.1187
 9007SOL    HW138480   1.326   0.914  10.176  0.0068  0.4525  1.8746
 9007SOL    HW238481   1.397   0.854  10.292 -1.5003 -0.5108  0.7411
 9008SOL     OW38482   2.966   0.455   2.309 -0.1067  0.0954  0.1689
 9008SOL    HW138483   2.980   0.476   2.216 -2.6473  0.9556 -0.0081
 9008SOL    HW238484   3.059   0.442   2.327 -0.0244  0.5855  0.1013
 9009SOL     OW38485   4.363   3.255  16.575  0.1107  0.1578  0.0549
 9009SOL    HW138486   4.423   3.329  16.574 -0.6362  0.7738  0.2973
 9009SOL    HW238487   4.417   3.177  16.569 -0.9789 -0.6526  0.6566
 9010SOL     OW38488   0.752   3.445   6.470 -0.1094 -0.2013 -0.0915
 9010SOL    HW138489   0.704   3.362   6.479 -1.1535  0.5455  1.2253
 9010SOL    HW238490   0.831   3.415   6.426 -1.3384  1.2204 -3.2304
 9011SOL     OW38491   1.947   0.227   8.008 -0.0932  0.8614  0.3465
 9011SOL    HW138492   1.856   0.234   8.038  0.5110  0.4041  2.2676
 9011SOL    HW238493   1.953   0.312   7.965  0.3868  0.2450 -0.7894
 9012SOL     OW38494   3.983   4.204   4.174  0.0455  0.3919 -0.2262
 9012SOL    HW138495   3.965   4.121   4.219  2.0395 -0.4827 -1.0503
 9012SOL    HW238496   3.952   4.195   4.083  0.2087 -0.7678 -0.1692
 9013SOL     OW38497   3.873   1.520   4.031 -0.3578 -0.2524  0.0807
 9013SOL    HW138498   3.802   1.508   3.968 -0.8717  1.6645  0.2968
 9013SOL    HW238499   3.931   1.579   3.982  0.1928 -0.1810  0.8135
 9014SOL     OW38500   2.052   2.484   7.528  0.5528  0.5601  0.0570
 9014SOL    HW138501   2.060   2.396   7.565  0.8243 -0.5402 -2.5485
 9014SOL    HW238502   2.141   2.492   7.494  1.2758  0.0181  1.8776
 9015SOL     OW38503   1.780   3.810   1.929 -0.1597  0.0645  0.4642
 9015SOL    HW138504   1.750   3.719   1.930 -1.8638  0.6041 -0.5527
 9015SOL    HW238505   1.872   3.787   1.918 -0.1334  0.6105 -0.5391
 9016SOL     OW38506   0.060   3.526   5.230  0.6084  0.2874  0.6016
 9016SOL    HW138507   0.116   3.467   5.281  1.6615 -0.5554 -1.5157
 9016SOL    HW238508   4.706   3.472   5.237  0.3802  0.5728  0.2772
 9017SOL     OW38509   0.753   0.537   7.546 -0.0759 -0.0027 -0.5919
 9017SOL    HW138510   0.767   0.466   7.608 -2.3096  0.2235  0.1786
 9017SOL    HW238511   0.717   0.600   7.608 -1.6030 -1.0395 -0.4220
 9018SOL     OW38512   4.118   2.732   0.041 -0.8618 -0.6535  0.4101
 9018SOL    HW138513   4.125   2.776  17.653  2.2758 -3.9474 -1.0624
 9018SOL    HW238514   4.049   2.670   0.017 -2.9397  1.7568  0.0826
 9019SOL     OW38515   2.581   1.490   4.067 -0.4174  0.5442 -0.0706
 9019SOL    HW138516   2.591   1.399   4.096  2.1564  1.0279  0.5874
 9019SOL    HW238517   2.535   1.524   4.143 -1.4430  0.8156 -0.8180
 9020SOL     OW38518   2.221   0.206   7.147  0.8146  0.2786 -0.6605
 9020SOL    HW138519   2.138   0.159   7.136  0.7389  0.1085  0.7484
 9020SOL    HW238520   2.237   0.170   7.234  0.3331 -1.6751 -1.3844
 9021SOL     OW38521   2.491   3.249  17.635  0.0871  0.5049 -0.0553
 9021SOL    HW138522   2.553   3.184  17.668 -0.5149 -0.8057 -1.5458
 9021SOL    HW238523   2.406   3.211  17.657 -0.4085  0.3295 -2.3532
 9022SOL     OW38524   1.290   2.985   4.863 -0.0727  0.5180 -0.0565
 9022SOL    HW138525   1.339   3.067   4.875 -1.1897  0.5223  4.3786
 9022SOL    HW238526   1.209   3.009   4.818 -1.0399 -2.6420  0.0385
 9023SOL     OW38527   2.531   4.703   7.041 -0.4959 -0.0555 -0.0395
 9023SOL    HW138528   2.440   4.672   7.042  0.2489 -2.2405  0.8357
 9023SOL    HW238529   2.528   0.075   7.039  2.1838  0.0610  2.1080
 9024SOL     OW38530   2.479   3.903   4.665  0.8928 -0.4590  0.2241
 9024SOL    HW138531   2.527   3.963   4.608 -0.4073 -0.3075 -0.7098
 9024SOL    HW238532   2.388   3.901   4.635  1.2197 -1.9042 -0.6794
 9025SOL     OW38533   4.051   4.217   5.952  0.0364  0.7587 -0.0897
 9025SOL    HW138534   4.057   4.272   6.030  1.8213  0.5758 -0.1125
 9025SOL    HW238535   3.971   4.171   5.981 -0.3218  1.1148 -0.5149
 9026SOL     OW38536   2.483   0.663   5.024 -0.1232  0.7320  0.4490
 9026SOL    HW138537   2.522   0.738   5.069 -1.5238  0.0382  2.7794
 9026SOL    HW238538   2.430   0.719   4.968 -1.4318 -2.0768 -1.1069
 9027SOL     OW38539   2.593   0.146   7.708 -0.1734  0.7772  0.4065
 9027SOL    HW138540   2.587   0.218   7.645  0.4437  0.0318 -0.4960
 9027SOL    HW238541   2.532   0.176   7.776 -0.8659 -0.6636  0.4368
 9028SOL     OW38542   2.209   3.056   0.571  0.5799 -0.3403  0.3989
 9028SOL    HW138543   2.191   3.134   0.518 -1.7400 -1.2953 -0.2327
 9028SOL    HW238544   2.235   3.101   0.651  0.7274 -0.2015  0.2741
 9029SOL     OW38545   1.447   4.350   1.031  0.0894 -0.3149  0.3115
 9029SOL    HW138546   1.428   4.410   0.959  0.2138 -1.3142 -0.5501
 9029SOL    HW238547   1.517   4.401   1.072  0.5114 -1.3644  0.8968
 9030SOL     OW38548   2.350   3.906   3.624 -0.3818 -0.7303 -0.0248
 9030SOL    HW138549   2.335   3.811   3.626 -1.3149 -0.5919 -0.9049
 9030SOL    HW238550   2.341   3.924   3.717 -0.5435 -0.1660 -0.1521
 9031SOL     OW38551   3.157   3.364   5.880 -0.3724 -0.7791 -0.2680
 9031SOL    HW138552   3.155   3.332   5.790  1.6315 -0.5261 -0.4027
 9031SOL    HW238553   3.131   3.283   5.924 -0.7493 -0.3777  0.2500
 9032SOL     OW38554   0.550   4.375  17.090  0.6489 -0.7375  0.0419
 9032SOL    HW138555   0.514   4.436  17.026 -2.2331 -2.5151 -0.0213
 9032SOL    HW238556   0.623   4.327  17.052  0.5802  1.4026 -2.7490
 9033SOL     OW38557   3.418   0.644   3.666 -0.3695 -0.0667  0.3480
 9033SOL    HW138558   3.413   0.699   3.744 -1.8786  0.6454 -0.2458
 9033SOL    HW238559   3.378   0.694   3.594 -0.9560 -0.8345  0.1429
 9034SOL     OW38560   4.670   2.018   3.955 -0.0519  0.0082 -0.5242
 9034SOL    HW138561   4.682   1.965   4.033 -1.0806  0.3836 -0.1056
 9034SOL    HW238562   4.692   2.107   3.985 -1.1059 -0.8946  2.9356
 9035SOL     OW38563   1.710   0.813   6.046 -0.3793  0.7846  0.4010
 9035SOL    HW138564   1.717   0.724   6.080  0.2450  0.9567  0.7317
 9035SOL    HW238565   1.631   0.803   5.993 -0.0432 -0.5940  0.1516
 9036SOL     OW38566   3.781   0.748   3.036  0.9091 -0.3097  0.4084
 9036SOL    HW138567   3.803   0.841   3.035 -0.0733 -0.0813  0.5124
 9036SOL    HW238568   3.819   0.721   3.120  2.3578  0.5448  0.0410
 9037SOL     OW38569   2.379   2.278   7.140  0.2306  0.0861  0.4645
 9037SOL    HW138570   2.418   2.273   7.227 -0.5734 -1.9911  0.6894
 9037SOL    HW238571   2.316   2.348   7.155  0.0865  0.1338 -0.3333
 9038SOL     OW38572   2.243   2.816   0.425 -1.0085  0.6181  0.1960
 9038SOL    HW138573   2.209   2.888   0.478 -0.1606  1.1472  0.0223
 9038SOL    HW238574   2.288   2.873   0.364  0.2239  1.0824  1.5295
 9039SOL     OW38575   0.351   1.398   7.970 -0.2330  0.3009 -0.1735
 9039SOL    HW138576   0.298   1.477   7.961 -0.6746 -0.0358 -0.5643
 9039SOL    HW238577   0.396   1.428   8.048  2.1467  1.6324 -2.0792
 9040SOL     OW38578   2.115   3.029   0.260  0.3158 -0.2715 -0.0300
 9040SOL    HW138579   2.033   2.986   0.236  0.3440 -1.7048  2.3991
 9040SOL    HW238580   2.159   3.037   0.176 -1.3139  1.4530 -0.7157
 9041SOL     OW38581   4.283   3.496   5.484  0.3998 -0.6557  0.7148
 9041SOL    HW138582   4.354   3.438   5.508  0.8090  0.1680  1.4951
 9041SOL    HW238583   4.291   3.477   5.390  1.5506  0.0295  0.6772
 9042SOL     OW38584   3.429   1.967  16.061 -0.2539  0.0955  0.2677
 9042SOL    HW138585   3.447   2.004  16.147 -0.3522 -3.6955  1.8786
 9042SOL    HW238586   3.520   1.953  16.035  0.2238 -0.6665  2.3346
 9043SOL     OW38587   1.750   2.074   8.773  0.0328 -0.3531 -0.1720
 9043SOL    HW138588   1.788   2.143   8.719 -0.0406  1.7945  2.5542
 9043SOL    HW238589   1.731   2.020   8.696  1.8748 -0.1624 -0.7635
 9044SOL     OW38590   0.688   4.393   2.345 -0.5429  0.2391 -0.3808
 9044SOL    HW138591   0.711   4.359   2.259  1.2008 -1.9098  0.9203
 9044SOL    HW238592   0.761   4.452   2.362 -0.6728  0.6509 -1.2331
 9045SOL     OW38593   0.982   2.329  11.018 -0.2356 -0.7656  0.2118
 9045SOL    HW138594   1.023   2.330  10.931  0.1118  0.5446  0.3854
 9045SOL    HW238595   0.994   2.421  11.041 -1.4498 -0.4866 -0.2775
 9046SOL     OW38596   1.366   0.298   5.043 -0.4210 -0.2617 -0.1184
 9046SOL    HW138597   1.310   0.221   5.038 -0.6214  0.0895 -2.9773
 9046SOL    HW238598   1.427   0.279   5.115 -0.4716 -0.7574 -0.2059
 9047SOL     OW38599   2.583   1.618  13.263  0.5879 -0.4015  0.1206
 9047SOL    HW138600   2.638   1.669  13.323 -0.0993 -0.7638  1.0619
 9047SOL    HW238601   2.641   1.594  13.191  0.3360  1.9665 -0.8520
 9048SOL     OW38602   0.469   0.945   8.913 -0.5543  0.4037  0.2181
 9048SOL    HW138603   0.454   0.865   8.862  2.3501 -0.3563  0.5744
 9048SOL    HW238604   0.480   0.915   9.003  0.5374 -1.0123 -0.3898
 9049SOL     OW38605   3.475   1.941   8.552 -0.1160  0.0684  0.3984
 9049SOL    HW138606   3.413   1.969   8.620 -2.3054 -0.6780 -1.3190
 9049SOL    HW238607   3.532   2.018   8.548  1.8762 -1.4821 -1.0336
 9050SOL     OW38608   3.398   2.848   4.426  0.3398 -0.2587 -1.0532
 9050SOL    HW138609   3.475   2.807   4.467  0.1895  0.0336 -0.4698
 9050SOL    HW238610   3.362   2.785   4.364 -1.2762 -2.3913  2.0136
 9051SOL     OW38611   3.270   0.320  15.952 -0.0447  0.0518  0.0171
 9051SOL    HW138612   3.194   0.373  15.928  0.0393  0.4886  0.7229
 9051SOL    HW238613   3.296   0.361  16.034 -1.6517 -0.8433  0.9602
 9052SOL     OW38614   2.026   1.970   0.142  0.1188 -0.7087  0.1196
 9052SOL    HW138615   1.975   1.998   0.066  0.8448  2.1697  0.7022
 9052SOL    HW238616   2.109   1.955   0.097  0.9529  0.0859  1.4102
 9053SOL     OW38617   0.993   2.207   8.619 -0.2462 -0.0847  0.5078
 9053SOL    HW138618   1.066   2.168   8.572 -0.0895  1.8685 -0.8935
 9053SOL    HW238619   0.981   2.135   8.680  1.6032 -0.8821 -0.0873
 9054SOL     OW38620   0.259   2.621   7.438 -0.4841 -0.5218  0.4082
 9054SOL    HW138621   0.324   2.552   7.422  1.1436  0.9393  0.7702
 9054SOL    HW238622   0.233   2.640   7.348  3.0570  0.3439 -0.4423
 9055SOL     OW38623   2.691   0.420  13.283  0.3758 -0.6269 -0.1088
 9055SOL    HW138624   2.686   0.497  13.339 -0.5207  0.2093 -1.3678
 9055SOL    HW238625   2.598   0.405  13.266  0.1212  0.8761  0.0171
 9056SOL     OW38626   2.136   0.743   7.909  0.3948 -0.0960  0.0025
 9056SOL    HW138627   2.221   0.779   7.931  0.6080 -1.2982  1.1744
 9056SOL    HW238628   2.136   0.733   7.814 -1.3713  3.1057 -0.3268
 9057SOL     OW38629   2.516   3.265   3.549 -0.2515  0.4005  0.7709
 9057SOL    HW138630   2.521   3.228   3.637  1.0218  1.1478  1.0119
 9057SOL    HW238631   2.423   3.287   3.535 -0.5738 -0.2395  1.9415
 9058SOL     OW38632   3.506   1.294   4.601 -0.0477 -0.3368 -0.2336
 9058SOL    HW138633   3.446   1.319   4.671  0.3242 -2.4829  0.8687
 9058SOL    HW238634   3.486   1.367   4.543  4.0927 -2.1102 -3.8659
 9059SOL     OW38635   3.015   2.437   4.512  0.2420 -0.3471  0.3149
 9059SOL    HW138636   3.006   2.521   4.465 -1.0072 -0.1401  0.9488
 9059SOL    HW238637   3.028   2.466   4.602 -1.0148  0.1735  0.3258
 9060SOL     OW38638   0.278   0.549   7.455  0.2557  0.0384 -0.4115
 9060SOL    HW138639   0.326   0.511   7.529 -0.6420 -1.0612 -0.3897
 9060SOL    HW238640   0.294   0.478   7.393 -0.6799 -0.1544 -0.4359
 9061SOL     OW38641   0.293   4.324   4.902  0.2387  0.5667 -0.0591
 9061SOL    HW138642   0.359   4.393   4.898 -0.3965  1.2163  0.8454
 9061SOL    HW238643   0.335   4.243   4.871 -1.8196 -0.4187 -0.2432
 9062SOL     OW38644   1.079   2.574   2.301  0.0566  0.4145  0.5658
 9062SOL    HW138645   1.088   2.570   2.206 -0.9674 -1.6770  0.5778
 9062SOL    HW238646   1.116   2.659   2.327 -1.1126  1.0552  0.1511
 9063SOL     OW38647   0.663   4.457   4.016 -0.3571 -0.1168  0.7575
 9063SOL    HW138648   0.744   4.495   4.050  0.7248 -0.6695 -1.2024
 9063SOL    HW238649   0.612   4.538   4.029  2.8149  1.7458  1.6194
 9064SOL     OW38650   0.678   0.149   2.831  0.3844 -0.0348 -0.3097
 9064SOL    HW138651   0.611   0.095   2.789 -0.5400  0.2013  0.8476
 9064SOL    HW238652   0.741   0.159   2.760 -0.0559  2.1200 -0.4175
 9065SOL     OW38653   3.818   2.376   5.780  0.0993 -0.0383  0.0397
 9065SOL    HW138654   3.799   2.439   5.850 -0.4515 -0.6529  0.4321
 9065SOL    HW238655   3.776   2.420   5.706  0.9932 -1.9684 -1.5998
 9066SOL     OW38656   2.743   0.876   2.503 -0.1289  0.2593  0.0506
 9066SOL    HW138657   2.813   0.820   2.536 -0.6427  0.5979  1.7024
 9066SOL    HW238658   2.749   0.852   2.411 -1.3695 -3.1863  0.8857
 9067SOL     OW38659   3.631   3.252  12.286  0.1322  0.4380  0.4856
 9067SOL    HW138660   3.686   3.330  12.273  2.8406 -1.4293  0.7259
 9067SOL    HW238661   3.655   3.227  12.375  1.7047  1.4294  0.3477
 9068SOL     OW38662   0.545   1.698   4.965 -0.9245  0.0431  0.6536
 9068SOL    HW138663   0.558   1.717   4.872 -1.7881  1.0409  0.7281
 9068SOL    HW238664   0.513   1.776   5.010 -0.5997 -0.2008  1.3052
 9069SOL     OW38665   1.273   2.055   8.067 -0.1836 -0.4206 -0.4132
 9069SOL    HW138666   1.199   2.053   8.006 -0.2805 -0.9759 -0.2769
 9069SOL    HW238667   1.301   2.145   8.081  1.3642 -0.6780 -1.8825
 9070SOL     OW38668   0.526   0.563   3.111  0.1876  0.4354 -0.1413
 9070SOL    HW138669   0.445   0.538   3.067 -0.4231 -0.0754  1.2609
 9070SOL    HW238670   0.592   0.500   3.082 -0.3603  0.3924 -1.2937
 9071SOL     OW38671   1.425   0.512  13.082  0.0587  0.2125  0.1345
 9071SOL    HW138672   1.352   0.544  13.136  0.6660  1.8900 -0.0343
 9071SOL    HW238673   1.382   0.456  13.018 -1.0803  1.1523  0.0723
 9072SOL     OW38674   2.763   1.745  16.562 -0.5040 -0.1498 -0.0527
 9072SOL    HW138675   2.731   1.688  16.492 -2.8542  0.6330  0.3831
 9072SOL    HW238676   2.724   1.825  16.526 -1.2066 -0.1723  0.6855
 9073SOL     OW38677   1.860   3.881   3.699 -0.2028  0.2058 -0.5713
 9073SOL    HW138678   1.873   3.832   3.780 -2.1448 -0.5674 -0.7261
 9073SOL    HW238679   1.847   3.807   3.639 -1.2669  0.0573 -0.1619
 9074SOL     OW38680   0.168   0.197   2.351 -0.0940 -0.0363 -0.5123
 9074SOL    HW138681   0.118   0.208   2.270  0.3969  0.2565 -0.7823
 9074SOL    HW238682   0.251   0.242   2.332  0.5309 -0.8009  0.4383
 9075SOL     OW38683   4.254   3.469   7.232  0.3415  0.5047 -0.0011
 9075SOL    HW138684   4.243   3.375   7.218 -2.1835  0.8947 -0.6981
 9075SOL    HW238685   4.171   3.489   7.276  0.5966 -0.1402  0.7806
 9076SOL     OW38686   2.491   1.323  11.219  0.2860  0.7828 -0.0596
 9076SOL    HW138687   2.408   1.370  11.228  0.4184  1.3383 -1.8737
 9076SOL    HW238688   2.533   1.380  11.155  0.7332 -1.2299 -1.5536
 9077SOL     OW38689   0.208   3.107  15.556  0.1198  0.3497 -0.3771
 9077SOL    HW138690   0.296   3.126  15.588 -0.1878  2.8352 -1.0493
 9077SOL    HW238691   0.227   3.135  15.466 -1.8323 -0.9385 -1.2051
 9078SOL     OW38692   2.790   1.554   9.059 -0.1626  0.0668  0.2719
 9078SOL    HW138693   2.712   1.576   9.110 -1.2857  1.5150 -2.0637
 9078SOL    HW238694   2.860   1.577   9.120  0.0446 -0.4527  0.2314
 9079SOL     OW38695   1.399   0.213   1.887 -0.1460  0.1842 -0.3679
 9079SOL    HW138696   1.314   0.257   1.899 -0.3184 -0.5285  1.1049
 9079SOL    HW238697   1.451   0.279   1.842  0.7611  0.2712  0.8172
 9080SOL     OW38698   4.351   0.120  10.553 -0.1843  0.1201  0.0607
 9080SOL    HW138699   4.274   0.064  10.562  1.2248 -1.5214  1.8124
 9080SOL    HW238700   4.385   0.087  10.470  0.9469  0.0684  0.5537
 9081SOL     OW38701   1.928   3.681  14.795 -0.2954  0.0913 -0.1338
 9081SOL    HW138702   2.001   3.724  14.839  1.1148 -0.5022 -1.9263
 9081SOL    HW238703   1.873   3.676  14.873 -0.1279  0.6061  0.0170
 9082SOL     OW38704   3.451   2.070   6.797  0.1433 -0.1661  0.2561
 9082SOL    HW138705   3.466   2.000   6.734 -1.2750  0.0842 -0.3388
 9082SOL    HW238706   3.525   2.053   6.856  0.8218 -2.3299 -1.2610
 9083SOL     OW38707   4.400   0.994   8.761  0.0232 -0.3620 -0.2938
 9083SOL    HW138708   4.366   1.027   8.678 -1.5759  0.0099  0.4959
 9083SOL    HW238709   4.463   1.065   8.774 -1.9288  1.6615 -1.9585
 9084SOL     OW38710   3.688   0.184  12.058  0.7418  0.2725  0.1203
 9084SOL    HW138711   3.645   0.241  12.122  0.4887  1.9431 -1.5362
 9084SOL    HW238712   3.642   0.100  12.061  1.0285  0.0558 -1.4101
 9085SOL     OW38713   4.020   1.383   2.471 -0.1860  0.3895  0.2981
 9085SOL    HW138714   4.068   1.311   2.430  0.7640  1.1418  0.0967
 9085SOL    HW238715   3.940   1.338   2.442 -1.5000  1.4002  2.3018
 9086SOL     OW38716   2.627   3.057   0.074  0.4439 -0.6502  0.3108
 9086SOL    HW138717   2.692   3.109   0.122  1.8401 -0.2445 -1.9803
 9086SOL    HW238718   2.676   2.978   0.051  0.5850 -0.6808  0.7272
 9087SOL     OW38719   0.200   3.424   2.292  0.3008 -0.0475 -0.0479
 9087SOL    HW138720   0.249   3.386   2.219 -1.3083 -1.4912 -0.3677
 9087SOL    HW238721   0.201   3.517   2.269  3.2472  0.0046  0.2308
 9088SOL     OW38722   2.700   3.945   2.454 -0.3173  0.1928  0.7219
 9088SOL    HW138723   2.782   3.912   2.418  0.7466  1.7013  1.7597
 9088SOL    HW238724   2.727   3.977   2.540  1.9842  0.4627 -0.1068
 9089SOL     OW38725   0.383   3.743  14.415  0.2415 -0.2080 -0.2561
 9089SOL    HW138726   0.316   3.693  14.462  0.6742 -0.7947 -0.2585
 9089SOL    HW238727   0.357   3.712  14.328 -1.1260  0.5984 -0.1382
 9090SOL     OW38728   2.081   4.102   8.584  0.0213  0.4948 -0.3884
 9090SOL    HW138729   2.024   4.052   8.643 -1.1278 -0.0869 -2.0107
 9090SOL    HW238730   2.017   4.164   8.549  0.2921  0.9223 -0.1345
 9091SOL     OW38731   3.696   0.346   9.639  0.7946  0.4717  0.6105
 9091SOL    HW138732   3.633   0.275   9.631  1.4140  0.2425 -2.0185
 9091SOL    HW238733   3.773   0.306   9.599  0.9442 -0.0746  1.4273
 9092SOL     OW38734   1.334   2.432   5.335 -0.1430  0.1396  0.6545
 9092SOL    HW138735   1.347   2.511   5.283 -1.0167 -1.3592 -1.8078
 9092SOL    HW238736   1.410   2.375   5.321 -0.1990 -0.0408  1.0769
 9093SOL     OW38737   0.832   3.601   5.393 -0.1871  0.7898  0.2409
 9093SOL    HW138738   0.800   3.645   5.314 -0.5205  0.1204  0.0005
 9093SOL    HW238739   0.911   3.651   5.415  0.1452  0.6680 -0.6668
 9094SOL     OW38740   4.586   2.558   5.888 -0.1023 -0.0111 -0.0796
 9094SOL    HW138741   4.662   2.598   5.929 -1.2492 -0.3290  2.3403
 9094SOL    HW238742   4.533   2.549   5.967 -1.7060  0.8677 -1.0743
 9095SOL     OW38743   4.005   2.798   9.754 -0.2043  0.4368  0.2300
 9095SOL    HW138744   4.054   2.810   9.673 -3.6680  0.4537 -1.8570
 9095SOL    HW238745   4.013   2.889   9.783  0.2512  1.1923 -2.3220
 9096SOL     OW38746   1.216   3.904   5.390  0.1715 -0.2066 -0.1695
 9096SOL    HW138747   1.215   3.947   5.475 -1.2425 -0.5943  0.0044
 9096SOL    HW238748   1.287   3.951   5.346 -1.2809  1.3880 -0.8201
 9097SOL     OW38749   0.122   2.423  10.982 -0.2541 -0.3921  0.0849
 9097SOL    HW138750   0.165   2.412  10.897 -1.8343 -0.2601 -0.7225
 9097SOL    HW238751   0.116   2.328  10.999 -1.6503 -0.2556  0.3100
 9098SOL     OW38752   0.045   0.027  11.243  0.6618 -0.1629 -0.2871
 9098SOL    HW138753   0.062   0.117  11.273 -0.9262  0.3481 -0.9315
 9098SOL    HW238754   4.675   0.022  11.258  0.5057  2.6803 -0.3277
 9099SOL     OW38755   0.825   4.004   7.165 -0.4811  0.2638  0.5084
 9099SOL    HW138756   0.892   4.003   7.097 -2.1503  2.5965 -1.1502
 9099SOL    HW238757   0.774   4.081   7.142 -3.7125 -1.0196  3.2744
 9100SOL     OW38758   2.457   2.670   5.128  0.6903  0.6591 -0.0513
 9100SOL    HW138759   2.498   2.749   5.163 -1.1725  0.6288  2.1796
 9100SOL    HW238760   2.369   2.675   5.165 -0.3386 -0.2593 -2.3819
 9101SOL     OW38761   4.318   0.370  10.285  0.3460 -0.1642  0.3236
 9101SOL    HW138762   4.272   0.349  10.366 -1.2506  2.5476  0.0848
 9101SOL    HW238763   4.274   0.450  10.257  2.4133  0.9938  0.3804
 9102SOL     OW38764   1.436   3.797   7.968 -0.7723  0.1215  0.5428
 9102SOL    HW138765   1.517   3.781   7.919 -1.5383  1.9747 -1.3257
 9102SOL    HW238766   1.428   3.709   8.005  1.8056  0.0225  0.9028
 9103SOL     OW38767   4.260   0.344   3.005 -0.0141 -0.3194 -0.2519
 9103SOL    HW138768   4.261   0.323   3.098  0.7818 -2.3821 -0.7169
 9103SOL    HW238769   4.350   0.337   2.973  0.1106 -3.3820  0.7458
 9104SOL     OW38770   4.266   0.704   9.228 -0.1216 -0.0196 -0.1030
 9104SOL    HW138771   4.209   0.700   9.304  0.1359  1.8905  0.1904
 9104SOL    HW238772   4.218   0.762   9.169  1.1699  1.4432  0.2846
 9105SOL     OW38773   3.964   4.689   1.743 -1.0353  0.0567  0.8515
 9105SOL    HW138774   3.971   4.606   1.696 -1.3058  0.4846  0.0502
 9105SOL    HW238775   3.987   4.661   1.832 -1.3567 -0.9054  0.6351
 9106SOL     OW38776   1.092   0.759   8.818  1.0518  0.0979 -0.0640
 9106SOL    HW138777   1.174   0.711   8.830  1.8719  1.5363  0.1082
 9106SOL    HW238778   1.057   0.755   8.907 -0.7626  2.4604 -0.6607
 9107SOL     OW38779   4.402   0.249   2.283  0.4630  0.3568  0.0052
 9107SOL    HW138780   4.397   0.154   2.272  0.5884  0.3500  0.0010
 9107SOL    HW238781   4.441   0.275   2.200  1.6971  1.6291  0.9769
 9108SOL     OW38782   3.306   2.003   8.762  0.8291 -0.3183  0.2132
 9108SOL    HW138783   3.348   2.034   8.842  0.6986  1.5885 -0.4531
 9108SOL    HW238784   3.261   1.930   8.804  0.9764 -1.3948 -1.4602
 9109SOL     OW38785   1.978   2.582   3.479  0.1567 -0.0430  0.2016
 9109SOL    HW138786   1.960   2.658   3.424 -1.6148  0.2244  1.1308
 9109SOL    HW238787   2.058   2.606   3.525 -0.6200  0.0044  1.5174
 9110SOL     OW38788   1.499   2.938  14.999  0.1517  0.3280 -0.3144
 9110SOL    HW138789   1.505   2.897  15.085 -0.8380  2.3564  0.7144
 9110SOL    HW238790   1.579   2.987  14.985 -0.0415  0.7663  0.1306
 9111SOL     OW38791   0.206   1.512  13.880  0.0043 -0.1954  0.0482
 9111SOL    HW138792   0.289   1.498  13.925  0.3287  0.6710 -0.2917
 9111SOL    HW238793   0.241   1.556  13.803 -1.2129 -0.2621 -0.5486
 9112SOL     OW38794   3.903   1.789   6.156  0.6590  0.3206 -0.3539
 9112SOL    HW138795   3.860   1.862   6.202 -0.9507 -0.1205 -1.1543
 9112SOL    HW238796   3.923   1.824   6.069  0.6380 -0.6707 -0.7572
 9113SOL     OW38797   2.307   3.572  12.081 -0.4234  0.5144  0.0761
 9113SOL    HW138798   2.400   3.561  12.100 -0.6740  0.4482  1.2487
 9113SOL    HW238799   2.314   3.624  12.001  0.0419  0.7863  0.2934
 9114SOL     OW38800   0.936   0.436   5.603 -0.3742 -0.0804  0.0331
 9114SOL    HW138801   0.968   0.369   5.542  0.8447 -1.0363  1.7296
 9114SOL    HW238802   0.912   0.503   5.539 -2.0088 -1.0621 -0.3690
 9115SOL     OW38803   3.839   4.388   1.167  0.2495 -0.2372 -0.1695
 9115SOL    HW138804   3.780   4.371   1.240  1.8201  0.5877  1.2648
 9115SOL    HW238805   3.905   4.321   1.177 -0.1408 -0.2909  2.0454
 9116SOL     OW38806   1.290   2.870  13.427 -0.2981  0.1975  0.0539
 9116SOL    HW138807   1.212   2.917  13.397  0.4435  1.4612  0.1223
 9116SOL    HW238808   1.341   2.872  13.346 -2.3053  1.3075 -1.1800
 9117SOL     OW38809   4.245   3.557   8.381  0.0217 -0.2218 -0.5877
 9117SOL    HW138810   4.209   3.515   8.460  0.3630 -0.3000 -0.4733
 9117SOL    HW238811   4.218   3.648   8.392 -0.5750 -0.2027 -2.1876
 9118SOL     OW38812   0.540   3.978   1.794  0.1335 -0.0565 -0.2030
 9118SOL    HW138813   0.555   4.027   1.714 -2.2254  0.4895 -0.2944
 9118SOL    HW238814   0.519   4.048   1.855  0.6668  1.3418 -1.6472
 9119SOL     OW38815   3.035   2.429  13.352  0.4133 -0.1432 -0.1946
 9119SOL    HW138816   3.034   2.519  13.319  0.9533 -0.4016 -0.9347
 9119SOL    HW238817   3.106   2.414  13.414  0.7081 -2.0316 -0.9792
 9120SOL     OW38818   2.783   4.510  12.851  0.2256  0.3816  0.1448
 9120SOL    HW138819   2.777   4.591  12.801 -0.3050 -0.3394 -0.9328
 9120SOL    HW238820   2.725   4.454  12.800 -2.1566  2.0068  1.0577
 9121SOL     OW38821   1.020   3.218   3.604 -0.3940  0.7064  0.2066
 9121SOL    HW138822   0.954   3.151   3.586  1.6100 -1.1743 -0.1472
 9121SOL    HW238823   1.076   3.210   3.527 -1.1796  1.5345 -0.4577
 9122SOL     OW38824   1.785   0.273   3.432  0.5051  0.1820  0.1299
 9122SOL    HW138825   1.849   0.258   3.501  1.9102 -0.7453 -1.3758
 9122SOL    HW238826   1.719   0.332   3.469 -0.4954 -1.4333  0.9020
 9123SOL     OW38827   1.894   2.534   5.926 -0.0425 -0.2366 -0.0369
 9123SOL    HW138828   1.851   2.449   5.922  0.8066 -0.7945  2.3925
 9123SOL    HW238829   1.854   2.570   6.005 -0.1900 -0.0877 -0.1798
 9124SOL     OW38830   1.076   3.582   3.310  0.2831  0.6690 -0.8808
 9124SOL    HW138831   1.013   3.599   3.240  2.0290  0.9748 -2.3895
 9124SOL    HW238832   1.091   3.664   3.356 -0.7875  0.0006  0.6896
 9125SOL     OW38833   4.611   4.512   9.868 -0.3029 -0.0120 -0.0472
 9125SOL    HW138834   4.584   4.486   9.780  1.2235 -1.7965 -0.0047
 9125SOL    HW238835   4.701   4.479   9.869  0.1880  1.2914 -1.8117
 9126SOL     OW38836   2.146   4.038   0.929 -0.3571  0.6659  0.2050
 9126SOL    HW138837   2.077   4.081   0.980  2.4924  2.2913  2.6894
 9126SOL    HW238838   2.123   4.057   0.838  1.1852  0.9109 -0.1239
 9127SOL     OW38839   0.930   0.419   3.954 -0.2204  0.2910 -0.1592
 9127SOL    HW138840   0.973   0.443   3.872  0.7508  0.8414  0.5062
 9127SOL    HW238841   0.903   0.327   3.951 -1.3950  0.6071  0.8372
 9128SOL     OW38842   0.205   2.543   3.247 -0.2635  0.6356 -0.5345
 9128SOL    HW138843   0.196   2.449   3.232 -1.8079  0.8157 -0.7949
 9128SOL    HW238844   0.298   2.540   3.268 -0.2748 -0.1452 -0.5870
 9129SOL     OW38845   2.503   3.569   2.341  1.1601 -0.3506  0.1411
 9129SOL    HW138846   2.572   3.560   2.276  2.1150 -0.2635  1.1292
 9129SOL    HW238847   2.492   3.475   2.355 -2.1969  0.1485  0.6571
 9130SOL     OW38848   2.075   4.635   9.952 -0.1469  0.1211 -0.1999
 9130SOL    HW138849   2.084   4.659  10.044 -0.0333  0.8602 -0.4015
 9130SOL    HW238850   2.058   4.541   9.955 -0.1445  0.1981  2.2546
 9131SOL     OW38851   2.109   0.274  11.130 -0.0079  0.3375 -0.5750
 9131SOL    HW138852   2.097   0.316  11.215  2.4798  1.1750 -0.6337
 9131SOL    HW238853   2.050   0.319  11.069 -1.2276 -1.0959 -0.4565
 9132SOL     OW38854   3.988   3.593  11.694 -0.0391  0.2153  0.1136
 9132SOL    HW138855   4.058   3.532  11.718  0.3163 -0.5564 -2.8218
 9132SOL    HW238856   3.973   3.636  11.778 -2.3362  0.8846 -0.6455
 9133SOL     OW38857   3.797   0.435   6.474  0.3655  0.0601 -0.3300
 9133SOL    HW138858   3.892   0.422   6.474  0.0269 -2.4706 -1.4689
 9133SOL    HW238859   3.787   0.453   6.380 -0.5188  0.7635 -0.0986
 9134SOL     OW38860   3.243   4.638   7.929  0.6139  0.3183 -0.3612
 9134SOL    HW138861   3.196   4.617   7.848  0.9489  1.2548 -0.7983
 9134SOL    HW238862   3.182   4.695   7.976 -1.0190 -2.3501  0.7391
 9135SOL     OW38863   1.582   3.160   0.751 -0.3847 -0.1811  0.7523
 9135SOL    HW138864   1.585   3.091   0.817 -2.9733 -0.5754  0.4763
 9135SOL    HW238865   1.628   3.118   0.679 -0.9312 -0.7027  0.7063
 9136SOL     OW38866   3.018   1.276   8.662  0.3700 -0.0548  0.5131
 9136SOL    HW138867   3.056   1.326   8.735  0.4921  1.3398 -0.5174
 9136SOL    HW238868   3.094   1.225   8.634 -0.6880 -1.0896 -0.4473
 9137SOL     OW38869   0.835   4.699  14.739  0.3646  0.1872  0.4564
 9137SOL    HW138870   0.787   0.055  14.763  4.2212  2.3624  0.8748
 9137SOL    HW238871   0.888   4.679  14.816 -1.2254 -0.2352  1.4484
 9138SOL     OW38872   3.309   2.087   3.335  0.1444 -0.6248  0.7444
 9138SOL    HW138873   3.291   2.003   3.293  1.4226 -0.4842 -0.0926
 9138SOL    HW238874   3.225   2.103   3.378  1.5596 -0.3051  3.3908
 9139SOL     OW38875   2.278   3.656  10.181  0.1040 -0.1513  0.0281
 9139SOL    HW138876   2.208   3.610  10.228  0.4419 -1.1586 -0.4553
 9139SOL    HW238877   2.315   3.596  10.117  2.4051  1.1551  0.1587
 9140SOL     OW38878   2.648   2.308  13.253 -0.3336 -0.1367 -0.4201
 9140SOL    HW138879   2.689   2.393  13.237  0.7138 -1.0326 -2.5636
 9140SOL    HW238880   2.726   2.253  13.251  0.5280  0.9881  1.8197
 9141SOL     OW38881   1.374   4.297   9.195  0.0782  0.6197 -0.5409
 9141SOL    HW138882   1.319   4.260   9.125  0.6543 -0.9810 -0.1536
 9141SOL    HW238883   1.386   4.236   9.267  0.9889  1.0781 -0.3072
 9142SOL     OW38884   1.878   2.265   0.438 -0.4341 -0.0588  0.2006
 9142SOL    HW138885   1.910   2.177   0.419 -1.2857  0.1318 -2.1840
 9142SOL    HW238886   1.797   2.249   0.485 -0.2725  2.5503  1.3405
 9143SOL     OW38887   4.623   2.799  11.166 -0.3519  0.6081 -0.6017
 9143SOL    HW138888   4.621   2.711  11.204 -1.6371 -0.4251 -3.0025
 9143SOL    HW238889   4.649   2.784  11.075  0.0206  0.9358 -0.5453
 9144SOL     OW38890   2.123   4.495   7.597 -0.3417  0.6355 -0.1007
 9144SOL    HW138891   2.177   4.563   7.638  1.2451 -0.6017 -0.1645
 9144SOL    HW238892   2.085   4.455   7.676  0.6289  1.3976  0.7511
 9145SOL     OW38893   3.849   3.309  17.382  0.7169 -0.1683  0.4048
 9145SOL    HW138894   3.880   3.335  17.468 -0.2860  1.4898  0.2637
 9145SOL    HW238895   3.786   3.381  17.375  0.7622 -0.2877 -1.4087
 9146SOL     OW38896   1.440   2.688  11.414  0.7265 -0.1072  0.5347
 9146SOL    HW138897   1.519   2.637  11.395 -0.2419 -0.8941 -1.4614
 9146SOL    HW238898   1.439   2.671  11.508  1.7245 -0.4786  0.4742
 9147SOL     OW38899   0.981   3.759   2.230 -0.2088 -0.2314 -0.2771
 9147SOL    HW138900   1.052   3.695   2.224  0.0017 -0.0465  0.3107
 9147SOL    HW238901   1.000   3.812   2.308  0.0969 -0.4570 -0.1979
 9148SOL     OW38902   1.736   3.416   3.150 -0.0540  0.1193  0.1065
 9148SOL    HW138903   1.722   3.389   3.059 -0.7408  2.2755 -0.4186
 9148SOL    HW238904   1.644   3.428   3.170 -0.3051  1.8360 -1.9621
 9149SOL     OW38905   2.340   2.394   4.444 -0.8583  0.6027  0.2525
 9149SOL    HW138906   2.279   2.393   4.517 -0.0863 -0.1936  0.8887
 9149SOL    HW238907   2.419   2.367   4.490 -0.9608 -2.7783 -1.4874
 9150SOL     OW38908   4.013   4.544   8.785  0.6244 -0.1230 -0.2002
 9150SOL    HW138909   3.977   4.506   8.864  0.4993  2.3387  0.9177
 9150SOL    HW238910   4.102   4.539   8.820  0.3287 -2.7971  0.1570
 9151SOL     OW38911   3.681   0.107   3.773  0.1443  0.3228 -0.2136
 9151SOL    HW138912   3.649   0.075   3.858  1.9656  1.6076  0.9624
 9151SOL    HW238913   3.766   0.143   3.801 -0.4347  1.0217  0.6536
 9152SOL     OW38914   4.308   1.837  13.381  0.1787 -0.2499 -0.4058
 9152SOL    HW138915   4.364   1.769  13.418  0.3291  0.1777  0.1516
 9152SOL    HW238916   4.361   1.876  13.312 -0.6743 -0.7924 -1.3735
 9153SOL     OW38917   3.148   4.468   3.785  0.3086 -0.6113  0.0506
 9153SOL    HW138918   3.122   4.523   3.711  1.0648 -0.7576 -0.3311
 9153SOL    HW238919   3.076   4.478   3.847 -0.8893  0.7160 -1.5249
 9154SOL     OW38920   2.073   1.541   9.573  0.2349  0.4633 -0.3632
 9154SOL    HW138921   2.155   1.552   9.622 -0.3191  1.0384  0.4452
 9154SOL    HW238922   2.069   1.619   9.517 -0.4571  1.1254  0.6061
 9155SOL     OW38923   1.558   4.371  13.425 -0.0681 -0.4083 -0.0580
 9155SOL    HW138924   1.521   4.410  13.504 -0.0475 -2.5871  1.0101
 9155SOL    HW238925   1.579   4.284  13.459  0.6745  0.5218  1.8501
 9156SOL     OW38926   3.702   3.479   0.372  0.3749 -0.4625 -0.5152
 9156SOL    HW138927   3.667   3.395   0.342  1.8106 -0.8290 -1.1357
 9156SOL    HW238928   3.619   3.526   0.387  1.6218  1.1071  1.4283
 9157SOL     OW38929   1.242   2.830   1.415 -0.0976 -0.8323  0.0918
 9157SOL    HW138930   1.241   2.885   1.337  1.1808 -0.5948  0.2398
 9157SOL    HW238931   1.151   2.801   1.409 -0.1564 -0.8274  0.8666
 9158SOL     OW38932   3.236   4.076   5.446 -0.4999  0.1615 -0.2392
 9158SOL    HW138933   3.314   4.071   5.501 -0.3804 -0.7352 -0.4864
 9158SOL    HW238934   3.239   3.985   5.416 -2.6930  0.5746 -1.7621
 9159SOL     OW38935   3.127   2.315   8.073 -0.6617  0.2295  0.2094
 9159SOL    HW138936   3.165   2.307   8.161 -1.6698 -0.8762  0.5388
 9159SOL    HW238937   3.206   2.309   8.019  0.0139  1.0116  1.0971
 9160SOL     OW38938   1.171   0.785  15.597  0.3761  0.3357 -0.4748
 9160SOL    HW138939   1.228   0.821  15.664 -0.3178  1.3495 -0.4394
 9160SOL    HW238940   1.155   0.861  15.542 -1.6422 -0.2823 -0.7681
 9161SOL     OW38941   0.601   2.685   1.467 -0.3086  0.0347  0.3589
 9161SOL    HW138942   0.682   2.734   1.480 -1.0535  0.9758  1.4574
 9161SOL    HW238943   0.580   2.642   1.550  0.6261 -3.1182 -1.0408
 9162SOL     OW38944   3.761   3.628   3.332  0.2779  0.0348  0.7956
 9162SOL    HW138945   3.692   3.673   3.382  0.2102 -0.4887  1.1778
 9162SOL    HW238946   3.833   3.692   3.331  0.1501  0.2236  2.5483
 9163SOL     OW38947   1.587   1.318   3.829 -0.0554  0.9629 -0.4577
 9163SOL    HW138948   1.651   1.262   3.875 -2.1432 -1.8532 -0.9712
 9163SOL    HW238949   1.642   1.348   3.756  1.2678  1.3566  0.6888
 9164SOL     OW38950   0.372   0.692   4.920  0.3856 -0.6547  0.1225
 9164SOL    HW138951   0.442   0.754   4.899 -0.7520  0.9998  1.2653
 9164SOL    HW238952   0.290   0.739   4.910  1.1671  0.2708 -1.8652
 9165SOL     OW38953   0.851   3.675   7.152 -0.7396 -0.0109  0.1624
 9165SOL    HW138954   0.861   3.761   7.194  0.3020  0.4228 -0.9630
 9165SOL    HW238955   0.907   3.688   7.076 -0.4164 -0.9747  0.2434
 9166SOL     OW38956   1.018   0.789   8.435  0.2104  0.3515 -0.5236
 9166SOL    HW138957   1.069   0.870   8.445  0.4622  0.2649 -1.1080
 9166SOL    HW238958   0.955   0.798   8.507  0.5967 -0.3693 -0.0988
 9167SOL     OW38959   4.650   1.222   2.844 -0.2615  0.2753  0.4414
 9167SOL    HW138960   4.574   1.173   2.876 -0.2309 -0.4480 -0.5951
 9167SOL    HW238961   4.627   1.302   2.893  1.0010  0.9269 -0.0262
 9168SOL     OW38962   4.155   3.551   7.702 -0.0852 -0.1109  0.7705
 9168SOL    HW138963   4.155   3.495   7.779 -0.7696 -0.6783  0.3664
 9168SOL    HW238964   4.246   3.540   7.673 -0.7110  2.0795 -2.0329
 9169SOL     OW38965   0.045   3.594   3.031  0.2069 -0.1435  0.5503
 9169SOL    HW138966   0.059   3.581   2.937 -3.9169 -1.9919  0.1718
 9169SOL    HW238967   4.694   3.535   3.044  0.7350 -0.6195  1.3970
 9170SOL     OW38968   3.368   1.764   3.754 -0.2499 -0.3675  0.2853
 9170SOL    HW138969   3.285   1.779   3.709  0.4878  1.9908 -0.3008
 9170SOL    HW238970   3.357   1.802   3.841  0.1166 -0.4817  0.3821
 9171SOL     OW38971   4.159   1.314   4.880  0.0055  0.1373  0.4452
 9171SOL    HW138972   4.119   1.373   4.944 -1.4960  0.6394 -0.9460
 9171SOL    HW238973   4.170   1.369   4.802 -0.1839  1.2173  1.1724
 9172SOL     OW38974   2.057   2.898   7.190  0.2207 -0.7578  0.4930
 9172SOL    HW138975   1.965   2.919   7.207  0.3490 -0.9972  1.5439
 9172SOL    HW238976   2.094   2.897   7.278 -1.1845  0.7443  1.1033
 9173SOL     OW38977   0.739   2.976   6.246  0.5260 -0.1576  0.2358
 9173SOL    HW138978   0.761   2.883   6.253  0.9194 -0.0036  1.0426
 9173SOL    HW238979   0.731   2.988   6.151  3.1140 -0.1790  0.0036
 9174SOL     OW38980   1.823   0.664   8.492  0.3687  0.2346 -0.5130
 9174SOL    HW138981   1.788   0.609   8.561  1.2531 -0.3790 -0.5609
 9174SOL    HW238982   1.837   0.743   8.545  1.7975  1.7575 -3.1434
 9175SOL     OW38983   1.627   3.844   2.282 -0.3458 -0.1921 -0.2982
 9175SOL    HW138984   1.638   3.852   2.377  0.1612 -0.7382 -0.3130
 9175SOL    HW238985   1.702   3.794   2.251 -1.8881 -2.9366  0.3320
 9176SOL     OW38986   1.342   3.565   7.172 -0.2762 -0.0505  0.8749
 9176SOL    HW138987   1.395   3.619   7.231 -0.2063  1.2072 -0.3570
 9176SOL    HW238988   1.281   3.626   7.130 -0.4186 -1.5967 -1.1828
 9177SOL     OW38989   2.836   0.561   6.066  0.3771  0.1897  0.0460
 9177SOL    HW138990   2.840   0.647   6.107 -1.3710 -0.2556  1.1366
 9177SOL    HW238991   2.742   0.544   6.062  0.3401  0.1464  1.3725
 9178SOL     OW38992   1.583   0.568   1.901  0.0804 -0.0565 -1.1466
 9178SOL    HW138993   1.590   0.597   1.810 -2.5607 -0.8449 -1.5797
 9178SOL    HW238994   1.490   0.555   1.918  0.3072 -0.7500 -0.4742
 9179SOL     OW38995   4.632   1.797   5.399 -0.0543  0.4700  0.6477
 9179SOL    HW138996   4.638   1.784   5.493  1.2679  0.9764  0.6323
 9179SOL    HW238997   4.651   1.891   5.398  3.0460 -0.1459  1.2861
 9180SOL     OW38998   0.217   0.574   0.838  0.8456 -0.0636  0.2973
 9180SOL    HW138999   0.156   0.646   0.857  0.5325  0.0380 -1.0819
 9180SOL    HW239000   0.296   0.627   0.842 -0.7265  2.2220  0.7932
 9181SOL     OW39001   1.016   2.018   8.823 -0.2904 -0.5101  0.6298
 9181SOL    HW139002   1.001   1.979   8.909 -1.2948  1.6448  1.4279
 9181SOL    HW239003   1.111   2.021   8.815 -0.5041  0.7508 -1.6416
 9182SOL     OW39004   4.483   4.662  16.562 -0.4143  0.2264 -0.1191
 9182SOL    HW139005   4.535   4.690  16.637  0.0118 -0.4058 -0.1744
 9182SOL    HW239006   4.523   4.575  16.557 -1.9035 -0.4679 -0.0372
 9183SOL     OW39007   2.131   0.343  12.805  0.0502 -0.1980  0.3262
 9183SOL    HW139008   2.139   0.380  12.717  1.2469  0.0263  0.5353
 9183SOL    HW239009   2.132   0.247  12.799 -1.3903 -0.2613  0.9611
 9184SOL     OW39010   3.943   0.605   4.045  0.0237  0.1353 -0.2277
 9184SOL    HW139011   4.037   0.605   4.031  0.0825  2.7184  0.2222
 9184SOL    HW239012   3.938   0.599   4.140  1.0042  4.0311  0.0635
 9185SOL     OW39013   2.708   1.734   2.015 -0.0276  0.0348 -0.3602
 9185SOL    HW139014   2.716   1.640   1.995  1.8287  0.3701 -1.1437
 9185SOL    HW239015   2.645   1.738   2.087 -0.0192  0.5162 -0.3801
 9186SOL     OW39016   0.111   3.228   1.135  0.0256 -0.1570  0.0855
 9186SOL    HW139017   0.068   3.144   1.121 -0.2143  0.6147 -3.8235
 9186SOL    HW239018   0.041   3.293   1.139  0.9614  0.7385  1.6007
 9187SOL     OW39019   0.958   0.722   9.046 -0.3985  0.0769  0.0354
 9187SOL    HW139020   0.886   0.659   9.051 -0.5333  0.2383  0.1132
 9187SOL    HW239021   1.015   0.713   9.122 -3.0094  3.8757  2.4487
 9188SOL     OW39022   0.619   2.610   4.736  0.1516 -0.5449  0.1262
 9188SOL    HW139023   0.655   2.648   4.816  2.1481  1.9841 -1.9783
 9188SOL    HW239024   0.543   2.669   4.730  0.7909  0.1930 -0.6788
 9189SOL     OW39025   1.241   2.319   6.549  0.3800 -0.1661  0.0688
 9189SOL    HW139026   1.151   2.345   6.570  0.8832  2.8169 -1.5326
 9189SOL    HW239027   1.217   2.239   6.502 -0.7397 -0.0834  0.4875
 9190SOL     OW39028   2.943   2.413   2.408 -0.9511 -0.2871  0.2388
 9190SOL    HW139029   2.904   2.330   2.380 -2.9788  1.0255 -0.8819
 9190SOL    HW239030   3.019   2.412   2.350 -2.6614 -1.5507 -1.9949
 9191SOL     OW39031   2.145   2.642   7.987  0.5378 -0.3506 -0.8819
 9191SOL    HW139032   2.181   2.639   7.898  0.8504 -0.6903 -0.7468
 9191SOL    HW239033   2.148   2.736   8.002  0.5412 -0.6283  0.7890
 9192SOL     OW39034   0.599   0.353   8.271 -0.0156  0.0881 -0.4948
 9192SOL    HW139035   0.597   0.357   8.175  0.2207 -0.2303 -0.5139
 9192SOL    HW239036   0.512   0.317   8.287  0.2510 -0.7102 -0.8048
 9193SOL     OW39037   4.099   4.246   8.158  0.3413  0.5810  0.7421
 9193SOL    HW139038   4.018   4.275   8.199  0.0454  1.0431 -0.1669
 9193SOL    HW239039   4.085   4.201   8.075 -0.2349 -1.2159  1.8031
 9194SOL     OW39040   4.113   1.792   4.548  0.5684 -0.2976 -0.7419
 9194SOL    HW139041   4.031   1.772   4.503  0.4073  0.0020 -0.5858
 9194SOL    HW239042   4.125   1.885   4.528  0.8911 -0.2100 -0.1441
 9195SOL     OW39043   0.274   1.289  11.346  0.4581 -0.2331 -0.3058
 9195SOL    HW139044   0.367   1.291  11.323  0.1636  1.7911 -1.3386
 9195SOL    HW239045   0.250   1.379  11.369 -0.5980 -0.7907  0.8069
 9196SOL     OW39046   3.787   3.268   2.340  0.1913  0.1799  0.7012
 9196SOL    HW139047   3.865   3.313   2.374  2.0743 -1.4544 -1.4953
 9196SOL    HW239048   3.769   3.320   2.262  0.4864  1.2344  1.3319
 9197SOL     OW39049   2.510   0.616  12.641 -0.3320  0.1001 -0.1487
 9197SOL    HW139050   2.484   0.524  12.642  1.7070 -0.4800 -0.6865
 9197SOL    HW239051   2.595   0.612  12.685 -0.9580  1.0306  1.1789
 9198SOL     OW39052   1.029   2.708   2.918 -0.4141 -0.1477  0.1960
 9198SOL    HW139053   0.940   2.736   2.899 -0.4406 -0.5915 -0.3285
 9198SOL    HW239054   1.030   2.702   3.014  2.1035 -0.0860  0.1600
 9199SOL     OW39055   4.212   3.083   4.198 -0.2531 -0.6771 -0.2054
 9199SOL    HW139056   4.219   3.103   4.292 -0.6125  0.8671 -0.4991
 9199SOL    HW239057   4.276   3.012   4.193  0.5575  0.1833 -1.7255
 9200SOL     OW39058   1.168   2.197   5.220  0.3775 -0.5040  0.6209
 9200SOL    HW139059   1.240   2.240   5.174  0.2583 -1.3545 -0.3820
 9200SOL    HW239060   1.136   2.148   5.144  0.0525  0.4912  0.1225
 9201SOL     OW39061   1.718   4.452   7.195 -0.2073  0.3197 -0.4922
 9201SOL    HW139062   1.697   4.543   7.218 -0.6112  0.4018 -1.2038
 9201SOL    HW239063   1.734   4.407   7.278 -0.6907  4.0057  1.6033
 9202SOL     OW39064   2.100   1.492  10.800 -0.0649  0.7064 -0.0211
 9202SOL    HW139065   2.130   1.582  10.814  1.7549  0.5629 -2.9397
 9202SOL    HW239066   2.156   1.450  10.865  2.2745  2.1287 -1.1056
 9203SOL     OW39067   2.911   1.815  14.877 -0.1909  0.2140 -0.3911
 9203SOL    HW139068   2.887   1.854  14.961 -0.7340 -1.2572  0.1425
 9203SOL    HW239069   2.973   1.874  14.835  1.1849 -0.0571  1.2892
 9204SOL     OW39070   1.338   1.800   4.069 -0.1140 -0.1980 -0.2883
 9204SOL    HW139071   1.312   1.862   4.002  0.9431  1.3642  0.7501
 9204SOL    HW239072   1.343   1.725   4.010  1.6092 -0.5023  0.2377
 9205SOL     OW39073   0.012   1.693   2.212 -0.3745  0.8381  0.6501
 9205SOL    HW139074   0.099   1.724   2.187 -0.5905  1.1233  0.2469
 9205SOL    HW239075   4.700   1.765   2.264  0.7700  2.3035 -0.5960
 9206SOL     OW39076   0.981   1.141   4.127 -0.1853 -0.1210 -0.5387
 9206SOL    HW139077   1.033   1.166   4.051  2.8471 -1.3785  1.1143
 9206SOL    HW239078   1.017   1.055   4.150 -0.8096 -0.4582 -0.8017
 9207SOL     OW39079   3.085   0.029   5.883  0.0267 -0.4333  0.5177
 9207SOL    HW139080   3.139   0.030   5.962  0.1574  0.6417  0.4123
 9207SOL    HW239081   3.135   0.091   5.830 -1.8510  1.5214  1.0533
 9208SOL     OW39082   3.351   2.392  13.227 -0.5692  0.1185  0.3985
 9208SOL    HW139083   3.330   2.313  13.177  1.2596 -0.1339  0.0155
 9208SOL    HW239084   3.439   2.417  13.198 -0.0523 -1.2094  0.8035
 9209SOL     OW39085   0.179   0.661   5.810 -0.3808 -0.4575 -0.1245
 9209SOL    HW139086   0.210   0.751   5.813 -2.0698  0.1644 -1.8124
 9209SOL    HW239087   0.256   0.616   5.774 -0.4277 -0.2956 -0.4277
 9210SOL     OW39088   0.937   4.475   0.969  0.4047  0.7211 -0.0988
 9210SOL    HW139089   1.011   4.447   0.915  1.0380  0.4770  0.9048
 9210SOL    HW239090   0.969   4.447   1.054 -0.9649  1.4541  0.6440
 9211SOL     OW39091   3.740   2.940  13.033  0.5128  0.2605 -0.7452
 9211SOL    HW139092   3.731   3.035  13.024 -1.7016  0.3027  1.9018
 9211SOL    HW239093   3.835   2.931  13.032  0.3867 -0.8900 -3.0129
 9212SOL     OW39094   2.396   4.065   4.328  0.0196 -0.8565  0.1738
 9212SOL    HW139095   2.455   4.022   4.390 -0.6258  2.7413  3.2852
 9212SOL    HW239096   2.444   4.136   4.286 -0.3437 -1.5682 -1.4496
 9213SOL     OW39097   0.079   3.257   5.709 -0.3205 -0.6369 -0.2623
 9213SOL    HW139098   0.124   3.176   5.734 -0.3920 -0.8842 -0.9331
 9213SOL    HW239099   0.027   3.223   5.636 -1.2307 -0.9800  0.5545
 9214SOL     OW39100   3.110   1.924   1.254  0.0572 -0.0084  0.1770
 9214SOL    HW139101   3.111   2.007   1.208 -0.5783 -0.2039 -0.1832
 9214SOL    HW239102   3.105   1.873   1.173 -0.5617  1.0223 -0.4409
 9215SOL     OW39103   0.320   0.545   7.116  0.8783  0.0773  0.8241
 9215SOL    HW139104   0.362   0.596   7.186  1.0563 -0.8312  1.3894
 9215SOL    HW239105   0.280   0.608   7.057 -0.9033 -2.5974 -0.8147
 9216SOL     OW39106   2.712   0.868  15.563 -0.2489  0.7331 -0.3680
 9216SOL    HW139107   2.762   0.830  15.491 -0.9811  0.4835 -0.7386
 9216SOL    HW239108   2.784   0.921  15.596 -0.0440 -0.0905  0.5338
 9217SOL     OW39109   3.794   1.424  14.644 -0.3539 -0.5965  0.2157
 9217SOL    HW139110   3.834   1.471  14.571 -2.0288 -2.3926 -1.8693
 9217SOL    HW239111   3.788   1.335  14.608 -0.5862 -0.9292  1.0848
 9218SOL     OW39112   0.332   2.481  13.177 -0.1276 -0.1712  0.3612
 9218SOL    HW139113   0.249   2.529  13.176  0.0725  0.1543 -1.2289
 9218SOL    HW239114   0.377   2.535  13.242 -0.1591  0.1318  0.1323
 9219SOL     OW39115   3.281   0.695   3.052  0.8120  0.2892  0.3479
 9219SOL    HW139116   3.327   0.629   2.999 -1.3462 -1.4790  0.6630
 9219SOL    HW239117   3.199   0.645   3.063  1.0070 -0.0639  0.2150
 9220SOL     OW39118   3.403   3.380  12.344 -0.5250 -0.4825 -0.0434
 9220SOL    HW139119   3.420   3.413  12.256 -2.4784 -1.6947 -0.8605
 9220SOL    HW239120   3.476   3.319  12.357 -2.3199 -3.1364 -2.4571
 9221SOL     OW39121   1.614   4.094   8.614 -0.0645  0.5962 -0.5427
 9221SOL    HW139122   1.607   4.067   8.705  1.6307  1.0823 -0.2551
 9221SOL    HW239123   1.525   4.074   8.587  0.1964 -0.2602 -0.7805
 9222SOL     OW39124   0.210   0.186   9.773  0.3607  0.0358  0.2642
 9222SOL    HW139125   0.133   0.238   9.795 -0.1460 -1.4123  1.9113
 9222SOL    HW239126   0.272   0.258   9.760 -0.3552  0.8755  1.5460
 9223SOL     OW39127   0.145   3.291  11.865  0.3043  0.0602 -0.3949
 9223SOL    HW139128   0.147   3.384  11.885 -0.8355 -0.4135  1.9109
 9223SOL    HW239129   0.113   3.260  11.950 -2.7152  0.9508 -1.2325
 9224SOL     OW39130   2.559   4.603   9.610  0.1265 -0.3872  0.0359
 9224SOL    HW139131   2.480   4.625   9.659 -0.1266  2.8391 -1.8639
 9224SOL    HW239132   2.562   4.507   9.613  2.6600 -0.3872 -1.7477
 9225SOL     OW39133   2.702   4.164   0.011 -0.0452 -0.0230 -0.2833
 9225SOL    HW139134   2.784   4.117   0.021  0.0917  0.1382 -0.6607
 9225SOL    HW239135   2.654   4.106  17.649 -2.0375  1.4681 -0.1425
 9226SOL     OW39136   3.913   2.907  14.897 -0.1649 -0.8116 -0.0694
 9226SOL    HW139137   3.989   2.869  14.853 -1.4187 -2.5506 -0.7039
 9226SOL    HW239138   3.845   2.896  14.832 -0.6495  3.7704 -0.3516
 9227SOL     OW39139   0.699   2.288   2.540 -0.3050  0.3158  0.3714
 9227SOL    HW139140   0.636   2.338   2.593  0.1763 -0.4280  1.6457
 9227SOL    HW239141   0.778   2.342   2.536  0.9322 -1.5762 -1.1244
 9228SOL     OW39142   0.374   3.787   5.553 -0.0512 -0.9483  0.1093
 9228SOL    HW139143   0.285   3.768   5.580 -1.1872  1.0662 -2.1761
 9228SOL    HW239144   0.389   3.871   5.596  1.7087 -1.7725  1.0994
 9229SOL     OW39145   2.279   4.535   6.322  0.3007  0.2075  0.2890
 9229SOL    HW139146   2.352   4.539   6.384  1.3643 -1.1501 -0.8531
 9229SOL    HW239147   2.326   4.497   6.247  0.0886  2.4332 -0.9586
 9230SOL     OW39148   4.590   1.031   5.183  0.3473 -0.1272 -0.3190
 9230SOL    HW139149   4.558   1.115   5.148  0.5007 -1.2336 -3.1517
 9230SOL    HW239150   4.514   0.984   5.216 -0.9396  1.4729 -0.9586
 9231SOL     OW39151   1.570   3.546   3.424 -0.1283 -0.3193  0.2335
 9231SOL    HW139152   1.527   3.568   3.342 -0.9806 -1.4299  0.3847
 9231SOL    HW239153   1.533   3.460   3.443 -0.1882 -0.5590 -1.0163
 9232SOL     OW39154   2.406   0.825   7.528 -0.2526  0.3976 -0.2031
 9232SOL    HW139155   2.400   0.783   7.614 -0.5373 -0.3923 -0.6056
 9232SOL    HW239156   2.339   0.893   7.529 -1.4890 -0.8350  0.7057
 9233SOL     OW39157   3.282   2.157   2.216 -0.3158 -0.1483 -0.1020
 9233SOL    HW139158   3.272   2.091   2.284 -0.4875 -0.2745 -0.2477
 9233SOL    HW239159   3.195   2.197   2.222 -0.4405 -0.5054  0.4013
 9234SOL     OW39160   4.645   3.456   2.272 -0.1605  0.3333 -0.0482
 9234SOL    HW139161   0.017   3.454   2.274 -0.1728 -0.5365 -0.5995
 9234SOL    HW239162   4.632   3.451   2.177 -2.9674 -2.5811  0.4915
 9235SOL     OW39163   2.021   1.876   4.337 -0.1460  0.1868 -0.2269
 9235SOL    HW139164   1.951   1.875   4.272  0.4501 -0.0660 -0.8649
 9235SOL    HW239165   1.979   1.831   4.410  1.5061 -1.3094 -0.1836
 9236SOL     OW39166   1.275   2.114  16.530 -0.5195  0.8889 -0.1115
 9236SOL    HW139167   1.221   2.173  16.477 -1.7864 -0.9425 -0.8437
 9236SOL    HW239168   1.261   2.150  16.618 -0.3083 -1.7806  1.0353
 9237SOL     OW39169   0.633   3.847   3.522  0.1455 -0.3436 -0.2825
 9237SOL    HW139170   0.542   3.862   3.549  0.2472  0.5616 -0.4199
 9237SOL    HW239171   0.673   3.866   3.606 -1.3527  0.8140  0.1799
 9238SOL     OW39172   1.075   0.905   7.003  0.0704  0.3869  0.7510
 9238SOL    HW139173   1.003   0.853   6.968  0.2222  0.2128  0.7015
 9238SOL    HW239174   1.152   0.860   6.970 -0.8901 -1.0105  0.4515
 9239SOL     OW39175   0.963   0.913  11.859  0.3103 -0.0640  0.1070
 9239SOL    HW139176   0.956   0.916  11.763 -1.7313 -0.4417  0.2361
 9239SOL    HW239177   0.990   0.996  11.897  3.1009  1.0160 -4.3233
 9240SOL     OW39178   4.701   4.315   4.995 -0.3921  0.4856 -0.0189
 9240SOL    HW139179   0.059   4.265   4.991 -0.6992 -0.0427  0.3459
 9240SOL    HW239180   4.655   4.284   4.917  0.0629  0.5856 -0.3270
 9241SOL     OW39181   3.366   0.477  13.168  0.3094  0.1284  0.1203
 9241SOL    HW139182   3.410   0.487  13.253 -1.6757  1.1773  1.0173
 9241SOL    HW239183   3.435   0.493  13.104  1.3471 -1.8319  0.7402
 9242SOL     OW39184   2.965   4.481   9.155  0.1708 -0.1353  0.2554
 9242SOL    HW139185   2.959   4.434   9.238  0.8101  2.5100  1.7859
 9242SOL    HW239186   2.951   4.569   9.191  1.8680  0.2222  0.0235
 9243SOL     OW39187   0.631   0.163  13.585  0.0403 -0.8350 -0.0046
 9243SOL    HW139188   0.637   0.181  13.679 -1.2324  1.1712 -0.3068
 9243SOL    HW239189   0.656   0.072  13.568  0.1496 -0.4090 -2.1138
 9244SOL     OW39190   1.840   1.006  12.283 -0.0218 -0.0488 -0.1060
 9244SOL    HW139191   1.851   0.926  12.232 -1.4986 -0.4286  0.1825
 9244SOL    HW239192   1.821   0.961  12.365 -1.4914 -0.6153 -0.7529
 9245SOL     OW39193   3.220   4.056  14.375 -0.3779 -0.0456  0.4151
 9245SOL    HW139194   3.239   3.985  14.315  0.8624  0.3412  0.3575
 9245SOL    HW239195   3.284   4.041  14.445  0.4690 -0.5644 -0.4769
 9246SOL     OW39196   3.507   3.010   2.880  0.2888  0.0203  0.1402
 9246SOL    HW139197   3.442   3.001   2.950 -1.4146 -1.4700 -1.6650
 9246SOL    HW239198   3.530   3.102   2.899  1.7343  0.2237 -2.5176
 9247SOL     OW39199   3.340   3.510   4.455 -1.0601 -0.2025  0.4378
 9247SOL    HW139200   3.313   3.419   4.447 -0.6988 -0.3472  0.8966
 9247SOL    HW239201   3.261   3.546   4.495 -0.6846  0.6189  0.4447
 9248SOL     OW39202   1.459   2.146  12.414 -0.0324  0.3482 -0.2041
 9248SOL    HW139203   1.400   2.176  12.483  1.5812  0.2247  1.2292
 9248SOL    HW239204   1.408   2.182  12.341 -1.3246  2.0590  1.5410
 9249SOL     OW39205   0.123   3.962   2.588 -0.5589 -0.3396 -0.2536
 9249SOL    HW139206   0.155   4.010   2.511  0.1826  2.3238  1.7299
 9249SOL    HW239207   0.150   3.871   2.577  0.4289 -0.0622 -0.1530
 9250SOL     OW39208   1.936   4.525   6.743 -0.0112  0.5991  0.4542
 9250SOL    HW139209   1.878   4.452   6.763  0.3205 -0.3312 -1.9413
 9250SOL    HW239210   2.006   4.529   6.808  0.1514 -0.3604  0.3350
 9251SOL     OW39211   1.586   2.922   0.976  0.3376  0.0427 -0.2456
 9251SOL    HW139212   1.596   2.861   0.903 -0.7740  1.7515 -1.8218
 9251SOL    HW239213   1.672   2.900   1.013  0.3578  3.3518  1.6582
 9252SOL     OW39214   1.643   2.157   2.356  0.2354 -0.2481 -0.2323
 9252SOL    HW139215   1.645   2.209   2.276 -0.8014 -1.6424 -1.1709
 9252SOL    HW239216   1.554   2.124   2.368 -0.1309  1.3624  1.5002
 9253SOL     OW39217   0.056   4.274   2.901  0.4931  0.2743 -0.3293
 9253SOL    HW139218   0.112   4.344   2.868  0.9770  0.4099  0.7468
 9253SOL    HW239219   0.116   4.250   2.973 -0.9920  0.8412  1.0949
 9254SOL     OW39220   4.692   0.385  12.438  0.0524 -0.0679 -0.4644
 9254SOL    HW139221   4.717   0.424  12.522 -0.0406  0.8281 -0.8492
 9254SOL    HW239222   0.009   0.441  12.372  0.0785  0.4617 -0.0001
 9255SOL     OW39223   2.623   3.289   2.156  0.3394  0.1500  0.4471
 9255SOL    HW139224   2.708   3.281   2.200 -0.2491  1.0721  1.7492
 9255SOL    HW239225   2.649   3.334   2.075  0.7552 -0.3332  0.3126
 9256SOL     OW39226   0.183   3.197   5.248 -0.4927  0.2819 -0.5691
 9256SOL    HW139227   0.235   3.256   5.303 -1.1510 -0.3698  0.7634
 9256SOL    HW239228   0.226   3.114   5.265  2.2035  1.9626  0.7801
 9257SOL     OW39229   4.045   3.067  13.718 -0.0633 -0.4329  0.2887
 9257SOL    HW139230   4.004   3.122  13.784 -2.0796 -1.2534 -0.3047
 9257SOL    HW239231   4.135   3.081  13.748 -0.0189  2.3788 -1.1744
 9258SOL     OW39232   2.432   2.378  16.417  0.5104 -0.2863  0.0114
 9258SOL    HW139233   2.425   2.360  16.511 -3.3083  2.2824  0.2424
 9258SOL    HW239234   2.505   2.327  16.382  0.9721  2.2590 -2.6656
 9259SOL     OW39235   2.681   1.888   3.585 -0.4212  0.2254  0.0191
 9259SOL    HW139236   2.768   1.914   3.617 -0.7068  1.3037 -0.0903
 9259SOL    HW239237   2.679   1.895   3.490 -0.6280  2.0717  0.1750
 9260SOL     OW39238   2.436   2.800  10.185 -0.2466  0.0987  0.2500
 9260SOL    HW139239   2.384   2.771  10.110 -0.9368  0.5262  0.5667
 9260SOL    HW239240   2.490   2.724  10.209 -1.1565  0.1419  2.4666
 9261SOL     OW39241   2.058   1.512   6.651 -0.6117  0.1179 -0.3396
 9261SOL    HW139242   2.098   1.532   6.565 -0.3870 -1.9373 -0.7100
 9261SOL    HW239243   2.127   1.534   6.714 -0.6960  0.6672 -0.4417
 9262SOL     OW39244   1.311   2.515   3.968 -0.0802  0.9205 -0.4212
 9262SOL    HW139245   1.224   2.530   4.004  0.7882  0.6991  1.7616
 9262SOL    HW239246   1.361   2.478   4.040 -2.5676 -0.3584  0.6422
 9263SOL     OW39247   0.681   0.086   5.015 -0.2430  0.3138 -0.5519
 9263SOL    HW139248   0.701   0.030   4.940  0.1213 -0.3482  0.0332
 9263SOL    HW239249   0.603   0.037   5.041  0.4086 -0.5419 -0.2131
 9264SOL     OW39250   4.467   0.679   8.726  0.6241 -0.1914  0.0511
 9264SOL    HW139251   4.459   0.768   8.760 -2.6551 -0.0037 -1.1828
 9264SOL    HW239252   4.403   0.645   8.789 -1.2484 -0.3025 -1.9156
 9265SOL     OW39253   3.276   2.947   8.024  0.6409 -0.1007 -0.2633
 9265SOL    HW139254   3.307   2.859   8.001 -0.6811 -0.3739 -1.0132
 9265SOL    HW239255   3.304   2.995   7.946  1.1015 -2.3423 -1.5051
 9266SOL     OW39256   3.716   2.811   1.238 -0.0361  0.1367  0.1824
 9266SOL    HW139257   3.640   2.763   1.271  2.7303 -2.5028  2.8137
 9266SOL    HW239258   3.667   2.876   1.188  3.0714 -0.1104 -3.1869
 9267SOL     OW39259   2.280   3.477   7.699  0.2789  0.3010  0.4419
 9267SOL    HW139260   2.276   3.553   7.757  0.6043 -1.3291  2.6055
 9267SOL    HW239261   2.375   3.469   7.692  0.4059  0.1056  2.4389
 9268SOL     OW39262   3.917   1.553   6.707 -0.5022 -0.1332 -0.5540
 9268SOL    HW139263   3.896   1.545   6.800  1.0727  1.6828 -0.0373
 9268SOL    HW239264   4.011   1.535   6.703 -0.0196  2.3462 -0.6839
 9269SOL     OW39265   3.590   1.704   8.509 -0.3099  0.4049  0.0221
 9269SOL    HW139266   3.545   1.785   8.535 -2.1468 -0.6406  0.1443
 9269SOL    HW239267   3.647   1.733   8.439  0.8361 -4.1222 -0.9295
 9270SOL     OW39268   1.222   4.022   6.728 -0.7026 -0.7244 -0.2582
 9270SOL    HW139269   1.310   4.037   6.761 -0.8880 -0.1012 -0.0497
 9270SOL    HW239270   1.185   4.110   6.717  3.1755  1.0887  1.3348
 9271SOL     OW39271   2.707   3.225   2.995  0.0660  0.1149  0.4319
 9271SOL    HW139272   2.722   3.130   2.989  2.1390  0.7263 -3.7281
 9271SOL    HW239273   2.797   3.252   2.977  0.6908 -1.0480  1.7104
 9272SOL     OW39274   4.063   3.466   3.203 -0.0926  0.4999 -0.2131
 9272SOL    HW139275   4.157   3.472   3.220 -0.4730 -0.5548  2.2769
 9272SOL    HW239276   4.038   3.551   3.168 -1.0564  0.0829 -0.5413
 9273SOL     OW39277   3.251   4.014  10.110  0.0824 -0.0311 -0.4670
 9273SOL    HW139278   3.243   4.075  10.184  0.0788  0.5864 -0.9821
 9273SOL    HW239279   3.344   3.993  10.107  0.1608 -0.1847  2.2747
 9274SOL     OW39280   2.627   2.924  12.171 -0.2805 -0.0765 -0.1098
 9274SOL    HW139281   2.675   2.983  12.229 -1.3883  0.6870  0.0243
 9274SOL    HW239282   2.672   2.840  12.180  1.3244  1.2665  4.3661
 9275SOL     OW39283   0.108   2.255   2.932 -0.7253  0.0281 -0.4051
 9275SOL    HW139284   0.080   2.232   2.844 -2.3483  3.1856 -0.7216
 9275SOL    HW239285   0.049   2.201   2.985  0.5082  0.0235  0.9844
 9276SOL     OW39286   1.259   3.638   2.251 -0.1790 -0.3427 -0.2995
 9276SOL    HW139287   1.310   3.694   2.193  1.6437 -2.3442 -0.6710
 9276SOL    HW239288   1.309   3.651   2.331 -0.2464 -0.9359 -0.1563
 9277SOL     OW39289   1.501   1.008   4.890 -0.3199  0.0629 -0.1688
 9277SOL    HW139290   1.449   1.068   4.837  1.8147 -1.0362 -3.5207
 9277SOL    HW239291   1.514   1.058   4.971  0.0861 -0.8463  0.3279
 9278SOL     OW39292   4.490   4.442   3.235 -0.3418 -0.2966  0.4014
 9278SOL    HW139293   4.431   4.378   3.273  0.4347 -1.0877  0.2843
 9278SOL    HW239294   4.441   4.524   3.235 -0.7423 -0.5517  2.8346
 9279SOL     OW39295   4.362   4.032   8.310  0.3365  0.0100  0.1222
 9279SOL    HW139296   4.327   4.115   8.341  0.1006 -0.5585  1.4007
 9279SOL    HW239297   4.441   4.061   8.265 -0.2966  1.0121 -0.3390
 9280SOL     OW39298   2.731   4.588   7.166  0.3837 -0.7326  0.2961
 9280SOL    HW139299   2.670   4.642   7.116  2.6007  2.6899  1.3359
 9280SOL    HW239300   2.815   4.609   7.124  0.3479  1.6355  1.4164
 9281SOL     OW39301   1.874   0.562   7.634 -0.2354 -0.5341  0.1447
 9281SOL    HW139302   1.781   0.562   7.655 -0.1885  0.1347  0.3476
 9281SOL    HW239303   1.882   0.643   7.584 -1.7309  0.8641  2.1680
 9282SOL     OW39304   0.413   3.788   2.231  0.1141 -0.5778 -0.0897
 9282SOL    HW139305   0.416   3.878   2.199  0.2426 -1.0392 -1.3555
 9282SOL    HW239306   0.502   3.764   2.206  1.2062  0.6718  2.5433
 9283SOL     OW39307   3.054   4.008  10.970 -0.2251 -0.1139 -0.3252
 9283SOL    HW139308   3.062   4.074  10.901  3.3824 -1.6299 -1.3970
 9283SOL    HW239309   3.050   4.057  11.052  0.3552  0.9056 -0.9040
 9284SOL     OW39310   2.310   0.097   7.376 -0.2491  0.4244 -0.0633
 9284SOL    HW139311   2.288   0.157   7.448 -2.4967 -1.1661  0.5912
 9284SOL    HW239312   2.389   0.054   7.409 -2.2200 -1.7492  1.7760
 9285SOL     OW39313   0.590   2.980   7.493  0.1467 -0.2626 -0.9387
 9285SOL    HW139314   0.550   3.060   7.528 -3.0687 -0.6343 -3.8102
 9285SOL    HW239315   0.683   3.005   7.489 -0.4342  2.3929  1.6231
 9286SOL     OW39316   1.409   4.373   5.887 -0.0545  0.1731 -0.3569
 9286SOL    HW139317   1.484   4.321   5.916  0.7363  0.8949 -1.0937
 9286SOL    HW239318   1.410   4.452   5.942 -1.5561  0.0518 -0.1493
 9287SOL     OW39319   1.607   0.203   8.430  0.1103  0.5520 -0.0580
 9287SOL    HW139320   1.518   0.170   8.414 -0.5805  1.7674  1.2326
 9287SOL    HW239321   1.661   0.146   8.376  0.5299  0.5255  0.3932
 9288SOL     OW39322   3.313   1.251   3.653 -0.3285 -0.1102 -0.1468
 9288SOL    HW139323   3.326   1.169   3.700 -2.1821 -1.1899 -1.5079
 9288SOL    HW239324   3.312   1.205   3.569  1.0524 -0.9803  0.3194
 9289SOL     OW39325   1.903   2.191   5.476 -0.3912 -0.3876 -0.3111
 9289SOL    HW139326   1.943   2.122   5.528 -0.3586 -0.5673 -0.5734
 9289SOL    HW239327   1.972   2.220   5.416 -0.4476  1.7628  0.6643
 9290SOL     OW39328   0.165   2.320  14.002 -0.2645  0.5231 -0.6477
 9290SOL    HW139329   0.088   2.362  13.963 -0.3442  1.8668  0.9655
 9290SOL    HW239330   0.113   2.252  14.044 -0.3895 -0.5242 -2.4775
 9291SOL     OW39331   1.828   2.309   6.168 -0.2633  0.2337 -0.0317
 9291SOL    HW139332   1.853   2.223   6.201 -2.1089 -1.2176 -2.5007
 9291SOL    HW239333   1.733   2.302   6.162 -0.0440 -1.2535 -1.6605
 9292SOL     OW39334   1.506   3.387   1.376  0.3509 -0.0329 -0.0195
 9292SOL    HW139335   1.498   3.322   1.306 -1.4794 -0.8921  0.9816
 9292SOL    HW239336   1.420   3.410   1.412 -0.3575 -2.4251 -0.1722
 9293SOL     OW39337   2.894   2.690   6.474 -0.4995 -0.4590 -0.3450
 9293SOL    HW139338   2.923   2.627   6.539  0.3553  0.4297  0.1424
 9293SOL    HW239339   2.920   2.644   6.395  0.7461 -3.7340  2.0030
 9294SOL     OW39340   0.667   3.213   1.821  0.0910 -0.2911 -0.5950
 9294SOL    HW139341   0.727   3.155   1.867  0.1780  1.2822  1.3057
 9294SOL    HW239342   0.706   3.297   1.845  0.4976 -0.9114  0.9423
 9295SOL     OW39343   1.066   3.432  15.203  0.2466  0.5827 -0.5263
 9295SOL    HW139344   1.127   3.443  15.130 -0.4311 -1.7090 -1.4538
 9295SOL    HW239345   1.058   3.337  15.211  1.8923  0.7325  2.9146
 9296SOL     OW39346   3.659   3.666  12.102 -0.4884  0.2816 -0.3047
 9296SOL    HW139347   3.614   3.676  12.018 -0.0634 -2.8637 -0.9214
 9296SOL    HW239348   3.750   3.658  12.074 -1.2566 -1.4273 -2.3118
 9297SOL     OW39349   3.594   3.218  14.845  0.4659  0.5340 -0.4689
 9297SOL    HW139350   3.589   3.123  14.834  0.1678  0.2482  2.2692
 9297SOL    HW239351   3.569   3.244  14.756  0.1809  1.6408 -0.0557
 9298SOL     OW39352   0.726   0.424  17.423 -0.3772 -0.0565 -0.2221
 9298SOL    HW139353   0.722   0.506  17.374 -0.7686  0.0024 -0.0953
 9298SOL    HW239354   0.727   0.358  17.354 -0.6647  0.4056 -0.6729
 9299SOL     OW39355   3.367   3.626  17.080 -0.1493 -0.0060 -0.1900
 9299SOL    HW139356   3.395   3.570  17.152 -0.2786 -1.1335 -1.0174
 9299SOL    HW239357   3.450   3.650  17.038  0.8474 -1.5229  0.9069
 9300SOL     OW39358   1.885   2.100   2.974  0.0811  0.0751 -0.7894
 9300SOL    HW139359   1.942   2.025   2.954  1.5633  1.4680 -1.8433
 9300SOL    HW239360   1.953   2.151   3.018  0.1687  0.0450 -0.8903
 9301SOL     OW39361   2.479   0.008   4.504  0.0309 -0.0671 -0.0851
 9301SOL    HW139362   2.548   0.071   4.528 -0.4076  1.2731 -2.3739
 9301SOL    HW239363   2.419   0.065   4.455 -0.7474  0.1736  1.1578
 9302SOL     OW39364   1.946   3.778   2.969 -0.5719  0.2351 -0.6358
 9302SOL    HW139365   1.880   3.840   2.940 -1.7054  0.5462  2.6050
 9302SOL    HW239366   1.983   3.747   2.886 -1.1855  1.6799 -1.4477
 9303SOL     OW39367   2.007   4.244   1.057 -0.1769  0.2699  0.0485
 9303SOL    HW139368   1.996   4.338   1.071  0.1499  0.1336  1.1823
 9303SOL    HW239369   1.930   4.212   1.103  0.4164  0.4248  1.1404
 9304SOL     OW39370   1.574   2.636  15.011 -0.0280 -0.3604  0.2367
 9304SOL    HW139371   1.580   2.544  14.985  2.9893  0.0689 -0.5918
 9304SOL    HW239372   1.551   2.661  14.921  0.0381 -1.8199 -0.1881
 9305SOL     OW39373   2.076   0.088   8.192  0.4754  0.0021 -0.2492
 9305SOL    HW139374   2.024   0.156   8.149  1.5710 -0.5782 -2.4511
 9305SOL    HW239375   2.021   0.012   8.178  0.0660  0.6022 -1.9348
 9306SOL     OW39376   2.504   4.256   0.622  0.0630  0.5925 -0.1991
 9306SOL    HW139377   2.470   4.218   0.541 -1.7722 -0.3015  0.9918
 9306SOL    HW239378   2.429   4.287   0.673  1.5243  3.6349  0.1317
 9307SOL     OW39379   4.285   4.647   3.340  0.4617 -0.0661 -0.8605
 9307SOL    HW139380   4.335   0.005   3.342  0.4848 -0.1535  2.0895
 9307SOL    HW239381   4.300   4.615   3.429 -1.0873 -0.7343 -0.8336
 9308SOL     OW39382   3.624   1.764   9.668  0.6506  0.0410  0.9457
 9308SOL    HW139383   3.687   1.693   9.654 -1.5614 -1.8031  0.3386
 9308SOL    HW239384   3.623   1.804   9.581 -0.6831 -0.4438  0.7375
 9309SOL     OW39385   1.225   0.917   8.624 -0.0253  0.1475 -0.2683
 9309SOL    HW139386   1.211   0.834   8.669  2.1581 -0.0046  0.1212
 9309SOL    HW239387   1.173   0.983   8.670 -0.6558 -1.5315  1.4204
 9310SOL     OW39388   0.530   3.555   5.770  0.6168 -0.0805  0.3984
 9310SOL    HW139389   0.456   3.526   5.717  1.8833 -2.6392  0.0277
 9310SOL    HW239390   0.586   3.590   5.700  3.1267 -1.0612  1.9058
 9311SOL     OW39391   1.455   4.584   6.060  0.3435 -0.0912 -0.0007
 9311SOL    HW139392   1.433   4.567   6.152  0.4150 -4.0253 -0.7136
 9311SOL    HW239393   1.549   4.598   6.070  0.2203 -0.4177  1.7327
 9312SOL     OW39394   0.601   3.407   9.426  0.7588  0.4654  0.5443
 9312SOL    HW139395   0.652   3.486   9.408 -1.1270  1.9145  1.4775
 9312SOL    HW239396   0.510   3.438   9.416 -0.3633 -3.5135 -1.4273
 9313SOL     OW39397   3.136   1.268   2.615  0.3356  0.7331 -0.3346
 9313SOL    HW139398   3.191   1.202   2.572  1.6795  1.4568  0.2737
 9313SOL    HW239399   3.063   1.273   2.553 -0.5708  0.2055  0.6817
 9314SOL     OW39400   3.999   1.240   3.127  0.0055 -0.1801 -0.1683
 9314SOL    HW139401   4.062   1.304   3.093 -1.0032  0.7470 -0.2872
 9314SOL    HW239402   4.009   1.251   3.222 -1.3603 -2.2534  0.2267
 9315SOL     OW39403   0.466   2.968   6.034  0.0097 -0.3800 -0.3746
 9315SOL    HW139404   0.531   3.028   5.997 -1.2520  1.0596 -0.2348
 9315SOL    HW239405   0.462   2.997   6.126  1.3763 -0.1443 -0.3819
 9316SOL     OW39406   0.889   0.123   1.953  0.0579 -0.7900 -0.2742
 9316SOL    HW139407   0.820   0.095   1.894 -0.3840  0.4696 -0.3464
 9316SOL    HW239408   0.952   0.155   1.889  0.9288 -2.1132 -0.0875
 9317SOL     OW39409   1.039   3.592  13.032  0.5043  0.1849 -0.2498
 9317SOL    HW139410   1.045   3.684  13.005 -0.2485 -0.0252 -1.1137
 9317SOL    HW239411   0.969   3.567  12.972 -1.1033  0.2848  1.5679
 9318SOL     OW39412   0.522   0.028  17.334  0.1072 -0.1895  0.6718
 9318SOL    HW139413   0.512   0.049  17.241 -1.6545 -1.4429  0.5549
 9318SOL    HW239414   0.432   0.041  17.364  0.8532  4.2563  0.8806
 9319SOL     OW39415   1.770   1.910   6.115  0.6454 -0.3395  0.0624
 9319SOL    HW139416   1.736   1.823   6.136 -0.2943 -0.2707 -1.1906
 9319SOL    HW239417   1.774   1.897   6.020  2.0097  1.0500 -0.0759
 9320SOL     OW39418   2.731   2.105   4.388  0.0811 -0.4880 -0.5278
 9320SOL    HW139419   2.645   2.068   4.370 -1.0015  1.4978  0.5273
 9320SOL    HW239420   2.792   2.031   4.386 -0.0107 -0.4914 -2.7725
 9321SOL     OW39421   4.465   2.691   6.791 -0.2675  0.2504 -0.3604
 9321SOL    HW139422   4.520   2.680   6.869 -0.6511  0.8840 -0.0053
 9321SOL    HW239423   4.525   2.651   6.728 -0.9018 -0.4555 -0.5158
 9322SOL     OW39424   1.911   3.366   2.531  0.0927 -0.2270  0.5286
 9322SOL    HW139425   1.953   3.382   2.616 -2.2292  0.8264  1.4790
 9322SOL    HW239426   1.973   3.415   2.477  1.5595 -2.6357  0.0633
 9323SOL     OW39427   4.418   0.140   0.884 -0.0903 -0.6444 -0.4823
 9323SOL    HW139428   4.509   0.142   0.855 -0.0012 -0.3896 -0.1837
 9323SOL    HW239429   4.405   0.235   0.886  0.4407 -0.6185  1.3564
 9324SOL     OW39430   2.040   2.543   5.120  0.0827 -0.3259  0.0720
 9324SOL    HW139431   1.956   2.589   5.118 -0.6061 -1.5804 -0.0003
 9324SOL    HW239432   2.037   2.470   5.058  1.5745  0.7533 -1.2748
 9325SOL     OW39433   0.029   4.055  17.093  0.0029 -0.5089  0.1934
 9325SOL    HW139434   0.002   4.095  17.176 -1.4087 -0.9456 -0.0563
 9325SOL    HW239435   4.675   4.003  17.074 -0.8781  1.1505 -0.7667
 9326SOL     OW39436   2.855   3.649   2.519 -1.0665  0.0008 -0.2626
 9326SOL    HW139437   2.829   3.705   2.592 -2.3706 -0.7048 -0.2012
 9326SOL    HW239438   2.848   3.561   2.554 -0.0137  0.7531  1.8727
 9327SOL     OW39439   2.188   2.684  17.234  0.5719  0.0233  0.2702
 9327SOL    HW139440   2.150   2.732  17.308  2.1192 -0.6582  1.5020
 9327SOL    HW239441   2.113   2.643  17.191  0.0305 -0.2666  1.5029
 9328SOL     OW39442   1.601   4.452   7.979  0.0305 -0.0210  0.4367
 9328SOL    HW139443   1.633   4.449   8.069 -1.1348  1.8435  0.9260
 9328SOL    HW239444   1.597   4.362   7.947  0.1749  0.3467 -0.6133
 9329SOL     OW39445   0.842   2.767   1.519  0.3721 -0.4157 -0.1649
 9329SOL    HW139446   0.865   2.838   1.579 -1.0168  1.2420 -1.6368
 9329SOL    HW239447   0.907   2.788   1.452  0.5119  2.4493  0.8752
 9330SOL     OW39448   2.609   0.364   0.648 -0.0146 -0.4882 -0.7057
 9330SOL    HW139449   2.611   0.459   0.645 -2.4366 -0.4622 -1.1669
 9330SOL    HW239450   2.652   0.348   0.732 -0.1748  1.4336 -0.2743
 9331SOL     OW39451   2.221   1.063   7.618 -0.5288  0.6469  0.3350
 9331SOL    HW139452   2.152   1.115   7.660 -2.5061 -2.6709  1.2153
 9331SOL    HW239453   2.296   1.121   7.631 -0.7541  0.7422  1.2186
 9332SOL     OW39454   3.948   3.296  12.363  0.2253  0.2701  0.4379
 9332SOL    HW139455   3.891   3.372  12.360 -2.4064 -1.7614 -1.7274
 9332SOL    HW239456   4.013   3.321  12.429  0.6011 -0.0093  0.1716
 9333SOL     OW39457   1.929   3.690  11.103  0.0179  0.0945  0.7989
 9333SOL    HW139458   1.938   3.732  11.188 -0.5465  4.1302 -1.1355
 9333SOL    HW239459   1.872   3.754  11.061  1.2868 -1.3078 -3.0829
 9334SOL     OW39460   0.765   0.655   4.224 -0.7196 -0.1676  0.6775
 9334SOL    HW139461   0.700   0.604   4.176  1.7043 -1.5647 -1.1333
 9334SOL    HW239462   0.773   0.736   4.172 -0.0797 -0.0662  0.9321
 9335SOL     OW39463   0.083   4.661  14.957  0.0202 -0.1476  0.9524
 9335SOL    HW139464   0.176   4.651  14.936 -0.3965 -2.3849  0.1757
 9335SOL    HW239465   0.089   0.026  14.993  1.1717 -0.1401  0.7317
 9336SOL     OW39466   2.590   2.946  12.556  0.1498  0.1333 -0.0350
 9336SOL    HW139467   2.573   3.036  12.584  1.7947  0.9991 -1.7665
 9336SOL    HW239468   2.685   2.940  12.544  0.1454  0.6861 -0.3928
 9337SOL     OW39469   3.885   3.339   5.679  0.2432 -0.1997 -0.2149
 9337SOL    HW139470   3.922   3.417   5.636 -0.9169 -0.2095 -1.2161
 9337SOL    HW239471   3.838   3.304   5.604  1.2138  0.2177 -1.0248
 9338SOL     OW39472   0.785   3.343   5.419 -0.0515 -0.7737  0.0672
 9338SOL    HW139473   0.693   3.370   5.419  0.1251 -0.1629  0.1632
 9338SOL    HW239474   0.828   3.428   5.403 -1.8619 -0.1660 -1.5614
 9339SOL     OW39475   1.590   3.234   7.189 -0.2137 -0.4270  0.1058
 9339SOL    HW139476   1.626   3.322   7.202 -1.1433 -0.1235  0.6869
 9339SOL    HW239477   1.532   3.221   7.264 -0.3548 -1.7589 -0.2297
 9340SOL     OW39478   3.105   1.660   8.305 -0.6221  0.2972  0.0726
 9340SOL    HW139479   3.126   1.572   8.338  0.0706  0.5521  0.3153
 9340SOL    HW239480   3.041   1.690   8.369  0.9252  0.9279  1.3257
 9341SOL     OW39481   2.728   4.562  14.003 -0.4447  0.0886  0.1823
 9341SOL    HW139482   2.733   4.487  13.943 -3.3085 -0.1012  0.2129
 9341SOL    HW239483   2.814   4.554  14.045  0.1614  1.3378 -0.8098
 9342SOL     OW39484   0.992   2.367   6.612  0.3644 -0.3255 -0.2114
 9342SOL    HW139485   0.985   2.433   6.682 -0.7306  2.2162 -2.6923
 9342SOL    HW239486   0.914   2.383   6.559  0.0282  1.2330  0.7329
 9343SOL     OW39487   4.374   4.203   6.570  0.8564  0.0823 -0.4164
 9343SOL    HW139488   4.440   4.136   6.552  0.1984 -0.0518 -2.3169
 9343SOL    HW239489   4.421   4.276   6.530  2.0207 -0.0393  0.7176
 9344SOL     OW39490   0.690   4.591   4.855  0.3822  0.3265 -0.0046
 9344SOL    HW139491   0.601   4.561   4.870  0.8603 -0.5735  1.0658
 9344SOL    HW239492   0.706   4.531   4.782 -0.2923 -0.8496  0.8274
 9345SOL     OW39493   1.494   1.990   9.217 -0.2050 -0.0240 -0.0326
 9345SOL    HW139494   1.493   2.082   9.191 -0.3649 -0.2167 -0.6952
 9345SOL    HW239495   1.405   1.978   9.251  0.1256 -1.1199  0.4355
 9346SOL     OW39496   0.918   3.719   1.015 -0.3360  0.5175  0.5149
 9346SOL    HW139497   0.892   3.716   1.107 -1.4807 -0.6703  0.1542
 9346SOL    HW239498   0.832   3.723   0.973 -1.0473  0.1338  1.9310
 9347SOL     OW39499   3.553   3.502   3.727 -0.0585 -0.3121  0.0163
 9347SOL    HW139500   3.546   3.463   3.814 -0.1433 -1.6521 -0.5904
 9347SOL    HW239501   3.546   3.420   3.677 -1.6152  1.8604 -3.3626
 9348SOL     OW39502   4.162   1.261   6.621 -0.4074 -0.5419 -0.2246
 9348SOL    HW139503   4.151   1.234   6.530 -1.4638 -0.2881 -0.1618
 9348SOL    HW239504   4.123   1.183   6.661  0.4089 -0.9104 -0.1261
 9349SOL     OW39505   1.684   4.504   3.144  0.0474 -0.4237 -0.0619
 9349SOL    HW139506   1.654   4.470   3.229 -1.0408  1.6832  0.3888
 9349SOL    HW239507   1.642   4.590   3.150  0.8220 -0.2204  2.4863
 9350SOL     OW39508   1.060   3.020  13.366  0.0041  0.6444  0.2640
 9350SOL    HW139509   1.075   3.114  13.377 -0.4327  0.7426  0.0024
 9350SOL    HW239510   0.966   3.028  13.356 -0.3914 -1.2767  2.4448
 9351SOL     OW39511   0.872   0.289  12.746 -0.0013 -0.0690  0.1367
 9351SOL    HW139512   0.931   0.276  12.672  0.8606  0.2389  0.7729
 9351SOL    HW239513   0.844   0.206  12.784 -3.7869  1.7244  1.2028
 9352SOL     OW39514   2.020   3.494  17.626 -0.2675  0.1779  0.6188
 9352SOL    HW139515   1.954   3.424  17.624  0.4025 -0.5025  1.5861
 9352SOL    HW239516   1.990   3.543   0.006  0.0378  1.1649  0.1068
 9353SOL     OW39517   0.667   4.073  14.329  0.0854 -0.1276 -0.8499
 9353SOL    HW139518   0.739   4.028  14.284 -1.7727 -2.3413 -1.6139
 9353SOL    HW239519   0.654   4.155  14.282 -1.1788 -1.1767 -2.3442
 9354SOL     OW39520   0.934   3.780  13.964 -0.2601 -0.3909  0.3154
 9354SOL    HW139521   0.877   3.827  14.024 -0.0345  0.4447 -0.1233
 9354SOL    HW239522   1.002   3.847  13.954 -0.4464  0.0974  2.3674
 9355SOL     OW39523   0.292   4.584  13.173  0.3797  0.0677 -0.1409
 9355SOL    HW139524   0.339   4.511  13.133  0.4343 -0.3389  0.6556
 9355SOL    HW239525   0.238   4.533  13.233 -1.1988 -0.2398 -1.8314
 9356SOL     OW39526   0.534   2.023   3.121 -0.2105 -0.1535 -0.0296
 9356SOL    HW139527   0.487   2.077   3.058  1.6841  0.4612 -0.9171
 9356SOL    HW239528   0.562   2.098   3.173  0.3309  2.3092 -3.9083
 9357SOL     OW39529   3.001   0.626   5.733 -0.1606 -0.4614  0.9770
 9357SOL    HW139530   2.955   0.544   5.713 -0.2058 -0.6024  1.6472
 9357SOL    HW239531   3.087   0.604   5.699 -0.6535  0.8088 -1.0936
 9358SOL     OW39532   3.483   2.210  13.935 -0.3669  0.3391 -0.2898
 9358SOL    HW139533   3.469   2.119  13.910 -2.0093  0.1316  1.4025
 9358SOL    HW239534   3.578   2.206  13.946 -0.3850  2.2176  0.7072
 9359SOL     OW39535   3.989   1.074   6.703 -0.0328  0.3327 -0.3089
 9359SOL    HW139536   3.987   1.064   6.798 -2.3594  0.2293 -0.3744
 9359SOL    HW239537   3.899   1.103   6.687  0.3180  0.4846 -2.0830
 9360SOL     OW39538   2.761   1.148   7.284  0.1997  0.0095 -0.0036
 9360SOL    HW139539   2.834   1.137   7.224 -0.0513 -0.3247 -0.2491
 9360SOL    HW239540   2.732   1.061   7.256  0.9418 -0.5690  0.9974
 9361SOL     OW39541   1.776   3.978   2.828  0.0751  0.8349  0.7542
 9361SOL    HW139542   1.710   3.996   2.761  0.4324  0.9195  0.4259
 9361SOL    HW239543   1.722   4.000   2.904  2.1028  1.5543  2.0209
 9362SOL     OW39544   3.833   3.589   3.805  0.1488 -0.3338  0.1425
 9362SOL    HW139545   3.754   3.595   3.751 -0.0979  1.9132  0.7441
 9362SOL    HW239546   3.798   3.558   3.889  0.7881 -0.4730  0.3580
 9363SOL     OW39547   3.610   2.310  10.214 -0.1081  0.2934  0.4139
 9363SOL    HW139548   3.674   2.333  10.147 -0.9105  0.6206 -0.2367
 9363SOL    HW239549   3.648   2.361  10.287 -0.0565 -0.7564  1.1163
 9364SOL     OW39550   0.916   0.470   4.836  0.4313 -0.1938  0.3073
 9364SOL    HW139551   0.917   0.384   4.879  1.8275 -1.2463 -1.8174
 9364SOL    HW239552   0.958   0.455   4.751 -0.3685  1.0486 -0.3109
 9365SOL     OW39553   2.060   0.821  10.469  0.1356  0.2534  0.3082
 9365SOL    HW139554   2.079   0.907  10.430  1.5034  0.0371  0.4898
 9365SOL    HW239555   2.148   0.796  10.499  0.2465  0.4041  0.1141
 9366SOL     OW39556   1.354   1.775   1.091  0.7296  0.2016  0.2917
 9366SOL    HW139557   1.335   1.779   1.185 -0.8411 -0.8854  0.0304
 9366SOL    HW239558   1.268   1.778   1.049  1.8867 -1.2496 -2.1372
 9367SOL     OW39559   4.219   1.103   5.423 -0.2483  0.0455 -0.8563
 9367SOL    HW139560   4.275   1.069   5.493  1.0228  1.4294 -1.2019
 9367SOL    HW239561   4.179   1.183   5.459 -2.0670 -0.5163 -1.6011
 9368SOL     OW39562   0.689   0.196   5.573 -0.1294  0.0519 -0.7522
 9368SOL    HW139563   0.766   0.223   5.623 -0.9064 -0.1861  0.5879
 9368SOL    HW239564   0.631   0.182   5.648  0.6620 -1.8346 -0.4784
 9369SOL     OW39565   0.983   4.039   1.529 -0.3211 -0.4900  0.6031
 9369SOL    HW139566   0.907   3.995   1.490 -1.6651  1.5641  0.8887
 9369SOL    HW239567   1.050   3.985   1.489 -0.6972  2.0955 -3.5630
 9370SOL     OW39568   3.865   1.881  17.577 -0.2566 -0.0361 -0.2192
 9370SOL    HW139569   3.855   1.788  17.557  0.9551  0.4904 -3.2065
 9370SOL    HW239570   3.942   1.904  17.525  2.0378 -2.3493  2.1172
 9371SOL     OW39571   4.603   4.511   2.704 -0.1666 -0.4709  0.5889
 9371SOL    HW139572   4.676   4.563   2.738  1.3133  1.2910 -5.3193
 9371SOL    HW239573   4.562   4.490   2.788 -1.8583 -1.8023 -0.5550
 9372SOL     OW39574   2.889   4.222   2.370  0.7026 -0.3175 -0.3153
 9372SOL    HW139575   2.873   4.297   2.312 -2.2896  0.2400  1.2333
 9372SOL    HW239576   2.951   4.172   2.317  0.7016  0.2916 -0.8948
 9373SOL     OW39577   1.332   2.427   0.395 -0.0566  0.5165 -0.3865
 9373SOL    HW139578   1.317   2.499   0.456  0.6815 -0.3538  0.8212
 9373SOL    HW239579   1.360   2.482   0.321 -1.1585 -0.9254 -1.8691
 9374SOL     OW39580   2.269   1.397   0.732  0.6698  0.1888 -0.0837
 9374SOL    HW139581   2.333   1.414   0.664  1.8721 -0.6996  0.8344
 9374SOL    HW239582   2.290   1.305   0.744 -0.4616 -0.1180 -0.4470
 9375SOL     OW39583   1.045   4.388   9.104 -0.2236 -0.0338  0.4565
 9375SOL    HW139584   1.055   4.334   9.183 -0.5540  1.0055  1.2054
 9375SOL    HW239585   1.103   4.336   9.048  0.0091 -0.9975  1.5710
 9376SOL     OW39586   1.255   0.882   7.870 -0.0567  0.1669  0.5811
 9376SOL    HW139587   1.260   0.963   7.921  2.1988 -1.1527  2.4490
 9376SOL    HW239588   1.272   0.913   7.781 -0.4283 -1.7868 -0.1857
 9377SOL     OW39589   3.982   4.174   4.518 -0.5932  0.0139 -0.3199
 9377SOL    HW139590   4.035   4.099   4.492 -2.0292 -0.9157 -0.5279
 9377SOL    HW239591   3.893   4.138   4.516 -0.8360  0.5752  0.2730
 9378SOL     OW39592   2.804   3.383  17.413 -0.2146  0.6283 -0.2442
 9378SOL    HW139593   2.782   3.304  17.363 -2.7964  0.7600  0.6860
 9378SOL    HW239594   2.899   3.383  17.407 -0.1210  2.3598  1.1697
 9379SOL     OW39595   3.281   3.083   2.111 -0.3917 -0.2028  0.3698
 9379SOL    HW139596   3.268   3.078   2.205  1.2932  3.4409  0.8116
 9379SOL    HW239597   3.246   3.169   2.089  0.3584  0.2313  0.8449
 9380SOL     OW39598   2.569   2.634   3.696 -0.3588  0.2609  0.0284
 9380SOL    HW139599   2.485   2.679   3.683  0.0951  1.0595 -0.1146
 9380SOL    HW239600   2.542   2.567   3.759 -2.3692  1.2769  0.2723
 9381SOL     OW39601   0.241   3.632   5.028  0.1810 -0.0605  0.2548
 9381SOL    HW139602   0.276   3.707   5.077 -1.1547  1.6269 -1.3982
 9381SOL    HW239603   0.177   3.604   5.093 -0.7728  0.9737 -0.2249
 9382SOL     OW39604   3.293   4.602   5.256 -0.0557  0.2355 -0.4347
 9382SOL    HW139605   3.352   4.581   5.328  0.1792 -0.6501 -0.8716
 9382SOL    HW239606   3.356   4.629   5.190 -0.6448 -0.2718 -1.2130
 9383SOL     OW39607   2.881   2.469  15.679  0.0019 -0.0314 -0.0441
 9383SOL    HW139608   2.792   2.466  15.712  1.0812  3.4237  3.2019
 9383SOL    HW239609   2.919   2.536  15.736  1.1231 -0.0244 -0.7859
 9384SOL     OW39610   3.382   3.864   1.394  0.5397  0.3564 -0.9601
 9384SOL    HW139611   3.332   3.904   1.322  0.8095 -0.3321 -1.5245
 9384SOL    HW239612   3.406   3.938   1.449  1.6700 -0.7945  0.0785
 9385SOL     OW39613   0.495   4.258  10.661 -0.8517 -0.7787  0.1078
 9385SOL    HW139614   0.476   4.350  10.679 -2.1912 -1.0208 -0.1034
 9385SOL    HW239615   0.542   4.235  10.741  1.6197  1.1290 -0.7794
 9386SOL     OW39616   1.902   0.315   5.030  0.6870 -0.3397 -0.1436
 9386SOL    HW139617   1.953   0.306   5.110  0.2514 -0.1325  0.1583
 9386SOL    HW239618   1.811   0.328   5.060  0.8366 -1.0796  0.6178
 9387SOL     OW39619   4.209   2.390   5.765 -0.6007 -0.4487 -0.1481
 9387SOL    HW139620   4.154   2.313   5.781  0.4650 -1.3884 -0.9690
 9387SOL    HW239621   4.222   2.414   5.856 -1.3980 -3.4644  0.7715
 9388SOL     OW39622   1.903   2.651   5.439  0.1663  0.3697  0.3544
 9388SOL    HW139623   1.847   2.698   5.500 -2.3426 -0.1809 -1.5458
 9388SOL    HW239624   1.841   2.605   5.382 -0.4517  1.3412  0.2414
 9389SOL     OW39625   2.841   2.562   8.486 -0.3465  0.1540  0.4682
 9389SOL    HW139626   2.920   2.561   8.539  0.7655 -1.2233 -1.2270
 9389SOL    HW239627   2.871   2.629   8.424  1.5996  0.1574  1.4119
 9390SOL     OW39628   3.611   2.483  12.523  0.3566 -0.3360 -0.3727
 9390SOL    HW139629   3.687   2.497  12.580  0.6910  1.0962 -1.1596
 9390SOL    HW239630   3.566   2.567  12.535  1.9420  0.5525 -0.5734
 9391SOL     OW39631   3.904   1.662   3.249  0.2235  0.4612 -0.5922
 9391SOL    HW139632   3.952   1.730   3.202  0.4814  1.6588  1.3752
 9391SOL    HW239633   3.821   1.681   3.205 -0.1253  0.0974 -0.0892
 9392SOL     OW39634   3.781   2.240   0.809 -0.2493 -0.3154  0.5411
 9392SOL    HW139635   3.818   2.206   0.890  0.3432  0.1782  0.4811
 9392SOL    HW239636   3.843   2.207   0.744  0.1966  2.1364 -0.3010
 9393SOL     OW39637   0.830   3.553  11.476 -0.1326  0.0085  0.1513
 9393SOL    HW139638   0.793   3.641  11.487 -3.6364 -1.1645 -2.0473
 9393SOL    HW239639   0.816   3.504  11.557  0.2132  1.8398  1.3305
 9394SOL     OW39640   3.847   1.246   7.667 -0.0475  0.0496 -0.2030
 9394SOL    HW139641   3.823   1.177   7.605  0.3248 -0.9740  0.7900
 9394SOL    HW239642   3.935   1.212   7.681  0.1916  0.6805 -0.1919
 9395SOL     OW39643   3.699   2.695  17.427  0.1232 -0.2703 -0.6304
 9395SOL    HW139644   3.760   2.636  17.383 -0.9759 -0.4492 -1.9519
 9395SOL    HW239645   3.683   2.766  17.364  0.7658 -2.3370 -3.0919
 9396SOL     OW39646   3.335   2.608   2.293  0.5963  0.1440  0.2012
 9396SOL    HW139647   3.395   2.655   2.236  0.3976 -1.0621 -1.0006
 9396SOL    HW239648   3.376   2.525   2.317  0.7973  0.4840  1.0532
 9397SOL     OW39649   2.461   1.862  15.421 -0.1162 -0.3155 -0.0329
 9397SOL    HW139650   2.520   1.797  15.382  2.7414  2.2379  0.0349
 9397SOL    HW239651   2.415   1.800  15.477 -0.5823  0.4561  0.4418
 9398SOL     OW39652   2.481   0.864   2.711 -0.1123 -0.7311 -0.0215
 9398SOL    HW139653   2.503   0.957   2.713 -1.1604 -0.4810 -0.0180
 9398SOL    HW239654   2.428   0.858   2.790 -0.3952 -0.5358 -0.1944
 9399SOL     OW39655   3.323   3.235   7.861 -0.0403 -0.7799  0.4475
 9399SOL    HW139656   3.346   3.265   7.773 -0.9948  0.3196  0.5742
 9399SOL    HW239657   3.230   3.215   7.857 -0.1119 -0.0646 -1.3533
 9400SOL     OW39658   1.012   3.477   9.006  0.2052  0.3204 -0.0243
 9400SOL    HW139659   0.959   3.434   8.939 -0.3293  1.0520 -0.0759
 9400SOL    HW239660   1.085   3.415   9.005 -0.1932 -0.1501  0.5536
 9401SOL     OW39661   1.984   4.522   1.060 -0.0996  0.7899 -0.5617
 9401SOL    HW139662   1.930   4.578   1.116 -0.3514  1.2432 -1.2600
 9401SOL    HW239663   2.041   4.589   1.022  3.6836 -1.6907  0.7060
 9402SOL     OW39664   3.164   4.457   2.000  0.6498  0.8538 -0.1500
 9402SOL    HW139665   3.156   4.525   2.067 -1.4893 -2.4952  3.0471
 9402SOL    HW239666   3.089   4.398   2.016  3.2508 -1.9126  1.8730
 9403SOL     OW39667   0.696   4.433   7.616  0.0532  0.2179  0.6342
 9403SOL    HW139668   0.617   4.399   7.658 -0.6548 -0.3985 -1.2285
 9403SOL    HW239669   0.741   4.476   7.688 -1.2853 -1.3802  2.4434
 9404SOL     OW39670   3.043   1.955  14.658 -0.1241  0.1823  0.3809
 9404SOL    HW139671   3.101   1.881  14.674  1.7069  1.7711  1.0839
 9404SOL    HW239672   3.111   2.022  14.664  0.5698 -0.6435  1.6018
 9405SOL     OW39673   0.739   0.351   4.441  0.3096 -0.3687  0.1946
 9405SOL    HW139674   0.704   0.439   4.428 -1.5530 -1.2153 -0.4193
 9405SOL    HW239675   0.762   0.361   4.533 -0.6516 -1.0865  0.5048
 9406SOL     OW39676   3.721   1.634   3.800 -0.2995 -0.4211 -0.7980
 9406SOL    HW139677   3.777   1.565   3.763  1.0182  0.1918  0.0188
 9406SOL    HW239678   3.765   1.709   3.760  2.5674 -1.9796 -0.6387
 9407SOL     OW39679   0.095   1.379  13.455 -0.2636  0.4448  0.0712
 9407SOL    HW139680   0.083   1.459  13.506  2.6305  0.5751  0.5717
 9407SOL    HW239681   0.060   1.317  13.520 -1.9691  1.9598  0.5967
 9408SOL     OW39682   0.174   3.209   0.720 -0.4648 -0.6225 -0.1540
 9408SOL    HW139683   0.180   3.301   0.743 -0.1063 -1.0204  1.3670
 9408SOL    HW239684   0.127   3.211   0.637 -1.7359 -1.0360  0.5574
 9409SOL     OW39685   4.674   3.769   7.360 -0.0156  0.3135 -0.3018
 9409SOL    HW139686   4.594   3.717   7.365 -1.8998  3.0808 -1.6554
 9409SOL    HW239687   4.646   3.854   7.394 -1.5030 -0.3411  0.0965
 9410SOL     OW39688   3.785   0.016   8.717 -0.2018  0.3324 -0.0855
 9410SOL    HW139689   3.853   4.693   8.668  0.5311  1.0742  0.2287
 9410SOL    HW239690   3.835   0.091   8.748 -0.3716  0.3699  0.1010
 9411SOL     OW39691   4.173   4.697   4.558 -0.0240 -0.3921  0.8179
 9411SOL    HW139692   4.134   0.060   4.568  2.1508  0.6833  0.0655
 9411SOL    HW239693   4.233   4.691   4.633  3.2978  1.4013 -1.6823
 9412SOL     OW39694   1.607   2.046   1.492 -0.3168  0.2815  0.3389
 9412SOL    HW139695   1.671   2.008   1.552 -1.7186  0.8278  2.1683
 9412SOL    HW239696   1.672   2.064   1.424  0.2513 -0.4177  0.7000
 9413SOL     OW39697   2.184   4.271   3.853  0.4000 -0.1959 -0.4065
 9413SOL    HW139698   2.187   4.245   3.945 -1.4415 -0.3576 -0.3870
 9413SOL    HW239699   2.142   4.199   3.807  0.1456 -1.2736  1.5289
 9414SOL     OW39700   0.599   1.896   6.872 -0.5938 -0.2857 -0.1827
 9414SOL    HW139701   0.648   1.858   6.799  0.1445 -1.1426  0.7587
 9414SOL    HW239702   0.652   1.865   6.945  0.3649 -0.5447 -0.9816
 9415SOL     OW39703   1.623   4.473   1.779 -0.5155 -0.3858  0.5497
 9415SOL    HW139704   1.604   4.472   1.685 -0.4812 -0.5257  0.5438
 9415SOL    HW239705   1.602   4.559   1.815 -0.4491 -0.1672  0.0633
 9416SOL     OW39706   0.640   0.243   7.212 -0.2089 -0.4637 -0.4511
 9416SOL    HW139707   0.634   0.223   7.118  1.1647 -3.1711  0.0459
 9416SOL    HW239708   0.613   0.156   7.241 -0.2339 -0.2121  0.2697
 9417SOL     OW39709   4.510   0.428   1.342 -0.3491 -0.2775 -0.1427
 9417SOL    HW139710   4.451   0.498   1.369 -0.0394 -0.6046  1.4268
 9417SOL    HW239711   4.461   0.383   1.274 -1.1232 -3.1974  2.3528
 9418SOL     OW39712   0.668   4.345   8.459  0.3697 -0.0111  0.2945
 9418SOL    HW139713   0.695   4.384   8.375 -0.4007  0.8689  0.4671
 9418SOL    HW239714   0.722   4.265   8.455 -0.5658 -0.7145  1.9440
 9419SOL     OW39715   1.203   0.737   4.373  0.4567 -0.3036 -0.0949
 9419SOL    HW139716   1.193   0.643   4.359 -0.0343 -0.1109 -1.0339
 9419SOL    HW239717   1.110   0.757   4.381  0.0084 -1.1651 -3.4331
 9420SOL     OW39718   3.385   0.469   2.899  0.5516 -0.5782  0.1196
 9420SOL    HW139719   3.373   0.455   2.805 -1.4980  1.7912  0.0550
 9420SOL    HW239720   3.479   0.473   2.921  0.2420  0.9632  1.2257
 9421SOL     OW39721   2.803   2.081  16.645  0.2021 -0.2396  0.1930
 9421SOL    HW139722   2.743   2.024  16.596 -0.9762  0.7119  0.5146
 9421SOL    HW239723   2.765   2.164  16.616 -1.0374 -0.4237  1.3007
 9422SOL     OW39724   1.288   1.540  16.382 -0.7388  0.0878  0.3342
 9422SOL    HW139725   1.216   1.509  16.327  0.7119  1.2830 -2.2208
 9422SOL    HW239726   1.254   1.541  16.472 -1.7417 -1.7323 -0.0432
 9423SOL     OW39727   4.507   0.770  16.852 -0.2765 -0.0734  0.9061
 9423SOL    HW139728   4.554   0.845  16.888  0.5436  0.3463 -1.0334
 9423SOL    HW239729   4.421   0.803  16.829 -1.6845 -2.0804  3.2574
 9424SOL     OW39730   0.821   1.490   8.772 -0.5805 -0.9031  0.4092
 9424SOL    HW139731   0.821   1.417   8.709 -2.3479 -0.3612 -0.2053
 9424SOL    HW239732   0.910   1.475   8.803 -0.6200 -1.3860  0.2980
 9425SOL     OW39733   2.505   3.477  12.990  0.2231 -0.0270  0.3361
 9425SOL    HW139734   2.587   3.495  13.035  0.9983 -0.5087 -0.9064
 9425SOL    HW239735   2.471   3.394  13.023 -0.3851 -0.4271 -1.2854
 9426SOL     OW39736   3.234   1.184   1.133 -0.5290 -0.1061  0.2461
 9426SOL    HW139737   3.298   1.228   1.189 -2.2638  0.1089  2.0722
 9426SOL    HW239738   3.258   1.092   1.135  0.6480  0.1799 -1.0964
 9427SOL     OW39739   1.281   2.023   3.403  0.2855 -0.2184 -0.2872
 9427SOL    HW139740   1.266   2.074   3.323 -2.8506  0.9280  1.0656
 9427SOL    HW239741   1.199   2.038   3.449 -0.7090 -0.5712 -1.9511
 9428SOL     OW39742   3.177   3.595   6.722 -0.0207  0.4338 -0.0258
 9428SOL    HW139743   3.195   3.526   6.659  0.2428  0.0077  0.5098
 9428SOL    HW239744   3.261   3.606   6.767 -0.6183  1.0732  0.9471
 9429SOL     OW39745   4.526   0.148   5.748 -0.1238  0.2874  0.4604
 9429SOL    HW139746   4.454   0.086   5.739 -0.4725  0.7053  0.3850
 9429SOL    HW239747   4.589   0.120   5.681 -0.2006  0.6582  0.2280
 9430SOL     OW39748   3.883   1.353  16.307  0.3766 -0.1424  0.0717
 9430SOL    HW139749   3.935   1.275  16.285  1.5478  1.1291 -1.6998
 9430SOL    HW239750   3.933   1.423  16.265 -0.4748  1.5440  1.8597
 9431SOL     OW39751   1.823   0.356   8.581  0.4709 -0.3146  0.2929
 9431SOL    HW139752   1.867   0.369   8.497 -0.5371  1.8335  0.1051
 9431SOL    HW239753   1.766   0.284   8.554 -2.0540  2.0738 -0.7357
 9432SOL     OW39754   1.255   2.221  12.577  0.4228  0.2986  0.9993
 9432SOL    HW139755   1.237   2.177  12.660  1.9020 -0.7872  0.7379
 9432SOL    HW239756   1.323   2.281  12.606  0.7462 -0.0858  1.0417
 9433SOL     OW39757   1.820   2.034  13.321 -0.1439  0.0181  0.1206
 9433SOL    HW139758   1.765   2.011  13.246 -1.0313 -4.2708  2.0962
 9433SOL    HW239759   1.888   2.081  13.274 -1.2704  1.9269  0.4073
 9434SOL     OW39760   1.597   0.024   7.839 -0.1470 -0.0876  0.1364
 9434SOL    HW139761   1.567   0.115   7.830 -1.4989 -0.7600 -2.1089
 9434SOL    HW239762   1.604   0.020   7.934  2.2117 -1.7366 -0.1355
 9435SOL     OW39763   4.656   2.197   6.278  0.1124 -0.5180  0.1919
 9435SOL    HW139764   4.679   2.107   6.301 -0.6381 -0.2475  2.0061
 9435SOL    HW239765   4.645   2.183   6.184  0.5765 -0.9912  0.2081
 9436SOL     OW39766   3.683   3.685  15.489  0.2608  0.0463  0.1757
 9436SOL    HW139767   3.745   3.756  15.501 -0.4576  0.9385 -1.4362
 9436SOL    HW239768   3.715   3.657  15.404  2.5622 -0.2013  1.1283
 9437SOL     OW39769   2.798   0.672   9.106 -0.0071 -0.0612 -0.2098
 9437SOL    HW139770   2.732   0.608   9.132  0.7227 -0.3332  0.9663
 9437SOL    HW239771   2.746   0.752   9.100  1.0222  0.6226  0.0052
 9438SOL     OW39772   1.433   2.702   3.073 -0.2052  0.8454 -0.1897
 9438SOL    HW139773   1.484   2.676   3.150  1.2171  1.1987 -1.0100
 9438SOL    HW239774   1.501   2.757   3.033  1.0148 -1.0950 -0.8181
 9439SOL     OW39775   2.104   0.597  11.602  0.0652 -0.5953 -0.5410
 9439SOL    HW139776   2.088   0.679  11.556 -1.7597 -1.6939 -1.8764
 9439SOL    HW239777   2.084   0.533  11.534  1.6422 -1.5109 -0.1272
 9440SOL     OW39778   1.919   2.933  10.132 -0.0913 -0.7830  0.5331
 9440SOL    HW139779   1.831   2.900  10.113  0.5955 -2.0949 -0.3377
 9440SOL    HW239780   1.921   2.922  10.227  0.9291 -0.1522  0.5896
 9441SOL     OW39781   3.100   3.585  15.914  0.3870  0.5657 -0.6428
 9441SOL    HW139782   3.022   3.606  15.966  0.6643 -0.0036  0.0055
 9441SOL    HW239783   3.160   3.546  15.978  0.3601  3.0874  0.9478
 9442SOL     OW39784   1.132   2.216   0.389 -0.3395 -0.3042 -0.2234
 9442SOL    HW139785   1.164   2.142   0.440  0.9238  0.9972  0.8779
 9442SOL    HW239786   1.206   2.276   0.400 -0.4331 -0.5813  1.8843
 9443SOL     OW39787   3.075   4.669  10.137 -0.8158  0.0709  0.2258
 9443SOL    HW139788   3.053   0.004  10.209 -2.5525 -0.4559  0.1421
 9443SOL    HW239789   3.077   4.583  10.179 -0.5402 -0.6526 -1.2549
 9444SOL     OW39790   2.154   4.212   5.970 -0.1936 -0.3431 -0.4454
 9444SOL    HW139791   2.070   4.202   6.015  0.0822  1.1550  0.4154
 9444SOL    HW239792   2.207   4.145   6.012 -0.9763 -0.0021  1.1228
 9445SOL     OW39793   3.062   2.595   8.070 -0.0011 -0.0109 -0.1542
 9445SOL    HW139794   3.070   2.500   8.067  0.7247  0.0307  0.6586
 9445SOL    HW239795   3.070   2.619   7.977  0.5936  0.0061 -0.1009
 9446SOL     OW39796   2.392   1.374   5.644 -0.4021  0.0534 -0.3655
 9446SOL    HW139797   2.312   1.325   5.659 -0.6626  0.7021  0.3533
 9446SOL    HW239798   2.454   1.311   5.683  1.5729  1.5817 -1.0246
 9447SOL     OW39799   2.191   1.525   6.411 -0.3247  0.7662  0.2634
 9447SOL    HW139800   2.262   1.586   6.392  0.2175  0.1561  0.2977
 9447SOL    HW239801   2.242   1.443   6.407 -0.7882  0.5540 -1.3000
 9448SOL     OW39802   0.438   1.146   2.684 -0.2547  0.5406  0.0747
 9448SOL    HW139803   0.458   1.118   2.773 -1.7607  1.2101  0.6160
 9448SOL    HW239804   0.518   1.115   2.643  0.1546 -1.2268  2.1985
 9449SOL     OW39805   2.268   4.468   5.913 -0.6175  0.4147  0.1202
 9449SOL    HW139806   2.196   4.482   5.975  0.7763  2.2098  1.3203
 9449SOL    HW239807   2.252   4.374   5.907  1.1646  0.0471  1.0891
 9450SOL     OW39808   2.672   2.420   4.749 -0.0817  0.0602  0.2910
 9450SOL    HW139809   2.593   2.384   4.790  0.0739 -0.5579  0.0423
 9450SOL    HW239810   2.669   2.385   4.660  0.7696 -0.9310  0.6566
 9451SOL     OW39811   1.482   0.877  16.852  0.8564  0.2704 -0.5966
 9451SOL    HW139812   1.443   0.798  16.889 -0.2259  1.2900  0.4784
 9451SOL    HW239813   1.438   0.944  16.905  0.8891  0.2112 -0.4948
 9452SOL     OW39814   1.873   1.193   1.944 -0.1697 -0.1154  0.3543
 9452SOL    HW139815   1.931   1.198   1.868 -2.5310 -1.4001 -1.5258
 9452SOL    HW239816   1.893   1.107   1.980 -0.9568 -1.2375 -1.8487
 9453SOL     OW39817   2.745   3.888  15.303 -0.1585 -0.2628  0.3534
 9453SOL    HW139818   2.837   3.915  15.297 -0.3852  0.5638  0.5686
 9453SOL    HW239819   2.735   3.819  15.238  1.0009  1.2975 -1.4551
 9454SOL     OW39820   3.490   4.265  17.517  0.5435 -0.0515 -0.0835
 9454SOL    HW139821   3.539   4.236  17.440  1.1977 -3.3023  1.5373
 9454SOL    HW239822   3.412   4.305  17.480  1.7073  1.7671 -0.5653
 9455SOL     OW39823   4.702   2.995   5.800  0.0253 -0.1951 -0.2355
 9455SOL    HW139824   4.687   2.968   5.891 -2.1852  2.0675  0.0928
 9455SOL    HW239825   0.073   2.992   5.794  0.0658  0.6104  0.0479
 9456SOL     OW39826   4.713   1.641   4.226  0.4726 -0.4347 -0.1475
 9456SOL    HW139827   4.660   1.573   4.185  0.3391  0.9001 -2.1869
 9456SOL    HW239828   0.076   1.601   4.218  0.0233 -0.8827 -2.6979
 9457SOL     OW39829   1.484   3.852   5.166 -0.0629  0.5390  0.2604
 9457SOL    HW139830   1.515   3.891   5.084 -0.2663 -1.4134 -0.7356
 9457SOL    HW239831   1.476   3.928   5.224  0.5557  0.4432  0.4720
 9458SOL     OW39832   0.607   1.637   9.238  0.2626 -0.0626  0.1142
 9458SOL    HW139833   0.559   1.719   9.247  2.8956  1.4999 -0.1661
 9458SOL    HW239834   0.656   1.647   9.156 -0.5158 -2.4135 -0.6529
 9459SOL     OW39835   1.670   3.235   5.757  0.2200 -0.5307  0.0956
 9459SOL    HW139836   1.634   3.172   5.693  1.2918 -2.0555  1.0083
 9459SOL    HW239837   1.737   3.274   5.702 -0.0999 -2.8054 -1.9095
 9460SOL     OW39838   4.685   2.619  16.387 -0.0851  0.4071 -1.0284
 9460SOL    HW139839   4.660   2.542  16.439 -0.3405 -0.4801 -2.4649
 9460SOL    HW239840   0.050   2.585  16.378  0.4146  0.3997  3.8521
 9461SOL     OW39841   3.072   3.526   0.777 -0.0789  0.0922 -0.1651
 9461SOL    HW139842   3.028   3.610   0.766 -0.0621  0.1616  0.3158
 9461SOL    HW239843   2.998   3.468   0.794  0.4486 -0.3635  0.6019
 9462SOL     OW39844   3.081   3.100  14.734 -0.7055  0.3375  0.0027
 9462SOL    HW139845   3.045   3.061  14.655  1.2593  0.8033 -1.1056
 9462SOL    HW239846   3.018   3.171  14.750 -1.2775  0.0022 -0.8124
 9463SOL     OW39847   0.689   3.474  16.112 -0.3894  0.1046  0.0220
 9463SOL    HW139848   0.684   3.555  16.061  1.3365  0.6016  0.6720
 9463SOL    HW239849   0.602   3.440  16.089 -0.6939  0.3052  0.8561
 9464SOL     OW39850   3.670   4.137   6.395 -0.4047  0.2129  0.8503
 9464SOL    HW139851   3.724   4.169   6.323  0.1763  0.9159  1.5943
 9464SOL    HW239852   3.635   4.221   6.424  0.5002  0.7378  0.4013
 9465SOL     OW39853   1.849   0.384  15.347  0.2844  0.3722  0.2530
 9465SOL    HW139854   1.812   0.396  15.259 -0.5509 -1.9546  0.2781
 9465SOL    HW239855   1.779   0.335  15.390 -0.5342  0.6367 -0.7893
 9466SOL     OW39856   4.407   0.539   6.882  0.6235 -0.1409  0.5051
 9466SOL    HW139857   4.329   0.484   6.881  1.0972 -0.8308  1.2211
 9466SOL    HW239858   4.447   0.496   6.958 -0.0432  3.0617  2.6329
 9467SOL     OW39859   3.699   2.237   2.910 -0.4721 -0.0996 -0.4153
 9467SOL    HW139860   3.659   2.189   2.837 -2.1571  2.1263 -0.9792
 9467SOL    HW239861   3.686   2.327   2.881 -0.0524 -0.3376 -1.3385
 9468SOL     OW39862   2.296   2.244   2.380  0.1659 -0.3969  0.2003
 9468SOL    HW139863   2.229   2.176   2.368  1.4303 -1.0958 -2.9849
 9468SOL    HW239864   2.368   2.197   2.420 -0.1006 -0.6507  0.3840
 9469SOL     OW39865   1.535   1.736  14.645  0.3750  0.1139 -0.4368
 9469SOL    HW139866   1.469   1.806  14.644  2.6525  2.2747  1.6276
 9469SOL    HW239867   1.611   1.784  14.676  0.0486 -1.6419  3.1143
 9470SOL     OW39868   2.106   2.868   1.045  0.0204 -0.2649 -0.0457
 9470SOL    HW139869   2.115   2.953   1.002  1.8190 -0.1848  0.4793
 9470SOL    HW239870   2.198   2.851   1.066 -0.0471 -1.0544 -0.4157
 9471SOL     OW39871   4.692   3.355   6.261  0.1603  0.1176 -0.3157
 9471SOL    HW139872   0.024   3.346   6.183 -0.0307 -0.3806 -0.3945
 9471SOL    HW239873   4.704   3.266   6.295 -1.2800  0.4509  1.0717
 9472SOL     OW39874   4.183   3.159   9.406  0.0647  0.1397 -0.0511
 9472SOL    HW139875   4.235   3.205   9.340  2.2242  1.5970  2.6402
 9472SOL    HW239876   4.218   3.070   9.400  2.0308  0.8785  0.3764
 9473SOL     OW39877   1.686   4.663   8.297  0.0203 -0.5198  1.2074
 9473SOL    HW139878   1.623   4.592   8.309 -2.0017  1.1222  0.1928
 9473SOL    HW239879   1.636   4.708   8.229 -1.4561 -0.6803  2.1968
 9474SOL     OW39880   3.069   2.826  16.283  0.4673 -0.0461  0.4633
 9474SOL    HW139881   3.110   2.740  16.289 -0.2062 -0.4943 -1.1990
 9474SOL    HW239882   3.023   2.807  16.201  1.0577 -1.9421  0.5650
 9475SOL     OW39883   4.293   1.600   4.505  0.0080  0.1484 -0.2602
 9475SOL    HW139884   4.320   1.531   4.566  0.2126 -0.6740 -1.2653
 9475SOL    HW239885   4.229   1.649   4.555  1.6379  1.8113  0.1960
 9476SOL     OW39886   2.844   1.160   9.602 -0.0388 -0.0918  0.2438
 9476SOL    HW139887   2.883   1.076   9.577 -0.3037 -0.9235  2.6187
 9476SOL    HW239888   2.882   1.165   9.690 -0.4422 -0.9100  0.4553
 9477SOL     OW39889   4.419   4.326   5.565 -0.1351 -0.3678  0.4611
 9477SOL    HW139890   4.469   4.399   5.528  0.2882 -0.7483  0.2800
 9477SOL    HW239891   4.335   4.371   5.574  0.5753  1.0250  0.2515
 9478SOL     OW39892   1.015   0.903  14.451 -0.3651  0.0312 -0.0304
 9478SOL    HW139893   1.040   0.969  14.515  2.0483 -1.0929  0.1715
 9478SOL    HW239894   0.923   0.884  14.470 -0.4312  0.7296  0.3203
 9479SOL     OW39895   1.284   4.587   5.245  0.1416  0.2156 -0.3380
 9479SOL    HW139896   1.304   4.598   5.338  1.1815  0.3665 -0.5748
 9479SOL    HW239897   1.193   4.558   5.252 -0.4218  1.5826 -2.2924
 9480SOL     OW39898   4.199   2.077   8.432  0.2440  0.0490  0.0330
 9480SOL    HW139899   4.166   2.047   8.516 -0.1234  1.9434  0.5644
 9480SOL    HW239900   4.245   1.998   8.403 -0.5246  0.5440 -2.5557
 9481SOL     OW39901   1.098   4.597  12.712 -0.7786  0.0648  0.9289
 9481SOL    HW139902   1.181   4.550  12.713 -0.4752  0.5998  0.7855
 9481SOL    HW239903   1.114   4.656  12.786 -0.0951 -0.5504  1.2681
 9482SOL     OW39904   3.083   3.619  12.261  0.1471 -0.0007  0.7340
 9482SOL    HW139905   3.095   3.579  12.175 -1.1532  2.6763 -0.6919
 9482SOL    HW239906   3.100   3.550  12.325  1.0467 -0.6191 -0.1661
 9483SOL     OW39907   4.270   1.417   3.848 -0.5343  0.5397  0.1173
 9483SOL    HW139908   4.197   1.374   3.802  0.2118 -1.8195  1.1529
 9483SOL    HW239909   4.303   1.350   3.907 -0.8122 -1.0797 -1.5481
 9484SOL     OW39910   0.252   0.493   8.261 -0.6929 -0.4992 -0.3324
 9484SOL    HW139911   0.315   0.540   8.315 -0.8385  0.4191 -0.9691
 9484SOL    HW239912   0.168   0.522   8.295 -0.8277  0.5602 -1.5642
 9485SOL     OW39913   0.912   0.073   7.812 -0.1615  0.0538 -0.3534
 9485SOL    HW139914   0.970   0.097   7.884  2.0428 -2.1515 -1.4049
 9485SOL    HW239915   0.907   4.701   7.815  1.9114 -0.0485 -0.3986
 9486SOL     OW39916   0.833   4.357   6.772  0.0476 -0.5009 -0.8917
 9486SOL    HW139917   0.871   4.289   6.827 -2.3581  0.4149  1.9663
 9486SOL    HW239918   0.890   4.432   6.788 -1.1511  0.8060 -2.7886
 9487SOL     OW39919   2.063   3.770   2.717  0.5420  0.1176  0.4994
 9487SOL    HW139920   1.982   3.776   2.666  1.0502 -1.7814 -0.5074
 9487SOL    HW239921   2.121   3.732   2.652 -1.7057  0.1577 -1.5128
 9488SOL     OW39922   2.547   3.735   1.285  1.0525 -0.7861  0.8195
 9488SOL    HW139923   2.619   3.696   1.335  1.9923 -0.2102 -0.0709
 9488SOL    HW239924   2.493   3.657   1.268  0.1254  0.2452 -0.9768
 9489SOL     OW39925   0.791   4.487  11.797 -0.3000  0.0623  0.5125
 9489SOL    HW139926   0.809   4.400  11.832  0.5270 -0.1948 -0.5643
 9489SOL    HW239927   0.696   4.479  11.806 -0.6309  1.7599 -1.5334
 9490SOL     OW39928   1.298   4.069   1.324  0.0963 -0.7439  0.3283
 9490SOL    HW139929   1.289   4.163   1.306 -2.8397 -0.8198  1.4454
 9490SOL    HW239930   1.356   4.046   1.252 -1.2597 -0.9266 -0.7020
 9491SOL     OW39931   3.743   4.583   6.276  0.5276  0.3449 -0.1102
 9491SOL    HW139932   3.705   4.671   6.279 -0.3809  0.1127 -5.2921
 9491SOL    HW239933   3.830   4.597   6.314 -0.0015 -0.5865  1.4578
 9492SOL     OW39934   3.297   2.011   6.475  0.1311 -0.1719  0.3531
 9492SOL    HW139935   3.369   2.069   6.449 -0.8644  0.5342 -0.8066
 9492SOL    HW239936   3.346   1.930   6.486  0.1701 -0.2719 -0.5765
 9493SOL     OW39937   4.602   4.109   3.813  0.0041 -0.3771  0.2366
 9493SOL    HW139938   4.657   4.096   3.890 -1.9890 -0.3411  1.6697
 9493SOL    HW239939   4.517   4.094   3.855  0.2103 -0.2274  0.7117
 9494SOL     OW39940   0.323   1.472  15.016  0.6840 -0.5439  0.2632
 9494SOL    HW139941   0.291   1.486  15.105 -0.0130 -1.3209  0.1370
 9494SOL    HW239942   0.243   1.432  14.981  0.9142 -1.3801  0.7000
 9495SOL     OW39943   2.291   2.538   8.187 -0.0630 -0.3741  0.1570
 9495SOL    HW139944   2.225   2.576   8.129  0.0696 -0.5327 -0.0976
 9495SOL    HW239945   2.351   2.489   8.131 -1.5950 -3.2038  1.0029
 9496SOL     OW39946   3.339   3.229   6.072  0.3206  0.4133 -0.3952
 9496SOL    HW139947   3.338   3.196   5.982  1.6141  1.7865 -0.9058
 9496SOL    HW239948   3.423   3.274   6.079 -0.0816  0.9988  0.5653
 9497SOL     OW39949   3.519   1.633  14.383 -0.3075 -0.0768  0.2141
 9497SOL    HW139950   3.547   1.628  14.475  1.0302  1.1951 -0.1284
 9497SOL    HW239951   3.593   1.592  14.338 -0.2561  0.3178 -0.0649
 9498SOL     OW39952   0.665   2.726  17.201  0.2119 -0.7474 -0.5144
 9498SOL    HW139953   0.590   2.710  17.144  0.1778 -1.3631 -0.2902
 9498SOL    HW239954   0.625   2.721  17.289  1.6749 -2.2862  0.0476
 9499SOL     OW39955   1.494   1.573  16.603 -0.1121 -0.3915 -0.0146
 9499SOL    HW139956   1.487   1.669  16.598  0.7174 -0.4360 -2.1610
 9499SOL    HW239957   1.426   1.557  16.669  0.4415 -2.0417  0.1404
 9500SOL     OW39958   0.274   1.649   2.031 -0.4602  0.4057 -0.0217
 9500SOL    HW139959   0.315   1.661   1.945 -1.7121  2.0691 -0.3774
 9500SOL    HW239960   0.245   1.558   2.025 -0.5881  0.2688  2.8167
 9501SOL     OW39961   4.576   3.585   2.525  0.0103  0.1664  0.4042
 9501SOL    HW139962   4.603   3.613   2.437 -2.3420 -0.6715 -0.5756
 9501SOL    HW239963   4.603   3.494   2.537  1.2205  0.5402  0.5978
 9502SOL     OW39964   2.909   0.343  15.082  0.4238 -0.0730  0.2342
 9502SOL    HW139965   2.940   0.427  15.049 -1.3996  1.1929  1.7697
 9502SOL    HW239966   2.949   0.271  15.033  0.5137 -0.2203  0.5245
 9503SOL     OW39967   1.999   1.579   7.346 -0.0608  0.5630  0.5162
 9503SOL    HW139968   1.937   1.515   7.310  0.7186 -1.0155  1.9546
 9503SOL    HW239969   1.955   1.602   7.427  0.0631  0.7428  0.5328
 9504SOL     OW39970   3.982   2.112   0.343 -0.2229 -0.5448  0.3870
 9504SOL    HW139971   3.916   2.069   0.289 -0.9892 -0.8515  1.5723
 9504SOL    HW239972   3.986   2.199   0.302  0.6014 -1.4199 -1.4058
 9505SOL     OW39973   3.172   1.572   2.387 -0.2300  0.3343  0.3579
 9505SOL    HW139974   3.194   1.665   2.374 -0.9542  0.8531  2.9557
 9505SOL    HW239975   3.164   1.557   2.481 -0.4376  0.4855  0.3628
 9506SOL     OW39976   0.757   2.498   5.853 -0.5778  0.0866 -0.1173
 9506SOL    HW139977   0.693   2.569   5.845 -1.0207 -0.3743 -0.7019
 9506SOL    HW239978   0.770   2.496   5.759  0.1173  2.6668 -0.0767
 9507SOL     OW39979   4.706   3.944   7.755 -0.2260 -0.4113  0.3797
 9507SOL    HW139980   0.067   3.974   7.788  0.9738 -2.5386 -0.8489
 9507SOL    HW239981   4.664   3.896   7.827 -1.9864  1.0138  0.3032
 9508SOL     OW39982   1.196   4.523   9.872  0.3467  0.1925 -1.0715
 9508SOL    HW139983   1.195   4.437   9.829  1.6074 -0.7834  0.8786
 9508SOL    HW239984   1.101   4.534   9.871  0.3048  0.1192  0.9898
 9509SOL     OW39985   0.408   3.324  15.788  0.6390 -0.2777  0.1827
 9509SOL    HW139986   0.411   3.291  15.698 -0.9516  0.3261 -0.0919
 9509SOL    HW239987   0.405   3.244  15.842 -0.6192 -0.6087 -0.3637
 9510SOL     OW39988   3.542   1.338   6.724 -0.2534 -0.2144 -0.5287
 9510SOL    HW139989   3.611   1.279   6.695 -0.0624 -1.1743  1.9369
 9510SOL    HW239990   3.507   1.357   6.636 -1.2121  0.2219 -0.0590
 9511SOL     OW39991   0.771   2.757   4.934  0.3481  0.7392 -0.1254
 9511SOL    HW139992   0.864   2.743   4.919  0.5446  1.7223  0.1422
 9511SOL    HW239993   0.761   2.842   4.890 -1.6345  1.7793  2.2665
 9512SOL     OW39994   1.758   4.400  12.883  0.5352 -0.0638 -0.2404
 9512SOL    HW139995   1.846   4.363  12.889  1.1200  1.4883  0.7868
 9512SOL    HW239996   1.767   4.474  12.823 -0.2463 -0.1793 -0.5030
 9513SOL     OW39997   1.705   0.286   2.501 -0.1567 -0.1131 -0.8815
 9513SOL    HW139998   1.615   0.261   2.478 -0.9042 -0.3847  2.3373
 9513SOL    HW239999   1.707   0.229   2.578 -0.3720  0.4060 -0.4892
 9514SOL     OW40000   2.223   0.266   1.693  0.4714  0.2663 -0.4344
 9514SOL    HW140001   2.211   0.236   1.603  0.3747  1.0905 -0.6994
 9514SOL    HW240002   2.275   0.346   1.685 -0.3375  1.0665  2.0866
 9515SOL     OW40003   3.791   3.878  16.944 -0.6892  0.3057  0.9397
 9515SOL    HW140004   3.788   3.973  16.951  1.5690  0.4964 -0.5073
 9515SOL    HW240005   3.851   3.877  16.869  0.7694 -0.8346  2.1147
 9516SOL     OW40006   3.641   0.639  16.551 -0.1371 -0.0845  0.6116
 9516SOL    HW140007   3.686   0.562  16.515  0.7867  1.4093 -1.4537
 9516SOL    HW240008   3.628   0.623  16.644  0.2959 -1.1306  0.4893
 9517SOL     OW40009   3.971   3.100   6.599 -0.2988 -0.4288  0.5523
 9517SOL    HW140010   3.976   3.196   6.595 -2.7593 -0.3653 -1.0964
 9517SOL    HW240011   3.900   3.088   6.535 -1.4079  0.3547  1.6424
 9518SOL     OW40012   0.339   1.805   8.133 -0.3046  0.0680 -0.5982
 9518SOL    HW140013   0.261   1.860   8.132 -0.9675 -0.8576  0.7883
 9518SOL    HW240014   0.407   1.867   8.161 -1.7468  0.0457  2.9313
 9519SOL     OW40015   0.700   3.266  16.452 -0.4895 -0.4385 -0.0481
 9519SOL    HW140016   0.761   3.339  16.441 -1.7344  0.6730  0.4371
 9519SOL    HW240017   0.689   3.226  16.366  0.8163 -1.1704  0.1165
 9520SOL     OW40018   2.172   1.980   9.250  0.5835  0.5054 -0.0631
 9520SOL    HW140019   2.091   2.004   9.206 -0.6251 -0.8560  1.4165
 9520SOL    HW240020   2.215   2.062   9.272  0.9716  0.1356  0.5667
 9521SOL     OW40021   3.605   2.909   2.522  0.8110 -0.6408 -0.4289
 9521SOL    HW140022   3.566   2.903   2.435 -1.1565  0.1784  0.3928
 9521SOL    HW240023   3.649   2.994   2.524 -0.3691 -0.0055 -1.3609
 9522SOL     OW40024   2.067   0.958   6.943  0.0641  0.3377 -0.5583
 9522SOL    HW140025   2.029   0.964   6.855  0.9539  0.9718 -0.8985
 9522SOL    HW240026   2.014   1.022   6.991  2.2315  0.0896  2.1733
 9523SOL     OW40027   0.020   3.264   5.004  0.0906  0.2588 -0.5173
 9523SOL    HW140028   4.694   3.183   5.010  1.9306 -0.7093  1.7747
 9523SOL    HW240029   0.071   3.259   5.085  2.3077 -1.6002 -2.0422
 9524SOL     OW40030   3.162   0.401  13.704 -0.1524  0.0730  0.2642
 9524SOL    HW140031   3.124   0.489  13.708 -0.8635 -0.3055  2.2781
 9524SOL    HW240032   3.230   0.415  13.639  1.0028  2.3344  1.9634
 9525SOL     OW40033   2.983   0.684   7.754 -0.3970 -0.0942  0.4622
 9525SOL    HW140034   3.076   0.681   7.777 -0.6382 -0.4580  1.4090
 9525SOL    HW240035   2.959   0.591   7.754 -0.1894 -0.1447 -0.0318
 9526SOL     OW40036   0.815   3.163   9.086 -0.5259 -0.9826 -0.0201
 9526SOL    HW140037   0.820   3.070   9.063 -2.2934 -0.7998 -1.1802
 9526SOL    HW240038   0.888   3.179   9.145 -0.1868  0.2893 -0.7823
 9527SOL     OW40039   2.788   0.746   4.378  0.1948  0.5170 -0.5202
 9527SOL    HW140040   2.828   0.659   4.374 -2.6442 -0.7453 -1.3247
 9527SOL    HW240041   2.701   0.738   4.340  0.0541 -0.3855  0.0147
 9528SOL     OW40042   2.844   2.318  11.520  0.2543  0.0118  0.2613
 9528SOL    HW140043   2.925   2.349  11.559  0.9039 -1.7075  0.2731
 9528SOL    HW240044   2.786   2.378  11.567 -0.8816 -0.8950  0.0356
 9529SOL     OW40045   1.049   1.795  12.017  0.3639  0.3343 -0.0849
 9529SOL    HW140046   1.060   1.870  11.959  2.5815 -0.7722 -1.1084
 9529SOL    HW240047   1.140   1.767  12.026 -0.2857 -2.3166 -1.4834
 9530SOL     OW40048   4.153   1.232   7.691 -0.3421  0.5890 -0.8148
 9530SOL    HW140049   4.151   1.151   7.640 -1.8428 -0.3962  0.8306
 9530SOL    HW240050   4.168   1.191   7.776 -2.7810  0.0408 -0.6375
 9531SOL     OW40051   1.709   1.995   3.154  0.3167 -0.3800 -0.4761
 9531SOL    HW140052   1.637   2.052   3.183  0.9189  0.6636 -1.0039
 9531SOL    HW240053   1.754   2.050   3.089  0.7450 -1.5850 -1.1837
 9532SOL     OW40054   0.083   1.178   5.708 -0.3569 -0.6168 -0.2669
 9532SOL    HW140055   0.037   1.261   5.695  1.0664 -0.0728 -1.8229
 9532SOL    HW240056   0.019   1.130   5.760 -0.5462  1.4779  1.4609
 9533SOL     OW40057   2.440   2.034   0.512 -0.3242  0.1674  0.6823
 9533SOL    HW140058   2.385   2.025   0.434  0.6604  1.6930 -0.2010
 9533SOL    HW240059   2.390   2.100   0.559  0.6959  1.0086  0.5923
 9534SOL     OW40060   1.521   3.079  16.517  0.0587  0.0018 -0.1681
 9534SOL    HW140061   1.540   3.116  16.431  0.8864  0.6027  0.2829
 9534SOL    HW240062   1.469   3.004  16.487  2.2434 -1.8816  0.7824
 9535SOL     OW40063   0.487   2.658   7.840 -0.4889  0.3215 -0.1035
 9535SOL    HW140064   0.426   2.728   7.819 -1.1794 -0.3213 -0.2652
 9535SOL    HW240065   0.529   2.640   7.756 -1.3623  1.7846 -0.8533
 9536SOL     OW40066   1.969   2.782   7.727 -0.5147 -0.3453  0.2104
 9536SOL    HW140067   2.045   2.726   7.738  0.6558  0.4788 -3.6630
 9536SOL    HW240068   2.014   2.854   7.684 -0.0823 -0.8407 -0.1549
 9537SOL     OW40069   2.349   3.473   6.102 -0.3373  0.2783  0.0612
 9537SOL    HW140070   2.277   3.447   6.045 -1.3570 -1.3795  2.0563
 9537SOL    HW240071   2.377   3.385   6.129 -1.0617 -0.0766 -0.3647
 9538SOL     OW40072   2.460   2.578   7.036 -0.4432 -0.3979 -0.4910
 9538SOL    HW140073   2.428   2.597   7.124  0.8654  1.7516 -0.4701
 9538SOL    HW240074   2.402   2.629   6.981 -0.1749 -0.6948 -1.0510
 9539SOL     OW40075   0.020   3.994   4.009 -0.0769 -0.1379 -0.5574
 9539SOL    HW140076   0.020   4.004   4.104 -2.0424 -1.3655 -0.4173
 9539SOL    HW240077   4.705   3.907   4.007  0.1458 -0.1927 -2.7817
 9540SOL     OW40078   3.418   2.347   2.326  0.3462  0.1966 -0.2336
 9540SOL    HW140079   3.502   2.325   2.286  0.3013  0.0597 -0.2551
 9540SOL    HW240080   3.367   2.277   2.284 -0.4940 -0.4872  1.9435
 9541SOL     OW40081   2.594   0.252   5.559  0.0170 -0.2289 -0.3281
 9541SOL    HW140082   2.620   0.161   5.570  0.4822 -0.1818 -1.0275
 9541SOL    HW240083   2.504   0.236   5.588 -0.0232  1.5285  0.5398
 9542SOL     OW40084   1.189   0.523   6.188  0.5036  0.1587 -0.3639
 9542SOL    HW140085   1.275   0.551   6.217 -1.2196  3.8670  1.1242
 9542SOL    HW240086   1.132   0.564   6.252 -0.7060  1.8090 -2.4824
 9543SOL     OW40087   2.931   4.625   5.249 -0.2407 -1.1586  0.1288
 9543SOL    HW140088   2.976   4.682   5.187  2.8976 -2.3830  1.2426
 9543SOL    HW240089   2.873   4.684   5.297  0.3490 -0.6634  0.2334
 9544SOL     OW40090   2.348   2.242   9.858  0.7207  0.3832 -0.3679
 9544SOL    HW140091   2.354   2.146   9.856  0.2479  0.3482 -0.1364
 9544SOL    HW240092   2.389   2.254   9.944 -1.5395  1.1950  0.5831
 9545SOL     OW40093   4.250   2.453   8.082  0.2803 -0.1831 -0.0295
 9545SOL    HW140094   4.194   2.393   8.032  1.6753 -1.4492 -0.0707
 9545SOL    HW240095   4.294   2.388   8.137  0.0903  0.0415  0.3891
 9546SOL     OW40096   1.672   0.339   8.168 -0.0729  0.5374  0.6514
 9546SOL    HW140097   1.730   0.358   8.241 -0.7689  0.5526  1.1951
 9546SOL    HW240098   1.597   0.393   8.191  0.3210  2.0689 -1.5955
 9547SOL     OW40099   4.723   1.281   9.095  0.8255  0.2092 -0.0766
 9547SOL    HW140100   0.070   1.223   9.123  0.0277 -0.5779  0.2966
 9547SOL    HW240101   4.719   1.254   9.003 -0.6742  1.6723 -0.4420
 9548SOL     OW40102   3.994   3.986   7.539 -0.8925 -0.0187 -0.2084
 9548SOL    HW140103   3.962   4.033   7.462 -1.0646 -0.3721 -0.3523
 9548SOL    HW240104   4.064   3.945   7.489  1.5206  1.5954  1.8231
 9549SOL     OW40105   2.901   0.268  10.539  0.4916  0.1224 -0.4258
 9549SOL    HW140106   2.844   0.217  10.596  0.8252  0.8555  0.5735
 9549SOL    HW240107   2.855   0.351  10.553 -1.7590 -1.1888 -0.0099
 9550SOL     OW40108   0.693   3.227   7.207 -0.4183  0.1100  0.0430
 9550SOL    HW140109   0.702   3.292   7.137  0.7594  0.3996  0.4716
 9550SOL    HW240110   0.731   3.267   7.285  0.3600  1.4315 -1.0227
 9551SOL     OW40111   2.233   1.315   3.243  0.0607 -0.5992 -0.3547
 9551SOL    HW140112   2.278   1.314   3.328  0.1770  4.3473 -0.3449
 9551SOL    HW240113   2.296   1.279   3.181 -1.9892 -3.0308 -1.0075
 9552SOL     OW40114   2.849   0.336   5.073 -0.1817  0.7050  0.4279
 9552SOL    HW140115   2.786   0.379   5.015  0.5318 -0.2639 -1.0353
 9552SOL    HW240116   2.795   0.330   5.152  0.1598 -0.5245  0.5616
 9553SOL     OW40117   2.017   1.216   9.266  0.0326  0.1134  0.5378
 9553SOL    HW140118   1.956   1.261   9.324 -1.4667 -1.3367  0.0976
 9553SOL    HW240119   1.951   1.171   9.213  0.9228 -1.0231  0.3898
 9554SOL     OW40120   0.575   1.269   3.161  0.0404  0.5955 -0.3236
 9554SOL    HW140121   0.602   1.360   3.158  1.1667  0.3007  0.5116
 9554SOL    HW240122   0.481   1.283   3.171 -0.3755 -1.8125 -0.6760
 9555SOL     OW40123   3.768   4.493  11.960 -0.1760 -0.1405 -0.2866
 9555SOL    HW140124   3.763   4.401  11.985  1.8327 -0.1725  0.0055
 9555SOL    HW240125   3.854   4.508  12.000  1.2753 -1.7660 -2.8340
 9556SOL     OW40126   4.245   4.277  16.471 -0.2390  0.2719  0.6495
 9556SOL    HW140127   4.264   4.369  16.490 -1.0470  0.1499  2.0802
 9556SOL    HW240128   4.324   4.239  16.432 -1.5766 -0.9066 -0.8932
 9557SOL     OW40129   3.804   0.556   5.858  0.2381 -0.4227 -0.4649
 9557SOL    HW140130   3.748   0.553   5.936 -0.7723 -2.2042 -1.2663
 9557SOL    HW240131   3.809   0.647   5.830 -0.5943  0.1859  1.3618
 9558SOL     OW40132   2.421   3.367   4.004  0.6366 -0.6241 -0.1480
 9558SOL    HW140133   2.485   3.429   4.041  0.0949 -0.3555  0.3370
 9558SOL    HW240134   2.476   3.296   3.971  1.8340  0.3068 -0.1983
 9559SOL     OW40135   4.083   3.686   2.841 -0.5958  0.0612 -0.3304
 9559SOL    HW140136   4.041   3.694   2.926 -1.0149  0.2372 -0.5536
 9559SOL    HW240137   4.167   3.645   2.861  0.5560  3.1120  1.0430
 9560SOL     OW40138   2.477   2.730   5.432 -0.2181  0.8526  0.2864
 9560SOL    HW140139   2.553   2.684   5.399  1.5052  2.2937  2.2061
 9560SOL    HW240140   2.428   2.776   5.364  1.2633  3.2476  0.8314
 9561SOL     OW40141   4.666   4.325   9.201  0.0939 -0.5668 -0.0813
 9561SOL    HW140142   4.652   4.365   9.287 -0.7704  0.3311 -0.6342
 9561SOL    HW240143   4.578   4.334   9.165  1.2659 -1.0238 -3.0460
 9562SOL     OW40144   2.500   1.831  14.399 -0.1787 -0.2900  0.6452
 9562SOL    HW140145   2.561   1.834  14.472  0.4110  2.1519  0.0439
 9562SOL    HW240146   2.534   1.766  14.337  2.2656 -0.5708  2.3128
 9563SOL     OW40147   0.688   2.315  12.073 -0.0665 -0.1300  0.4723
 9563SOL    HW140148   0.717   2.404  12.096 -2.6962  0.8446  0.0188
 9563SOL    HW240149   0.636   2.338  11.996  1.4149  0.2819 -0.3902
 9564SOL     OW40150   1.978   3.152  16.473 -0.5759  0.0759 -0.3733
 9564SOL    HW140151   1.974   3.057  16.470 -0.5530  0.0657 -0.0557
 9564SOL    HW240152   1.920   3.166  16.548 -2.8295  3.2990 -2.7405
 9565SOL     OW40153   2.328   3.584   3.625  0.0368 -0.1507  0.2013
 9565SOL    HW140154   2.416   3.618   3.610  0.3078 -0.7747  0.3573
 9565SOL    HW240155   2.316   3.596   3.719 -2.2628 -1.5954  0.1210
   4.72378   4.72378  17.69682
