Membrane in water
40155
    1TCq1    O1    1   2.675   3.579  11.090  0.0972 -0.3917  0.3141
    1TCq1    C1    2   2.750   3.521  11.189  0.1723  0.6205 -0.0724
    1TCq1    O2    3   2.868   3.545  11.212 -0.2772  0.0388 -0.0832
    1TCq1    C2    4   2.691   3.394  11.209  0.4149 -0.0955  0.1792
    1TCq1    C3    5   2.767   3.290  11.189 -0.1998 -0.1596  0.7305
    1TCq1    C4    6   2.713   3.175  11.144  0.3482  0.2083 -0.0898
    1TCq1    C5    7   2.578   3.169  11.119  0.5440  0.5076 -0.0836
    1TCq1    C6    8   2.497   3.280  11.144 -0.2244 -0.1148 -0.0112
    1TCq1    C7    9   2.557   3.394  11.190  0.3374 -0.0778  0.4405
    1TCq1    C8   10   2.369   3.248  11.195  0.1539  0.4924  0.1897
    1TCq1    O4   11   2.339   3.307  11.294  0.4640  0.2493 -0.3223
    1TCq1    C9   12   2.791   3.062  11.118 -0.3092 -0.3531  0.3753
    1TCq1    O5   13   2.723   2.958  11.107  0.0738  0.2945  1.1599
    1TCq1    O6   14   2.912   3.071  11.144 -0.0169 -0.1932  0.2055
    1TCq1    H1   15   2.583   3.547  11.093 -0.1229  0.0927 -1.3801
    1TCq1    H2   16   2.874   3.292  11.205  0.2890  1.8196 -2.7330
    1TCq1    H3   17   2.540   3.075  11.079  1.7539 -0.1446  0.3057
    1TCq1    H4   18   2.502   3.482  11.219  0.1865 -0.2269  0.6040
    2MPD2     C   19   2.016   2.890  11.292  0.1939  0.2311 -0.4889
    2MPD2    C1   20   2.081   2.977  11.374 -0.0924 -0.0494  1.0288
    2MPD2    C2   21   2.165   3.073  11.322  0.3883  0.0067  0.0010
    2MPD2    C3   22   2.198   3.066  11.191 -0.6506 -0.2892  0.1003
    2MPD2    C4   23   2.129   2.978  11.110 -1.1507  0.5026 -0.7687
    2MPD2    C5   24   2.035   2.887  11.157  0.5962  0.6432 -0.0371
    2MPD2     H   25   2.220   3.137  11.390  0.0361 -1.6862  1.9035
    2MPD2    H1   26   2.145   2.983  11.003 -0.4126 -2.4021 -0.8121
    2MPD2    H2   27   1.941   2.827  11.338  0.4702  1.9312  2.2551
    2MPD2    H3   28   1.983   2.833  11.079  1.5132  3.6384 -2.7270
    2MPD2     N   29   2.307   3.138  11.141 -0.1931  0.7611 -0.0125
    2MPD2    H5   30   2.345   3.112  11.051 -0.4831  1.2865 -0.2856
    2MPD2    N1   31   2.058   2.975  11.514 -0.7889  0.1952 -0.3946
    2MPD2    H7   32   2.090   3.051  11.573  1.3602 -0.8857 -0.1694
    3TCq1    O1   33   1.703   4.435  10.587  0.1443  0.5256 -0.1217
    3TCq1    C1   34   1.755   4.549  10.640 -0.6062  0.1241  0.0437
    3TCq1    O2   35   1.863   4.594  10.617 -0.6957  0.3569  0.1323
    3TCq1    C2   36   1.637   4.630  10.672  0.2110 -0.1781  0.9809
    3TCq1    C3   37   1.669   0.040  10.692  0.2843  0.7977  0.2367
    3TCq1    C4   38   1.580   0.126  10.754  0.3341  0.2854 -0.1179
    3TCq1    C5   39   1.460   0.083  10.792  1.3492 -0.0434  0.0382
    3TCq1    C6   40   1.431   4.675  10.767 -0.0475  0.4038  0.1571
    3TCq1    C7   41   1.519   4.589  10.708 -0.7359 -0.7472 -0.5445
    3TCq1    C8   42   1.332   4.614  10.849  0.4413 -0.0590  0.5951
    3TCq1    O4   43   1.300   4.504  10.812 -0.6002  0.4820 -0.4574
    3TCq1    C9   44   1.612   0.265  10.768 -0.8279 -0.5595  0.2264
    3TCq1    O5   45   1.534   0.346  10.825 -0.5926  0.1688  0.1776
    3TCq1    O6   46   1.725   0.295  10.719  0.1537  0.2618 -0.2826
    3TCq1    H1   47   1.613   4.411  10.615  0.2420  0.6861  0.3318
    3TCq1    H2   48   1.771   0.070  10.670 -0.5451  1.8184 -2.2296
    3TCq1    H3   49   1.393   0.153  10.841  0.8241 -0.6194  0.1326
    3TCq1    H4   50   1.498   4.483  10.708 -0.9821 -0.6969 -1.0908
    4MPD2     C   51   1.001   4.628  11.246 -0.6381 -0.1814 -0.0037
    4MPD2    C1   52   1.098   0.002  11.266 -0.2097 -0.2436  0.5030
    4MPD2    C2   53   1.202   0.013  11.175 -0.5878  0.2200  0.3388
    4MPD2    C3   54   1.208   4.657  11.062 -0.3341 -0.6390 -0.5870
    4MPD2    C4   55   1.107   4.564  11.040 -0.2640 -0.2273  0.6006
    4MPD2    C5   56   1.013   4.543  11.138 -0.4705 -0.4017  0.0452
    4MPD2     H   57   1.288   0.080  11.181  0.0534 -0.5907  0.1817
    4MPD2    H1   58   1.104   4.505  10.950  0.9123  0.0126  0.3995
    4MPD2    H2   59   0.906   4.631  11.297  0.7624 -1.4090  2.6880
    4MPD2    H3   60   0.933   4.472  11.117  0.1322 -0.8118 -0.8208
    4MPD2     N   61   1.317   4.680  10.974  0.7874  0.5101 -0.9917
    4MPD2    H5   62   1.375   0.036  10.996  1.4105  0.1605 -1.3411
    4MPD2    N1   63   1.099   0.090  11.376 -0.5587  0.2519  0.2479
    4MPD2    H7   64   1.165   0.167  11.380  0.9345 -0.9053 -2.5546
    5TCq1    O1   65   2.544   1.460  12.319 -0.3981  0.1511 -0.3837
    5TCq1    C1   66   2.569   1.467  12.184  0.2847 -0.3683 -0.4467
    5TCq1    O2   67   2.679   1.485  12.136 -0.1296  0.1968  0.2863
    5TCq1    C2   68   2.448   1.433  12.110 -0.5351  0.6464 -1.3613
    5TCq1    C3   69   2.322   1.453  12.168 -0.5355  0.7335 -0.5641
    5TCq1    C4   70   2.221   1.423  12.085  0.1632  0.9181  0.5882
    5TCq1    C5   71   2.241   1.387  11.958 -0.5172  0.0341  0.1317
    5TCq1    C6   72   2.368   1.384  11.902 -0.0138 -0.0759 -0.0019
    5TCq1    C7   73   2.473   1.391  11.984  0.5811  0.4780  0.1120
    5TCq1    C8   74   2.384   1.326  11.762  0.8487 -0.2155 -0.2304
    5TCq1    O4   75   2.499   1.308  11.727 -0.0949  0.1467 -0.2551
    5TCq1    C9   76   2.088   1.414  12.147 -0.4869 -0.7602  0.0555
    5TCq1    O5   77   2.076   1.458  12.260 -0.5898  0.0698 -0.2116
    5TCq1    O6   78   1.996   1.353  12.086 -0.1921 -0.3873 -0.0042
    5TCq1    H1   79   2.468   1.406  12.350  0.5597 -2.3021 -2.2750
    5TCq1    H2   80   2.305   1.494  12.267 -1.2453  2.0620 -1.2297
    5TCq1    H3   81   2.149   1.367  11.903 -0.1274  1.3466 -0.9936
    5TCq1    H4   82   2.572   1.403  11.940 -0.5926  0.1782 -2.6464
    6MPD2     C   83   2.144   1.250  11.493  0.3073  0.1952 -0.1741
    6MPD2    C1   84   2.263   1.251  11.558  0.3236 -0.3973 -0.1969
    6MPD2    C2   85   2.371   1.210  11.488 -0.1014  0.5997  0.6343
    6MPD2    C3   86   2.360   1.177  11.351  0.4796  0.2381 -0.4358
    6MPD2    C4   87   2.238   1.172  11.289  0.3945 -0.0805  0.3639
    6MPD2    C5   88   2.129   1.208  11.363  0.2715 -0.6122  0.1281
    6MPD2     H   89   2.471   1.209  11.532 -0.8299 -0.3475  2.2834
    6MPD2    H1   90   2.216   1.124  11.194 -1.3068  2.5056 -0.5532
    6MPD2    H2   91   2.053   1.277  11.545  2.2091  0.8026  2.8697
    6MPD2    H3   92   2.032   1.212  11.316 -0.2565 -2.2173  1.0584
    6MPD2     N   93   2.475   1.124  11.289 -0.0443 -0.6476  0.2021
    6MPD2    H5   94   2.552   1.123  11.356  1.1240  2.9597 -1.1109
    6MPD2    N1   95   2.267   1.309  11.691  0.3263 -0.0442 -0.2800
    6MPD2    H7   96   2.185   1.336  11.745  1.2208  1.2897  0.4126
    7TCq1    O1   97   4.109   1.247  13.699  0.3886  0.2091  0.4728
    7TCq1    C1   98   4.170   1.276  13.577  0.1551  0.6048 -0.1469
    7TCq1    O2   99   4.242   1.372  13.556  0.0889 -0.3640  0.0438
    7TCq1    C2  100   4.199   1.148  13.512 -0.0521 -0.0742  0.1114
    7TCq1    C3  101   4.148   1.128  13.391 -0.1357 -0.3652  0.1149
    7TCq1    C4  102   4.134   1.000  13.343 -0.0832 -0.5811  0.0069
    7TCq1    C5  103   4.174   0.889  13.417  0.1566 -0.3126 -0.8054
    7TCq1    C6  104   4.232   0.916  13.533  0.8201  0.0258 -0.1738
    7TCq1    C7  105   4.249   1.046  13.587 -0.4318  0.0376 -0.2939
    7TCq1    C8  106   4.276   0.800  13.603 -0.2382 -0.3270  0.0600
    7TCq1    O4  107   4.297   0.703  13.533 -0.1966 -0.2638  1.1231
    7TCq1    C9  108   4.059   0.983  13.223 -0.3093  0.7066  0.3851
    7TCq1    O5  109   4.057   1.077  13.137 -0.1652 -0.1426 -0.4186
    7TCq1    O6  110   3.979   0.887  13.226  0.2433 -0.3043 -0.3834
    7TCq1    H1  111   4.048   1.171  13.686  0.7934  0.0693 -0.6044
    7TCq1    H2  112   4.131   1.216  13.330  2.4835  0.2518  0.2758
    7TCq1    H3  113   4.147   0.788  13.388  1.2265 -0.4846 -1.2041
    7TCq1    H4  114   4.290   1.065  13.685  1.2842 -0.3726 -0.9307
    8MPD2     C  115   4.430   0.560  14.030  0.0702  0.6297 -0.1809
    8MPD2    C1  116   4.393   0.502  13.910  0.3211 -0.3407  0.4877
    8MPD2    C2  117   4.357   0.586  13.806 -1.1678  0.6039  0.1926
    8MPD2    C3  118   4.328   0.722  13.837 -0.3522 -0.1672 -0.3417
    8MPD2    C4  119   4.338   0.772  13.968 -0.5565 -0.2938  0.8159
    8MPD2    C5  120   4.394   0.682  14.055  0.1167 -0.8228  0.5503
    8MPD2     H  121   4.350   0.542  13.708 -0.1280  0.2372  0.2768
    8MPD2    H1  122   4.318   0.876  13.992 -2.4390 -1.0267  2.4823
    8MPD2    H2  123   4.470   0.507  14.116  0.5673  1.9418  0.3863
    8MPD2    H3  124   4.423   0.723  14.152 -1.8509  0.9668  0.3849
    8MPD2     N  125   4.286   0.817  13.739 -0.6275 -0.1647  0.3929
    8MPD2    H5  126   4.261   0.908  13.776 -1.8128 -1.5556  3.0342
    8MPD2    N1  127   4.409   0.358  13.909  0.1518  0.2198  0.9599
    8MPD2    H7  128   4.432   0.315  13.999  1.4046 -0.7923  0.1592
    9TCq1    O1  129   1.789   0.414  11.480  0.7607  0.2951 -0.7460
    9TCq1    C1  130   1.881   0.379  11.388  0.5142  0.6056  0.8269
    9TCq1    O2  131   1.953   0.459  11.328 -0.6250  0.2126  0.6612
    9TCq1    C2  132   1.892   0.233  11.382  0.2500  0.1852 -0.1630
    9TCq1    C3  133   2.014   0.182  11.331  0.1436  0.7832  0.5241
    9TCq1    C4  134   2.043   0.050  11.346  0.1979 -0.4831 -0.1448
    9TCq1    C5  135   1.959   4.691  11.407 -1.1490  0.1495  0.6394
    9TCq1    C6  136   1.840   0.016  11.456  0.2816 -0.4734 -0.0972
    9TCq1    C7  137   1.799   0.145  11.438 -0.4432  0.7774 -0.2867
    9TCq1    C8  138   1.753   4.657  11.544  0.3357  0.5542  0.6561
    9TCq1    O4  139   1.648   4.709  11.584  0.1680 -0.3820  0.0206
    9TCq1    C9  140   2.181   0.012  11.306  0.3844  0.3716 -0.6250
    9TCq1    O5  141   2.255   0.101  11.250  0.0041 -0.1478 -0.1636
    9TCq1    O6  142   2.230   4.630  11.348 -0.1188  0.2348  0.0235
    9TCq1    H1  143   1.758   0.332  11.524  0.2787  0.2603 -1.1525
    9TCq1    H2  144   2.085   0.256  11.296 -1.7321  2.1910 -0.3706
    9TCq1    H3  145   1.990   4.590  11.428 -2.9895 -0.1236  2.0072
    9TCq1    H4  146   1.695   0.172  11.459 -1.3354  0.1798 -3.9365
   10MPD2     C  147   1.636   4.476  11.740 -0.3745 -0.8515  0.3546
   10MPD2    C1  148   1.765   4.463  11.691 -0.4687  0.1020  0.2799
   10MPD2    C2  149   1.846   4.371  11.744 -0.3013 -0.3755 -0.0103
   10MPD2    C3  150   1.806   4.281  11.842  0.6825  0.2272 -0.0135
   10MPD2    C4  151   1.677   4.292  11.893 -0.0228  0.0128 -0.5631
   10MPD2    C5  152   1.597   4.395  11.845  0.0064  0.3172  0.1491
   10MPD2     H  153   1.944   4.361  11.697  0.3949  1.7046  0.9952
   10MPD2    H1  154   1.640   4.230  11.974 -0.1402 -0.5560 -1.0543
   10MPD2    H2  155   1.562   4.540  11.694 -2.4437 -1.7836  2.3708
   10MPD2    H3  156   1.495   4.395  11.882 -0.0021 -0.1818  0.1325
   10MPD2     N  157   1.888   4.179  11.894 -0.1674  0.3716  0.2076
   10MPD2    H5  158   1.853   4.139  11.980  0.9845  1.8357  1.3609
   10MPD2    N1  159   1.822   4.552  11.594 -0.7748 -0.6085 -0.0216
   10MPD2    H7  160   1.918   4.535  11.566  0.1706 -0.7493  3.2253
   11TCq1    O1  161   2.861   4.270  14.534 -0.1005 -0.2581  0.5199
   11TCq1    C1  162   2.938   4.270  14.423 -0.6125  0.4647  0.6771
   11TCq1    O2  163   3.054   4.251  14.422 -0.0744  0.1199  0.4800
   11TCq1    C2  164   2.856   4.340  14.324  0.6506 -0.4082  1.0149
   11TCq1    C3  165   2.902   4.436  14.234 -0.6236  0.2386 -0.2382
   11TCq1    C4  166   2.812   4.500  14.156  0.1674 -0.1614  0.2100
   11TCq1    C5  167   2.677   4.457  14.150  0.1235  0.4866 -0.7715
   11TCq1    C6  168   2.635   4.357  14.232  0.7923  0.4661  1.0173
   11TCq1    C7  169   2.724   4.298  14.320 -0.2930  0.1364 -0.3229
   11TCq1    C8  170   2.512   4.285  14.208  0.1798 -0.1604  0.1729
   11TCq1    O4  171   2.517   4.163  14.234  0.1426 -0.5289 -0.5765
   11TCq1    C9  172   2.862   4.607  14.075  0.3901  0.1849 -0.2483
   11TCq1    O5  173   2.979   4.627  14.065  0.2909  0.5194 -0.1347
   11TCq1    O6  174   2.774   4.678  14.017 -0.2943  0.5235 -0.7987
   11TCq1    H1  175   2.766   4.289  14.521  0.1558 -0.2248 -1.2520
   11TCq1    H2  176   3.004   4.471  14.236 -0.2174 -0.9343 -0.1105
   11TCq1    H3  177   2.619   4.502  14.070 -1.3159  0.3704  0.2086
   11TCq1    H4  178   2.685   4.214  14.377  1.1145 -1.5003 -1.7475
   12MPD2     C  179   2.208   4.405  14.039  0.1548  0.2546  0.4772
   12MPD2    C1  180   2.301   4.316  14.081  0.0884 -0.1848 -0.7710
   12MPD2    C2  181   2.273   4.182  14.067 -0.6938  0.0524 -0.6059
   12MPD2    C3  182   2.158   4.139  13.993  0.7546 -0.7134 -0.2007
   12MPD2    C4  183   2.067   4.231  13.953 -0.5380  0.1338 -0.4403
   12MPD2    C5  184   2.088   4.363  13.984  0.4979  0.6434  0.2682
   12MPD2     H  185   2.347   4.114  14.108  0.2877  1.5964  0.1576
   12MPD2    H1  186   1.980   4.192  13.902  0.0692  0.9596 -2.0909
   12MPD2    H2  187   2.229   4.506  14.073 -0.9291  0.9075 -0.7431
   12MPD2    H3  188   2.013   4.437  13.958  1.8505  0.8796 -2.8928
   12MPD2     N  189   2.127   4.003  13.970 -0.6742 -0.3763 -0.0601
   12MPD2    H5  190   2.038   3.991  13.922 -1.2412  0.3645  0.8083
   12MPD2    N1  191   2.421   4.364  14.141  0.1536 -0.0607  0.1009
   12MPD2    H7  192   2.433   4.465  14.138  0.0861 -0.0136  1.4101
   13TCq1    O1  193   2.057   3.659  10.238 -0.2776  0.2490  0.2277
   13TCq1    C1  194   1.933   3.707  10.247  0.3129  0.6582 -0.4298
   13TCq1    O2  195   1.831   3.648  10.214 -0.4063 -0.2929  0.4840
   13TCq1    C2  196   1.934   3.838  10.317 -0.0677 -0.4392  0.5302
   13TCq1    C3  197   2.037   3.922  10.304 -0.5809 -0.4052 -0.0055
   13TCq1    C4  198   2.046   4.036  10.381  0.2320 -0.1577 -0.3549
   13TCq1    C5  199   1.953   4.056  10.477  0.1141 -0.3428  0.7875
   13TCq1    C6  200   1.851   3.964  10.498  0.1171  0.3453  0.5430
   13TCq1    C7  201   1.844   3.855  10.419 -0.0722  0.7461 -0.1547
   13TCq1    C8  202   1.771   3.981  10.618 -0.2012 -0.4358 -0.8966
   13TCq1    O4  203   1.786   4.078  10.688 -0.0683 -0.2169  0.2156
   13TCq1    C9  204   2.158   4.122  10.366  0.6437 -0.1370 -0.0140
   13TCq1    O5  205   2.148   4.247  10.395 -0.4595  0.5236 -0.2930
   13TCq1    O6  206   2.258   4.061  10.324 -0.1342 -0.5533  0.1243
   13TCq1    H1  207   2.118   3.713  10.291  1.1528 -0.2146 -0.9532
   13TCq1    H2  208   2.115   3.907  10.229  0.0548 -0.7510  0.7232
   13TCq1    H3  209   1.964   4.139  10.546  1.0318  1.3890 -1.4355
   13TCq1    H4  210   1.777   3.769  10.428 -0.3996  1.1719  1.5671
   14MPD2     C  211   1.585   3.709  10.783 -0.2451  0.0026 -0.2743
   14MPD2    C1  212   1.647   3.831  10.778  0.3962 -0.1259 -0.2959
   14MPD2    C2  213   1.641   3.925  10.885  0.5736 -0.3458 -0.4365
   14MPD2    C3  214   1.580   3.877  11.006 -0.8279  0.2584  0.6327
   14MPD2    C4  215   1.511   3.753  11.007  0.3814  0.0279  0.1893
   14MPD2    C5  216   1.521   3.669  10.901  0.3640 -0.4843 -0.2096
   14MPD2     H  217   1.689   4.022  10.880  0.4587 -0.1995  1.4941
   14MPD2    H1  218   1.463   3.715  11.097 -1.2938 -0.9074 -1.0969
   14MPD2    H2  219   1.581   3.639  10.700 -0.2818  2.7887 -2.6016
   14MPD2    H3  220   1.481   3.569  10.908 -0.3022 -0.0609  1.9220
   14MPD2     N  221   1.583   3.966  11.116  0.4232  0.3243  0.2196
   14MPD2    H5  222   1.599   4.062  11.086 -0.2643  0.1509 -0.7347
   14MPD2    N1  223   1.702   3.868  10.649 -0.5930 -0.0533 -0.0096
   14MPD2    H7  224   1.693   3.795  10.579 -0.2919 -0.8639  0.8006
   15TCq1    O1  225   3.452   2.976   1.901  0.2157 -0.5411  0.1524
   15TCq1    C1  226   3.510   2.942   1.783 -0.8066 -0.6985  0.0967
   15TCq1    O2  227   3.496   2.992   1.672 -0.3187  0.1569  0.4913
   15TCq1    C2  228   3.637   2.876   1.812 -0.2542  1.0344  0.0698
   15TCq1    C3  229   3.696   2.890   1.932 -0.1672  0.3597  0.0074
   15TCq1    C4  230   3.820   2.838   1.950 -0.0073 -0.2023 -0.0868
   15TCq1    C5  231   3.878   2.764   1.853  0.4360  1.1355 -0.4893
   15TCq1    C6  232   3.819   2.751   1.727 -0.3190  0.4278 -0.1352
   15TCq1    C7  233   3.695   2.808   1.708 -0.5823 -0.1100  0.0155
   15TCq1    C8  234   3.891   2.670   1.631 -1.2605  0.1996  0.1734
   15TCq1    O4  235   3.996   2.617   1.666  0.2905  0.2629  0.1979
   15TCq1    C9  236   3.879   2.849   2.084  1.7216 -0.4505  0.5711
   15TCq1    O5  237   3.999   2.807   2.090 -0.3718  0.0350  0.0796
   15TCq1    O6  238   3.809   2.916   2.166  0.0547 -0.4177  0.0095
   15TCq1    H1  239   3.479   2.908   1.967  2.2682 -0.9922 -1.1571
   15TCq1    H2  240   3.650   2.943   2.014 -0.4995  1.4291 -0.8717
   15TCq1    H3  241   3.972   2.714   1.874  1.5318  3.3544 -0.0917
   15TCq1    H4  242   3.659   2.816   1.607 -1.0033  1.8095  0.3198
   16MPD2     C  243   3.778   2.561   1.298  0.1412  0.0506  0.2671
   16MPD2    C1  244   3.864   2.583   1.399 -0.8492  0.9814 -0.3999
   16MPD2    C2  245   3.999   2.545   1.387 -0.1757  0.4860  0.0168
   16MPD2    C3  246   4.042   2.476   1.271 -0.8636  0.2423  0.3912
   16MPD2    C4  247   3.953   2.453   1.170 -0.5863 -0.4740 -0.1156
   16MPD2    C5  248   3.823   2.492   1.185 -0.2123 -0.0931  1.1461
   16MPD2     H  249   4.067   2.565   1.470 -2.1191 -3.4954  2.5796
   16MPD2    H1  250   3.986   2.414   1.075 -0.9123  0.1979 -0.5009
   16MPD2    H2  251   3.675   2.594   1.306  0.1831  0.4867 -0.9998
   16MPD2    H3  252   3.758   2.495   1.099  1.3133  0.7013  0.0323
   16MPD2     N  253   4.187   2.454   1.262  0.6474  0.0774 -0.0561
   16MPD2    H5  254   4.235   2.482   1.347  0.2874  1.3823 -0.2828
   16MPD2    N1  255   3.821   2.655   1.512  0.2203 -0.0258  0.2690
   16MPD2    H7  256   3.719   2.662   1.513  0.2234 -0.0215  0.4706
   17TCq1    O1  257   2.350   2.565  10.370  0.4179  0.2398 -0.0229
   17TCq1    C1  258   2.413   2.592  10.485  0.1879 -0.0808 -0.3820
   17TCq1    O2  259   2.526   2.561  10.507 -0.2926 -0.1715 -0.7195
   17TCq1    C2  260   2.343   2.706  10.547 -0.1214  0.3461  0.2449
   17TCq1    C3  261   2.212   2.684  10.567 -0.0348 -0.0552 -0.3693
   17TCq1    C4  262   2.148   2.753  10.669 -1.0625 -0.3179 -0.0940
   17TCq1    C5  263   2.219   2.836  10.744 -0.2080 -0.3499  0.1592
   17TCq1    C6  264   2.358   2.860  10.716  0.8499  0.2520  0.2372
   17TCq1    C7  265   2.422   2.789  10.621  0.4118 -0.8036 -0.8453
   17TCq1    C8  266   2.426   2.974  10.786 -0.4342  0.0715 -0.1244
   17TCq1    O4  267   2.362   3.030  10.870 -0.4476  0.2698 -0.4126
   17TCq1    C9  268   2.005   2.734  10.687  0.6962  0.1844 -0.4799
   17TCq1    O5  269   1.947   2.662  10.607 -0.1447  0.7503 -0.0744
   17TCq1    O6  270   1.940   2.815  10.763  0.1046 -0.5285 -0.4279
   17TCq1    H1  271   2.274   2.620  10.343  0.4148  0.7273  0.9650
   17TCq1    H2  272   2.146   2.615  10.516 -0.3281 -0.2109  0.2227
   17TCq1    H3  273   2.169   2.898  10.817 -1.0100 -1.2754  0.3952
   17TCq1    H4  274   2.527   2.792  10.594  0.2256  1.1185 -1.3795
   18MPD2     C  275   2.555   3.238  10.790 -0.0228  0.9147  0.7424
   18MPD2    C1  276   2.617   3.133  10.734 -0.4284  0.4157 -0.2408
   18MPD2    C2  277   2.746   3.138  10.684 -0.0923 -0.1690 -0.2128
   18MPD2    C3  278   2.820   3.257  10.706 -0.1695 -0.4707  0.3294
   18MPD2    C4  279   2.756   3.357  10.774  0.2577  0.3724 -0.5225
   18MPD2    C5  280   2.633   3.351  10.815  0.6558  0.6324 -0.5626
   18MPD2     H  281   2.780   3.047  10.634  0.2042 -1.2621  1.9922
   18MPD2    H1  282   2.804   3.455  10.782  0.3739  0.2920 -0.2171
   18MPD2    H2  283   2.451   3.236  10.823  0.0649 -0.6736  0.9070
   18MPD2    H3  284   2.593   3.441  10.859  0.7216 -0.7306  2.2894
   18MPD2     N  285   2.947   3.287  10.652 -0.2880 -0.0082 -0.0015
   18MPD2    H5  286   2.985   3.380  10.668  0.7694 -0.4405 -0.0165
   18MPD2    N1  287   2.548   3.012  10.723 -0.2004  0.0916 -0.2640
   18MPD2    H7  288   2.596   2.939  10.672  3.0431  2.2018 -0.2219
   19TMC2    C1  289   3.811   3.396  13.873 -0.4962  0.5623 -0.4289
   19TMC2    C2  290   3.824   3.466  13.754  0.5227  0.4330  0.3030
   19TMC2    C3  291   3.708   3.476  13.683  0.0129  0.2158 -0.6161
   19TMC2    C4  292   3.688   3.343  13.910  0.3019 -0.1092  0.5715
   19TMC2    C5  293   3.582   3.356  13.825 -0.2116  0.8033 -0.2607
   19TMC2    C6  294   3.590   3.422  13.706  0.1179  0.7674 -0.1506
   19TMC2     C  295   3.917   3.382  13.969 -0.3918 -0.2652 -0.0358
   19TMC2     O  296   3.896   3.320  14.075  0.2445 -0.1256 -0.5215
   19TMC2     H  297   3.919   3.510  13.726  0.1824  1.2001  0.3452
   19TMC2    H1  298   3.682   3.288  14.003  1.5458 -1.3988 -0.1084
   19TMC2    H2  299   3.505   3.436  13.639  0.9235  1.6777 -0.9823
   19TMC2    C7  300   3.461   3.306  13.870  0.2546 -0.3061  0.8331
   19TMC2    C8  301   3.716   3.562  13.566 -0.7053  0.6399  0.7252
   19TMC2    O1  302   3.453   3.194  13.911 -0.6297 -0.7074  0.2104
   19TMC2    O2  303   3.820   3.575  13.505  0.2484  0.1284 -0.1064
   19TMC2    O5  304   3.624   3.658  13.575  0.1830 -0.4307  0.2345
   19TMC2    H5  305   3.558   3.647  13.646 -2.9082  0.0992 -2.5781
   20MPD2     C  306   4.251   3.521  13.931  0.7334  0.5050  0.2449
   20MPD2    C1  307   4.160   3.442  13.987  0.1409 -0.2548  1.1948
   20MPD2    C2  308   4.187   3.381  14.107 -0.1190 -0.0174  0.0250
   20MPD2    C3  309   4.308   3.399  14.178  0.2562 -0.1381 -0.7475
   20MPD2    C4  310   4.401   3.477  14.114 -0.3261 -0.5179  0.5401
   20MPD2    C5  311   4.370   3.541  13.998  0.0689 -0.0311  1.2461
   20MPD2     H  312   4.110   3.315  14.147  0.3182 -1.1938 -1.0702
   20MPD2    H1  313   4.497   3.505  14.155 -0.0403  0.6396 -0.9007
   20MPD2    H2  314   4.235   3.575  13.838  1.7555  2.6986  1.3487
   20MPD2    H3  315   4.443   3.614  13.963 -1.4549  0.3825 -1.0621
   20MPD2     N  316   4.341   3.347  14.304 -0.3539  0.3155 -0.4221
   20MPD2    H5  317   4.423   3.386  14.348 -0.1667 -1.6410  0.9316
   20MPD2    N1  318   4.036   3.441  13.925 -0.3806 -0.2673 -0.1438
   20MPD2    H7  319   4.026   3.493  13.838 -2.4569 -2.4335 -1.2111
   21MPD2     C  320   1.635   4.431  14.579  0.3185  0.0235 -0.0727
   21MPD2    C1  321   1.686   4.297  14.585 -0.0852 -0.3941 -0.6445
   21MPD2    C2  322   1.611   4.198  14.642 -0.0439  0.0977 -0.8701
   21MPD2    C3  323   1.488   4.230  14.700  0.2932 -0.0519 -0.2429
   21MPD2    C4  324   1.439   4.360  14.692 -0.4942  0.5004  0.4287
   21MPD2    C5  325   1.511   4.457  14.634  0.2518  0.4512 -0.1655
   21MPD2     H  326   1.652   4.098  14.646 -1.3944 -0.5040 -2.0742
   21MPD2    H1  327   1.342   4.390  14.731 -0.8575  1.2468 -1.0460
   21MPD2    H2  328   1.693   4.509  14.531 -1.3414  1.8995  1.0356
   21MPD2    H3  329   1.471   4.558  14.630  0.9761  0.7729  0.7508
   21MPD2     N  330   1.408   4.141  14.776  0.4967 -0.4571 -0.4234
   21MPD2    H5  331   1.316   4.175  14.802  1.1497 -0.4525  1.8358
   21MPD2    N1  332   1.809   4.257  14.530 -1.0744 -0.2375 -0.3629
   21MPD2    H7  333   1.822   4.156  14.525  0.0090 -0.1640  0.8773
   22TCq2    C1  334   1.457   4.021  14.828 -0.1433  1.0382 -0.6382
   22TCq2    O2  335   1.571   3.976  14.822 -0.1801 -0.4376 -0.4804
   22TCq2    C2  336   1.362   3.936  14.899 -0.1361  0.4616  0.4239
   22TCq2    C3  337   1.420   3.830  14.967 -0.0141  0.4911 -0.8626
   22TCq2    C4  338   1.342   3.729  15.010 -0.8541  0.4231  0.1202
   22TCq2    C5  339   1.206   3.731  14.987 -0.2040  0.4467  0.3714
   22TCq2    C6  340   1.152   3.839  14.920  0.5481  0.5486 -0.0377
   22TCq2    C7  341   1.232   3.943  14.883  0.4640  0.1158 -0.0789
   22TCq2    C8  342   1.008   3.854  14.937 -0.7431  0.0811 -0.5413
   22TCq2    O4  343   0.949   3.770  15.004  0.0842  0.4219  0.4638
   22TCq2    C9  344   1.396   3.626  15.096  0.1563  0.3117 -0.7832
   22TCq2    O5  345   1.515   3.643  15.130 -0.1619  0.4851  0.3421
   22TCq2    O6  346   1.320   3.531  15.117  0.5016 -1.0907 -0.3566
   22TCq2    H2  347   1.527   3.827  14.984 -0.6456  0.6205  3.1629
   22TCq2    H3  348   1.144   3.650  15.025 -1.8114  1.5731  0.1387
   22TCq2    H4  349   1.193   4.029  14.830 -0.3208 -1.1742 -1.5855
   23MPD2     C  350   2.941   0.318  14.762  0.1957 -0.4562  0.3280
   23MPD2    C1  351   2.834   0.276  14.839  0.5657 -0.0085 -0.1512
   23MPD2    C2  352   2.706   0.323  14.806 -0.0204  0.0827  0.3143
   23MPD2    C3  353   2.690   0.407  14.693 -0.1852 -0.2831  0.2715
   23MPD2    C4  354   2.796   0.449  14.617  0.1231 -0.1701 -0.3075
   23MPD2    C5  355   2.919   0.399  14.652 -0.0516  0.0074  0.6469
   23MPD2     H  356   2.624   0.300  14.874  0.6649  1.7975  1.7408
   23MPD2    H1  357   2.789   0.513  14.529  2.6359  1.2738  0.5724
   23MPD2    H2  358   3.043   0.292  14.791  0.5163  0.9454  0.4597
   23MPD2    H3  359   3.001   0.423  14.586 -1.1043 -0.2172 -0.7591
   23MPD2     N  360   2.560   0.435  14.647  0.2223 -0.7894  0.0047
   23MPD2    H5  361   2.554   0.499  14.568  2.4363  0.8090  1.1389
   23MPD2    N1  362   2.846   0.194  14.952 -0.2465  0.2023 -0.2784
   23MPD2    H7  363   2.767   0.180  15.014 -0.8197  0.1504 -1.0250
   24TCq2    C1  364   2.448   0.360  14.687  0.3665 -0.4085  0.5835
   24TCq2    O2  365   2.443   0.248  14.738  0.2268 -0.0175 -0.5697
   24TCq2    C2  366   2.326   0.409  14.637  1.0595  0.0823 -0.5342
   24TCq2    C3  367   2.311   0.534  14.593  0.2351 -1.1201  0.9797
   24TCq2    C4  368   2.197   0.568  14.521  0.3188  0.0511 -0.4230
   24TCq2    C5  369   2.096   0.480  14.503  0.5179 -0.1804 -0.0661
   24TCq2    C6  370   2.114   0.359  14.558 -0.0282 -0.2582 -0.1785
   24TCq2    C7  371   2.234   0.315  14.617  0.3082  0.4603  0.0367
   24TCq2    C8  372   2.001   0.262  14.566  0.5732  0.1624 -0.0180
   24TCq2    O4  373   2.029   0.143  14.565 -0.4379  0.5929 -0.1869
   24TCq2    C9  374   2.186   0.701  14.473 -0.0099  0.6097  0.9552
   24TCq2    O5  375   2.262   0.785  14.526  0.5135  0.4182 -0.0713
   24TCq2    O6  376   2.081   0.737  14.407 -0.0742 -0.0640  0.1637
   24TCq2    H2  377   2.387   0.609  14.616 -1.1110  0.8110 -0.9098
   24TCq2    H3  378   2.008   0.511  14.447 -0.5143  2.6785  3.1208
   24TCq2    H4  379   2.246   0.212  14.650 -1.3098 -0.1207 -1.1808
   25TMC2    C1  380   1.522   2.708  11.769 -0.1996 -0.0950 -0.2362
   25TMC2    C2  381   1.441   2.826  11.767 -0.0705  0.7969  0.2661
   25TMC2    C3  382   1.374   2.846  11.883 -0.4053  0.0890  1.0892
   25TMC2    C4  383   1.524   2.618  11.874  0.2679  0.2257  0.5371
   25TMC2    C5  384   1.454   2.647  11.990  0.3043 -0.2036  0.6808
   25TMC2    C6  385   1.380   2.765  11.995 -0.4118  0.4137 -0.3449
   25TMC2     C  386   1.583   2.681  11.638 -0.9946  0.2148  0.9664
   25TMC2     O  387   1.599   2.783  11.573 -0.1276 -0.4992  0.0025
   25TMC2     H  388   1.422   2.873  11.672  1.9583 -0.6018 -0.8475
   25TMC2    H1  389   1.582   2.529  11.856 -1.4848 -0.8973  0.4311
   25TMC2    H2  390   1.319   2.797  12.079  1.7042  2.2009  0.5254
   25TMC2    C7  391   1.412   2.542  12.078 -0.6573  1.0786  0.6601
   25TMC2    C8  392   1.268   2.949  11.872 -0.0558  0.3746  0.1526
   25TMC2    O1  393   1.333   2.578  12.165 -0.3222  0.0991  0.2533
   25TMC2    O2  394   1.221   2.970  11.759  0.3172  0.2086  0.6059
   25TMC2    O5  395   1.244   3.012  11.987 -0.2820  0.4616 -0.2077
   25TMC2    H5  396   1.299   2.988  12.064 -2.0246  0.5555  1.0766
   26MPD2     C  397   1.779   2.433  11.234 -0.1556  0.5690 -0.2143
   26MPD2    C1  398   1.699   2.343  11.305  1.1855  1.2473  0.3541
   26MPD2    C2  399   1.652   2.383  11.429 -0.3009  0.2236  0.5440
   26MPD2    C3  400   1.670   2.508  11.480  0.1482  0.4545  0.5663
   26MPD2    C4  401   1.740   2.600  11.405  0.2618 -0.3677  0.2194
   26MPD2    C5  402   1.806   2.560  11.287 -0.1973  0.2581 -0.0436
   26MPD2     H  403   1.586   2.313  11.480 -0.9731 -0.6118 -1.4534
   26MPD2    H1  404   1.758   2.702  11.438  0.0008  0.6513 -2.7546
   26MPD2    H2  405   1.819   2.408  11.136 -0.2470  1.3948 -0.4615
   26MPD2    H3  406   1.851   2.632  11.219 -1.1942 -0.8825 -1.9171
   26MPD2     N  407   1.604   2.547  11.601 -0.1017 -0.6171  0.0603
   26MPD2    H5  408   1.553   2.479  11.655  0.1037 -1.0144 -0.2503
   26MPD2    N1  409   1.669   2.219  11.248  0.1549 -0.9195  0.0270
   26MPD2    H7  410   1.681   2.206  11.148 -1.8277 -1.4259 -0.1398
   27TMC2    C1  411   0.693   4.553  12.234  0.2043 -0.3880 -0.0253
   27TMC2    C2  412   0.821   4.525  12.202 -0.6355 -0.7168 -0.6969
   27TMC2    C3  413   0.914   4.623  12.243  1.1712 -0.2981 -0.8555
   27TMC2    C4  414   0.644   4.667  12.289 -0.0881  0.5733  0.2482
   27TMC2    C5  415   0.742   0.032  12.318 -0.3463 -0.1532  0.0177
   27TMC2    C6  416   0.874   0.013  12.302 -0.7255  0.3840 -0.0153
   27TMC2     C  417   0.631   4.437  12.313 -0.0916 -0.5158 -0.0018
   27TMC2     O  418   0.690   4.332  12.302  0.2365 -0.4112 -0.5173
   27TMC2     H  419   0.842   4.430  12.155  0.0771 -0.9647  0.1346
   27TMC2    H1  420   0.543   4.694  12.316 -1.1552 -0.9627 -2.2047
   27TMC2    H2  421   0.950   0.086  12.325 -0.7216 -0.4982  2.7257
   27TMC2    C7  422   0.718   0.102  12.442  0.5928  0.0606 -0.4102
   27TMC2    C8  423   1.044   4.628  12.166  0.3551  0.2969 -0.6696
   27TMC2    O1  424   0.793   0.088  12.538  0.1411  0.0818  0.5807
   27TMC2    O2  425   1.065   4.549  12.075  0.6339 -0.3996 -0.0570
   27TMC2    O5  426   1.135   4.683  12.251 -0.0174 -0.5938  0.2441
   27TMC2    H5  427   1.090   4.693  12.338  1.4430 -2.2542  1.1987
   28MPD2     C  428   0.374   4.197  12.691  0.8958  0.6444  0.2044
   28MPD2    C1  429   0.335   4.335  12.696 -0.5592 -0.3529 -0.0359
   28MPD2    C2  430   0.385   4.415  12.595 -0.8710  0.0780 -0.4016
   28MPD2    C3  431   0.472   4.373  12.490  0.6604  0.5125  0.1516
   28MPD2    C4  432   0.493   4.235  12.490 -0.0036 -0.4205 -0.0501
   28MPD2    C5  433   0.455   4.156  12.593 -0.3955 -0.4983 -0.2183
   28MPD2     H  434   0.350   4.518  12.590 -0.2561  0.3285  0.4535
   28MPD2    H1  435   0.547   4.191  12.407  0.0923 -1.6844  0.6762
   28MPD2    H2  436   0.349   4.125  12.768 -0.2367 -1.5692 -2.2289
   28MPD2    H3  437   0.462   4.048  12.596 -0.1825 -0.5041 -1.1395
   28MPD2     N  438   0.524   4.466  12.396  0.0163 -0.0514 -0.3850
   28MPD2    H5  439   0.487   4.560  12.397  1.0293  0.3358  0.2557
   28MPD2    N1  440   0.246   4.362  12.798  0.9145  0.2049  0.4898
   28MPD2    H7  441   0.233   4.283  12.860  1.5712  0.4706  0.9606
   29MPD2     C  442   4.213   1.798  13.967 -0.1763 -0.0171 -0.3244
   29MPD2    C1  443   4.262   1.763  14.090  0.2448 -0.3738  0.3254
   29MPD2    C2  444   4.279   1.858  14.185 -0.5145 -0.0735 -0.9362
   29MPD2    C3  445   4.255   1.989  14.155  0.0896  0.2209  0.5333
   29MPD2    C4  446   4.190   2.022  14.040  0.3602 -1.1027  0.5784
   29MPD2    C5  447   4.156   1.925  13.947 -0.9619 -0.7788 -0.5222
   29MPD2     H  448   4.337   1.829  14.272  0.8538  1.9526 -1.1696
   29MPD2    H1  449   4.167   2.123  14.008  1.5569 -0.5351  1.4973
   29MPD2    H2  450   4.206   1.721  13.891  0.0163 -1.5240  1.1971
   29MPD2    H3  451   4.106   1.952  13.854  0.9018  2.7305 -0.5365
   29MPD2     N  452   4.304   2.093  14.239 -0.2529  0.6323  0.7224
   29MPD2    H5  453   4.297   2.185  14.197  0.0789  1.2766  2.0456
   29MPD2    N1  454   4.314   1.632  14.119  0.3468 -0.0872  0.2902
   29MPD2    H7  455   4.327   1.564  14.045 -1.8835  2.1069 -2.1341
   30TCq2    C1  456   4.360   2.075  14.366  0.1855  0.4297  0.1348
   30TCq2    O2  457   4.345   1.976  14.440  0.3143  1.1796 -0.4043
   30TCq2    C2  458   4.450   2.179  14.413  0.4399  1.0880  0.0648
   30TCq2    C3  459   4.519   2.154  14.527  0.6747 -0.8692 -0.3880
   30TCq2    C4  460   4.646   2.200  14.552  0.4987 -0.5449 -0.6266
   30TCq2    C5  461   4.705   2.276  14.451 -0.2298 -0.2589 -0.2925
   30TCq2    C6  462   4.633   2.308  14.337  0.0960  0.0535 -0.0771
   30TCq2    C7  463   4.506   2.260  14.314  0.2780 -0.5111  0.5265
   30TCq2    C8  464   4.672   2.426  14.269 -0.1860  0.3098 -0.2445
   30TCq2    O4  465   4.632   2.442  14.156  0.4616  0.0528  0.5780
   30TCq2    C9  466   4.717   2.160  14.665 -0.0377  0.0031  0.3564
   30TCq2    O5  467   0.109   2.201  14.665  0.2447 -0.5065 -0.3046
   30TCq2    O6  468   4.651   2.169  14.774  0.2268  0.0317 -0.6949
   30TCq2    H2  469   4.484   2.079  14.598 -0.7151 -1.4254 -1.6546
   30TCq2    H3  470   0.080   2.307  14.481 -0.5554 -0.1822  0.7185
   30TCq2    H4  471   4.461   2.282  14.217 -1.3461  1.1080  1.6542
   31MPD2     C  472   2.821   0.725  15.311 -0.0440  0.0091  0.3585
   31MPD2    C1  473   2.715   0.811  15.301 -0.3263 -0.2618  0.8006
   31MPD2    C2  474   2.620   0.812  15.404 -0.3961  0.1827  0.4246
   31MPD2    C3  475   2.637   0.732  15.521  0.4152  0.4449  0.1080
   31MPD2    C4  476   2.742   0.647  15.525  0.5167 -0.4487  0.2790
   31MPD2    C5  477   2.836   0.645  15.427 -0.5531 -0.5527 -0.2771
   31MPD2     H  478   2.536   0.881  15.402 -0.9443 -0.4806  0.8065
   31MPD2    H1  479   2.757   0.579  15.608 -0.0374 -0.2052  0.5769
   31MPD2    H2  480   2.893   0.714  15.231  1.1846 -2.4047  1.8145
   31MPD2    H3  481   2.919   0.575  15.439  1.2711  1.3964 -1.5600
   31MPD2     N  482   2.559   0.746  15.635  0.1721  0.3453 -0.0058
   31MPD2    H5  483   2.587   0.688  15.713  0.2043  0.2372 -0.0971
   31MPD2    N1  484   2.720   0.900  15.189 -0.4340  0.4040 -0.2179
   31MPD2    H7  485   2.799   0.886  15.126  0.5164  0.8809  0.8652
   32TCq2    C1  486   2.452   0.833  15.655 -0.2398  0.1509  0.1929
   32TCq2    O2  487   2.386   0.902  15.578  0.4493 -0.4625 -0.0177
   32TCq2    C2  488   2.424   0.839  15.794 -0.6345 -0.9703  0.6166
   32TCq2    C3  489   2.294   0.842  15.828 -0.1501  0.8058  0.1829
   32TCq2    C4  490   2.263   0.810  15.957 -0.4370 -0.3476 -0.3912
   32TCq2    C5  491   2.353   0.762  16.049  0.3264 -0.0624 -0.0294
   32TCq2    C6  492   2.482   0.750  16.010  0.7419  0.1996  0.4915
   32TCq2    C7  493   2.521   0.789  15.881  0.4111 -0.0932 -0.0077
   32TCq2    C8  494   2.583   0.707  16.106  0.1917  0.3978 -0.1232
   32TCq2    O4  495   2.687   0.655  16.068  0.1622  0.2665  0.2859
   32TCq2    C9  496   2.128   0.813  15.999  0.6264 -0.0884 -0.3554
   32TCq2    O5  497   2.047   0.880  15.929  0.3088 -0.5404  0.0876
   32TCq2    O6  498   2.108   0.785  16.119 -0.1715  0.0436 -0.3320
   32TCq2    H2  499   2.214   0.875  15.762 -1.2391 -3.0728 -0.4343
   32TCq2    H3  500   2.325   0.726  16.148  0.4947  1.0322  0.4153
   32TCq2    H4  501   2.627   0.796  15.856  0.2344 -0.2908 -0.8037
   33MPD2     C  502   3.426   3.784  10.391 -0.4464  0.4557 -0.1760
   33MPD2    C1  503   3.302   3.724  10.392  0.1978  0.2259 -0.3869
   33MPD2    C2  504   3.197   3.810  10.368 -0.2191 -0.4021 -0.0641
   33MPD2    C3  505   3.212   3.946  10.347  0.1890  0.3958  0.0704
   33MPD2    C4  506   3.338   3.999  10.356 -0.5736 -0.2621 -0.1719
   33MPD2    C5  507   3.441   3.922  10.377  0.0832  0.1643  0.7572
   33MPD2     H  508   3.101   3.762  10.382 -1.3819  1.8003 -0.4578
   33MPD2    H1  509   3.353   4.106  10.344  1.3358 -0.5429 -0.2777
   33MPD2    H2  510   3.524   3.741  10.407 -0.7781  0.0156  0.6698
   33MPD2    H3  511   3.540   3.966  10.386  0.5562 -0.7787  0.1473
   33MPD2     N  512   3.106   4.038  10.346 -0.2647 -0.4753 -0.2474
   33MPD2    H5  513   3.122   4.138  10.347 -1.6637 -0.2333 -2.7361
   33MPD2    N1  514   3.285   3.593  10.446 -0.3665 -0.1718  0.2601
   33MPD2    H7  515   3.193   3.551  10.451 -0.9065  0.8500 -1.4463
   34TCq2    C1  516   2.974   3.995  10.362  0.1765  0.1291  0.5716
   34TCq2    O2  517   2.922   3.889  10.385  0.4867 -0.3358  0.0021
   34TCq2    C2  518   2.882   4.099  10.347 -0.2780 -0.0456 -0.0378
   34TCq2    C3  519   2.759   4.087  10.405 -0.3383 -0.0237  0.1083
   34TCq2    C4  520   2.672   4.187  10.384 -0.4269 -0.3846 -0.1704
   34TCq2    C5  521   2.692   4.295  10.302 -0.8244  0.2312  0.0401
   34TCq2    C6  522   2.814   4.294  10.234 -0.1093  0.1235 -0.6543
   34TCq2    C7  523   2.911   4.200  10.258 -0.0155 -0.0441 -0.9424
   34TCq2    C8  524   2.846   4.407  10.148  0.2461  0.4763 -0.2418
   34TCq2    O4  525   2.958   4.407  10.097 -0.2624 -0.1812  0.0971
   34TCq2    C9  526   2.561   4.188  10.466  0.8735 -0.1660 -0.2043
   34TCq2    O5  527   2.487   4.290  10.455 -0.6310 -0.0261  0.0817
   34TCq2    O6  528   2.531   4.081  10.534 -0.0167 -0.2608  0.1683
   34TCq2    H2  529   2.731   4.010  10.477 -0.0288  0.4566  0.7456
   34TCq2    H3  530   2.630   4.383  10.298  0.9939  1.6548  2.7479
   34TCq2    H4  531   3.004   4.200  10.202  0.2571 -1.6664 -0.4904
   35MPD2     C  532   4.347   0.610  12.302  0.6004 -0.7224 -0.0732
   35MPD2    C1  533   4.353   0.473  12.321  0.3579 -0.2151  0.1279
   35MPD2    C2  534   4.295   0.396  12.222 -0.7743 -0.2438 -0.4846
   35MPD2    C3  535   4.214   0.455  12.122 -0.0677  0.4258 -0.1524
   35MPD2    C4  536   4.211   0.590  12.106 -0.2763  0.0750  0.0637
   35MPD2    C5  537   4.285   0.665  12.192 -0.0329 -0.3746  0.3327
   35MPD2     H  538   4.289   0.288  12.227  0.3124 -0.2904 -0.1593
   35MPD2    H1  539   4.151   0.636  12.028 -1.3856  0.0528  0.9058
   35MPD2    H2  540   4.389   0.676  12.378 -0.2449  0.4185 -0.5882
   35MPD2    H3  541   4.286   0.773  12.179  3.4684 -0.3171  1.0387
   35MPD2     N  542   4.143   0.372  12.031 -0.8929 -0.5952 -0.0183
   35MPD2    H5  543   4.136   0.275  12.061  0.2511 -0.6528  0.0292
   35MPD2    N1  544   4.415   0.410  12.435  0.2371  0.0904  0.4705
   35MPD2    H7  545   4.446   0.470  12.511  1.7834 -1.2236  0.8709
   36TCq2    C1  546   4.081   0.405  11.909 -0.5371 -0.0018  0.9159
   36TCq2    O2  547   4.088   0.514  11.849 -0.2884  0.7626 -0.0890
   36TCq2    C2  548   3.994   0.302  11.851 -0.0878  0.5101 -0.7303
   36TCq2    C3  549   3.950   0.326  11.727 -0.0604  0.2878  0.1849
   36TCq2    C4  550   3.841   0.253  11.682  0.2931 -0.1962 -0.6923
   36TCq2    C5  551   3.792   0.153  11.757 -0.0716 -0.3516 -0.5646
   36TCq2    C6  552   3.851   0.124  11.878 -0.3656  1.2604 -0.1973
   36TCq2    C7  553   3.949   0.205  11.929  0.0588  0.2338 -0.2430
   36TCq2    C8  554   3.832   4.716  11.922  0.9075  0.4442 -0.3822
   36TCq2    O4  555   3.761   4.643  11.859  0.3225 -0.0224 -0.5932
   36TCq2    C9  556   3.790   0.279  11.553  0.2324  0.4288 -0.9119
   36TCq2    O5  557   3.698   0.203  11.514 -0.5562  0.8464 -0.5576
   36TCq2    O6  558   3.843   0.372  11.492  0.4885  0.3376 -0.8719
   36TCq2    H2  559   4.007   0.392  11.663 -0.0345 -0.2611 -0.3552
   36TCq2    H3  560   3.714   0.091  11.713 -0.0874 -1.0735  0.4747
   36TCq2    H4  561   3.984   0.186  12.030 -2.3895 -1.3176  0.3288
   37TMC2    C1  562   1.549   0.411  12.082  0.1666 -0.9093  0.1913
   37TMC2    C2  563   1.546   0.512  11.989 -0.1658 -0.3721  0.3873
   37TMC2    C3  564   1.658   0.511  11.906  0.0304  0.2401 -0.1766
   37TMC2    C4  565   1.665   0.339  12.119 -0.6824  0.5883  0.7892
   37TMC2    C5  566   1.785   0.361  12.051  0.4759  0.1532 -0.3288
   37TMC2    C6  567   1.778   0.450  11.938 -0.4799 -0.3262 -0.7293
   37TMC2     C  568   1.428   0.395  12.161  0.1825 -1.0967 -0.8136
   37TMC2     O  569   1.322   0.445  12.131 -0.1537  0.1934  0.1780
   37TMC2     H  570   1.451   0.562  11.969 -0.3025  0.4067  2.9935
   37TMC2    H1  571   1.666   0.264  12.197  3.5896  0.6746  0.8124
   37TMC2    H2  572   1.856   0.475  11.866 -1.4763  0.5548 -1.5043
   37TMC2    C7  573   1.909   0.334  12.125 -0.0146  0.2539  0.2214
   37TMC2    C8  574   1.664   0.584  11.779  0.4477 -0.4156  0.0524
   37TMC2    O1  575   1.899   0.308  12.244  0.5903 -0.7375  0.3938
   37TMC2    O2  576   1.775   0.621  11.736  0.4516 -0.0409 -0.3571
   37TMC2    O5  577   1.541   0.639  11.748  0.0393 -0.2422  0.4640
   37TMC2    H5  578   1.466   0.598  11.796 -1.4686  1.1403 -0.7499
   38MPD2     C  579   1.145   0.224  12.546  0.0093  0.2206 -0.5496
   38MPD2    C1  580   1.276   0.208  12.580 -0.6411 -0.4334  0.6248
   38MPD2    C2  581   1.374   0.252  12.494  0.5539  0.8742  0.4204
   38MPD2    C3  582   1.340   0.302  12.372  0.2664 -0.7041 -0.2178
   38MPD2    C4  583   1.206   0.308  12.338  0.2551  0.1623 -0.5334
   38MPD2    C5  584   1.109   0.262  12.421  0.3664 -0.3383 -0.9343
   38MPD2     H  585   1.475   0.238  12.529  0.6608  1.0088  0.1620
   38MPD2    H1  586   1.169   0.331  12.239 -1.8542 -0.2126  0.1768
   38MPD2    H2  587   1.069   0.203  12.620  1.6353 -2.4310  0.3457
   38MPD2    H3  588   1.006   0.281  12.394 -0.3326 -1.1912  1.1154
   38MPD2     N  589   1.446   0.335  12.288 -0.0688 -0.1837  0.5756
   38MPD2    H5  590   1.539   0.316  12.322  0.4127 -1.1317 -1.2784
   38MPD2    N1  591   1.315   0.179  12.708 -1.1574  0.3374  0.0551
   38MPD2    H7  592   1.415   0.172  12.726 -0.6455  0.6534 -2.6503
   39MPD2     C  593   0.289   2.376   1.429 -0.3674  0.0941 -0.8466
   39MPD2    C1  594   0.181   2.420   1.498 -0.3290 -0.4008 -0.4956
   39MPD2    C2  595   0.056   2.359   1.484  0.6102  0.6381  0.4332
   39MPD2    C3  596   0.041   2.250   1.400  0.0758  0.1556 -0.3101
   39MPD2    C4  597   0.150   2.205   1.335 -0.0783 -0.1088  0.0517
   39MPD2    C5  598   0.269   2.264   1.346 -0.9689  0.5907 -0.1279
   39MPD2     H  599   4.694   2.403   1.531 -0.0773 -0.1571 -0.0769
   39MPD2    H1  600   0.152   2.109   1.285  2.5558 -0.8852  1.5979
   39MPD2    H2  601   0.386   2.423   1.437 -0.5621  0.2058  0.8543
   39MPD2    H3  602   0.357   2.219   1.303 -1.2827  0.5805 -0.7705
   39MPD2     N  603   4.646   2.185   1.362 -0.4218  0.2906  0.4872
   39MPD2    H5  604   4.650   2.094   1.316 -0.5378  1.2066 -1.3486
   39MPD2    N1  605   0.209   2.533   1.577  0.1632 -0.6891 -0.1134
   39MPD2    H7  606   0.307   2.548   1.600  0.7512 -0.2528 -2.9212
   40TCq2    C1  607   0.119   2.617   1.643 -0.1967  0.4057 -0.2051
   40TCq2    O2  608   4.721   2.608   1.641 -0.4346 -0.0287  0.4412
   40TCq2    C2  609   0.177   2.721   1.715  0.0991  0.2354  0.5155
   40TCq2    C3  610   0.102   2.752   1.823 -0.5333 -0.2787  0.0316
   40TCq2    C4  611   0.158   2.843   1.913 -0.4366 -0.1856  0.2979
   40TCq2    C5  612   0.284   2.892   1.897  0.1234 -1.1940 -0.4375
   40TCq2    C6  613   0.357   2.863   1.782 -0.2859 -0.1999 -0.0817
   40TCq2    C7  614   0.301   2.773   1.689 -0.4721  0.2301  0.3014
   40TCq2    C8  615   0.480   2.932   1.738 -0.1948 -0.2594 -0.0534
   40TCq2    O4  616   0.539   2.890   1.638 -0.1893  0.5339 -0.6276
   40TCq2    C9  617   0.091   2.864   2.047 -0.2890  0.2894 -0.6979
   40TCq2    O5  618   0.172   2.871   2.140 -0.1273  0.3990 -0.4373
   40TCq2    O6  619   4.691   2.834   2.051  0.5098  0.6934 -0.3655
   40TCq2    H2  620   0.008   2.700   1.841 -1.1222  1.1871  1.1517
   40TCq2    H3  621   0.318   2.955   1.978  1.0687 -0.1687 -1.6322
   40TCq2    H4  622   0.355   2.749   1.598  0.5578 -1.5542  1.3881
   41TMC2    C1  623   3.578   4.551  13.886  0.1942 -0.3015 -0.9379
   41TMC2    C2  624   3.614   4.609  14.004  0.0031  0.5000  0.2509
   41TMC2    C3  625   3.687   4.724  14.010  0.0837 -0.2803  0.8155
   41TMC2    C4  626   3.610   4.615  13.764 -0.7156 -0.0635  0.0904
   41TMC2    C5  627   3.681   0.012  13.780  0.1951 -0.0968 -0.6052
   41TMC2    C6  628   3.738   0.056  13.898  0.2873 -0.6025  0.1967
   41TMC2     C  629   3.516   4.421  13.884 -0.6167 -0.0562 -0.3815
   41TMC2     O  630   3.458   4.381  13.780  0.3681 -0.2920 -0.1455
   41TMC2     H  631   3.585   4.567  14.100  0.4713 -3.0038 -1.1658
   41TMC2    H1  632   3.578   4.571  13.670  3.9216 -2.1894 -0.4831
   41TMC2    H2  633   3.795   0.149  13.899 -3.4475  1.6935 -0.5706
   41TMC2    C7  634   3.708   0.087  13.658 -0.0058  0.0660  0.9968
   41TMC2    C8  635   3.699   0.084  14.129  0.7155 -0.0262 -0.0445
   41TMC2    O1  636   3.739   0.202  13.677 -0.0650 -0.0699  0.0482
   41TMC2    O2  637   3.780   0.173  14.147 -0.0001 -0.0186 -0.2783
   41TMC2    O5  638   3.596   0.053  14.217 -0.3827 -0.1522 -0.3418
   41TMC2    H5  639   3.523   4.720  14.186  0.7251 -0.0260 -3.1701
   42MPD2     C  640   3.393   4.150  13.989 -0.2487 -0.1896 -0.4914
   42MPD2    C1  641   3.462   4.246  14.060  0.0752  0.2079  0.4121
   42MPD2    C2  642   3.462   4.242  14.193  0.2589  0.6748 -0.1815
   42MPD2    C3  643   3.405   4.135  14.264 -0.4807 -0.2149 -0.4898
   42MPD2    C4  644   3.356   4.030  14.192  0.0992  0.1660 -0.0719
   42MPD2    C5  645   3.355   4.036  14.057 -0.1990  0.0157 -0.0320
   42MPD2     H  646   3.530   4.306  14.249  0.9160  0.6653 -0.9586
   42MPD2    H1  647   3.323   3.934  14.229  0.1202  0.0981 -0.2288
   42MPD2    H2  648   3.379   4.159  13.882 -1.1286 -1.4583 -0.4867
   42MPD2    H3  649   3.308   3.956  14.000 -1.6004  0.7965  0.0388
   42MPD2     N  650   3.432   4.128  14.404  0.4414  0.3988 -0.5116
   42MPD2    H5  651   3.412   4.042  14.455 -1.5456  0.8429 -0.5133
   42MPD2    N1  652   3.526   4.361  14.009 -0.0422  0.7668 -0.3523
   42MPD2    H7  653   3.571   4.420  14.078  0.9790 -0.9048  0.3970
   43MPD2     C  654   0.121   2.745   0.535 -0.5176  0.1637 -0.3153
   43MPD2    C1  655   0.229   2.827   0.554 -0.5655  0.4492  0.1602
   43MPD2    C2  656   0.207   2.944   0.615  0.0231  0.2065  0.6106
   43MPD2    C3  657   0.077   2.982   0.645  0.5631 -0.5047 -0.0879
   43MPD2    C4  658   4.699   2.893   0.635 -0.1861  0.1405  0.7486
   43MPD2    C5  659   4.717   2.779   0.578 -0.2996 -0.6678 -0.4895
   43MPD2     H  660   0.292   3.008   0.635 -1.1295  1.0222  2.8902
   43MPD2    H1  661   4.597   2.914   0.666 -0.2626  0.5581  0.2106
   43MPD2    H2  662   0.127   2.656   0.473 -0.1542  0.0050 -0.0527
   43MPD2    H3  663   4.633   2.712   0.565 -0.6297 -0.4839  0.7007
   43MPD2     N  664   0.049   3.111   0.700 -0.2181  0.3676 -0.0879
   43MPD2    H5  665   4.680   3.130   0.734 -0.2248 -0.9018  0.6171
   43MPD2    N1  666   0.360   2.796   0.512 -0.5300  0.3385  0.1532
   43MPD2    H7  667   0.427   2.868   0.534 -0.1588 -0.6526  2.2593
   44TCq2    C1  668   0.211   3.291   1.163  0.1505 -0.0420 -0.6039
   44TCq2    O2  669   0.329   3.307   1.136 -0.2696 -0.1580  0.0682
   44TCq2    C2  670   0.119   3.296   1.051 -0.9583  1.0005 -0.0226
   44TCq2    C3  671   4.706   3.300   1.066 -0.7375  0.1740 -0.2385
   44TCq2    C4  672   4.625   3.305   0.960 -0.6721 -0.2017  0.6842
   44TCq2    C5  673   4.673   3.309   0.831 -0.2409 -0.0568  0.3734
   44TCq2    C6  674   0.085   3.306   0.817 -1.0222 -0.5614  0.7200
   44TCq2    C7  675   0.173   3.294   0.921  0.4891  0.4738  0.3304
   44TCq2    C8  676   0.139   3.214   0.716 -0.0306  0.2757  1.0893
   44TCq2    O4  677   0.258   3.220   0.688 -0.4316  0.0775  0.1335
   44TCq2    C9  678   4.482   3.331   0.974 -0.2171  0.6259 -0.0989
   44TCq2    O5  679   4.414   3.334   0.870 -0.0829 -0.2048  0.8654
   44TCq2    O6  680   4.430   3.357   1.087  0.3604  0.4061  0.3858
   44TCq2    H2  681   4.661   3.316   1.163 -0.9582  1.9441 -0.6410
   44TCq2    H3  682   4.613   3.345   0.748 -0.2506  0.4199  0.5842
   44TCq2    H4  683   0.279   3.291   0.900  0.2986  2.0764 -0.8766
   45TMC2    C1  684   1.400   0.386   9.668  0.5903  0.2750 -0.0396
   45TMC2    C2  685   1.529   0.363   9.622  0.5898 -0.1317 -0.2308
   45TMC2    C3  686   1.604   0.465   9.578  1.4309  0.2538  0.7639
   45TMC2    C4  687   1.341   0.509   9.666  0.0208 -0.3327  0.2045
   45TMC2    C5  688   1.418   0.607   9.628  0.8652 -0.6629  0.0253
   45TMC2    C6  689   1.550   0.590   9.595  0.1769 -0.0260  0.3995
   45TMC2     C  690   1.312   0.262   9.665 -0.1035  0.3259  0.3745
   45TMC2     O  691   1.367   0.156   9.681  0.4903  0.5456 -0.0167
   45TMC2     H  692   1.564   0.261   9.625 -1.4858 -0.8370 -0.0204
   45TMC2    H1  693   1.249   0.539   9.715 -0.3001 -1.3223  0.2102
   45TMC2    H2  694   1.611   0.673   9.560 -0.4704  0.9094  1.5175
   45TMC2    C7  695   1.368   0.733   9.596  0.2823 -0.0482 -0.8814
   45TMC2    C8  696   1.719   0.458   9.490 -0.0713 -0.5238 -0.3126
   45TMC2    O1  697   1.404   0.775   9.489  0.5095  0.1517 -0.0503
   45TMC2    O2  698   1.746   0.548   9.413 -0.0653  0.5129 -0.2070
   45TMC2    O5  699   1.798   0.352   9.521  0.4186 -0.0444  0.1576
   45TMC2    H5  700   1.774   0.289   9.592 -2.8387  0.0774 -0.8490
   46MPD2     C  701   1.100   0.043   9.679 -0.2477  0.4683  0.0601
   46MPD2    C1  702   1.075   0.181   9.665 -0.1739 -0.0319 -0.4380
   46MPD2    C2  703   0.941   0.210   9.642 -0.0508 -0.7783 -0.0615
   46MPD2    C3  704   0.847   0.110   9.654 -0.4789 -1.3295  0.9528
   46MPD2    C4  705   0.871   4.703   9.673 -0.4199  0.1247 -0.4618
   46MPD2    C5  706   1.005   4.672   9.687  0.0141  0.5261  0.7538
   46MPD2     H  707   0.908   0.309   9.616  0.0481 -0.0204  2.7288
   46MPD2    H1  708   0.797   4.624   9.682  0.6479 -0.6229  1.7826
   46MPD2    H2  709   1.200   0.001   9.681 -1.0614 -1.3844  1.5520
   46MPD2    H3  710   1.024   4.571   9.722  0.0936 -0.1702 -1.3069
   46MPD2     N  711   0.715   0.155   9.618  0.1410  0.0528 -0.1629
   46MPD2    H5  712   0.698   0.254   9.603  1.7808  0.6992  2.2619
   46MPD2    N1  713   1.174   0.284   9.655 -0.1752 -0.6356 -0.1056
   46MPD2    H7  714   1.131   0.375   9.641  1.5466  0.0052 -1.2872
   47TMC2    C1  715   3.890   1.159   9.856 -0.1685  0.2545 -0.3285
   47TMC2    C2  716   3.894   1.296   9.867 -0.3788 -0.1157  0.2361
   47TMC2    C3  717   3.800   1.370   9.801  0.1425  0.6275  0.6895
   47TMC2    C4  718   3.798   1.096   9.779 -0.3832 -0.2392  0.7841
   47TMC2    C5  719   3.708   1.171   9.714 -0.7555 -0.2939 -0.8347
   47TMC2    C6  720   3.699   1.311   9.726 -0.5607 -0.3398  0.1610
   47TMC2     C  721   4.012   1.091   9.893 -0.7328 -0.0133 -0.7729
   47TMC2     O  722   4.103   1.147   9.955  0.0869 -0.0993  0.2366
   47TMC2     H  723   3.964   1.344   9.934 -0.6804  1.1677 -0.3651
   47TMC2    H1  724   3.793   0.988   9.779  0.3158 -0.2639 -1.4900
   47TMC2    H2  725   3.625   1.365   9.670  0.8390  0.6931 -0.6956
   47TMC2    C7  726   3.607   1.106   9.626 -0.4870  0.4338 -0.0141
   47TMC2    C8  727   3.764   1.487   9.873 -0.4648 -0.0277  0.4325
   47TMC2    O1  728   3.508   1.174   9.603  0.2262 -0.6841  0.0033
   47TMC2    O2  729   3.747   1.485   9.996  0.2316  0.5704  0.4920
   47TMC2    O5  730   3.697   1.571   9.787  1.0769  0.1631 -0.2106
   47TMC2    H5  731   3.740   1.572   9.699  0.2907  3.3180 -0.5548
   48MPD2     C  732   4.253   0.902   9.912  0.5674 -0.0501  0.8066
   48MPD2    C1  733   4.150   0.893   9.820  0.0684 -0.2594  0.2471
   48MPD2    C2  734   4.162   0.795   9.721 -0.4716 -0.7433  0.1800
   48MPD2    C3  735   4.262   0.703   9.713 -0.2463  0.2547  0.2208
   48MPD2    C4  736   4.366   0.708   9.806  0.6322 -0.7735  0.0032
   48MPD2    C5  737   4.361   0.809   9.900 -0.1038  0.0924  0.1898
   48MPD2     H  738   4.086   0.791   9.644  0.3178  1.4729 -0.7043
   48MPD2    H1  739   4.451   0.641   9.806  1.2863  0.0596 -0.2551
   48MPD2    H2  740   4.260   0.972   9.994  0.9522  1.8584 -0.8570
   48MPD2    H3  741   4.446   0.825   9.965  0.5341 -0.4794 -0.5037
   48MPD2     N  742   4.265   0.601   9.614  0.1455  0.6490  0.0621
   48MPD2    H5  743   4.349   0.545   9.615 -0.5057 -0.3042  0.5865
   48MPD2    N1  744   4.037   0.979   9.815 -0.2883  0.5879 -0.0104
   48MPD2    H7  745   3.962   0.949   9.753  1.0630 -0.1153 -1.3012
   49MPD2     C  746   1.751   3.114  10.199  0.1425 -0.0965  0.2636
   49MPD2    C1  747   1.682   3.125  10.311  0.4342 -0.1410  0.3895
   49MPD2    C2  748   1.716   3.231  10.396 -0.2179 -0.5031  0.0296
   49MPD2    C3  749   1.822   3.313  10.358 -0.3212  0.1444 -0.0940
   49MPD2    C4  750   1.890   3.292  10.241  0.4018  0.1888  0.3844
   49MPD2    C5  751   1.853   3.193  10.157 -0.1415 -0.8113 -0.3611
   49MPD2     H  752   1.665   3.254  10.489  1.4864  1.3479  0.4990
   49MPD2    H1  753   1.971   3.358  10.211 -0.4692  2.1596  2.3389
   49MPD2    H2  754   1.727   3.037  10.127  2.5016 -1.4501  0.9334
   49MPD2    H3  755   1.904   3.181  10.062  0.1361 -1.8367 -0.0814
   49MPD2     N  756   1.874   3.424  10.442 -0.5502 -0.0790  0.1997
   49MPD2    H5  757   1.943   3.492  10.412 -1.4104  0.7938  0.1724
   49MPD2    N1  758   1.578   3.037  10.342  0.0186 -0.9484  0.0411
   49MPD2    H7  759   1.526   3.063  10.425  0.3122 -1.3845  0.3659
   50TCq2    C1  760   1.536   2.923  10.270 -0.5352 -0.1598  0.0192
   50TCq2    O2  761   1.583   2.878  10.168  0.0688 -0.7804  0.5423
   50TCq2    C2  762   1.441   2.847  10.336 -0.3361 -0.0496  0.5345
   50TCq2    C3  763   1.340   2.787  10.265  0.1106 -0.2021 -0.3145
   50TCq2    C4  764   1.241   2.726  10.333  0.6079 -0.1417  0.9355
   50TCq2    C5  765   1.241   2.720  10.468 -0.5216  0.1149  0.3228
   50TCq2    C6  766   1.334   2.785  10.535 -0.3998  0.5839  0.4149
   50TCq2    C7  767   1.441   2.851  10.471  0.3951  0.4980 -0.8539
   50TCq2    C8  768   1.330   2.757  10.677  0.3679 -0.1625  0.0865
   50TCq2    O4  769   1.230   2.694  10.715  0.0670  0.3284  0.3494
   50TCq2    C9  770   1.140   2.657  10.257 -0.4916 -0.2886  0.5623
   50TCq2    O5  771   1.123   2.690  10.137 -0.0461 -0.0315 -0.5647
   50TCq2    O6  772   1.095   2.551  10.305  0.0279  0.3733 -0.0879
   50TCq2    H2  773   1.334   2.782  10.157  0.8917 -1.6281 -0.3016
   50TCq2    H3  774   1.157   2.669  10.513 -0.9330  1.9449  1.5708
   50TCq2    H4  775   1.507   2.916  10.527  0.1315  0.2233 -0.2341
   51MPD2     C  776   2.868   0.828   1.569  0.0564 -0.0303 -0.1958
   51MPD2    C1  777   2.856   0.697   1.603  0.4276 -1.0658  0.0401
   51MPD2    C2  778   2.928   0.650   1.710  0.1574  0.3471 -0.9084
   51MPD2    C3  779   3.023   0.726   1.773  0.3375 -0.1344  0.0616
   51MPD2    C4  780   3.033   0.862   1.737  0.0161 -1.4424 -0.5607
   51MPD2    C5  781   2.940   0.917   1.646  0.6916 -0.0687  0.7749
   51MPD2     H  782   2.921   0.545   1.733 -0.6745  0.5456 -0.2267
   51MPD2    H1  783   3.115   0.920   1.776 -2.5592  0.2456  2.3872
   51MPD2    H2  784   2.794   0.874   1.504 -0.6452  2.0337  2.0606
   51MPD2    H3  785   2.945   1.021   1.616 -0.4870 -0.1890  0.1566
   51MPD2     N  786   3.110   0.669   1.864 -0.7804  0.1107 -0.8625
   51MPD2    H5  787   3.163   0.737   1.917 -0.2181  0.4780 -1.8883
   51MPD2    N1  788   2.774   0.603   1.537 -1.3900  0.0386 -0.0642
   51MPD2    H7  789   2.784   0.505   1.559 -1.8474 -0.1542 -0.6980
   52TCq2    C1  790   3.124   0.541   1.910  0.4177 -0.4499 -0.1745
   52TCq2    O2  791   3.055   0.437   1.900  0.3857  0.2548 -0.2765
   52TCq2    C2  792   3.258   0.536   1.970  0.5996  0.1092  0.0921
   52TCq2    C3  793   3.288   0.432   2.050  0.7068  0.2384 -0.0612
   52TCq2    C4  794   3.414   0.411   2.099  0.4643  0.7150 -0.1460
   52TCq2    C5  795   3.514   0.486   2.057  0.0155 -0.5053 -0.8468
   52TCq2    C6  796   3.489   0.588   1.964 -0.8278 -0.0612 -0.2717
   52TCq2    C7  797   3.355   0.611   1.923 -0.1471  0.3653 -0.3833
   52TCq2    C8  798   3.574   0.701   1.946 -0.4232 -0.4058  0.3060
   52TCq2    O4  799   3.522   0.812   1.937 -0.4560 -0.4811  0.0995
   52TCq2    C9  800   3.432   0.308   2.208 -0.0809 -0.9413 -0.0231
   52TCq2    O5  801   3.549   0.296   2.245  0.2160 -0.0939  0.3628
   52TCq2    O6  802   3.331   0.233   2.225  0.5015 -0.2881  0.1876
   52TCq2    H2  803   3.208   0.373   2.094  1.0871  0.7702  1.3220
   52TCq2    H3  804   3.610   0.462   2.102 -0.0119  0.8017 -0.0671
   52TCq2    H4  805   3.352   0.687   1.846  0.0939 -1.1196 -1.8673
   53TMC2    C1  806   2.485   0.292  12.567  0.7254  0.1184  0.6767
   53TMC2    C2  807   2.532   0.172  12.622 -0.3920 -0.4460 -0.6455
   53TMC2    C3  808   2.456   0.124  12.722  0.1468  0.3235 -0.3294
   53TMC2    C4  809   2.364   0.342  12.607  0.0341 -0.6090  0.1792
   53TMC2    C5  810   2.298   0.296  12.713 -0.1471  0.0431  0.8961
   53TMC2    C6  811   2.343   0.186  12.773  0.3728 -0.1187  0.1143
   53TMC2     C  812   2.495   0.305  12.422 -0.2753  1.0970 -0.4111
   53TMC2     O  813   2.602   0.289  12.361 -0.0272  0.2318  0.0125
   53TMC2     H  814   2.636   0.149  12.605 -0.2100  1.0858 -1.6445
   53TMC2    H1  815   2.347   0.447  12.588  0.7480 -0.1139  2.2199
   53TMC2    H2  816   2.311   0.156  12.872  0.2032 -0.1111  0.0613
   53TMC2    C7  817   2.160   0.329  12.725  0.2261 -0.7012  0.8617
   53TMC2    C8  818   2.519   0.033  12.808 -0.6243 -0.3151  0.4399
   53TMC2    O1  819   2.095   0.361  12.625 -0.5968 -0.3322  0.4352
   53TMC2    O2  820   2.485   0.023  12.925 -0.5180 -0.0861 -0.0571
   53TMC2    O5  821   2.597   4.675  12.746 -0.0968  0.2313 -0.1431
   53TMC2    H5  822   2.605   4.690  12.650 -1.4914  2.1477  0.0546
   54MPD2     C  823   2.416   0.317  12.124 -0.0774  0.2267  0.0286
   54MPD2    C1  824   2.329   0.318  12.234  0.0367  0.2293  0.6691
   54MPD2    C2  825   2.193   0.324  12.210 -0.2194 -0.1929  0.3911
   54MPD2    C3  826   2.146   0.334  12.076  0.4605  0.6813  0.9623
   54MPD2    C4  827   2.234   0.333  11.969  0.7102  0.0820 -0.0038
   54MPD2    C5  828   2.369   0.317  11.994 -0.0513 -0.0035 -0.0480
   54MPD2     H  829   2.124   0.321  12.294 -2.3885  1.4347 -1.3148
   54MPD2    H1  830   2.207   0.354  11.866 -0.8789 -0.5545  0.2793
   54MPD2    H2  831   2.522   0.331  12.139  0.1670 -0.5721 -0.9181
   54MPD2    H3  832   2.441   0.326  11.913  0.4309 -3.4256 -0.0328
   54MPD2     N  833   2.014   0.334  12.037 -0.1568 -0.0952  0.0685
   54MPD2    H5  834   1.987   0.342  11.939 -1.4959  0.7664  0.5118
   54MPD2    N1  835   2.370   0.318  12.367  0.1635 -0.4654 -0.9196
   54MPD2    H7  836   2.302   0.332  12.440 -1.6861  0.7177 -2.8553
   55MPD2     C  837   3.242   2.598   0.033  0.3518  0.1518  0.2667
   55MPD2    C1  838   3.181   2.507   0.120  0.2912 -0.5264  0.1981
   55MPD2    C2  839   3.067   2.544   0.187 -0.1022  0.2258 -0.2765
   55MPD2    C3  840   3.031   2.681   0.191  0.4926  0.6063  0.3888
   55MPD2    C4  841   3.101   2.771   0.122  0.7001  0.3993 -0.2848
   55MPD2    C5  842   3.202   2.727   0.039 -0.4173  0.4009 -0.2386
   55MPD2     H  843   3.011   2.476   0.249 -0.5272  1.1468  0.3462
   55MPD2    H1  844   3.076   2.876   0.125  2.5642  0.8359 -0.3543
   55MPD2    H2  845   3.330   2.567  17.678  0.7007  1.8247 -0.1337
   55MPD2    H3  846   3.255   2.802  17.681 -1.0968  0.2485 -1.0414
   55MPD2     N  847   2.922   2.722   0.275  0.4775  0.1838  0.3991
   55MPD2    H5  848   2.881   2.655   0.339 -0.7474  0.1698 -0.4063
   55MPD2    N1  849   3.232   2.377   0.120  0.2999  0.4459  0.0188
   55MPD2    H7  850   3.313   2.353   0.063  1.1321  1.6179  0.7243
   56TCq2    C1  851   3.193   2.285   0.221  0.7871  0.3660  0.5082
   56TCq2    O2  852   3.119   2.308   0.316  0.4894 -0.6456 -0.5633
   56TCq2    C2  853   3.250   2.152   0.213 -0.1885  0.1397 -0.1879
   56TCq2    C3  854   3.313   2.109   0.100  0.3167  0.3671 -0.7249
   56TCq2    C4  855   3.359   1.984   0.102 -0.0567 -0.2900 -0.3263
   56TCq2    C5  856   3.337   1.899   0.209  0.0622  0.6389 -0.1591
   56TCq2    C6  857   3.262   1.941   0.310 -0.0842 -0.1081 -0.1995
   56TCq2    C7  858   3.211   2.068   0.319 -0.1188 -0.7754  0.9452
   56TCq2    C8  859   3.206   1.838   0.402 -0.3058 -1.1234  0.3549
   56TCq2    O4  860   3.254   1.728   0.402  0.7607 -0.2445  0.0818
   56TCq2    C9  861   3.430   1.933  17.688 -0.1115 -0.7579  0.0718
   56TCq2    O5  862   3.497   1.825   0.006 -0.0289  0.7006  0.1524
   56TCq2    O6  863   3.396   1.988  17.578  0.1163  0.3827  0.4570
   56TCq2    H2  864   3.335   2.172   0.014 -0.1834 -0.8882 -1.7665
   56TCq2    H3  865   3.369   1.796   0.207  0.7561  0.8427  0.2199
   56TCq2    H4  866   3.162   2.113   0.405 -1.7792 -0.8990  0.0479
   57TMC2    C1  867   1.526   3.884  13.768  0.1492  0.9645 -0.2415
   57TMC2    C2  868   1.654   3.939  13.785  0.3740 -0.2397 -0.3395
   57TMC2    C3  869   1.734   3.923  13.669 -0.2517  0.1429  0.0423
   57TMC2    C4  870   1.475   3.836  13.650  0.1388  0.5435  0.7217
   57TMC2    C5  871   1.559   3.826  13.550 -0.2125  0.0491  0.4177
   57TMC2    C6  872   1.692   3.873  13.554 -1.0278  0.1536  0.5273
   57TMC2     C  873   1.446   3.875  13.891 -0.7069 -0.3420  0.3580
   57TMC2     O  874   1.329   3.906  13.878  0.3463  0.4111  0.1783
   57TMC2     H  875   1.691   3.982  13.877  0.2182  2.1433 -1.3734
   57TMC2    H1  876   1.385   3.776  13.650 -1.5149  3.0283 -1.1124
   57TMC2    H2  877   1.764   3.848  13.477 -0.9997  0.2663  0.5173
   57TMC2    C7  878   1.526   3.720  13.453 -0.6116 -0.6241  0.6854
   57TMC2    C8  879   1.853   4.002  13.673 -0.2668 -0.0949  0.3897
   57TMC2    O1  880   1.412   3.711  13.408  0.3146  0.4724 -0.0460
   57TMC2    O2  881   1.925   4.000  13.774  0.0090  0.6069  0.0723
   57TMC2    O5  882   1.882   4.041  13.547 -0.0254  0.3438  0.1557
   57TMC2    H5  883   1.794   4.056  13.506  0.0892  0.4230 -0.0670
   58MPD2     C  884   1.397   3.817  14.390 -0.3703 -0.1736 -0.0787
   58MPD2    C1  885   1.311   3.883  14.310  0.4199 -0.1875  0.4929
   58MPD2    C2  886   1.346   3.892  14.171 -0.7056 -0.4874 -0.3278
   58MPD2    C3  887   1.462   3.826  14.133  0.1271 -0.3138  0.1450
   58MPD2    C4  888   1.554   3.773  14.213 -0.0837 -0.1215 -0.0171
   58MPD2    C5  889   1.516   3.762  14.347 -0.3358  0.2368  0.3430
   58MPD2     H  890   1.287   3.942  14.095 -1.8166 -2.6220 -0.8724
   58MPD2    H1  891   1.650   3.741  14.176 -0.2637 -1.2031  0.4500
   58MPD2    H2  892   1.384   3.792  14.495 -0.8876 -0.3632 -0.1904
   58MPD2    H3  893   1.581   3.712  14.417 -0.2209  0.2860  0.2737
   58MPD2     N  894   1.514   3.840  14.004  0.4657 -0.1777  0.6520
   58MPD2    H5  895   1.605   3.801  13.982  0.9149  2.2069 -1.7070
   58MPD2    N1  896   1.197   3.947  14.358  0.2917  0.6633  0.3924
   58MPD2    H7  897   1.152   4.008  14.290  1.5378 -0.8481 -1.8065
   59MPD2     C  898   4.483   3.889  13.404  0.2651  0.1111  0.3000
   59MPD2    C1  899   4.587   3.947  13.331 -0.1375 -0.1818 -0.0314
   59MPD2    C2  900   4.676   4.030  13.388 -0.0787 -0.1332  0.4861
   59MPD2    C3  901   4.661   4.058  13.524  0.2222 -0.0106  0.1227
   59MPD2    C4  902   4.568   3.990  13.599  0.1164  0.3285  0.0062
   59MPD2    C5  903   4.468   3.920  13.540 -0.4109  0.0553  0.3926
   59MPD2     H  904   0.027   4.077  13.326 -0.5496  0.7051  0.5421
   59MPD2    H1  905   4.569   4.013  13.705 -1.3520 -1.2470  0.3697
   59MPD2    H2  906   4.426   3.812  13.354  1.3083 -0.5821  0.1648
   59MPD2    H3  907   4.400   3.858  13.596 -1.5515 -0.6656 -1.7764
   59MPD2     N  908   0.026   4.143  13.599 -0.7129 -0.7134  0.0312
   59MPD2    H5  909   0.007   4.158  13.697  1.2431  1.6442  0.0646
   59MPD2    N1  910   4.596   3.901  13.197  0.1907 -0.4824  0.3419
   59MPD2    H7  911   4.538   3.823  13.168 -4.0991  1.5650  3.4255
   60TCq2    C1  912   4.660   3.970  13.100 -0.4699 -0.5400  0.0502
   60TCq2    O2  913   4.700   4.085  13.100  0.5486  0.1061 -0.7680
   60TCq2    C2  914   4.665   3.894  12.977 -0.8914  0.3779 -0.6889
   60TCq2    C3  915   4.645   3.755  12.982  0.0223  0.1346  0.0202
   60TCq2    C4  916   4.659   3.685  12.865 -0.1878  0.0951 -0.3405
   60TCq2    C5  917   4.704   3.742  12.748 -0.6610  0.8438  0.1048
   60TCq2    C6  918   0.023   3.877  12.750 -0.7668 -0.3473  0.4075
   60TCq2    C7  919   0.004   3.949  12.869  0.2667 -0.1114  0.2028
   60TCq2    C8  920   0.051   3.961  12.633  0.3186 -0.1817  0.1798
   60TCq2    O4  921   0.110   3.909  12.540  0.2685  0.2810 -0.0792
   60TCq2    C9  922   4.644   3.537  12.873 -0.2032  0.3493  0.1988
   60TCq2    O5  923   4.627   3.491  12.988 -0.1502 -0.0842  0.2358
   60TCq2    O6  924   4.649   3.466  12.771  0.1110  0.0351 -0.2730
   60TCq2    H2  925   4.602   3.704  13.067 -1.1444  3.3049  1.3395
   60TCq2    H3  926   0.005   3.678  12.665  0.0702  1.3591 -0.0702
   60TCq2    H4  927   0.036   4.053  12.880  0.0566  0.0742 -0.8598
   61MPD2     C  928   3.985   0.123  14.691  0.5948 -0.3972 -0.1211
   61MPD2    C1  929   3.988   0.259  14.699  0.4176  0.3212 -0.2224
   61MPD2    C2  930   3.952   0.337  14.593  0.3369 -0.2347  0.1441
   61MPD2    C3  931   3.885   0.282  14.486 -1.1085 -0.4320 -0.2247
   61MPD2    C4  932   3.878   0.146  14.476  0.5974  0.1747 -0.3924
   61MPD2    C5  933   3.926   0.070  14.578 -0.7496 -0.6473  0.6643
   61MPD2     H  934   3.983   0.440  14.603 -0.0986  0.0173 -1.0610
   61MPD2    H1  935   3.813   0.095  14.407  1.4317 -0.0918 -0.9739
   61MPD2    H2  936   4.024   0.058  14.769  1.6189 -1.2840 -1.3712
   61MPD2    H3  937   3.904   4.688  14.582  0.5670 -0.9641 -0.6191
   61MPD2     N  938   3.815   0.348  14.383 -0.3533  0.3769 -0.3608
   61MPD2    H5  939   3.795   0.284  14.306  1.5332  1.9812 -2.1813
   61MPD2    N1  940   4.046   0.318  14.803  0.8576  0.2033 -0.5596
   61MPD2    H7  941   4.070   0.416  14.794 -0.0949  0.4339 -0.5828
   62TCq2    C1  942   4.079   0.256  14.925 -0.1195 -0.1410 -0.2544
   62TCq2    O2  943   4.086   0.136  14.960 -0.4691  0.3739 -0.1968
   62TCq2    C2  944   4.131   0.344  15.018  0.5995  0.2042 -0.3874
   62TCq2    C3  945   4.238   0.303  15.087  0.0599 -0.1373  0.4307
   62TCq2    C4  946   4.275   0.379  15.195  0.0458 -0.4591  0.0675
   62TCq2    C5  947   4.209   0.502  15.216 -0.2421 -0.7533  0.5768
   62TCq2    C6  948   4.105   0.539  15.132  0.6188  0.1839  0.0344
   62TCq2    C7  949   4.063   0.460  15.029 -0.3443  0.1385 -0.3650
   62TCq2    C8  950   4.031   0.654  15.171  0.2670  0.6591  0.4993
   62TCq2    O4  951   4.078   0.727  15.261  0.0988  0.2389 -0.3009
   62TCq2    C9  952   4.395   0.347  15.273  0.7477 -0.0067 -1.0288
   62TCq2    O5  953   4.445   0.228  15.268  0.1280 -0.8889 -0.2460
   62TCq2    O6  954   4.422   0.434  15.363 -0.0351 -0.3743 -0.3942
   62TCq2    H2  955   4.289   0.211  15.060 -1.1865 -1.0657  1.2096
   62TCq2    H3  956   4.247   0.568  15.293 -0.9558 -0.3767  0.6036
   62TCq2    H4  957   3.979   0.482  14.964  0.3521  0.4639 -1.1463
   63TMC2    C1  958   3.463   0.823  10.845  0.1677 -0.6846 -0.2474
   63TMC2    C2  959   3.540   0.838  10.960 -0.4443 -0.2517 -0.3620
   63TMC2    C3  960   3.655   0.907  10.940 -0.1727  0.5352  1.1285
   63TMC2    C4  961   3.502   0.857  10.717  0.4129  1.3571 -0.0527
   63TMC2    C5  962   3.621   0.928  10.712 -0.1852  0.1060  0.2359
   63TMC2    C6  963   3.702   0.949  10.821 -0.4072 -0.0400  0.3696
   63TMC2     C  964   3.352   0.735  10.859 -0.2051 -0.0984  0.0358
   63TMC2     O  965   3.358   0.663  10.956 -0.8198 -0.2674  0.5599
   63TMC2     H  966   3.507   0.802  11.057 -0.2505 -0.0007 -0.2009
   63TMC2    H1  967   3.440   0.847  10.629  0.2837 -0.6492  0.2633
   63TMC2    H2  968   3.804   0.986  10.821  0.5239 -2.6066 -0.4841
   63TMC2    C7  969   3.675   0.958  10.582 -0.5879  0.5500 -0.0075
   63TMC2    C8  970   3.733   0.894  11.064  0.2155  0.3991 -0.0985
   63TMC2    O1  971   3.623   0.912  10.482  0.0374 -0.2819 -0.2628
   63TMC2    O2  972   3.694   0.842  11.169  0.6329  0.4347 -0.1869
   63TMC2    O5  973   3.817   0.993  11.058  0.3667 -0.4671 -0.1781
   63TMC2    H5  974   3.815   1.048  10.977 -0.3702  1.3420  1.0754
   64MPD2     C  975   3.058   0.377  10.620  0.1228 -0.7154 -0.2021
   64MPD2    C1  976   3.154   0.365  10.723  0.4211  0.6908  0.9820
   64MPD2    C2  977   3.197   0.485  10.785 -1.1647  0.0257 -0.6088
   64MPD2    C3  978   3.185   0.614  10.731  0.0497 -0.7797 -0.6654
   64MPD2    C4  979   3.103   0.616  10.621 -0.2428  0.4242 -0.0459
   64MPD2    C5  980   3.032   0.507  10.570  0.0742 -0.1262  0.0024
   64MPD2     H  981   3.268   0.463  10.864 -0.2174 -0.2467 -1.5334
   64MPD2    H1  982   3.060   0.704  10.574 -0.4513 -0.5990 -1.7655
   64MPD2    H2  983   3.012   0.286  10.583 -1.4978 -0.1879  0.5430
   64MPD2    H3  984   2.976   0.511  10.477 -0.5239 -0.4061  0.3487
   64MPD2     N  985   3.254   0.730  10.768 -0.8622  0.0914  0.4421
   64MPD2    H5  986   3.245   0.811  10.707  0.3042  0.5394  0.8686
   64MPD2    N1  987   3.201   0.243  10.780 -0.1610  0.1596  0.1587
   64MPD2    H7  988   3.274   0.244  10.850 -0.3138  0.3623  0.3181
   65MPD2     C  989   4.711   4.571  16.136 -0.3416  0.6678 -0.2148
   65MPD2    C1  990   0.012   4.528  16.003 -0.3336 -0.6047  0.4851
   65MPD2    C2  991   4.688   4.408  15.958 -0.1596 -0.1819 -0.3066
   65MPD2    C3  992   4.610   4.327  16.044 -0.0359  0.4281 -0.4387
   65MPD2    C4  993   4.587   4.365  16.174  0.1517  0.0746 -0.1523
   65MPD2    C5  994   4.647   4.484  16.219  0.5524  0.3222  0.2784
   65MPD2     H  995   4.711   4.380  15.856 -1.4788 -1.4855 -0.2524
   65MPD2    H1  996   4.530   4.307  16.245  0.7317  1.5459  1.5187
   65MPD2    H2  997   0.031   4.659  16.179  0.1322  0.7189 -0.8224
   65MPD2    H3  998   4.615   4.521  16.315 -0.9550 -2.5385  0.8732
   65MPD2     N  999   4.548   4.207  16.003  0.7444  0.2445 -0.0291
   65MPD2    H5 1000   4.488   4.166  16.074 -0.1908  0.7558 -0.5270
   65MPD2    N1 1001   0.075   4.615  15.912 -0.1583  0.1166  0.0138
   65MPD2    H7 1002   0.090   4.586  15.816  0.7221  0.3155  0.0966
   66TCq2    C1 1003   0.097   0.030  15.945  0.5937 -0.2582 -0.7901
   66TCq2    O2 1004   0.066   0.092  16.042  0.3593 -0.2134  0.0603
   66TCq2    C2 1005   0.149   0.111  15.832  0.9474 -0.0624 -0.4851
   66TCq2    C3 1006   0.099   0.085  15.709 -0.0675 -0.0664 -0.1972
   66TCq2    C4 1007   0.110   0.185  15.615  1.0836 -0.1226  0.2672
   66TCq2    C5 1008   0.150   0.307  15.655  0.6779 -0.4003 -0.2697
   66TCq2    C6 1009   0.201   0.329  15.783  0.6411 -1.0488 -0.3364
   66TCq2    C7 1010   0.187   0.236  15.880 -0.5356 -0.4444 -0.0723
   66TCq2    C8 1011   0.211   0.471  15.807 -0.2294 -0.6008 -1.0477
   66TCq2    O4 1012   0.276   0.537  15.724  0.2084 -0.2273  0.4194
   66TCq2    C9 1013   0.043   0.181  15.489 -0.1896  0.2925  0.5563
   66TCq2    O5 1014   0.045   0.078  15.422  0.4228  0.3594 -0.5192
   66TCq2    O6 1015   0.002   0.286  15.441  0.8508  0.2125 -0.1674
   66TCq2    H2 1016   0.048   4.720  15.673  1.9062 -0.8611 -0.9930
   66TCq2    H3 1017   0.137   0.396  15.595  1.3909  0.0131  0.1968
   66TCq2    H4 1018   0.222   0.253  15.981  3.2069  2.2626 -1.7991
   67MPD2     C 1019   4.655   4.218  14.480  0.1659 -0.2178 -0.0184
   67MPD2    C1 1020   4.572   4.226  14.595  0.0593 -1.1142  0.2779
   67MPD2    C2 1021   4.435   4.182  14.593  0.2159 -0.8593  1.0882
   67MPD2    C3 1022   4.385   4.151  14.470  0.1903 -0.2667 -0.2659
   67MPD2    C4 1023   4.467   4.161  14.350  0.3271  0.0461 -0.0103
   67MPD2    C5 1024   4.602   4.188  14.360 -0.1194  0.1466  0.3345
   67MPD2     H 1025   4.373   4.184  14.682 -1.4198 -1.2590 -0.0399
   67MPD2    H1 1026   4.424   4.138  14.253 -3.3117  2.1553  1.0746
   67MPD2    H2 1027   0.037   4.241  14.477 -0.2986  1.6896 -1.8702
   67MPD2    H3 1028   4.665   4.179  14.273 -1.3377 -1.2485 -0.3997
   67MPD2     N 1029   4.246   4.130  14.449 -0.6382 -0.1422 -0.0749
   67MPD2    H5 1030   4.215   4.126  14.352  0.1300  0.8673 -0.3678
   67MPD2    N1 1031   4.626   4.280  14.716  0.1549 -0.1940  0.2076
   67MPD2    H7 1032   4.558   4.321  14.779 -0.0226  0.5253 -0.4646
   68TCq2    C1 1033   0.031   4.300  14.743 -0.7223  0.3909  0.0601
   68TCq2    O2 1034   0.132   4.260  14.689 -0.2561 -0.1227  0.0076
   68TCq2    C2 1035   0.044   4.378  14.864 -0.2662  0.3242  0.9148
   68TCq2    C3 1036   4.690   4.486  14.886  0.2313  0.8423  0.1461
   68TCq2    C4 1037   0.007   4.573  14.986  1.4822 -0.5739 -0.4352
   68TCq2    C5 1038   0.111   4.537  15.069 -0.1838 -0.1396  0.7597
   68TCq2    C6 1039   0.178   4.418  15.049  0.0829 -0.2110  1.0768
   68TCq2    C7 1040   0.151   4.342  14.942 -0.0603  0.2677  0.4048
   68TCq2    C8 1041   0.311   4.406  15.106 -0.0271  0.7794  0.7121
   68TCq2    O4 1042   0.403   4.391  15.028 -0.2873  0.5471 -0.1826
   68TCq2    C9 1043   4.671   4.702  14.996  0.3027 -0.4043 -0.6091
   68TCq2    O5 1044   4.570   0.002  14.924  0.2218  0.0156  0.0433
   68TCq2    O6 1045   4.677   0.017  15.118  0.3306  0.1268 -0.0304
   68TCq2    H2 1046   4.605   4.506  14.821  0.1876  0.9571  0.2389
   68TCq2    H3 1047   0.152   4.609  15.139  0.8083 -1.3553  1.4246
   68TCq2    H4 1048   0.216   4.259  14.918  1.0879  0.1357  4.0058
   69TMC2    C1 1049   1.937   0.963  12.442 -0.1416  0.3627 -0.7174
   69TMC2    C2 1050   1.840   1.054  12.399 -0.2924  0.3726 -0.1692
   69TMC2    C3 1051   1.855   1.126  12.283 -0.0109  0.3392  0.4757
   69TMC2    C4 1052   2.058   0.942  12.370 -0.5033 -0.2105 -0.8042
   69TMC2    C5 1053   2.063   1.003  12.251  0.1941  0.3037  0.1842
   69TMC2    C6 1054   1.964   1.091  12.204 -0.2747 -0.1911 -0.0235
   69TMC2     C 1055   1.918   0.903  12.572  0.3699  0.3928 -1.3325
   69TMC2     O 1056   1.800   0.883  12.610 -0.0398  0.2127 -0.6493
   69TMC2     H 1057   1.759   1.069  12.470  0.7395  2.4401  0.5597
   69TMC2    H1 1058   2.127   0.861  12.391 -1.4033 -1.2282 -1.7748
   69TMC2    H2 1059   1.984   1.122  12.102  0.9140 -2.7661 -0.5971
   69TMC2    C7 1060   2.202   1.008  12.204  0.6116  0.2409  0.2659
   69TMC2    C8 1061   1.742   1.205  12.249  0.0937  1.0345  0.0279
   69TMC2    O1 1062   2.289   0.997  12.286 -0.1434  0.0171  0.0213
   69TMC2    O2 1063   1.638   1.192  12.319  0.1289  0.2699 -0.5018
   69TMC2    O5 1064   1.755   1.280  12.138  0.0814  0.3631 -0.4837
   69TMC2    H5 1065   1.850   1.296  12.123  0.0848  2.3365  1.5411
   70MPD2     C 1066   2.203   0.747  12.747 -0.0221 -1.0667 -0.0798
   70MPD2    C1 1067   2.073   0.785  12.740  0.1524  0.5032 -0.3077
   70MPD2    C2 1068   1.977   0.749  12.833 -0.5049 -0.2671 -0.5909
   70MPD2    C3 1069   2.016   0.664  12.936  0.1865  0.1820  0.3443
   70MPD2    C4 1070   2.144   0.611  12.936 -0.6949 -0.2381  0.1653
   70MPD2    C5 1071   2.238   0.662  12.851  0.7836  0.2972  0.3329
   70MPD2     H 1072   1.885   0.805  12.835  0.9262  2.1307 -1.5035
   70MPD2    H1 1073   2.184   0.554  13.019 -0.6170  0.2859  0.4863
   70MPD2    H2 1074   2.274   0.787  12.676  0.7789 -1.2742  0.5988
   70MPD2    H3 1075   2.343   0.635  12.857  0.2101 -1.9288  0.4437
   70MPD2     N 1076   1.930   0.639  13.050  0.0401  0.1379  0.4264
   70MPD2    H5 1077   1.976   0.592  13.126  0.0328 -0.2851  0.1684
   70MPD2    N1 1078   2.038   0.867  12.625  0.2582 -0.4353  0.1816
   70MPD2    H7 1079   2.117   0.899  12.569  0.9559 -2.0812  0.2315
   71TMC2    C1 1080   0.083   0.515   1.005  0.0998 -0.4639 -0.3095
   71TMC2    C2 1081   0.144   0.430   0.913 -0.4795 -0.2095  0.2133
   71TMC2    C3 1082   0.161   0.295   0.952 -0.0145  0.5048  0.3823
   71TMC2    C4 1083   0.045   0.471   1.130 -0.9597  0.2851 -0.5791
   71TMC2    C5 1084   0.065   0.340   1.164 -0.2681  0.3341  0.1390
   71TMC2    C6 1085   0.129   0.255   1.079  0.5797 -0.3107 -0.3010
   71TMC2     C 1086   0.052   0.653   0.982  0.1743 -0.1310  0.3882
   71TMC2     O 1087   0.123   0.711   0.900 -0.1654  0.4411 -0.3941
   71TMC2     H 1088   0.134   0.458   0.809  0.9788 -0.9256 -0.1207
   71TMC2    H1 1089   0.020   0.539   1.210 -2.5225 -1.0030  0.0408
   71TMC2    H2 1090   0.137   0.151   1.106 -0.8285 -0.6202 -1.1040
   71TMC2    C7 1091   0.019   0.291   1.293 -0.0130 -0.0691 -0.1051
   71TMC2    C8 1092   0.221   0.196   0.860  0.4859 -0.1197  0.9843
   71TMC2    O1 1093   0.066   0.185   1.326  0.5076 -0.4860 -0.4127
   71TMC2    O2 1094   0.206   0.076   0.871  0.1142  0.3450  0.0386
   71TMC2    O5 1095   0.305   0.255   0.776  0.0184 -0.1805  0.8037
   71TMC2    H5 1096   0.313   0.346   0.813  0.8506  0.3277 -0.6455
   72MPD2     C 1097   4.481   1.064   1.039 -0.1880  0.1709  0.0583
   72MPD2    C1 1098   4.611   1.054   1.002 -0.3695  0.3168 -0.8749
   72MPD2    C2 1099   4.666   0.928   0.996 -0.3399  0.4871  0.0376
   72MPD2    C3 1100   4.598   0.813   1.034 -0.6328 -0.1211  0.1226
   72MPD2    C4 1101   4.465   0.826   1.063  0.3798 -0.5314 -0.4647
   72MPD2    C5 1102   4.415   0.950   1.072 -0.1381  0.2894  0.3700
   72MPD2     H 1103   0.043   0.925   0.957 -0.7230 -2.4903 -0.7204
   72MPD2    H1 1104   4.408   0.737   1.085  0.7173 -0.5906  0.1501
   72MPD2    H2 1105   4.430   1.158   1.056  0.5650  0.3985  1.1123
   72MPD2    H3 1106   4.311   0.946   1.104 -0.3750 -1.4090 -0.6027
   72MPD2     N 1107   4.655   0.686   1.037  0.3312 -0.6881 -0.5471
   72MPD2    H5 1108   4.605   0.610   1.081  3.0002 -3.0983 -1.7083
   72MPD2    N1 1109   4.688   1.165   0.960  0.2788 -0.1801  0.2040
   72MPD2    H7 1110   0.060   1.152   0.932 -0.0026 -1.9445  0.0693
   73TMC2    C1 1111   3.638   2.966  13.818 -0.6374  0.0979 -0.4767
   73TMC2    C2 1112   3.624   2.845  13.748 -0.4381  0.4447 -0.7292
   73TMC2    C3 1113   3.652   2.729  13.804  0.0995  0.2563 -0.1670
   73TMC2    C4 1114   3.704   2.944  13.939 -0.2400 -0.2071  0.2356
   73TMC2    C5 1115   3.746   2.825  13.989 -0.6148  0.6032  0.2042
   73TMC2    C6 1116   3.712   2.711  13.923 -0.4100 -0.1965 -0.3188
   73TMC2     C 1117   3.717   3.061  13.752  0.1621 -0.1005  0.4419
   73TMC2     O 1118   3.831   3.067  13.798 -0.0710  0.5540  0.5445
   73TMC2     H 1119   3.568   2.845  13.655 -0.8082 -0.7311 -0.5096
   73TMC2    H1 1120   3.732   3.035  13.992 -1.1002 -0.2282  0.7247
   73TMC2    H2 1121   3.756   2.618  13.957  1.6174  0.2845 -1.5915
   73TMC2    C7 1122   3.891   2.813  14.025 -0.2439  0.0300 -0.6330
   73TMC2    C8 1123   3.633   2.602  13.732 -0.0152 -0.2437 -0.5016
   73TMC2    O1 1124   3.921   2.723  14.098  0.1158  0.2613 -0.5472
   73TMC2    O2 1125   3.615   2.495  13.788  0.4276 -0.3333 -0.4214
   73TMC2    O5 1126   3.696   2.616  13.613 -0.2654  0.4018 -0.2561
   73TMC2    H5 1127   3.725   2.709  13.601  0.1280  0.1547 -1.2618
   74MPD2     C 1128   3.863   3.285  13.321  0.4393 -0.2251  0.5580
   74MPD2    C1 1129   3.931   3.257  13.432 -0.3042  0.3459  0.0020
   74MPD2    C2 1130   3.874   3.197  13.541  0.1751 -0.0087  0.6961
   74MPD2    C3 1131   3.741   3.161  13.528 -0.6163 -0.0149  0.3775
   74MPD2    C4 1132   3.666   3.201  13.419 -0.7066  0.1067  0.8142
   74MPD2    C5 1133   3.726   3.264  13.314 -0.3057 -0.0273 -0.9538
   74MPD2     H 1134   3.933   3.191  13.632  3.0738  1.1385 -1.1189
   74MPD2    H1 1135   3.560   3.177  13.416 -0.6724 -0.2603  2.3702
   74MPD2    H2 1136   3.916   3.326  13.236 -2.0470  1.8434 -0.0148
   74MPD2    H3 1137   3.669   3.300  13.229 -2.0221  3.4781  1.6526
   74MPD2     N 1138   3.670   3.085  13.624  0.9290 -0.5878 -0.4323
   74MPD2    H5 1139   3.581   3.046  13.595 -0.0639  0.0162  1.7887
   74MPD2    N1 1140   4.070   3.308  13.439  0.0125 -0.2838  0.1348
   74MPD2    H7 1141   4.105   3.342  13.350  1.9111 -0.3108  0.8687
   75TCq2    C1 1142   4.144   4.103  14.541  0.2256 -0.6822  0.8013
   75TCq2    O2 1143   4.159   4.083  14.663 -0.0570 -0.2111 -0.4101
   75TCq2    C2 1144   4.012   4.085  14.482  0.0126 -0.2318 -0.3050
   75TCq2    C3 1145   3.931   3.994  14.539  0.0058 -0.0994  0.2632
   75TCq2    C4 1146   3.812   3.957  14.480 -0.0041 -0.1013  0.1648
   75TCq2    C5 1147   3.770   4.027  14.364  0.3361 -0.1438 -0.6932
   75TCq2    C6 1148   3.857   4.126  14.315  0.7755  0.2767  0.4638
   75TCq2    C7 1149   3.979   4.157  14.373 -0.3867  0.7645  0.1565
   75TCq2    C8 1150   3.827   4.169  14.181  1.2867  0.2176  0.0608
   75TCq2    O4 1151   3.755   4.088  14.112  0.4855  0.3919  0.2864
   75TCq2    C9 1152   3.733   3.857  14.555  0.8400  0.5268  0.3109
   75TCq2    O5 1153   3.796   3.775  14.630 -0.3641  0.0027  0.1934
   75TCq2    O6 1154   3.609   3.841  14.531 -0.2237  0.3534  0.4931
   75TCq2    H2 1155   3.973   3.946  14.627  0.2625 -1.7135 -0.7560
   75TCq2    H3 1156   3.676   4.000  14.319  0.1606 -1.0929  0.2335
   75TCq2    H4 1157   4.042   4.240  14.345  2.0014 -1.1526 -0.1354
   76MPD2     C 1158   3.452   0.769  12.309  0.4366 -0.0878  0.4003
   76MPD2    C1 1159   3.312   0.769  12.273 -0.3870  0.4413  0.2391
   76MPD2    C2 1160   3.250   0.645  12.257 -0.1817  0.4354  0.4493
   76MPD2    C3 1161   3.319   0.530  12.251 -0.1928 -0.4612  0.0272
   76MPD2    C4 1162   3.455   0.528  12.283  0.2892 -0.3371 -0.3736
   76MPD2    C5 1163   3.511   0.646  12.325 -0.2012 -0.1709 -0.8037
   76MPD2     H 1164   3.147   0.643  12.222 -0.5451 -1.1718  1.6399
   76MPD2    H1 1165   3.514   0.437  12.286  2.5905  1.1125 -0.9153
   76MPD2    H2 1166   3.509   0.858  12.331 -0.4386  0.0634  2.1326
   76MPD2    H3 1167   3.613   0.646  12.360 -0.8180 -3.0883  1.0117
   76MPD2     N 1168   3.271   0.408  12.195  0.7054 -0.3169  0.4406
   76MPD2    H5 1169   3.332   0.327  12.195  0.1751 -0.7231 -0.7899
   76MPD2    N1 1170   3.244   0.896  12.254  0.5399 -0.4202 -0.4427
   76MPD2    H7 1171   3.303   0.978  12.248  1.7483 -1.1907  1.0340
   77TCq2    C1 1172   3.138   0.384  12.143  0.5639 -0.1198 -0.4022
   77TCq2    O2 1173   3.042   0.461  12.140  0.7023 -0.2567 -0.2514
   77TCq2    C2 1174   3.102   0.242  12.127  0.4577  0.9332  0.0115
   77TCq2    C3 1175   2.968   0.221  12.100  1.1174  0.3717  0.4497
   77TCq2    C4 1176   2.926   0.094  12.062 -0.6772 -0.0132  0.2240
   77TCq2    C5 1177   3.024   0.005  12.036  0.0514  0.0716 -0.3479
   77TCq2    C6 1178   3.156   0.029  12.075 -1.4570  0.0682 -0.5203
   77TCq2    C7 1179   3.202   0.148  12.126 -0.1678 -0.1209 -0.3024
   77TCq2    C8 1180   3.252   4.642  12.053  1.1392 -0.4728 -0.1544
   77TCq2    O4 1181   3.237   4.547  11.975  0.1792 -0.4536  0.1560
   77TCq2    C9 1182   2.779   0.071  12.041 -0.5827 -0.1109 -0.2008
   77TCq2    O5 1183   2.696   0.161  12.065 -0.1428 -1.2468 -0.4731
   77TCq2    O6 1184   2.732   4.690  11.992  0.1950  0.5541 -0.5146
   77TCq2    H2 1185   2.889   0.294  12.118  0.4706  0.1619 -1.5549
   77TCq2    H3 1186   3.002   4.632  11.994  1.1743 -0.1293 -0.4818
   77TCq2    H4 1187   3.309   0.159  12.133  0.0083 -0.4187 -2.5032
   78MPD1     C 1188   0.031   3.983   1.485 -0.2899  0.2471 -0.1203
   78MPD1    C1 1189   4.702   3.937   1.605  0.6826 -0.2471 -0.4729
   78MPD1    C2 1190   0.064   3.912   1.711  1.1073 -0.0154 -0.0998
   78MPD1    C3 1191   0.204   3.923   1.692 -0.2001 -0.1119 -0.3062
   78MPD1    C4 1192   0.247   3.954   1.572  0.8591  0.2526 -0.3315
   78MPD1    C5 1193   0.162   3.981   1.471  0.5395  0.4846  0.3653
   78MPD1     H 1194   0.027   3.894   1.811  0.7310 -0.0107 -0.2393
   78MPD1    H1 1195   0.350   3.976   1.547  0.5297  1.1621 -0.9030
   78MPD1    H2 1196   4.698   4.001   1.395  0.8055 -0.0742 -0.8789
   78MPD1    H3 1197   0.201   4.013   1.376  0.1192 -2.6297 -0.8538
   78MPD1     N 1198   0.301   3.920   1.796  0.0478  0.7407  0.6414
   78MPD1    H5 1199   0.398   3.931   1.771  0.8981 -1.2372  3.0374
   78MPD1    N1 1200   4.565   3.928   1.635  0.2038 -0.7121 -0.1034
   78MPD1    H6 1201   4.513   3.916   1.548 -0.0526 -1.1418  0.1095
   78MPD1    H7 1202   4.541   3.851   1.696  0.9325 -0.9301 -0.0900
   79TCq2    C1 1203   0.269   3.894   1.928  0.0471 -0.5832  0.8928
   79TCq2    O2 1204   0.162   3.853   1.977 -0.5199 -0.0956  0.4916
   79TCq2    C2 1205   0.383   3.915   2.015  0.0710  0.4598  0.0293
   79TCq2    C3 1206   0.367   3.862   2.139  0.1787  0.1696  0.0481
   79TCq2    C4 1207   0.481   3.864   2.216 -0.0480 -0.3979 -0.1417
   79TCq2    C5 1208   0.601   3.919   2.177  0.6608  0.0942  0.1973
   79TCq2    C6 1209   0.607   3.969   2.048 -0.2037  0.3761  0.5588
   79TCq2    C7 1210   0.498   3.966   1.962 -0.3730  0.0041  0.2682
   79TCq2    C8 1211   0.716   4.057   2.009 -0.3057  0.1139  0.6109
   79TCq2    O4 1212   0.701   4.127   1.910  0.2378 -0.1417  0.6320
   79TCq2    C9 1213   0.469   3.817   2.355 -0.2422  0.3994 -0.8138
   79TCq2    O5 1214   0.564   3.833   2.435  0.0215 -0.1672 -0.1956
   79TCq2    O6 1215   0.365   3.758   2.392 -0.7569 -0.2591 -0.2352
   79TCq2    H2 1216   0.277   3.820   2.183  0.5240  0.5092  1.0876
   79TCq2    H3 1217   0.691   3.909   2.238  0.8920  1.2009  0.0560
   79TCq2    H4 1218   0.519   3.999   1.861 -0.6762 -0.5940  0.0057
   80MPD2     C 1219   2.144   4.599  12.858 -0.3765  0.0047 -0.6083
   80MPD2    C1 1220   2.055   4.663  12.771  0.9977  0.5120  0.0807
   80MPD2    C2 1221   1.934   4.716  12.814 -0.5249 -0.2676 -0.0225
   80MPD2    C3 1222   1.897   4.690  12.946  0.0366  0.4200 -0.6699
   80MPD2    C4 1223   1.987   4.635  13.033 -0.6875  0.7038  0.2050
   80MPD2    C5 1224   2.113   4.591  12.988 -0.8328  0.2306  0.4520
   80MPD2     H 1225   1.867   0.036  12.740 -2.9828 -2.9445  0.5958
   80MPD2    H1 1226   1.971   4.627  13.140 -1.2429 -1.0820 -0.0153
   80MPD2    H2 1227   2.237   4.559  12.820 -0.1767 -0.0653 -0.0397
   80MPD2    H3 1228   2.186   4.558  13.061 -0.3406  2.6122  1.0551
   80MPD2     N 1229   1.768   4.713  12.993  0.2037 -0.0729 -0.1352
   80MPD2    H5 1230   1.756   4.690  13.091  0.5256 -0.9125 -0.2903
   80MPD2    N1 1231   2.087   4.685  12.635 -0.0593  0.8927 -0.2882
   80MPD2    H7 1232   2.011   4.722  12.580 -0.1966  1.9729  0.6208
   81TCq2    C1 1233   2.195   4.638  12.566  0.0012 -0.2082 -0.2866
   81TCq2    O2 1234   2.309   4.607  12.604  0.4853 -0.3293  0.0048
   81TCq2    C2 1235   2.160   4.637  12.423  0.2000  0.3669 -0.2468
   81TCq2    C3 1236   2.265   4.654  12.329  0.1581 -0.0702  0.0490
   81TCq2    C4 1237   2.240   4.694  12.200  0.3929  0.6055  0.4673
   81TCq2    C5 1238   2.113   0.002  12.167 -0.3244  0.0543  0.0414
   81TCq2    C6 1239   2.008   4.698  12.249  0.2199  0.1857  0.4912
   81TCq2    C7 1240   2.028   4.646  12.382 -0.4930  0.1739  0.0136
   81TCq2    C8 1241   1.874   4.669  12.195 -0.4399  0.3196 -0.2590
   81TCq2    O4 1242   1.830   0.002  12.096  0.2046  0.2669  0.1218
   81TCq2    C9 1243   2.357   4.712  12.114 -0.0380 -0.5642 -0.7223
   81TCq2    O5 1244   2.471   4.712  12.165  0.1147  0.2521  0.0220
   81TCq2    O6 1245   2.332   0.004  11.993 -0.1077 -0.3512  0.3030
   81TCq2    H2 1246   2.368   4.638  12.357  0.5140 -1.0179 -1.7953
   81TCq2    H3 1247   2.093   0.035  12.065 -0.9032 -0.5664 -0.0471
   81TCq2    H4 1248   1.942   4.633  12.446  0.6619  1.2364  1.7846
   82MPD2     C 1249   0.507   4.607  10.814  0.5627  0.4800 -0.8100
   82MPD2    C1 1250   0.421   4.507  10.781  0.0147  0.2094 -1.1132
   82MPD2    C2 1251   0.463   4.381  10.809 -0.2032  0.7909 -0.4360
   82MPD2    C3 1252   0.577   4.346  10.877  0.5600  0.1310 -0.1532
   82MPD2    C4 1253   0.670   4.446  10.895 -0.1540 -0.1534 -0.0241
   82MPD2    C5 1254   0.633   4.573  10.862 -0.2044  0.0898  0.4191
   82MPD2     H 1255   0.399   4.296  10.789  2.4416 -0.9266 -1.5434
   82MPD2    H1 1256   0.763   4.426  10.946  0.4039 -2.8858 -2.1136
   82MPD2    H2 1257   0.489   4.712  10.793  0.2147  0.5622 -0.0880
   82MPD2    H3 1258   0.699   4.657  10.879 -1.7834  1.5519 -0.5131
   82MPD2     N 1259   0.614   4.212  10.904  0.3153  0.4219 -0.2597
   82MPD2    H5 1260   0.712   4.206  10.931 -0.1884  0.3310  1.5446
   82MPD2    N1 1261   0.300   4.542  10.721  0.9791 -0.3137 -0.3186
   82MPD2    H7 1262   0.280   4.640  10.707 -0.0819 -0.4219  0.4819
   83TCq2    C1 1263   0.532   4.095  10.907  0.3398  0.5089  0.8064
   83TCq2    O2 1264   0.411   4.092  10.894  0.5300 -0.5402  0.0552
   83TCq2    C2 1265   0.603   3.971  10.929 -0.6484  0.4119  0.2900
   83TCq2    C3 1266   0.734   3.973  10.944 -0.6277 -1.1365 -0.2379
   83TCq2    C4 1267   0.804   3.874  11.007 -0.0526  0.3758  0.3693
   83TCq2    C5 1268   0.734   3.767  11.047 -0.7432  0.3943 -0.5183
   83TCq2    C6 1269   0.600   3.767  11.027 -0.4218 -0.0855  0.1410
   83TCq2    C7 1270   0.532   3.860  10.965  0.3571 -0.3805 -0.2385
   83TCq2    C8 1271   0.519   3.667  11.092 -0.0322 -0.0172  0.0120
   83TCq2    O4 1272   0.557   3.623  11.197  0.7405  0.2617 -0.0344
   83TCq2    C9 1273   0.947   3.874  11.025 -0.1130  0.0273 -0.3034
   83TCq2    O5 1274   0.989   3.796  11.111  0.8758 -0.1936  0.1339
   83TCq2    O6 1275   1.011   3.976  10.982  0.2311 -0.5535  0.6059
   83TCq2    H2 1276   0.793   4.053  10.900 -2.0955  0.9532  1.5790
   83TCq2    H3 1277   0.788   3.688  11.098 -1.9297  0.8503  1.4455
   83TCq2    H4 1278   0.425   3.868  10.950  0.1257 -1.1484  1.0658
   84TCq2    C1 1279   1.854   3.442  10.580  0.4110  0.2776 -0.8085
   84TCq2    O2 1280   1.783   3.374  10.652  0.3174 -0.5599  0.2392
   84TCq2    C2 1281   1.924   3.554  10.638  0.2751  0.1115 -0.6445
   84TCq2    C3 1282   2.024   3.615  10.577  0.0463 -0.2550 -1.1094
   84TCq2    C4 1283   2.094   3.714  10.643  0.6152  0.3270 -0.1200
   84TCq2    C5 1284   2.059   3.750  10.771 -0.3709 -0.2172  0.7460
   84TCq2    C6 1285   1.958   3.681  10.830 -0.2722  0.0855 -0.3639
   84TCq2    C7 1286   1.891   3.583  10.769  0.5303 -0.6982 -0.2619
   84TCq2    C8 1287   1.915   3.699  10.969  0.5617 -0.5846  0.5563
   84TCq2    O4 1288   1.843   3.618  11.026 -0.1560  0.0566  0.1958
   84TCq2    C9 1289   2.201   3.781  10.570 -0.3873 -0.8339 -1.0888
   84TCq2    O5 1290   2.218   3.765  10.446 -0.3780 -0.5292 -0.2820
   84TCq2    O6 1291   2.273   3.852  10.648  0.0509 -0.1886  0.1482
   84TCq2    H2 1292   2.071   3.578  10.487 -0.9798 -0.7433 -1.4465
   84TCq2    H3 1293   2.113   3.827  10.826 -0.6468 -0.3168  1.1598
   84TCq2    H4 1294   1.813   3.529  10.820 -0.6270  2.5739  1.4181
   85MPD2     C 1295   1.600   0.910  16.121 -0.1444  0.9575  0.2075
   85MPD2    C1 1296   1.703   0.845  16.057 -0.1469 -0.0646 -0.2730
   85MPD2    C2 1297   1.718   0.865  15.922 -0.6196 -0.7300  0.0970
   85MPD2    C3 1298   1.628   0.936  15.849  0.3378 -0.3331 -0.4589
   85MPD2    C4 1299   1.515   0.986  15.905  0.1529  0.3697  0.2963
   85MPD2    C5 1300   1.502   0.972  16.040 -0.7341 -0.5589 -0.6053
   85MPD2     H 1301   1.813   0.841  15.877 -1.1967  0.0133 -1.5124
   85MPD2    H1 1302   1.445   1.044  15.845  1.2343  2.7024  1.2742
   85MPD2    H2 1303   1.586   0.912  16.229  1.4452 -0.2473  0.4186
   85MPD2    H3 1304   1.422   1.025  16.090  0.2530 -0.4600  0.8865
   85MPD2     N 1305   1.664   0.950  15.718  0.3511  0.0189  1.0487
   85MPD2    H5 1306   1.761   0.932  15.694  0.2172 -1.8981  1.9731
   85MPD2    N1 1307   1.789   0.760  16.124 -0.4998  0.7542  0.0730
   85MPD2    H7 1308   1.870   0.724  16.075 -0.6096  0.4150  0.1437
   86TCq2    C1 1309   1.571   0.989  15.621 -0.4164 -0.1686 -0.4883
   86TCq2    O2 1310   1.450   0.969  15.618  0.0747 -0.2900  1.0538
   86TCq2    C2 1311   1.631   1.027  15.495  0.0076 -0.5185 -0.6064
   86TCq2    C3 1312   1.558   1.013  15.379 -0.1181 -0.1596 -0.1989
   86TCq2    C4 1313   1.621   1.031  15.260  0.7167 -0.5102  0.3281
   86TCq2    C5 1314   1.747   1.079  15.253  0.1016 -0.1750  0.6783
   86TCq2    C6 1315   1.819   1.102  15.371 -0.4379 -0.4663 -0.3925
   86TCq2    C7 1316   1.767   1.070  15.492  0.5911 -0.2190  0.7059
   86TCq2    C8 1317   1.956   1.152  15.359  0.4567  0.1530  0.2196
   86TCq2    O4 1318   2.024   1.132  15.459  0.4139  0.0166 -0.0861
   86TCq2    C9 1319   1.559   1.004  15.134 -0.3328  0.0835  0.1034
   86TCq2    O5 1320   1.632   1.015  15.031 -1.0076 -0.2153 -0.0761
   86TCq2    O6 1321   1.436   0.988  15.139 -0.1043  0.3097  0.2808
   86TCq2    H2 1322   1.463   0.961  15.387 -0.5632  0.5354 -1.0526
   86TCq2    H3 1323   1.800   1.085  15.159 -2.0270  0.3072 -0.4958
   86TCq2    H4 1324   1.822   1.097  15.581  0.6953 -2.5408  1.3427
   87MPD2     C 1325   4.391   4.310   0.022  0.4182  0.7471  0.2401
   87MPD2    C1 1326   4.282   4.301   0.104  0.0944  0.0237 -0.5443
   87MPD2    C2 1327   4.208   4.416   0.126  0.0869  0.0264  0.5809
   87MPD2    C3 1328   4.238   4.533   0.060 -0.2734  0.3528  0.3928
   87MPD2    C4 1329   4.350   4.540  17.688 -0.6984  0.1244 -0.1380
   87MPD2    C5 1330   4.434   4.429  17.668  0.0208 -0.0255 -0.6559
   87MPD2     H 1331   4.124   4.404   0.193 -0.8126  1.1143 -0.3547
   87MPD2    H1 1332   4.367   4.631  17.632  0.6720 -0.4255 -0.6129
   87MPD2    H2 1333   4.453   4.223   0.004 -2.0717 -0.1772 -3.8326
   87MPD2    H3 1334   4.510   4.430  17.591  1.6400 -0.2746  0.9629
   87MPD2     N 1335   4.150   4.653   0.055  0.4187 -0.0035  0.2965
   87MPD2    H5 1336   4.172   0.003  17.691  3.2410 -1.7612 -0.8011
   87MPD2    N1 1337   4.263   4.177   0.165 -0.0362 -0.8013  0.1235
   87MPD2    H7 1338   4.329   4.102   0.143  3.0923  1.6614  1.0469
   88TCq2    C1 1339   4.182   4.150   0.279 -0.4613 -0.0418  0.0048
   88TCq2    O2 1340   4.107   4.226   0.334 -0.1700 -0.4559  0.1962
   88TCq2    C2 1341   4.197   4.018   0.343 -0.2946 -0.2617  0.0803
   88TCq2    C3 1342   4.130   3.998   0.466 -0.3288  0.2772 -0.9283
   88TCq2    C4 1343   4.164   3.884   0.531  0.4104 -0.3216  0.7423
   88TCq2    C5 1344   4.248   3.791   0.480  0.3071 -0.7511  0.0645
   88TCq2    C6 1345   4.309   3.815   0.359 -0.1737 -1.1566  0.4746
   88TCq2    C7 1346   4.284   3.929   0.291 -0.6304 -0.5303  0.3401
   88TCq2    C8 1347   4.403   3.714   0.306  0.1662  0.2977  0.1690
   88TCq2    O4 1348   4.441   3.740   0.191  0.0362  0.1314 -0.1599
   88TCq2    C9 1349   4.095   3.866   0.654  0.3729 -0.0037 -0.5148
   88TCq2    O5 1350   4.132   3.778   0.731 -0.8852 -0.4924 -0.0585
   88TCq2    O6 1351   4.011   3.957   0.692 -0.4435 -0.7840 -0.4438
   88TCq2    H2 1352   4.048   4.064   0.492  0.1631 -0.2393  1.9668
   88TCq2    H3 1353   4.262   3.702   0.540 -0.8882 -0.4462  0.8113
   88TCq2    H4 1354   4.355   3.956   0.214 -3.4564  0.0798 -2.0582
   89MPD2     C 1355   0.670   3.142   1.661 -1.3670  1.1111 -0.7389
   89MPD2    C1 1356   0.629   3.125   1.790 -0.2257  0.2921  0.0973
   89MPD2    C2 1357   0.694   3.194   1.891 -0.0728 -0.1122 -0.3111
   89MPD2    C3 1358   0.804   3.275   1.852 -0.2821  0.6116 -0.5599
   89MPD2    C4 1359   0.833   3.305   1.722 -0.5233  0.1125  0.6095
   89MPD2    C5 1360   0.773   3.227   1.625 -0.8126 -0.5406 -0.0578
   89MPD2     H 1361   0.669   3.161   1.991 -1.4322  1.4125 -0.1645
   89MPD2    H1 1362   0.914   3.369   1.688 -0.6201 -0.0983 -0.0164
   89MPD2    H2 1363   0.632   3.085   1.578  0.6648 -0.3814 -0.6383
   89MPD2    H3 1364   0.808   3.232   1.522  0.8316  0.1821  0.5457
   89MPD2     N 1365   0.883   3.325   1.960  0.1928  0.0008 -0.7157
   89MPD2    H5 1366   0.853   3.310   2.056  0.3457 -1.7894 -0.9358
   89MPD2    N1 1367   0.527   3.031   1.821  0.4790  0.1506  0.1011
   89MPD2    H7 1368   0.490   3.041   1.915 -0.7200  3.9088 -0.7789
   90TCq2    C1 1369   1.000   3.397   1.950 -0.2245 -0.4154 -0.3340
   90TCq2    O2 1370   1.073   3.406   1.848  0.3613  0.9701 -0.8385
   90TCq2    C2 1371   1.057   3.427   2.082 -0.4408 -0.0885 -0.1732
   90TCq2    C3 1372   0.974   3.430   2.193 -0.0464  0.3325  0.2133
   90TCq2    C4 1373   1.036   3.448   2.315 -0.4058 -0.0400 -0.4559
   90TCq2    C5 1374   1.174   3.475   2.320 -0.2363 -0.4238  0.0535
   90TCq2    C6 1375   1.248   3.488   2.203 -0.0403  0.0353 -0.3064
   90TCq2    C7 1376   1.194   3.445   2.082  0.2366 -0.3831  0.2228
   90TCq2    C8 1377   1.391   3.525   2.217 -0.3195 -0.4313 -0.2329
   90TCq2    O4 1378   1.419   3.592   2.318  0.2495  0.4257 -0.0290
   90TCq2    C9 1379   0.968   3.438   2.447 -0.4546  0.0831 -0.3852
   90TCq2    O5 1380   0.852   3.384   2.444  0.2503  0.8514  0.2440
   90TCq2    O6 1381   1.042   3.461   2.544 -0.2428 -0.3548  0.5650
   90TCq2    H2 1382   0.868   3.408   2.200 -0.2005  1.0517  0.0752
   90TCq2    H3 1383   1.223   3.502   2.413 -0.0860 -0.5946  0.0246
   90TCq2    H4 1384   1.245   3.468   1.989  2.1068  2.4235  1.9176
   91TMC2    C1 1385   1.755   2.130  16.415  0.3648  0.0033 -0.3176
   91TMC2    C2 1386   1.768   2.123  16.551  0.2854 -0.2347  0.3435
   91TMC2    C3 1387   1.677   2.041  16.616 -0.0871 -0.2466 -0.1189
   91TMC2    C4 1388   1.674   2.057  16.336 -0.4228  0.6710 -0.0439
   91TMC2    C5 1389   1.584   1.978  16.405 -0.3751 -0.4458  0.6118
   91TMC2    C6 1390   1.584   1.961  16.544 -0.3658  0.5669 -0.3773
   91TMC2     C 1391   1.832   2.227  16.332 -0.7482 -0.0265 -0.1182
   91TMC2     O 1392   1.776   2.281  16.236  0.3444 -0.5308 -0.0261
   91TMC2     H 1393   1.829   2.201  16.596  0.2965 -0.4453  0.6991
   91TMC2    H1 1394   1.680   2.061  16.228 -2.0083  2.7256 -0.0541
   91TMC2    H2 1395   1.520   1.901  16.606 -0.1564  0.5021 -0.2230
   91TMC2    C7 1396   1.503   1.888  16.330  0.2989 -0.5780  0.1697
   91TMC2    C8 1397   1.706   1.990  16.748 -0.4601  0.4351  0.5868
   91TMC2    O1 1398   1.420   1.825  16.391  0.0180  0.0151  0.4562
   91TMC2    O2 1399   1.631   1.924  16.813 -0.9764  0.2075  0.5073
   91TMC2    O5 1400   1.839   2.001  16.761 -0.5849 -0.0269 -0.4179
   91TMC2    H5 1401   1.878   2.047  16.683 -0.7776  0.0103 -0.4921
   92MPD2     C 1402   2.070   2.329  16.169 -0.3308 -0.2828  0.3684
   92MPD2    C1 1403   2.070   2.259  16.287 -0.5226 -0.4003  0.4513
   92MPD2    C2 1404   2.195   2.220  16.335  0.3171  0.0939 -0.1673
   92MPD2    C3 1405   2.306   2.286  16.284  0.4040 -0.5154 -0.4624
   92MPD2    C4 1406   2.309   2.352  16.165  0.1106  0.0583 -0.0399
   92MPD2    C5 1407   2.189   2.362  16.100  0.4247  0.6449 -0.2579
   92MPD2     H 1408   2.204   2.174  16.433 -1.4838  1.6144  0.7011
   92MPD2    H1 1409   2.394   2.400  16.116  1.7041 -3.1195 -0.3400
   92MPD2    H2 1410   1.978   2.366  16.124 -0.1686 -0.7552 -0.3646
   92MPD2    H3 1411   2.182   2.411  16.004 -0.5332  0.4616 -0.2798
   92MPD2     N 1412   2.426   2.268  16.363  0.2767 -0.6502 -0.0942
   92MPD2    H5 1413   2.414   2.208  16.444  1.9123 -1.0183 -0.1365
   92MPD2    N1 1414   1.961   2.217  16.361  0.6069 -0.0744  0.2246
   92MPD2    H7 1415   1.993   2.167  16.444  2.5447  1.0890  0.1777
   93MPD2     C 1416   3.607   2.042  13.908 -0.4120  0.4866  0.0033
   93MPD2    C1 1417   3.649   2.087  13.779  1.1476 -0.1363 -0.1520
   93MPD2    C2 1418   3.563   2.062  13.675  0.7413 -0.2079 -0.3803
   93MPD2    C3 1419   3.440   1.997  13.699  0.7711  0.0173 -0.4418
   93MPD2    C4 1420   3.410   1.946  13.826  0.7049 -0.1419  0.2601
   93MPD2    C5 1421   3.490   1.977  13.928  0.9364  0.0085 -0.3675
   93MPD2     H 1422   3.583   2.093  13.573  1.0587  0.1771 -0.2049
   93MPD2    H1 1423   3.314   1.897  13.837 -1.0042  3.1227 -0.0042
   93MPD2    H2 1424   3.661   2.060  14.001  0.7086  1.0855 -0.7625
   93MPD2    H3 1425   3.464   1.975  14.033  0.6735  3.0884 -0.3595
   93MPD2     N 1426   3.342   1.993  13.597 -0.4411 -0.0339  0.2615
   93MPD2    H5 1427   3.371   2.016  13.502 -0.2019 -1.3299  0.0239
   93MPD2    N1 1428   3.766   2.160  13.744  0.5443  1.0640  0.3886
   93MPD2    H7 1429   3.782   2.183  13.647 -0.5674  0.1341 -0.0201
   94TCq2    C1 1430   3.848   2.227  13.828  0.0487 -0.1611 -0.5745
   94TCq2    O2 1431   3.862   2.209  13.947  0.0124 -0.1399 -0.4211
   94TCq2    C2 1432   3.929   2.320  13.749  0.4486  0.8236 -0.7201
   94TCq2    C3 1433   3.899   2.352  13.619  0.4736 -0.7426 -0.5219
   94TCq2    C4 1434   3.968   2.454  13.558 -0.1745  0.1472 -0.2738
   94TCq2    C5 1435   4.076   2.511  13.621  0.4374 -1.0754 -0.0021
   94TCq2    C6 1436   4.107   2.478  13.753 -0.0083  0.0983 -0.5281
   94TCq2    C7 1437   4.033   2.384  13.816 -0.1392 -0.8287 -0.0351
   94TCq2    C8 1438   4.238   2.509  13.808  0.3581 -0.0746  0.1427
   94TCq2    O4 1439   4.284   2.443  13.900 -0.9238 -0.4140  0.1964
   94TCq2    C9 1440   3.923   2.493  13.428 -0.0346 -0.1324 -0.0779
   94TCq2    O5 1441   3.954   2.607  13.381 -0.2464 -0.5043  0.0156
   94TCq2    O6 1442   3.858   2.407  13.367  0.4126  0.3740  0.9676
   94TCq2    H2 1443   3.811   2.312  13.570  0.3264  0.6213 -1.3752
   94TCq2    H3 1444   4.131   2.588  13.568  0.8785 -0.1763  1.7600
   94TCq2    H4 1445   4.063   2.343  13.911 -1.2521  1.5181  1.3154
   95TMC2    C1 1446   3.513   4.354  15.757  0.6247  0.5353  0.5879
   95TMC2    C2 1447   3.399   4.433  15.793 -0.0442 -0.1158 -0.2465
   95TMC2    C3 1448   3.386   4.556  15.741 -0.1647 -0.6958  0.8259
   95TMC2    C4 1449   3.616   4.401  15.679 -0.5387 -0.0325  0.1363
   95TMC2    C5 1450   3.607   4.528  15.643 -0.2401  0.7637  0.1995
   95TMC2    C6 1451   3.490   4.605  15.666  0.4324 -0.5090  0.2602
   95TMC2     C 1452   3.518   4.221  15.808 -0.8239 -0.2512 -0.1798
   95TMC2     O 1453   3.418   4.157  15.837  0.1637  0.5914 -0.3544
   95TMC2     H 1454   3.323   4.380  15.848 -0.3688  1.0242  0.3964
   95TMC2    H1 1455   3.702   4.347  15.644  0.0396  0.4273  0.8590
   95TMC2    H2 1456   3.468   4.698  15.615 -1.2157 -0.7920  0.4470
   95TMC2    C7 1457   3.727   4.593  15.590 -0.1961 -0.1494  0.3320
   95TMC2    C8 1458   3.285   4.648  15.774  0.6477 -0.7364  0.0754
   95TMC2    O1 1459   3.835   4.546  15.632 -0.0913 -0.1527  0.0643
   95TMC2    O2 1460   3.300   0.044  15.774  0.0406 -0.5716  0.6470
   95TMC2    O5 1461   3.177   4.583  15.829  0.3915  0.2710  0.5371
   95TMC2    H5 1462   3.169   4.493  15.791 -1.3391  0.9722 -0.7353
   96MPD2     C 1463   3.813   3.803  15.866 -0.4634  0.4133 -1.2004
   96MPD2    C1 1464   3.894   3.915  15.848 -0.3264  0.1509  0.4319
   96MPD2    C2 1465   3.833   4.039  15.832 -0.3946 -0.9138 -0.3822
   96MPD2    C3 1466   3.695   4.047  15.836  0.3557 -0.2153 -0.3494
   96MPD2    C4 1467   3.618   3.939  15.855  0.3622 -0.5626 -0.7913
   96MPD2    C5 1468   3.679   3.814  15.874  0.0914  0.3253  1.0691
   96MPD2     H 1469   3.890   4.128  15.809 -3.3534  0.7131 -1.3617
   96MPD2    H1 1470   3.510   3.942  15.857  0.4353  1.8212 -0.3949
   96MPD2    H2 1471   3.866   3.709  15.860 -2.2807 -0.6880 -0.0377
   96MPD2    H3 1472   3.617   3.725  15.867 -0.6337  1.0323 -1.4918
   96MPD2     N 1473   3.647   4.182  15.807 -0.5492  0.5034  0.2228
   96MPD2    H5 1474   3.717   4.250  15.778  0.7540 -1.7237 -1.8537
   96MPD2    N1 1475   4.037   3.896  15.851 -0.1191 -0.0064 -0.2194
   96MPD2    H7 1476   4.065   3.800  15.872 -1.8165 -0.5548 -0.4318
   97MPD2     C 1477   0.581   1.324   0.882  0.4986 -0.4433 -0.6456
   97MPD2    C1 1478   0.605   1.463   0.869 -0.1510  0.5576  0.8238
   97MPD2    C2 1479   0.681   1.499   0.756  0.1065  0.7708 -0.0791
   97MPD2    C3 1480   0.748   1.402   0.676  0.1423  0.2406 -0.1234
   97MPD2    C4 1481   0.733   1.268   0.702 -0.1080 -0.6759  0.9752
   97MPD2    C5 1482   0.642   1.234   0.791 -0.0297  0.5334  0.7396
   97MPD2     H 1483   0.690   1.605   0.737  1.9283  0.7841  0.8539
   97MPD2    H1 1484   0.782   1.187   0.649  1.0422 -1.5806  3.4564
   97MPD2    H2 1485   0.499   1.289   0.943  0.5356 -1.7222 -1.3339
   97MPD2    H3 1486   0.613   1.131   0.812 -0.7724  0.7495  0.7825
   97MPD2     N 1487   0.823   1.438   0.568 -0.2452 -0.8915 -0.1152
   97MPD2    H5 1488   0.875   1.366   0.518 -0.3993 -0.5052 -0.8383
   97MPD2    N1 1489   0.540   1.556   0.964  0.1580  0.3805 -0.4664
   97MPD2    H7 1490   0.503   1.506   1.045  2.6884  1.6077  1.4685
   98TCq2    C1 1491   0.849   1.567   0.523  0.4422 -0.3937 -0.6425
   98TCq2    O2 1492   0.789   1.670   0.548  0.6183  0.4215 -0.0003
   98TCq2    C2 1493   0.966   1.570   0.444  0.2057  0.0839  0.0009
   98TCq2    C3 1494   1.049   1.462   0.437  0.2601  0.4162  0.6943
   98TCq2    C4 1495   1.186   1.472   0.430  0.0898 -0.4318 -0.6339
   98TCq2    C5 1496   1.240   1.595   0.430 -0.6747 -0.5240  0.0044
   98TCq2    C6 1497   1.161   1.701   0.419  0.0160  0.3155 -0.2712
   98TCq2    C7 1498   1.023   1.695   0.414 -0.7549 -0.3809 -0.5721
   98TCq2    C8 1499   1.237   1.827   0.413  0.0254 -0.3267 -0.2767
   98TCq2    O4 1500   1.354   1.834   0.438 -0.0920 -0.2786  0.0150
   98TCq2    C9 1501   1.265   1.352   0.434  0.0101  0.8964 -0.3954
   98TCq2    O5 1502   1.201   1.245   0.416 -0.0376  0.6588  0.1263
   98TCq2    O6 1503   1.388   1.366   0.447  0.8605  0.4323  0.3878
   98TCq2    H2 1504   1.026   1.359   0.462 -0.8321  0.2355 -1.0392
   98TCq2    H3 1505   1.348   1.606   0.431 -0.8245  0.9510  0.0806
   98TCq2    H4 1506   0.967   1.785   0.436  1.7392  0.3189  2.8185
   99MPD2     C 1507   0.312   3.317   1.660 -0.2528 -0.1789 -0.4548
   99MPD2    C1 1508   0.176   3.302   1.649 -0.4868 -0.4504  0.4448
   99MPD2    C2 1509   0.119   3.301   1.527 -0.3548 -0.5937  0.6317
   99MPD2    C3 1510   0.204   3.301   1.419 -0.0571 -0.4208  0.7744
   99MPD2    C4 1511   0.346   3.295   1.428  0.8911  0.1553 -0.4358
   99MPD2    C5 1512   0.399   3.296   1.553  0.2683 -0.3002 -0.2434
   99MPD2     H 1513   0.011   3.303   1.512 -0.2627 -0.2140  0.0302
   99MPD2    H1 1514   0.415   3.293   1.345  0.5190 -0.7510 -0.7173
   99MPD2    H2 1515   0.352   3.311   1.761  0.5311 -1.6025 -0.8427
   99MPD2    H3 1516   0.506   3.289   1.569 -0.2129 -2.9861  1.7618
   99MPD2     N 1517   0.146   3.293   1.288 -0.0033 -0.3850 -0.6575
   99MPD2    H5 1518   0.045   3.283   1.286 -0.1577  1.2187 -0.3832
   99MPD2    N1 1519   0.091   3.298   1.760 -0.1969  0.3582  0.7751
   99MPD2    H7 1520   4.720   3.264   1.755 -0.1710  0.3962  0.0040
  100TCq2    C1 1521   0.129   3.304   1.890  0.1595 -0.2687  0.4624
  100TCq2    O2 1522   0.236   3.290   1.947 -0.1716 -0.1185 -1.1489
  100TCq2    C2 1523   0.016   3.294   1.991  0.3002  0.2860  0.4034
  100TCq2    C3 1524   0.059   3.281   2.118  0.5626  0.0961 -0.0565
  100TCq2    C4 1525   4.696   3.307   2.217  0.5450  0.2385 -0.3161
  100TCq2    C5 1526   4.564   3.341   2.190  0.0130  0.3899  0.2637
  100TCq2    C6 1527   4.516   3.328   2.064 -0.3750  0.1358 -0.0072
  100TCq2    C7 1528   4.609   3.322   1.958 -0.4578  0.2867  0.7441
  100TCq2    C8 1529   4.372   3.319   2.053  0.9337 -0.2652  0.0869
  100TCq2    O4 1530   4.305   3.351   2.151  0.1508  0.2696 -0.2995
  100TCq2    C9 1531   4.724   3.256   2.349  0.1738 -0.2251  0.2366
  100TCq2    O5 1532   4.650   3.300   2.445  0.0986 -0.3102 -0.2458
  100TCq2    O6 1533   0.071   3.152   2.350  0.0023 -0.1390 -0.0749
  100TCq2    H2 1534   0.161   3.269   2.152  0.7411  1.1000 -0.2527
  100TCq2    H3 1535   4.493   3.356   2.271 -0.4484 -0.3822  0.0071
  100TCq2    H4 1536   4.578   3.331   1.854  3.3319  1.5369 -0.2851
  101MPD2     C 1537   0.698   0.223  13.361  0.1121 -0.1873  0.0421
  101MPD2    C1 1538   0.562   0.246  13.365  1.2292 -0.1529 -0.5724
  101MPD2    C2 1539   0.483   0.151  13.431  0.1922 -0.2801 -0.2532
  101MPD2    C3 1540   0.527   0.023  13.465  0.4648  0.8384 -0.5484
  101MPD2    C4 1541   0.667   0.001  13.451  0.1676  0.0263 -0.0311
  101MPD2    C5 1542   0.745   0.100  13.398 -0.0450 -0.0967  0.0539
  101MPD2     H 1543   0.377   0.173  13.438  0.4577  1.5510 -2.1058
  101MPD2    H1 1544   0.709   4.629  13.475  1.6887 -0.1244 -3.3528
  101MPD2    H2 1545   0.769   0.297  13.325 -0.4695 -0.2550 -1.2247
  101MPD2    H3 1546   0.854   0.097  13.397  0.0028  1.2405  1.7774
  101MPD2     N 1547   0.434   4.660  13.514 -0.1484  0.0848  0.2347
  101MPD2    H5 1548   0.340   4.694  13.533  0.5109  1.7022  0.6553
  101MPD2    N1 1549   0.508   0.359  13.308 -0.0802  0.3715 -0.3393
  101MPD2    H7 1550   0.576   0.429  13.280  0.2196  0.9685  1.8450
  102TCq2    C1 1551   0.600   0.489  12.848 -0.0519  0.0611 -0.1758
  102TCq2    O2 1552   0.697   0.426  12.892  0.0405 -1.2498  0.3217
  102TCq2    C2 1553   0.489   0.511  12.938  0.5085 -0.6791 -0.1803
  102TCq2    C3 1554   0.393   0.604  12.906  0.0593 -0.0554  0.1707
  102TCq2    C4 1555   0.284   0.608  12.992 -0.7019  0.3744 -0.2791
  102TCq2    C5 1556   0.280   0.536  13.112 -0.5846  0.0008 -0.4535
  102TCq2    C6 1557   0.380   0.450  13.132 -0.1287 -0.4892 -0.4029
  102TCq2    C7 1558   0.487   0.435  13.046 -0.0023 -0.0947  0.0374
  102TCq2    C8 1559   0.383   0.369  13.254 -0.6342  1.0575 -0.0158
  102TCq2    O4 1560   0.280   0.308  13.290  0.0003 -0.1629  0.0210
  102TCq2    C9 1561   0.184   0.710  12.966  0.4850  0.8093  0.4905
  102TCq2    O5 1562   0.198   0.774  12.858  0.5188  0.1760  0.1338
  102TCq2    O6 1563   0.105   0.733  13.066 -0.3964  0.1309  0.0105
  102TCq2    H2 1564   0.396   0.660  12.813 -0.4022 -2.4294 -1.2586
  102TCq2    H3 1565   0.193   0.530  13.177  0.9513 -0.0397  1.5836
  102TCq2    H4 1566   0.562   0.359  13.064 -1.5198 -1.4687  0.5492
  103TMC2    C1 1567   3.752   4.520  12.668  0.0354  0.6663 -0.8286
  103TMC2    C2 1568   3.864   4.444  12.655 -0.2973 -0.7406 -0.4955
  103TMC2    C3 1569   3.937   4.433  12.760  0.5914  0.7116  0.0815
  103TMC2    C4 1570   3.717   4.587  12.781 -0.4893 -0.2313  0.4832
  103TMC2    C5 1571   3.795   4.553  12.893 -0.3120  0.0880 -0.1775
  103TMC2    C6 1572   3.911   4.482  12.881 -0.3894 -0.7869  0.5032
  103TMC2     C 1573   3.647   4.526  12.569  0.1158  0.2209  0.2762
  103TMC2     O 1574   3.567   4.618  12.571  0.6301  0.1690 -0.4212
  103TMC2     H 1575   3.891   4.403  12.559  0.9862 -2.6297  0.6703
  103TMC2    H1 1576   3.627   4.648  12.786  0.2342  0.8078  0.6425
  103TMC2    H2 1577   3.977   4.460  12.964  0.1388 -0.9117  0.0508
  103TMC2    C7 1578   3.762   4.583  13.025  0.4327 -0.3201 -0.2470
  103TMC2    C8 1579   4.053   4.346  12.743  0.1981  0.1191 -0.2696
  103TMC2    O1 1580   3.769   4.488  13.100 -0.0009 -0.4544 -0.1976
  103TMC2    O2 1581   4.146   4.368  12.672 -0.2488  0.4326 -0.3872
  103TMC2    O5 1582   4.022   4.234  12.815 -0.3882 -0.4501 -0.6565
  103TMC2    H5 1583   3.938   4.236  12.867 -1.7492 -1.6509 -2.7829
  104MPD2     C 1584   3.612   4.325  12.273 -0.2755  0.1562  0.4017
  104MPD2    C1 1585   3.589   4.436  12.353  0.2847 -0.0871 -0.1744
  104MPD2    C2 1586   3.513   4.544  12.309  0.2924 -0.8659  0.2133
  104MPD2    C3 1587   3.435   4.531  12.198  0.0616 -0.0261 -0.0229
  104MPD2    C4 1588   3.451   4.412  12.126  0.2301  0.3570 -0.0275
  104MPD2    C5 1589   3.536   4.311  12.161 -0.0735  0.4914  0.1658
  104MPD2     H 1590   3.514   4.642  12.356  1.5477 -0.4537 -0.6858
  104MPD2    H1 1591   3.393   4.391  12.036  1.6297 -1.0193 -0.6183
  104MPD2    H2 1592   3.680   4.245  12.301  1.2683  1.3143 -0.0207
  104MPD2    H3 1593   3.538   4.216  12.110  1.0284  1.4174 -1.5046
  104MPD2     N 1594   3.342   4.635  12.164  0.9263 -0.2850  0.5954
  104MPD2    H5 1595   3.329   4.708  12.233 -1.3410  0.3888 -0.5490
  104MPD2    N1 1596   3.652   4.430  12.478  0.3002  0.6039 -0.0729
  104MPD2    H7 1597   3.709   4.347  12.493  1.0985  0.5154 -3.4862
  105MPD2     C 1598   0.954   3.749  17.588 -0.1710  0.1953  0.1926
  105MPD2    C1 1599   0.847   3.785  17.505 -0.0801 -0.2589 -0.2441
  105MPD2    C2 1600   0.727   3.711  17.515  0.4732 -0.6356  0.2264
  105MPD2    C3 1601   0.717   3.597  17.590 -0.2491  0.2868 -0.1097
  105MPD2    C4 1602   0.828   3.559  17.659  0.0485  0.1284 -0.0888
  105MPD2    C5 1603   0.951   3.634  17.652  0.1770 -1.0623  0.4830
  105MPD2     H 1604   0.636   3.736  17.461  1.1576 -2.8987 -1.9695
  105MPD2    H1 1605   0.832   3.463   0.008 -0.1281  0.2002  0.0656
  105MPD2    H2 1606   1.050   3.798  17.585  0.0127 -0.0624  2.1140
  105MPD2    H3 1607   1.034   3.610   0.017  0.4333  2.0992  1.3178
  105MPD2     N 1608   0.592   3.533  17.591 -0.7179 -0.8747  0.3547
  105MPD2    H5 1609   0.513   3.583  17.550 -0.9698 -0.6955  1.0503
  105MPD2    N1 1610   0.842   3.904  17.426 -0.1799 -0.1738  0.9914
  105MPD2    H7 1611   0.762   3.923  17.366  1.5876 -1.1941 -1.7199
  106TCq2    C1 1612   0.557   3.424  17.660 -0.9380 -0.2038  0.6574
  106TCq2    O2 1613   0.625   3.357   0.037 -0.2135 -0.4374 -0.0880
  106TCq2    C2 1614   0.438   3.365  17.615  0.3741 -0.6149 -0.3875
  106TCq2    C3 1615   0.381   3.406  17.496 -0.7376 -0.3949 -0.2875
  106TCq2    C4 1616   0.240   3.411  17.488  0.3899  0.0912 -0.3111
  106TCq2    C5 1617   0.165   3.361  17.593  0.2903 -0.1757 -0.2148
  106TCq2    C6 1618   0.227   3.328   0.010 -0.4022 -0.3420  0.8102
  106TCq2    C7 1619   0.361   3.322   0.018  0.1105  0.2282 -0.6095
  106TCq2    C8 1620   0.150   3.299   0.126  0.0724 -0.7449 -0.2511
  106TCq2    O4 1621   0.207   3.248   0.221  0.3993  0.2210  0.0504
  106TCq2    C9 1622   0.183   3.469  17.375  0.0075  0.4241 -0.1195
  106TCq2    O5 1623   0.055   3.478  17.375 -0.2316  0.2307 -0.1279
  106TCq2    O6 1624   0.262   3.489  17.278  0.3394  0.3961  0.1952
  106TCq2    H2 1625   0.440   3.447  17.415  0.2207 -1.4061 -0.0911
  106TCq2    H3 1626   0.058   3.347  17.578  0.7393  0.0479 -3.6581
  106TCq2    H4 1627   0.409   3.289   0.109  0.3796 -1.3723 -1.3328
  107TMC2    C1 1628   1.481   3.607  11.780 -0.9012 -0.0049  0.2118
  107TMC2    C2 1629   1.415   3.539  11.687 -0.4468  0.6794  0.2280
  107TMC2    C3 1630   1.474   3.522  11.564 -0.0697 -0.1295 -0.2325
  107TMC2    C4 1631   1.605   3.659  11.759  0.3840 -0.1575 -0.1171
  107TMC2    C5 1632   1.667   3.643  11.636 -0.0443 -0.0379 -0.0959
  107TMC2    C6 1633   1.600   3.572  11.543  0.0011  0.1482 -0.7202
  107TMC2     C 1634   1.417   3.616  11.912  0.0107  0.5113  0.5183
  107TMC2     O 1635   1.296   3.609  11.904 -0.3160 -0.3228 -0.1650
  107TMC2     H 1636   1.311   3.513  11.703 -0.4338  0.5264  0.0714
  107TMC2    H1 1637   1.655   3.723  11.830  1.7397 -1.4848  0.1269
  107TMC2    H2 1638   1.652   3.546  11.451  0.1623  0.1748 -0.6373
  107TMC2    C7 1639   1.760   3.740  11.603  0.0146  0.3644  0.3077
  107TMC2    C8 1640   1.415   3.414  11.483  0.4957  0.9564  0.1100
  107TMC2    O1 1641   1.773   3.839  11.674 -0.0453 -0.1223  0.4619
  107TMC2    O2 1642   1.327   3.343  11.528  0.1003  0.2024 -0.2281
  107TMC2    O5 1643   1.482   3.390  11.372 -0.0651 -0.1942  0.8216
  107TMC2    H5 1644   1.527   3.472  11.341 -0.8906 -0.5040 -1.2507
  108MPD2     C 1645   1.553   3.600  12.259  0.5686 -0.2053 -0.6055
  108MPD2    C1 1646   1.460   3.626  12.162 -0.7146 -0.3804  0.1600
  108MPD2    C2 1647   1.333   3.657  12.198 -0.0231  0.3385  0.6728
  108MPD2    C3 1648   1.301   3.646  12.338  0.8728  0.3952  0.0360
  108MPD2    C4 1649   1.393   3.609  12.430  0.0655 -0.0167 -0.7567
  108MPD2    C5 1650   1.526   3.600  12.390  0.7998  0.1658  0.1258
  108MPD2     H 1651   1.250   3.674  12.130  0.3289  1.8811  0.6272
  108MPD2    H1 1652   1.362   3.584  12.531  0.9191  0.1446 -0.4553
  108MPD2    H2 1653   1.645   3.557  12.223  1.9824  1.4575  0.9982
  108MPD2    H3 1654   1.599   3.570  12.464 -1.4429 -1.2769  1.7452
  108MPD2     N 1655   1.167   3.641  12.387 -0.2635  0.2759 -0.1995
  108MPD2    H5 1656   1.147   3.610  12.481  0.0500 -0.2465 -0.3078
  108MPD2    N1 1657   1.498   3.603  12.023  0.3610 -0.1928  0.0726
  108MPD2    H7 1658   1.593   3.601  11.986  0.6213  2.6982  0.5930
  109MPD2     C 1659   0.470   0.155   1.534  0.5428  0.5544  0.2778
  109MPD2    C1 1660   0.443   0.212   1.657  0.1768  0.6479 -0.5647
  109MPD2    C2 1661   0.362   0.328   1.655 -0.8597 -0.1765 -0.3730
  109MPD2    C3 1662   0.320   0.380   1.537  0.3972 -0.7228  0.6150
  109MPD2    C4 1663   0.362   0.327   1.416  0.6850  0.0162  0.5695
  109MPD2    C5 1664   0.444   0.215   1.416 -0.3837  0.1958  0.1450
  109MPD2     H 1665   0.316   0.366   1.746 -0.6169  0.4202 -0.5035
  109MPD2    H1 1666   0.324   0.370   1.325  0.7132 -0.2369  0.4372
  109MPD2    H2 1667   0.527   0.063   1.528  1.4124  0.9829  1.8125
  109MPD2    H3 1668   0.465   0.165   1.322  0.3852  0.9177 -0.0654
  109MPD2     N 1669   0.233   0.492   1.550  0.3183 -0.5962  0.3560
  109MPD2    H5 1670   0.195   0.514   1.641 -1.1491 -0.6153 -0.2511
  109MPD2    N1 1671   0.515   0.172   1.775  0.4046  0.2497 -0.5689
  109MPD2    H7 1672   0.577   0.091   1.766  0.7085  0.3844  0.3455
  110TCq2    C1 1673   0.201   0.582   1.444 -0.6861 -0.1556 -0.1135
  110TCq2    O2 1674   0.257   0.582   1.335 -0.1715  0.5145 -0.4321
  110TCq2    C2 1675   0.141   0.701   1.488  0.4587 -0.2886  0.3202
  110TCq2    C3 1676   0.078   0.707   1.609 -0.9195  0.3764 -0.4806
  110TCq2    C4 1677   0.030   0.825   1.656 -0.6832 -0.4918 -0.4408
  110TCq2    C5 1678   0.041   0.940   1.575  0.5910 -0.2215 -0.3101
  110TCq2    C6 1679   0.113   0.929   1.461 -0.0990  0.3345 -0.1101
  110TCq2    C7 1680   0.157   0.812   1.417  0.7065 -0.1305  0.1607
  110TCq2    C8 1681   0.118   1.046   1.377  0.6082  0.6190  0.1390
  110TCq2    O4 1682   0.218   1.052   1.312 -0.6933 -0.0868  0.1038
  110TCq2    C9 1683   4.694   0.835   1.791  0.7350 -0.5003 -0.5687
  110TCq2    O5 1684   4.713   0.733   1.859 -0.3595  0.7301  0.1617
  110TCq2    O6 1685   4.663   0.948   1.834  0.3149  0.4082 -0.3399
  110TCq2    H2 1686   0.047   0.616   1.659  3.3194 -0.2113  1.0604
  110TCq2    H3 1687   4.717   1.029   1.614 -0.5536 -0.5481 -0.9874
  110TCq2    H4 1688   0.201   0.800   1.319 -0.4082  0.1560 -0.3676
  111TMC2    C1 1689   1.502   1.126  11.636 -0.8937 -0.5453  0.0011
  111TMC2    C2 1690   1.593   1.103  11.541  0.0644 -0.7243  0.6817
  111TMC2    C3 1691   1.698   1.025  11.570  0.6752 -0.3372 -0.4380
  111TMC2    C4 1692   1.533   1.100  11.765 -0.2587  0.3832  0.6622
  111TMC2    C5 1693   1.634   1.012  11.790  1.3880 -0.1608  0.7132
  111TMC2    C6 1694   1.717   0.970  11.691 -0.1480 -1.1398 -0.7841
  111TMC2     C 1695   1.362   1.112  11.590 -0.0836 -0.3330 -0.1363
  111TMC2     O 1696   1.337   1.146  11.477  0.1033  0.1912  0.1098
  111TMC2     H 1697   1.589   1.141  11.440  0.3910 -0.9273  0.5903
  111TMC2    H1 1698   1.454   1.126  11.834 -0.6067  0.5658  0.1936
  111TMC2    H2 1699   1.795   0.899  11.714  0.9292  0.4031  0.3166
  111TMC2    C7 1700   1.630   0.955  11.923  0.5675  0.0675  0.0870
  111TMC2    C8 1701   1.796   1.001  11.466  0.5347 -0.1584 -0.8550
  111TMC2    O1 1702   1.525   0.960  11.989  0.1543 -0.2159 -0.6645
  111TMC2    O2 1703   1.868   0.903  11.458  0.1404  0.4227  0.2997
  111TMC2    O5 1704   1.827   1.119  11.407 -0.5200  0.2196  0.0764
  111TMC2    H5 1705   1.769   1.190  11.442 -2.8915 -1.5671 -0.2184
  112MPD2     C 1706   0.873   0.944  11.692  0.1746  0.4158  0.0996
  112MPD2    C1 1707   0.937   0.987  11.576  0.2032  0.4880  0.0267
  112MPD2    C2 1708   1.075   1.017  11.581  0.8962  0.2248  0.2798
  112MPD2    C3 1709   1.149   1.024  11.695 -0.0134 -0.2017 -0.4933
  112MPD2    C4 1710   1.086   0.981  11.809  0.0969  0.4930 -0.1993
  112MPD2    C5 1711   0.964   0.928  11.800  0.2300 -0.5167  0.2889
  112MPD2     H 1712   1.116   1.032  11.481 -0.1877  1.5181  0.0274
  112MPD2    H1 1713   1.130   0.967  11.907  1.3141 -0.4295 -0.8751
  112MPD2    H2 1714   0.775   0.896  11.687  0.4615 -0.3518  1.9175
  112MPD2    H3 1715   0.915   0.898  11.893 -2.3878  1.2530 -0.5171
  112MPD2     N 1716   1.285   1.061  11.692 -0.0720 -0.2090  0.0008
  112MPD2    H5 1717   1.326   1.041  11.783  0.6233  1.3914  0.0285
  112MPD2    N1 1718   0.872   0.971  11.448  0.0062  0.0837  0.3995
  112MPD2    H7 1719   0.924   1.007  11.368  0.8560  0.8351  1.2815
  113MPD2     C 1720   4.094   3.110   0.967  0.5372 -0.0420  0.4082
  113MPD2    C1 1721   3.968   3.168   0.990  0.3370 -0.0393 -0.0744
  113MPD2    C2 1722   3.867   3.134   0.903 -0.2585  0.3942 -0.4205
  113MPD2    C3 1723   3.890   3.026   0.811 -0.3311  0.1311  0.6391
  113MPD2    C4 1724   4.017   2.973   0.787 -0.7297  0.0346  1.5215
  113MPD2    C5 1725   4.121   3.016   0.867  0.5147  0.3120  0.1442
  113MPD2     H 1726   3.769   3.175   0.923 -1.7140 -2.5794 -1.3714
  113MPD2    H1 1727   4.035   2.889   0.721  0.0725  2.2288 -1.0288
  113MPD2    H2 1728   4.177   3.125   1.034  0.3292  0.3463  0.5751
  113MPD2    H3 1729   4.222   2.976   0.871 -0.3503 -1.7963  0.7934
  113MPD2     N 1730   3.795   2.972   0.719 -0.4389  0.1423  0.1217
  113MPD2    H5 1731   3.811   2.890   0.661 -2.2895 -0.0681 -0.1123
  113MPD2    N1 1732   3.938   3.259   1.099 -0.5789 -0.4978 -0.3936
  113MPD2    H7 1733   3.849   3.307   1.104 -0.1957  0.2583 -0.8093
  114TCq2    C1 1734   3.672   3.032   0.704  0.9216 -0.5911  0.1698
  114TCq2    O2 1735   3.634   3.142   0.739 -0.2710 -0.5094  0.6175
  114TCq2    C2 1736   3.600   2.974   0.590 -0.0848  0.6178 -0.0318
  114TCq2    C3 1737   3.578   3.060   0.485  0.4911  0.1472 -0.7218
  114TCq2    C4 1738   3.545   3.006   0.365  0.5351  0.4616 -0.6352
  114TCq2    C5 1739   3.519   2.866   0.360  0.1700 -0.1673 -0.2025
  114TCq2    C6 1740   3.552   2.788   0.461 -0.1354  0.5272  0.0588
  114TCq2    C7 1741   3.586   2.839   0.585 -0.5289 -0.1650  0.0640
  114TCq2    C8 1742   3.531   2.649   0.446  0.5504 -0.3195 -0.0170
  114TCq2    O4 1743   3.512   2.603   0.335  0.0855  0.1098  0.2441
  114TCq2    C9 1744   3.523   3.096   0.256  0.9144  0.1165  0.3830
  114TCq2    O5 1745   3.514   3.216   0.286 -0.5604  0.7427  0.6529
  114TCq2    O6 1746   3.499   3.046   0.142  0.7138 -0.1064  0.3047
  114TCq2    H2 1747   3.596   3.167   0.490 -2.6857  0.5860  1.1857
  114TCq2    H3 1748   3.487   2.829   0.263  0.3074 -0.2563 -0.2135
  114TCq2    H4 1749   3.615   2.783   0.673  2.3089  1.3054  0.0579
  115TMC2    C1 1750   4.715   1.374  17.480 -0.2213  0.6622  0.8677
  115TMC2    C2 1751   4.710   1.365  17.339  0.6196  0.9202  0.9111
  115TMC2    C3 1752   0.077   1.441  17.276 -0.1280 -0.2375  0.7547
  115TMC2    C4 1753   0.067   1.464  17.551 -0.4228 -0.3548  0.5468
  115TMC2    C5 1754   0.169   1.519  17.480  0.4969  0.1892 -0.2756
  115TMC2    C6 1755   0.176   1.509  17.340  0.6326 -0.2272  0.2841
  115TMC2     C 1756   4.628   1.279  17.546 -0.0582  0.2035 -0.5675
  115TMC2     O 1757   4.597   1.176  17.487 -0.0607 -0.2162  0.2468
  115TMC2     H 1758   4.657   1.289  17.284  1.5207  2.3141 -1.8453
  115TMC2    H1 1759   0.056   1.471  17.658  1.4214 -0.0094  0.7203
  115TMC2    H2 1760   0.257   1.549  17.280  1.3247 -0.9528  0.7287
  115TMC2    C7 1761   0.289   1.530  17.555  0.1512  0.0579 -0.4123
  115TMC2    C8 1762   0.096   1.413  17.132 -0.5510  0.2005 -0.2241
  115TMC2    O1 1763   0.288   1.486  17.671  0.1949  0.3304  0.2178
  115TMC2    O2 1764   0.195   1.359  17.082  0.0550 -0.8179 -0.0764
  115TMC2    O5 1765   4.694   1.399  17.075  0.4435 -0.7167 -0.6513
  115TMC2    H5 1766   4.623   1.449  17.121 -0.3830 -0.4514 -2.2043
  116MPD2     C 1767   4.416   1.088   0.264  0.5443  0.0634  0.1343
  116MPD2    C1 1768   4.458   1.024   0.149  0.0169 -0.2209  0.5061
  116MPD2    C2 1769   4.528   1.094   0.048  1.2925 -0.1772  0.6546
  116MPD2    C3 1770   4.534   1.230   0.064  0.1774  0.1108 -0.2628
  116MPD2    C4 1771   4.505   1.288   0.188  0.6029  0.0247 -0.2013
  116MPD2    C5 1772   4.438   1.221   0.282 -0.3529 -0.2672  0.6347
  116MPD2     H 1773   4.580   1.050  17.664  1.1306 -1.0324  1.0043
  116MPD2    H1 1774   4.517   1.393   0.210 -0.3050  0.0998 -0.0605
  116MPD2    H2 1775   4.359   1.045   0.345 -0.7312 -0.0203 -0.8080
  116MPD2    H3 1776   4.420   1.265   0.379  3.1409  1.1255  0.6385
  116MPD2     N 1777   4.588   1.312  17.667 -0.0441 -0.1250  0.5582
  116MPD2    H5 1778   4.601   1.410  17.687  1.8374  0.0050 -1.2880
  116MPD2    N1 1779   4.436   0.887   0.132 -0.2968 -0.3818  0.4822
  116MPD2    H7 1780   4.458   0.852   0.039  0.3141  0.7744  0.1953
  117TMC2    C1 1781   2.753   2.881  14.227 -0.4312  0.2933 -0.0646
  117TMC2    C2 1782   2.807   2.806  14.325 -0.4415  0.2899 -0.6071
  117TMC2    C3 1783   2.940   2.832  14.362 -0.5649  0.1386 -1.0127
  117TMC2    C4 1784   2.827   2.975  14.157 -0.4212  0.4619 -0.3461
  117TMC2    C5 1785   2.953   3.001  14.205 -0.0642  0.5863  0.5863
  117TMC2    C6 1786   3.013   2.930  14.306  0.1919  0.5629 -0.5320
  117TMC2     C 1787   2.604   2.888  14.218  0.2544 -0.6828  0.6903
  117TMC2     O 1788   2.544   2.783  14.247 -0.4942 -0.0468 -0.7422
  117TMC2     H 1789   2.755   2.722  14.369 -0.8561  1.0699  0.4025
  117TMC2    H1 1790   2.792   3.027  14.069 -1.0451  0.1346 -0.2943
  117TMC2    H2 1791   3.114   2.951  14.339 -0.0211  2.0657 -0.8418
  117TMC2    C7 1792   3.039   3.076  14.120  0.2480  0.0304 -0.2638
  117TMC2    C8 1793   2.992   2.772  14.481 -0.7029  0.1595 -0.2054
  117TMC2    O1 1794   3.147   3.026  14.095 -0.5035  0.0847 -0.0050
  117TMC2    O2 1795   3.069   2.836  14.549  0.0645  0.2638  0.3462
  117TMC2    O5 1796   2.982   2.638  14.464 -0.1480 -0.2178 -0.0775
  117TMC2    H5 1797   2.929   2.610  14.386  0.6427 -0.3604 -0.5693
  118MPD2     C 1798   2.978   3.419  14.008 -0.3073 -0.3913  0.2713
  118MPD2    C1 1799   3.048   3.305  14.024 -0.1784 -0.2889 -0.1039
  118MPD2    C2 1800   3.178   3.297  13.982  0.3700 -0.4682  0.4344
  118MPD2    C3 1801   3.239   3.403  13.915 -0.2617  1.3246  0.5229
  118MPD2    C4 1802   3.168   3.518  13.903 -0.4220  0.5715 -0.8413
  118MPD2    C5 1803   3.040   3.523  13.959  0.0180 -0.5075 -0.0549
  118MPD2     H 1804   3.237   3.207  14.002  1.7201  0.9752  3.0034
  118MPD2    H1 1805   3.213   3.604  13.857  1.7512 -0.2101 -0.1660
  118MPD2    H2 1806   2.877   3.433  14.045 -1.3681 -2.1156 -1.9900
  118MPD2    H3 1807   2.982   3.613  13.941 -0.0496 -0.6895 -0.7588
  118MPD2     N 1808   3.371   3.408  13.868  0.6414 -0.5983  0.2698
  118MPD2    H5 1809   3.407   3.488  13.817  1.0397 -2.0213 -1.6619
  118MPD2    N1 1810   2.984   3.197  14.092  0.3787 -0.4343  0.3765
  118MPD2    H7 1811   2.893   3.205  14.135  0.2966 -0.5335  0.2221
  119MPD2     C 1812   1.611   4.265  14.227 -0.3532  0.2216  0.0023
  119MPD2    C1 1813   1.481   4.286  14.198  0.5920  0.2230  0.6225
  119MPD2    C2 1814   1.443   4.277  14.063 -0.3705 -0.0322  0.0284
  119MPD2    C3 1815   1.527   4.257  13.959 -0.4510 -0.5861  0.2098
  119MPD2    C4 1816   1.656   4.261  13.993  1.1188 -0.0950 -0.1013
  119MPD2    C5 1817   1.699   4.279  14.122 -0.0231 -0.3616 -0.2461
  119MPD2     H 1818   1.334   4.275  14.055 -0.3545  3.2711 -1.0522
  119MPD2    H1 1819   1.729   4.274  13.914  0.8771 -0.1610 -0.3331
  119MPD2    H2 1820   1.639   4.260  14.332 -0.5137 -0.2325  0.0246
  119MPD2    H3 1821   1.805   4.291  14.140  0.0446 -1.9088  0.3748
  119MPD2     N 1822   1.485   4.250  13.826 -0.0950  0.2728 -0.5078
  119MPD2    H5 1823   1.562   4.265  13.762 -0.8019 -0.2785 -1.4911
  119MPD2    N1 1824   1.389   4.297  14.299  0.1726  0.0646 -0.3760
  119MPD2    H7 1825   1.413   4.255  14.389 -2.2285  0.5186  0.4748
  120TCq2    C1 1826   1.352   4.234  13.788 -0.3588 -0.9164  0.0470
  120TCq2    O2 1827   1.252   4.237  13.859 -0.0473  0.1885 -0.1560
  120TCq2    C2 1828   1.333   4.212  13.644 -0.2070  0.7137 -0.0043
  120TCq2    C3 1829   1.439   4.170  13.576  0.4878 -0.5992 -0.0460
  120TCq2    C4 1830   1.423   4.133  13.447 -0.0883  0.0298  0.0874
  120TCq2    C5 1831   1.296   4.118  13.399  0.5988  0.1335 -0.0626
  120TCq2    C6 1832   1.187   4.130  13.481  0.2891 -0.3970  0.2353
  120TCq2    C7 1833   1.202   4.191  13.605  0.3957  0.9136  0.3367
  120TCq2    C8 1834   1.065   4.055  13.447  0.5391  0.2457 -0.0453
  120TCq2    O4 1835   1.074   3.968  13.361  0.1806 -0.4121  0.4192
  120TCq2    C9 1836   1.543   4.091  13.378 -0.6463 -0.1925 -0.3454
  120TCq2    O5 1837   1.531   4.067  13.253 -0.0129  0.5233  0.3647
  120TCq2    O6 1838   1.656   4.119  13.434  0.4143  0.6668 -0.2305
  120TCq2    H2 1839   1.540   4.175  13.617  1.7083 -1.4159 -2.9257
  120TCq2    H3 1840   1.286   4.070  13.302  0.2514  2.0881 -0.9901
  120TCq2    H4 1841   1.118   4.231  13.661 -1.2604 -2.9326  0.6080
  121TMC2    C1 1842   3.045   0.997  14.411 -0.7165 -0.4463 -0.3062
  121TMC2    C2 1843   3.024   0.938  14.531  0.3376 -0.5805  1.1124
  121TMC2    C3 1844   2.904   0.883  14.557  0.0001  0.2307 -0.5924
  121TMC2    C4 1845   2.947   0.998  14.315  0.2919  0.0181 -0.1267
  121TMC2    C5 1846   2.826   0.938  14.345  0.3540 -0.2600  0.5278
  121TMC2    C6 1847   2.802   0.873  14.465 -0.0930  0.1685  0.3739
  121TMC2     C 1848   3.177   1.051  14.384  0.0969  0.3885  0.2429
  121TMC2     O 1849   3.264   1.041  14.469  0.5437 -0.3425 -0.1314
  121TMC2     H 1850   3.097   0.935  14.611  1.0161 -0.0622  0.5099
  121TMC2    H1 1851   2.967   1.044  14.219  3.8742  0.4972  0.8814
  121TMC2    H2 1852   2.716   0.807  14.470  0.3522 -0.5518 -1.7165
  121TMC2    C7 1853   2.736   0.922  14.232  0.2349 -0.2816  0.2828
  121TMC2    C8 1854   2.889   0.811  14.682 -0.3378  0.8967 -0.2163
  121TMC2    O1 1855   2.791   0.946  14.121  0.1839  0.3885  0.2807
  121TMC2    O2 1856   2.962   0.734  14.736  0.0828  0.1011 -0.0681
  121TMC2    O5 1857   2.759   0.830  14.714  0.3282 -0.2595 -0.2611
  121TMC2    H5 1858   2.712   0.894  14.656 -0.4016  0.8875  1.5992
  122MPD2     C 1859   3.434   1.169  14.273  0.3125 -0.3096 -0.2460
  122MPD2    C1 1860   3.312   1.175  14.213 -0.2308 -0.3482  0.0345
  122MPD2    C2 1861   3.298   1.252  14.098  0.3619 -0.2155 -0.0249
  122MPD2    C3 1862   3.406   1.320  14.040 -0.6781  0.0001  0.5238
  122MPD2    C4 1863   3.530   1.307  14.100  0.4283 -0.5015  0.0565
  122MPD2    C5 1864   3.539   1.231  14.211  0.9638  0.4932 -0.0528
  122MPD2     H 1865   3.200   1.264  14.054  1.9599 -1.2742 -3.8488
  122MPD2    H1 1866   3.614   1.357  14.053  0.0155  1.5822  1.5349
  122MPD2    H2 1867   3.444   1.119  14.369 -1.9584  0.2365  0.2709
  122MPD2    H3 1868   3.639   1.223  14.252  0.0975 -1.8274  1.6384
  122MPD2     N 1869   3.397   1.391  13.918 -0.3045 -0.1714  0.4493
  122MPD2    H5 1870   3.482   1.422  13.873 -0.6564  1.2570  0.7507
  122MPD2    N1 1871   3.190   1.118  14.261 -0.5527 -0.1501  0.0182
  122MPD2    H7 1872   3.107   1.156  14.217 -1.6846 -0.1901  2.0899
  123MPD2     C 1873   1.942   4.284   9.875  0.0045 -0.1349  0.1808
  123MPD2    C1 1874   1.910   4.159   9.834  0.4969  0.3179  0.0375
  123MPD2    C2 1875   2.003   4.087   9.767  0.2395  0.9505  0.1902
  123MPD2    C3 1876   2.123   4.145   9.731 -0.9578 -0.4612 -0.1947
  123MPD2    C4 1877   2.146   4.282   9.754 -0.1122 -0.3299  0.1102
  123MPD2    C5 1878   2.049   4.350   9.824 -0.0025  0.1320  1.7292
  123MPD2     H 1879   1.996   3.986   9.727 -0.4637  1.0808 -0.0199
  123MPD2    H1 1880   2.238   4.336   9.733 -1.1941  1.1579 -0.8609
  123MPD2    H2 1881   1.877   4.340   9.942  0.1746 -0.5505  0.6878
  123MPD2    H3 1882   2.069   4.451   9.857 -1.5771  1.1329 -0.3246
  123MPD2     N 1883   2.223   4.063   9.682  0.2075 -0.0337  0.4481
  123MPD2    H5 1884   2.189   3.967   9.690 -0.2837  0.1832  1.0011
  123MPD2    N1 1885   1.786   4.096   9.867  0.2595 -0.4837  0.0834
  123MPD2    H7 1886   1.704   4.150   9.892  0.8803  1.0347 -1.1678
  124TCq2    C1 1887   2.338   4.107   9.622  0.2100  0.1238  0.6544
  124TCq2    O2 1888   2.372   4.222   9.589 -0.2297 -0.4952 -0.1440
  124TCq2    C2 1889   2.434   4.000   9.600  0.0773 -0.0226 -0.2059
  124TCq2    C3 1890   2.554   4.020   9.530 -0.6162  1.0869  0.7920
  124TCq2    C4 1891   2.625   3.914   9.494  0.5103  0.2390  0.6349
  124TCq2    C5 1892   2.587   3.788   9.532 -0.4725  0.3410 -0.3172
  124TCq2    C6 1893   2.472   3.765   9.603 -0.1558 -0.5132  0.0347
  124TCq2    C7 1894   2.393   3.876   9.634  0.0940  0.0238  0.3747
  124TCq2    C8 1895   2.425   3.629   9.615 -0.0694 -0.1894  0.2639
  124TCq2    O4 1896   2.343   3.607   9.703  0.0503 -0.1192 -0.0203
  124TCq2    C9 1897   2.728   3.913   9.396 -0.4365  0.0662 -0.2973
  124TCq2    O5 1898   2.803   4.013   9.409 -0.3583  0.2252 -0.4743
  124TCq2    O6 1899   2.728   3.825   9.307 -0.4580  0.0513 -0.0180
  124TCq2    H2 1900   2.581   4.112   9.480  1.6983  0.1369  0.3144
  124TCq2    H3 1901   2.655   3.706   9.510 -0.4655  0.3681 -0.3981
  124TCq2    H4 1902   2.298   3.839   9.672 -0.6048  0.1606 -1.2710
  125TMC2    C1 1903   2.860   1.078   9.292 -0.8169 -0.8399 -0.2204
  125TMC2    C2 1904   2.771   1.011   9.211 -0.0423 -0.2693 -0.4732
  125TMC2    C3 1905   2.782   0.876   9.208  0.0335  0.5021  0.2294
  125TMC2    C4 1906   2.965   1.014   9.350 -0.8954  0.5410  0.1280
  125TMC2    C5 1907   2.977   0.879   9.334 -0.8516  0.3280 -0.4199
  125TMC2    C6 1908   2.881   0.809   9.264 -0.1565 -0.1307 -0.2999
  125TMC2     C 1909   2.870   1.226   9.300  0.2035 -0.4889 -0.9316
  125TMC2     O 1910   2.968   1.279   9.353  0.0325 -0.4680  0.2624
  125TMC2     H 1911   2.707   1.058   9.136  2.4947  0.0074 -2.4608
  125TMC2    H1 1912   3.038   1.071   9.407 -0.7268 -0.2357  0.6941
  125TMC2    H2 1913   2.889   0.702   9.251 -1.9987 -0.4682  1.2713
  125TMC2    C7 1914   3.099   0.800   9.366 -1.0156 -0.4386  0.1808
  125TMC2    C8 1915   2.685   0.801   9.132 -0.2955  0.6184  0.3673
  125TMC2    O1 1916   3.088   0.677   9.344 -0.1755  0.9689 -0.1968
  125TMC2    O2 1917   2.703   0.696   9.071 -0.4700  0.1252 -0.4212
  125TMC2    O5 1918   2.569   0.863   9.144  0.0106  0.1437  0.3904
  125TMC2    H5 1919   2.573   0.931   9.215  2.5156 -0.6935  1.0414
  126MPD1     C 1920   2.654   1.689   9.234  0.2766 -0.0587  0.1315
  126MPD1    C1 1921   2.567   1.594   9.194  0.0630 -0.2415 -0.2849
  126MPD1    C2 1922   2.617   1.464   9.189 -0.0318  0.0067 -0.6900
  126MPD1    C3 1923   2.738   1.421   9.241 -0.9045  0.2380  0.3329
  126MPD1    C4 1924   2.819   1.520   9.299  0.0921  0.1669 -0.0945
  126MPD1    C5 1925   2.777   1.654   9.281 -0.6226  0.3837 -0.1441
  126MPD1     H 1926   2.548   1.386   9.159  0.9774 -1.1821  0.0725
  126MPD1    H1 1927   2.906   1.502   9.361 -0.6626  1.6475  1.3894
  126MPD1    H2 1928   2.629   1.793   9.213 -2.5785 -0.5000  1.3962
  126MPD1    H3 1929   2.856   1.725   9.306 -1.4535  0.1348  3.1922
  126MPD1     N 1930   2.761   1.283   9.249 -0.2180 -0.4813  0.6403
  126MPD1    H5 1931   2.681   1.234   9.211 -0.7674  0.0612  1.0953
  126MPD1    N1 1932   2.453   1.635   9.127  0.4628  0.0254  0.0860
  126MPD1    H6 1933   2.388   1.558   9.116  0.9457 -0.4275  0.4316
  126MPD1    H7 1934   2.398   1.716   9.157  1.3578 -0.0567  1.9516
  127MPD2     C 1935   3.436   0.364   9.283  0.0003 -0.1849  0.6547
  127MPD2    C1 1936   3.494   0.345   9.407 -0.3427  0.0107  0.3600
  127MPD2    C2 1937   3.630   0.323   9.409  0.2078 -0.7480  0.0568
  127MPD2    C3 1938   3.704   0.345   9.302  0.7408  0.7083 -0.0644
  127MPD2    C4 1939   3.655   0.377   9.181 -0.1258 -0.8754 -0.3956
  127MPD2    C5 1940   3.515   0.387   9.167 -0.9811 -1.1905  0.4187
  127MPD2     H 1941   3.682   0.300   9.502 -0.8634  0.5718  0.9707
  127MPD2    H1 1942   3.715   0.389   9.093  1.4911 -2.4578  0.4908
  127MPD2    H2 1943   3.331   0.387   9.266  0.1842 -0.3039 -0.6598
  127MPD2    H3 1944   3.475   0.416   9.071 -0.3982 -1.7951 -0.0066
  127MPD2     N 1945   3.843   0.329   9.320 -0.5493  0.4229  0.0369
  127MPD2    H5 1946   3.873   0.321   9.417 -1.3138 -0.4329  0.2097
  127MPD2    N1 1947   3.422   0.319   9.526 -0.8756  0.0182 -0.4410
  127MPD2    H7 1948   3.326   0.292   9.508 -0.6454  0.5069 -2.3417
  128TCq2    C1 1949   3.472   0.334   9.651  0.4118  0.1540  0.0337
  128TCq2    O2 1950   3.581   0.368   9.687 -0.4108  0.2070  0.0860
  128TCq2    C2 1951   3.390   0.288   9.766 -0.2471  0.5250  0.0808
  128TCq2    C3 1952   3.457   0.254   9.878 -0.1766 -0.2836 -1.1359
  128TCq2    C4 1953   3.385   0.207   9.982 -0.0683 -0.4391 -0.5892
  128TCq2    C5 1954   3.249   0.202   9.984 -0.0042 -0.1409  0.2868
  128TCq2    C6 1955   3.185   0.240   9.870 -0.7491 -0.4393 -0.6398
  128TCq2    C7 1956   3.256   0.272   9.758 -0.2525  0.4191 -0.7221
  128TCq2    C8 1957   3.044   0.231   9.867  0.1513  0.9928  0.6194
  128TCq2    O4 1958   2.984   0.299   9.789  0.2564  0.2447  0.5427
  128TCq2    C9 1959   3.454   0.184  10.103  0.4539  0.0995  1.1395
  128TCq2    O5 1960   3.383   0.162  10.202  0.0073  0.1880  0.5251
  128TCq2    O6 1961   3.582   0.190  10.098  0.0100 -0.3199 -0.3493
  128TCq2    H2 1962   3.565   0.248   9.870 -0.0326  0.3045  0.6100
  128TCq2    H3 1963   3.197   0.175  10.076 -3.2961 -1.4748 -1.9646
  128TCq2    H4 1964   3.201   0.277   9.665 -0.5672  1.7691 -0.4565
  129MPD2     C 1965   1.987   0.382   1.862  0.3392 -0.3030  0.2089
  129MPD2    C1 1966   2.076   0.280   1.855  0.3859 -0.0545 -0.2866
  129MPD2    C2 1967   2.187   0.293   1.771 -0.2421  0.2778  0.4709
  129MPD2    C3 1968   2.201   0.399   1.682 -0.5830  0.1289  0.0859
  129MPD2    C4 1969   2.109   0.503   1.696 -0.5552 -0.0522 -0.1847
  129MPD2    C5 1970   2.005   0.486   1.781  0.1917  0.0316 -0.1119
  129MPD2     H 1971   2.260   0.212   1.764 -2.1886 -1.3183 -1.6003
  129MPD2    H1 1972   2.113   0.601   1.649  1.2013  0.8297  1.7883
  129MPD2    H2 1973   1.911   0.382   1.939  1.1587 -1.4147  1.0234
  129MPD2    H3 1974   1.926   0.560   1.785 -1.7922 -2.0893 -0.4987
  129MPD2     N 1975   2.297   0.400   1.578  0.5745  0.0324 -0.2987
  129MPD2    H5 1976   2.366   0.325   1.578  0.8338  0.2759 -0.3851
  129MPD2    N1 1977   2.075   0.173   1.936 -0.0301 -0.3714 -0.2350
  129MPD2    H7 1978   2.157   0.114   1.930  0.2517  0.1422 -1.5285
  130TCq2    C1 1979   1.963   0.130   1.998  0.0743 -1.2427 -0.2986
  130TCq2    O2 1980   1.849   0.176   1.998 -0.3227 -0.2307 -0.2854
  130TCq2    C2 1981   1.982   4.718   2.060  0.6764  0.4534  0.3664
  130TCq2    C3 1982   2.111   4.680   2.087 -0.1099 -0.1877  0.0141
  130TCq2    C4 1983   2.137   4.558   2.140  0.1659 -0.3191 -0.0517
  130TCq2    C5 1984   2.034   4.475   2.161  0.0742  0.6084  0.2727
  130TCq2    C6 1985   1.903   4.528   2.156 -0.0489 -0.0157 -0.1764
  130TCq2    C7 1986   1.877   4.641   2.096 -0.4829 -0.8318 -0.6091
  130TCq2    C8 1987   1.792   4.436   2.147  0.1142 -0.1709 -0.2800
  130TCq2    O4 1988   1.686   4.461   2.084  0.0106 -0.3245 -1.1195
  130TCq2    C9 1989   2.272   4.528   2.164  0.1790  0.5657  0.0107
  130TCq2    O5 1990   2.360   4.600   2.115 -0.4134  0.8534 -0.3148
  130TCq2    O6 1991   2.293   4.421   2.225  0.3421 -0.5722  0.3741
  130TCq2    H2 1992   2.198   0.019   2.079 -1.3578  1.4715 -0.2354
  130TCq2    H3 1993   2.063   4.380   2.206 -1.5366 -0.2014 -0.3782
  130TCq2    H4 1994   1.775   4.678   2.085 -0.4385 -0.7659 -0.8029
  131MPD2     C 1995   1.052   4.506   9.977  1.0757  0.0771  0.1035
  131MPD2    C1 1996   1.186   4.526   9.968 -0.6247 -0.7224 -0.0860
  131MPD2    C2 1997   1.273   4.419   9.953  0.4816  0.4610  0.1522
  131MPD2    C3 1998   1.223   4.288   9.947 -0.4981 -0.4694  0.2566
  131MPD2    C4 1999   1.085   4.267   9.953 -0.4229  0.7504 -0.1446
  131MPD2    C5 2000   1.004   4.378   9.971  0.0070  0.4931  0.6490
  131MPD2     H 2001   1.380   4.439   9.952  0.5826 -0.0738  0.3224
  131MPD2    H1 2002   1.039   4.169   9.951 -1.4255  1.1547  3.2634
  131MPD2    H2 2003   0.977   4.584   9.990 -0.3567 -0.9067 -2.2328
  131MPD2    H3 2004   0.898   4.356   9.975  0.2141 -0.5345  0.5347
  131MPD2     N 2005   1.317   4.182   9.941 -0.4626 -0.3294 -0.0144
  131MPD2    H5 2006   1.417   4.198   9.930 -0.4205  0.0201  0.8265
  131MPD2    N1 2007   1.226   4.662   9.984  0.3501  0.3755 -0.1801
  131MPD2    H7 2008   1.157   0.011   9.994 -0.6458 -0.8277  1.8896
  132TCq2    C1 2009   1.611   0.381  10.000  0.1617 -1.0391  0.5936
  132TCq2    O2 2010   1.727   0.338   9.994 -0.5967 -0.1621  0.2617
  132TCq2    C2 2011   1.504   0.306  10.066 -0.2678 -0.4007  0.5018
  132TCq2    C3 2012   1.400   0.373  10.109 -0.0761  0.1602 -0.0882
  132TCq2    C4 2013   1.273   0.322  10.117  0.5262  0.2123 -0.6769
  132TCq2    C5 2014   1.251   0.197  10.063 -0.0948  0.0964 -0.2735
  132TCq2    C6 2015   1.361   0.130  10.010 -0.7878  0.8950  0.3667
  132TCq2    C7 2016   1.492   0.183  10.018  0.3887 -0.5122  0.2407
  132TCq2    C8 2017   1.350   4.714   9.969  0.4308 -0.5709  0.3010
  132TCq2    O4 2018   1.450   4.658   9.935 -0.6331 -0.0459 -0.3466
  132TCq2    C9 2019   1.161   0.397  10.160 -0.1040  0.2334  0.0288
  132TCq2    O5 2020   1.045   0.349  10.150 -0.2502 -0.3197  0.1036
  132TCq2    O6 2021   1.193   0.521  10.179  0.5315 -0.3289 -0.0597
  132TCq2    H2 2022   1.412   0.477  10.136  1.2076  0.2650 -1.0495
  132TCq2    H3 2023   1.157   0.151  10.090  0.4927 -0.4708  0.8155
  132TCq2    H4 2024   1.577   0.136   9.969 -0.2341  1.3292 -2.6440
  133MPD2     C 2025   0.299   0.999   9.511 -0.0757  0.8098 -0.2220
  133MPD2    C1 2026   0.416   0.937   9.550  0.4604  0.2676 -0.1257
  133MPD2    C2 2027   0.447   0.807   9.519  0.0862  0.9985  0.7304
  133MPD2    C3 2028   0.351   0.732   9.449  0.0236 -0.1956 -0.1534
  133MPD2    C4 2029   0.233   0.790   9.413  0.4367  0.1458 -0.3994
  133MPD2    C5 2030   0.208   0.921   9.432 -0.1616  0.5238  0.4702
  133MPD2     H 2031   0.541   0.764   9.551  0.2823  1.4836  0.8044
  133MPD2    H1 2032   0.153   0.729   9.371  0.0892  0.5223 -0.2779
  133MPD2    H2 2033   0.272   1.098   9.545  0.3111  1.3875 -1.5864
  133MPD2    H3 2034   0.109   0.962   9.419  0.4624  2.2879  1.2659
  133MPD2     N 2035   0.353   0.592   9.420 -0.2290 -0.2853  0.1994
  133MPD2    H5 2036   0.280   0.549   9.364  0.6298 -1.9134  0.3198
  133MPD2    N1 2037   0.510   1.020   9.626 -0.1725  0.2188  0.1658
  133MPD2    H7 2038   0.484   1.118   9.628 -0.1489  0.2536 -1.2764
  134TCq2    C1 2039   0.626   0.983   9.684 -0.3033  0.6452 -0.3558
  134TCq2    O2 2040   0.683   0.872   9.682 -0.2635 -0.1687  0.0777
  134TCq2    C2 2041   0.698   1.089   9.750 -0.0255 -0.9779 -0.4493
  134TCq2    C3 2042   0.720   1.197   9.665 -0.5540  0.1828 -0.4375
  134TCq2    C4 2043   0.781   1.309   9.723 -0.0844  0.2942 -0.0896
  134TCq2    C5 2044   0.822   1.301   9.860 -0.1225  0.1422 -0.4061
  134TCq2    C6 2045   0.794   1.185   9.933 -0.1598 -0.2374  0.2783
  134TCq2    C7 2046   0.735   1.074   9.877  0.2101 -0.8959  0.8278
  134TCq2    C8 2047   0.762   1.195  10.080 -0.0130  0.4450  0.2053
  134TCq2    O4 2048   0.740   1.097  10.152 -0.1592  0.5719  0.1785
  134TCq2    C9 2049   0.817   1.431   9.647  0.6083 -0.4912  0.0971
  134TCq2    O5 2050   0.850   1.531   9.714 -0.5746  0.5217  0.2828
  134TCq2    O6 2051   0.794   1.429   9.523  0.4423 -0.8351 -0.2390
  134TCq2    H2 2052   0.674   1.198   9.566  2.1331 -1.5661 -1.7063
  134TCq2    H3 2053   0.882   1.384   9.896 -1.8959  0.4714  1.8109
  134TCq2    H4 2054   0.695   0.986   9.926  0.3880  0.3512  3.2059
  135MPD2     C 2055   3.123   1.842   9.343 -0.3773 -0.6062  0.0256
  135MPD2    C1 2056   3.112   1.746   9.438  0.9788  0.0744 -0.4160
  135MPD2    C2 2057   3.155   1.616   9.410 -0.8343  0.3755 -0.5973
  135MPD2    C3 2058   3.195   1.584   9.280  0.7307  0.0525 -0.8359
  135MPD2    C4 2059   3.177   1.679   9.175  0.0047 -0.7891 -0.5330
  135MPD2    C5 2060   3.146   1.806   9.212 -0.1352 -0.8050  0.1513
  135MPD2     H 2061   3.169   1.545   9.491  0.3365  2.4703  1.0464
  135MPD2    H1 2062   3.208   1.661   9.073 -1.6961  0.7578 -1.3377
  135MPD2    H2 2063   3.102   1.944   9.375  1.5407 -0.1191 -0.2776
  135MPD2    H3 2064   3.156   1.886   9.140  0.7008 -0.7069  0.3818
  135MPD2     N 2065   3.246   1.452   9.266  0.2093  0.3422 -0.0836
  135MPD2    H5 2066   3.240   1.392   9.347  0.2126 -0.2803 -0.5499
  135MPD2    N1 2067   3.075   1.774   9.573  0.2066  0.3561 -0.4988
  135MPD2    H7 2068   3.083   1.691   9.631 -0.4593  0.1791 -0.6604
  136TCq2    C1 2069   3.023   1.889   9.625 -0.0101  0.2226 -0.0004
  136TCq2    O2 2070   3.010   1.992   9.566 -0.1046  0.1378  0.2058
  136TCq2    C2 2071   2.973   1.873   9.757 -0.1570 -0.0336  0.0642
  136TCq2    C3 2072   2.992   1.751   9.830  0.5485  0.4946 -0.5540
  136TCq2    C4 2073   2.955   1.754   9.958 -0.0725  0.4345  0.2131
  136TCq2    C5 2074   2.869   1.853  10.004 -0.3285 -0.1992  0.1554
  136TCq2    C6 2075   2.856   1.966   9.930 -0.2771 -0.6676 -0.7018
  136TCq2    C7 2076   2.911   1.977   9.811 -0.4052  0.2462 -0.5203
  136TCq2    C8 2077   2.764   2.065   9.974  0.5297  0.2627  0.4133
  136TCq2    O4 2078   2.817   2.175   9.979 -0.6570  0.8082  0.0120
  136TCq2    C9 2079   2.977   1.631  10.033 -0.1697 -0.4794  0.2426
  136TCq2    O5 2080   2.940   1.641  10.153 -0.1302 -0.1736 -0.6738
  136TCq2    O6 2081   2.978   1.530   9.957 -0.0672  0.2956  0.7492
  136TCq2    H2 2082   3.055   1.677   9.781 -0.4398 -0.9537  0.3571
  136TCq2    H3 2083   2.815   1.846  10.098  0.5111  0.1231  0.6686
  136TCq2    H4 2084   2.902   2.072   9.761  0.1689 -0.0896 -1.2579
  137MPD2     C 2085   2.227   1.358   8.873 -0.0178 -0.3319 -0.0536
  137MPD2    C1 2086   2.178   1.438   8.975 -0.3061  0.1731 -0.0907
  137MPD2    C2 2087   2.217   1.409   9.103 -0.2347 -0.1187 -0.6469
  137MPD2    C3 2088   2.293   1.295   9.132  0.0483 -0.2872  0.1056
  137MPD2    C4 2089   2.324   1.205   9.028 -0.3662  0.2610 -0.0084
  137MPD2    C5 2090   2.293   1.241   8.904 -0.1197 -0.0317 -0.0506
  137MPD2     H 2091   2.203   1.470   9.192  0.7970 -0.9371  0.0755
  137MPD2    H1 2092   2.386   1.118   9.045 -0.7441  0.0491  0.2806
  137MPD2    H2 2093   2.203   1.378   8.770  1.2465  0.7112 -0.1504
  137MPD2    H3 2094   2.316   1.179   8.818  1.1675  1.1005 -0.5267
  137MPD2     N 2095   2.321   1.270   9.266  0.4300  0.2014 -0.7225
  137MPD2    H5 2096   2.259   1.321   9.328  2.0860  0.2163  0.9230
  137MPD2    N1 2097   2.094   1.552   8.959  0.1875 -0.5909  0.1560
  137MPD2    H7 2098   2.070   1.586   8.867  4.3828  1.5441 -0.1715
  138TCq2    C1 2099   2.034   1.612   9.069  0.1035 -0.5163  0.2365
  138TCq2    O2 2100   2.008   1.580   9.186  0.6087 -0.0013  0.7544
  138TCq2    C2 2101   1.956   1.721   9.017 -0.2312  0.1125  0.1733
  138TCq2    C3 2102   1.969   1.781   8.898 -0.0805  0.0240 -0.1954
  138TCq2    C4 2103   1.861   1.862   8.854 -0.0968 -0.2507 -0.3918
  138TCq2    C5 2104   1.737   1.870   8.924 -0.5053  0.1011 -0.4697
  138TCq2    C6 2105   1.736   1.807   9.049 -0.0536 -0.0680 -0.2027
  138TCq2    C7 2106   1.845   1.734   9.100 -1.0304 -0.3783  0.2614
  138TCq2    C8 2107   1.625   1.836   9.140  0.0746 -0.0937  0.3020
  138TCq2    O4 2108   1.561   1.941   9.115 -0.4003 -0.4381 -0.0144
  138TCq2    C9 2109   1.875   1.937   8.732  0.1203 -0.1188 -0.1688
  138TCq2    O5 2110   1.977   1.904   8.665 -0.1071 -0.7191 -0.0874
  138TCq2    O6 2111   1.797   2.037   8.718 -0.0639 -0.2862 -0.2011
  138TCq2    H2 2112   2.045   1.745   8.829 -1.7134 -0.3596 -1.8042
  138TCq2    H3 2113   1.647   1.917   8.884 -0.8209 -0.3382 -0.2771
  138TCq2    H4 2114   1.851   1.731   9.208 -1.5798  0.4286  0.3146
  139TMC2    C1 2115   2.327   3.635  13.643  0.2499  0.2845 -0.0043
  139TMC2    C2 2116   2.210   3.594  13.589 -0.1552  0.1454  0.2716
  139TMC2    C3 2117   2.135   3.697  13.537 -0.2592  0.3618  0.1432
  139TMC2    C4 2118   2.373   3.762  13.660 -0.1712  0.2692  0.0690
  139TMC2    C5 2119   2.285   3.861  13.624 -0.5976 -0.4874  0.0884
  139TMC2    C6 2120   2.174   3.830  13.549 -0.0720  0.3687  0.2809
  139TMC2     C 2121   2.428   3.529  13.669 -0.1506 -0.6883  0.0716
  139TMC2     O 2122   2.544   3.563  13.693 -0.2964  0.7656 -0.3678
  139TMC2     H 2123   2.182   3.492  13.560 -0.1228 -0.1198  1.1918
  139TMC2    H1 2124   2.471   3.780  13.702 -0.4178 -1.6444  1.5100
  139TMC2    H2 2125   2.111   3.917  13.534 -0.3182  0.2235  0.4659
  139TMC2    C7 2126   2.316   3.997  13.635  0.7872  0.2140  0.2285
  139TMC2    C8 2127   1.996   3.685  13.505  0.7071 -0.4810 -0.5039
  139TMC2    O1 2128   2.261   4.076  13.560  0.6509  0.9815  0.6505
  139TMC2    O2 2129   1.911   3.642  13.584  0.1116  0.3705 -0.4861
  139TMC2    O5 2130   1.988   3.764  13.401 -0.1058 -0.0296 -0.3156
  139TMC2    H5 2131   2.073   3.795  13.364 -0.8369  1.3535 -0.8431
  140MPD2     C 2132   2.395   3.199  13.814 -0.0814  0.3064  0.1647
  140MPD2    C1 2133   2.451   3.290  13.724 -0.0216  0.6486 -0.1712
  140MPD2    C2 2134   2.586   3.276  13.705  0.1591 -0.4655  0.6286
  140MPD2    C3 2135   2.663   3.181  13.755  0.1746 -0.4446 -0.4149
  140MPD2    C4 2136   2.604   3.083  13.822  0.8623  0.2421 -0.2113
  140MPD2    C5 2137   2.472   3.093  13.861  0.3330  0.0526 -0.3875
  140MPD2     H 2138   2.643   3.351  13.651 -2.3641  1.7749  1.0758
  140MPD2    H1 2139   2.647   2.988  13.850 -0.6181  0.4274  2.7243
  140MPD2    H2 2140   2.290   3.198  13.840  0.1188 -3.6100  0.7834
  140MPD2    H3 2141   2.421   3.016  13.918  1.0616  0.2274  0.4908
  140MPD2     N 2142   2.797   3.194  13.726  0.1128  0.3926  0.2722
  140MPD2    H5 2143   2.817   3.292  13.706 -1.1650  0.1868 -2.0039
  140MPD2    N1 2144   2.378   3.406  13.696  0.0057 -0.2968 -0.2121
  140MPD2    H7 2145   2.278   3.393  13.690 -0.0414 -0.3430  0.5960
  141TCq2    C1 2146   3.478   4.238  14.483 -0.0001  0.3883 -0.4082
  141TCq2    O2 2147   3.482   4.358  14.449 -0.2812  0.3193  0.0599
  141TCq2    C2 2148   3.526   4.207  14.621 -0.0058 -0.5518  0.8839
  141TCq2    C3 2149   3.497   4.085  14.684 -0.6359 -0.2716 -0.2551
  141TCq2    C4 2150   3.540   4.071  14.812 -0.5079 -0.0452  0.0855
  141TCq2    C5 2151   3.570   4.180  14.887  0.5623 -0.3499  0.2957
  141TCq2    C6 2152   3.569   4.307  14.830  0.0727 -0.3909 -0.9649
  141TCq2    C7 2153   3.558   4.313  14.691 -1.0711  0.4173 -0.2504
  141TCq2    C8 2154   3.617   4.421  14.906  0.3811 -0.1244 -0.3715
  141TCq2    O4 2155   3.666   4.387  15.009  0.3746 -0.0905 -0.0360
  141TCq2    C9 2156   3.519   3.960  14.891 -0.0318 -0.7860  0.0399
  141TCq2    O5 2157   3.545   3.955  15.016 -0.2272 -0.1795 -0.2386
  141TCq2    O6 2158   3.464   3.864  14.827  0.1769  0.3947 -0.3896
  141TCq2    H2 2159   3.445   3.998  14.645 -0.2762  0.4019 -2.2311
  141TCq2    H3 2160   3.573   4.168  14.995  1.4499 -1.6060  0.1322
  141TCq2    H4 2161   3.578   4.406  14.641 -1.5937  0.4669 -0.3634
  142MPD2     C 2162   1.428   3.488  10.142 -0.5098 -0.6243  0.7577
  142MPD2    C1 2163   1.401   3.354  10.123 -0.3377  0.2642 -0.2888
  142MPD2    C2 2164   1.474   3.279  10.039  0.1772  0.3612 -0.5368
  142MPD2    C3 2165   1.581   3.345   9.972 -0.0984  0.3325  0.4277
  142MPD2    C4 2166   1.621   3.480   9.997  0.8676  0.4404  0.4628
  142MPD2    C5 2167   1.533   3.553  10.082  0.7943 -0.3445 -0.4928
  142MPD2     H 2168   1.462   3.172  10.034  0.6204  0.2949 -0.2082
  142MPD2    H1 2169   1.708   3.525   9.950  0.3943  0.0061 -0.8208
  142MPD2    H2 2170   1.361   3.550  10.202 -0.2151 -0.6221  1.0842
  142MPD2    H3 2171   1.544   3.657  10.110  0.2706 -0.3398 -0.2974
  142MPD2     N 2172   1.661   3.286   9.876  0.5313 -0.2793  0.0077
  142MPD2    H5 2173   1.731   3.334   9.820 -0.2870 -0.1321 -0.8748
  142MPD2    N1 2174   1.308   3.296  10.211  0.2133 -0.8764  0.2277
  142MPD2    H7 2175   1.274   3.356  10.285 -1.2775 -1.5922  0.1353
  143TCq2    C1 2176   1.648   3.156   9.835 -0.1456 -0.5105  0.5650
  143TCq2    O2 2177   1.561   3.074   9.872 -1.0146 -0.1247 -0.5975
  143TCq2    C2 2178   1.754   3.110   9.741 -0.9684 -0.1784  0.2383
  143TCq2    C3 2179   1.721   3.008   9.653  0.8247  0.3739 -0.2644
  143TCq2    C4 2180   1.808   2.966   9.556 -0.5267  0.0310 -0.4270
  143TCq2    C5 2181   1.929   3.032   9.551 -0.2024  0.1883  0.3489
  143TCq2    C6 2182   1.959   3.129   9.644 -0.7736  0.3689 -0.6981
  143TCq2    C7 2183   1.864   3.182   9.738  0.2161  0.0208 -0.1125
  143TCq2    C8 2184   2.092   3.195   9.649  0.0015 -0.1110 -0.0059
  143TCq2    O4 2185   2.115   3.278   9.734  0.0094  0.3091 -0.2549
  143TCq2    C9 2186   1.770   2.863   9.461 -0.1971  0.0106  0.0657
  143TCq2    O5 2187   1.649   2.833   9.456  0.8588  0.5784  0.7356
  143TCq2    O6 2188   1.855   2.841   9.376 -0.3482  0.5679  0.0759
  143TCq2    H2 2189   1.630   2.951   9.669 -0.1978  1.2552 -2.9400
  143TCq2    H3 2190   2.004   2.987   9.488  0.7776  0.1250  1.5737
  143TCq2    H4 2191   1.879   3.268   9.802  0.3174 -0.9604  1.1981
  144MPD2     C 2192   3.838   2.179   0.411 -0.2570 -0.1984 -0.0653
  144MPD2    C1 2193   3.921   2.221   0.311  0.1216  0.6053 -0.2969
  144MPD2    C2 2194   4.049   2.250   0.339 -0.0734 -0.0019 -0.0478
  144MPD2    C3 2195   4.102   2.242   0.469 -0.8183 -0.2950 -0.1263
  144MPD2    C4 2196   4.015   2.223   0.574 -0.2415  0.5694 -0.4213
  144MPD2    C5 2197   3.890   2.178   0.533  0.5577  0.3467 -0.9053
  144MPD2     H 2198   4.117   2.283   0.261  0.2193  0.7349  0.5180
  144MPD2    H1 2199   4.056   2.221   0.674  0.3751  0.8585 -0.6627
  144MPD2    H2 2200   3.736   2.146   0.393 -1.0078  1.4230  1.2451
  144MPD2    H3 2201   3.822   2.157   0.614  0.3429 -0.0619 -1.1940
  144MPD2     N 2202   4.234   2.272   0.500 -0.2182 -0.0563 -0.4998
  144MPD2    H5 2203   4.250   2.304   0.594 -1.2355 -1.8577  0.2858
  144MPD2    N1 2204   3.879   2.233   0.175 -0.4846  0.3679 -0.1436
  144MPD2    H7 2205   3.943   2.282   0.113 -2.0887  0.8296 -1.4197
  145TCq2    C1 2206   4.349   2.247   0.422 -0.1210 -0.1207 -0.2712
  145TCq2    O2 2207   4.344   2.195   0.310  0.1639 -0.3910 -0.3557
  145TCq2    C2 2208   4.478   2.276   0.484  0.5237 -0.5441  0.3775
  145TCq2    C3 2209   4.584   2.242   0.407 -0.9620 -0.1634 -0.5468
  145TCq2    C4 2210   4.710   2.286   0.438  0.3396 -0.1858  0.7902
  145TCq2    C5 2211   4.724   2.369   0.543  0.0351 -0.3764  0.0150
  145TCq2    C6 2212   4.615   2.413   0.614 -0.6583 -0.4188  0.5218
  145TCq2    C7 2213   4.492   2.370   0.586  0.8863 -0.0238 -0.0688
  145TCq2    C8 2214   4.643   2.485   0.735 -0.3232  0.2328 -0.1173
  145TCq2    O4 2215   0.031   2.500   0.773  0.0708 -0.1523  0.1929
  145TCq2    C9 2216   0.082   2.292   0.326  0.6800  0.3958  0.3934
  145TCq2    O5 2217   0.184   2.361   0.362 -0.4046  0.2178 -0.3784
  145TCq2    O6 2218   0.048   2.254   0.213  0.1329 -0.2883 -0.5297
  145TCq2    H2 2219   4.566   2.201   0.308 -3.5626 -0.7889  0.1761
  145TCq2    H3 2220   0.092   2.422   0.559  0.0087  0.2018 -1.7523
  145TCq2    H4 2221   4.404   2.400   0.642 -0.0339  0.1950 -1.6318
  146TMC2    C1 2222   4.720   1.336  12.803 -0.0281  0.7631  0.5484
  146TMC2    C2 2223   4.589   1.364  12.761  0.1950  1.0306  0.7727
  146TMC2    C3 2224   4.557   1.322  12.633  0.6312 -0.1142  0.0649
  146TMC2    C4 2225   0.089   1.268  12.722 -0.5868 -0.6235  1.1010
  146TMC2    C5 2226   0.044   1.226  12.596  0.9937 -0.0857 -0.1103
  146TMC2    C6 2227   4.642   1.254  12.549  0.9171  0.1501 -0.3353
  146TMC2     C 2228   0.039   1.391  12.930 -0.2528 -0.1982  0.1605
  146TMC2     O 2229   4.718   1.496  12.954  0.1883 -0.1886  0.1362
  146TMC2     H 2230   4.527   1.434  12.815 -1.9995 -0.0172 -0.3934
  146TMC2    H1 2231   0.185   1.247  12.767 -0.0601 -0.7043 -0.0778
  146TMC2    H2 2232   4.612   1.224  12.449  1.5187 -0.6594 -0.2715
  146TMC2    C7 2233   0.131   1.144  12.518 -0.9229 -0.5755  0.0758
  146TMC2    C8 2234   4.418   1.357  12.599 -0.3325  0.8198 -0.0122
  146TMC2    O1 2235   0.108   1.138  12.396  0.1588 -0.3479 -0.1255
  146TMC2    O2 2236   4.366   1.462  12.635 -0.3515  0.4657  0.4537
  146TMC2    O5 2237   4.366   1.238  12.634  0.0875 -0.5221 -0.5761
  146TMC2    H5 2238   4.407   1.163  12.584 -0.1156 -0.1211 -1.3503
  147MPD2     C 2239   0.578   0.880  12.496  0.2325 -0.5333 -1.3720
  147MPD2    C1 2240   0.542   0.897  12.632 -0.7695  0.6284  0.4763
  147MPD2    C2 2241   0.421   0.956  12.661 -0.2314 -0.0369  0.2168
  147MPD2    C3 2242   0.337   1.005  12.560 -0.8186 -0.3223 -0.3989
  147MPD2    C4 2243   0.367   0.981  12.427 -0.6288 -0.7243 -0.3534
  147MPD2    C5 2244   0.488   0.929  12.402 -0.3042 -0.1291  0.0275
  147MPD2     H 2245   0.403   0.968  12.768 -2.0765  0.8502 -0.1876
  147MPD2    H1 2246   0.298   0.990  12.344  1.3598  2.0687 -1.7173
  147MPD2    H2 2247   0.662   0.823  12.458 -0.1237  0.0350 -3.0019
  147MPD2    H3 2248   0.522   0.915  12.300  1.6110 -1.8503  0.8978
  147MPD2     N 2249   0.231   1.089  12.596 -0.3521 -0.6343 -0.1118
  147MPD2    H5 2250   0.222   1.094  12.697  0.9800 -1.3200  0.0392
  147MPD2    N1 2251   0.642   0.869  12.730 -0.1861  0.1457 -1.2991
  147MPD2    H7 2252   0.730   0.839  12.690 -0.1059 -0.1604 -0.8895
  148MPD2     C 2253   1.095   0.274  10.583 -0.1273 -0.5688  0.1726
  148MPD2    C1 2254   1.148   0.149  10.561 -0.2757 -0.4474  0.0200
  148MPD2    C2 2255   1.065   0.037  10.583  0.0898 -0.2660 -0.0762
  148MPD2    C3 2256   0.930   0.050  10.611  0.6082 -0.2241 -0.0505
  148MPD2    C4 2257   0.881   0.177  10.643  0.7659 -0.3375  0.3999
  148MPD2    C5 2258   0.969   0.282  10.623  0.3760 -0.5723  1.0354
  148MPD2     H 2259   1.110   4.663  10.577  1.9502  0.3709  3.2447
  148MPD2    H1 2260   0.779   0.204  10.668  0.6493  0.0381 -0.4848
  148MPD2    H2 2261   1.156   0.363  10.586 -0.3334 -0.4288  0.2197
  148MPD2    H3 2262   0.933   0.378  10.658 -2.1941 -1.1544  0.0155
  148MPD2     N 2263   0.833   4.671  10.622 -0.0658  0.1653 -0.0437
  148MPD2    H5 2264   0.736   4.698  10.628  0.6976  2.6469  0.9809
  148MPD2    N1 2265   1.274   0.128  10.513  0.4516 -0.0396  0.2339
  148MPD2    H7 2266   1.294   0.029  10.520  2.4015  0.4148  1.4612
  149TCq2    C1 2267   1.376   0.211  10.474 -0.1709  0.2815  0.2884
  149TCq2    O2 2268   1.377   0.333  10.481  0.0306  0.3136 -0.0229
  149TCq2    C2 2269   1.482   0.133  10.416  0.2495 -0.3866  1.2283
  149TCq2    C3 2270   1.606   0.187  10.404 -0.6579  0.4006  0.7807
  149TCq2    C4 2271   1.697   0.129  10.317  0.2420 -1.1563 -0.7524
  149TCq2    C5 2272   1.680   0.000  10.274  0.6818  0.2506 -0.5689
  149TCq2    C6 2273   1.554   4.672  10.295 -0.0750  0.5305 -0.5370
  149TCq2    C7 2274   1.455   0.016  10.357 -0.0545 -0.3125 -0.1522
  149TCq2    C8 2275   1.519   4.531  10.273  0.0446 -0.2327 -0.2215
  149TCq2    O4 2276   1.402   4.506  10.250  0.4288 -0.2051  0.0280
  149TCq2    C9 2277   1.835   0.176  10.319 -0.1705  0.2221  0.4432
  149TCq2    O5 2278   1.921   0.089  10.280 -0.3651  0.7166 -0.3855
  149TCq2    O6 2279   1.859   0.281  10.381 -0.6927  0.3853 -0.3812
  149TCq2    H2 2280   1.637   0.282  10.447 -0.9181  0.7772  0.1306
  149TCq2    H3 2281   1.757   4.669  10.222  2.5118  0.0960  2.3051
  149TCq2    H4 2282   1.357   4.695  10.366  0.2045 -0.9890 -0.8024
  150MPD2     C 2283   2.681   3.780  12.171  0.3914  0.3269  0.2394
  150MPD2    C1 2284   2.618   3.893  12.131 -0.4953 -0.0866 -0.1049
  150MPD2    C2 2285   2.670   4.014  12.166  0.1207 -0.7219  0.1254
  150MPD2    C3 2286   2.780   4.018  12.245 -0.3146  0.1013 -0.1685
  150MPD2    C4 2287   2.853   3.906  12.273  0.6198  0.0067  0.5114
  150MPD2    C5 2288   2.806   3.786  12.229 -0.0813 -0.1915  1.0380
  150MPD2     H 2289   2.623   4.104  12.128 -0.4140 -1.5872 -1.2763
  150MPD2    H1 2290   2.940   3.906  12.337 -0.9652 -2.2807  2.6975
  150MPD2    H2 2291   2.639   3.683  12.146  1.1538 -0.2774  1.3201
  150MPD2    H3 2292   2.854   3.695  12.265  1.6862  1.2611  2.3309
  150MPD2     N 2293   2.816   4.145  12.303 -0.2048  0.3386 -0.5280
  150MPD2    H5 2294   2.765   4.224  12.265 -1.3998  0.7079  1.8335
  150MPD2    N1 2295   2.486   3.878  12.070  0.1229 -0.1493  0.2753
  150MPD2    H7 2296   2.456   3.781  12.065  3.5729 -1.1251 -1.3875
  151TCq2    C1 2297   2.906   4.167  12.401 -0.1044  0.5369  0.0821
  151TCq2    O2 2298   2.983   4.096  12.464 -0.2095  0.0203 -0.0031
  151TCq2    C2 2299   2.920   4.310  12.433  0.5667  0.4955 -0.7907
  151TCq2    C3 2300   2.830   4.399  12.392  0.1604  0.4928 -0.0596
  151TCq2    C4 2301   2.830   4.525  12.451  0.1212 -0.0824 -0.3824
  151TCq2    C5 2302   2.916   4.556  12.555  0.5871  0.2587  0.0471
  151TCq2    C6 2303   3.016   4.466  12.582 -0.5517  0.3501  0.0098
  151TCq2    C7 2304   3.021   4.335  12.530  0.0733 -0.1590  0.2631
  151TCq2    C8 2305   3.117   4.504  12.674  0.2556  0.6365  0.9046
  151TCq2    O4 2306   3.098   4.598  12.752 -0.2285 -0.1114  0.0863
  151TCq2    C9 2307   2.726   4.610  12.418  0.1819  0.2698 -0.5079
  151TCq2    O5 2308   2.722   4.634  12.292 -0.5403 -0.5632  0.4434
  151TCq2    O6 2309   2.666   4.672  12.501 -0.5768  0.0719 -0.4083
  151TCq2    H2 2310   2.749   4.375  12.324  1.0912 -2.9691  0.0835
  151TCq2    H3 2311   2.905   4.647  12.613  1.3853  0.2476  0.2160
  151TCq2    H4 2312   3.089   4.257  12.563 -1.1947 -1.6403 -0.6364
  152MPD2     C 2313   2.332   3.513  12.757 -0.7780 -0.3988 -0.1640
  152MPD2    C1 2314   2.333   3.649  12.778 -0.4309 -0.0904 -0.2345
  152MPD2    C2 2315   2.220   3.718  12.740  0.0890 -0.6488  0.2142
  152MPD2    C3 2316   2.111   3.647  12.687 -0.1339 -0.5976  0.1203
  152MPD2    C4 2317   2.114   3.513  12.676  0.3571 -0.6017  0.4267
  152MPD2    C5 2318   2.229   3.446  12.714 -0.0241 -0.0308 -0.0800
  152MPD2     H 2319   2.219   3.826  12.739  1.3203 -0.6377  0.3063
  152MPD2    H1 2320   2.028   3.458  12.640 -0.0655 -1.0991  2.2290
  152MPD2    H2 2321   2.423   3.461  12.783  0.8640  1.8920 -1.4333
  152MPD2    H3 2322   2.231   3.337  12.710 -0.8581 -0.1467  2.5715
  152MPD2     N 2323   2.002   3.723  12.650  0.5371  0.0049  0.3373
  152MPD2    H5 2324   2.014   3.823  12.636  1.4670 -0.2416 -0.6439
  152MPD2    N1 2325   2.447   3.711  12.836  0.2510 -0.6789 -0.1659
  152MPD2    H7 2326   2.512   3.647  12.879  1.7244  0.1901 -1.1086
  153TCq2    C1 2327   2.487   3.845  12.825  0.3198 -0.0405 -0.0930
  153TCq2    O2 2328   2.441   3.946  12.773  0.3720 -0.2903 -0.3873
  153TCq2    C2 2329   2.616   3.850  12.883  0.0183  0.4768 -0.0839
  153TCq2    C3 2330   2.703   3.739  12.889 -0.3861 -0.3902 -0.5506
  153TCq2    C4 2331   2.831   3.755  12.945  0.3678 -0.2355 -0.4876
  153TCq2    C5 2332   2.867   3.881  12.990  0.1399 -0.4160 -0.2608
  153TCq2    C6 2333   2.783   3.986  12.974 -0.5655  0.3005 -0.2600
  153TCq2    C7 2334   2.656   3.972  12.925 -1.0101  0.1145  0.5144
  153TCq2    C8 2335   2.830   4.114  13.024  0.3323 -0.3030  0.0014
  153TCq2    O4 2336   2.748   4.207  13.016 -0.4278 -0.6358  0.1977
  153TCq2    C9 2337   2.926   3.648  12.941 -0.1223 -0.0648  0.3366
  153TCq2    O5 2338   3.034   3.676  12.998 -0.1317  0.5709  0.3413
  153TCq2    O6 2339   2.884   3.535  12.891 -0.1650  0.4164  0.0237
  153TCq2    H2 2340   2.667   3.643  12.854  3.5348 -1.8964 -0.4591
  153TCq2    H3 2341   2.972   3.901  13.007  0.3461 -0.1411 -1.8178
  153TCq2    H4 2342   2.595   4.061  12.916  0.9957  1.6227  1.6400
  154MPD2     C 2343   4.092   3.769   0.018 -0.6820 -0.1221  0.5308
  154MPD2    C1 2344   4.080   3.672   0.113 -0.2848 -0.2566 -0.1107
  154MPD2    C2 2345   3.980   3.687   0.209  1.2760  0.1026 -0.2636
  154MPD2    C3 2346   3.900   3.802   0.216  0.3746 -0.6824  0.9708
  154MPD2    C4 2347   3.920   3.898   0.117  0.5533  0.1762  0.1298
  154MPD2    C5 2348   4.009   3.880   0.023 -0.4374 -0.6312 -0.0964
  154MPD2     H 2349   3.982   3.619   0.293  0.1694  1.7203  1.0885
  154MPD2    H1 2350   3.856   3.985   0.106 -0.7279 -0.9970 -1.4700
  154MPD2    H2 2351   4.173   3.762  17.646 -1.1813  0.2980 -0.0668
  154MPD2    H3 2352   4.018   3.961  17.652 -0.9621  0.2208  0.8218
  154MPD2     N 2353   3.805   3.815   0.320 -0.0666  0.0068 -0.0943
  154MPD2    H5 2354   3.774   3.733   0.371  0.2214  0.6426  1.1030
  154MPD2    N1 2355   4.166   3.560   0.107 -0.4447  0.1213 -0.3804
  154MPD2    H7 2356   4.247   3.566   0.046  0.8300 -0.8973  1.2137
  155TCq2    C1 2357   4.145   3.432   0.162 -0.5379 -0.0153  0.2058
  155TCq2    O2 2358   4.069   3.395   0.249  0.1356  0.9001  0.5005
  155TCq2    C2 2359   4.246   3.338   0.106  0.1899 -0.3536 -0.0144
  155TCq2    C3 2360   4.318   3.365  17.690  0.5044  0.3925  0.1965
  155TCq2    C4 2361   4.417   3.284  17.656 -0.5413 -0.5184  0.5242
  155TCq2    C5 2362   4.448   3.175   0.024 -0.1683  0.3280 -0.6403
  155TCq2    C6 2363   4.377   3.143   0.131 -0.0056 -0.0932 -0.9458
  155TCq2    C7 2364   4.277   3.226   0.178 -1.4811 -0.4252  0.3695
  155TCq2    C8 2365   4.383   3.019   0.208 -0.3425 -0.2555 -0.0298
  155TCq2    O4 2366   4.290   2.991   0.282 -0.6052  0.0770 -0.2769
  155TCq2    C9 2367   4.491   3.324  17.534 -0.0223  0.2030  0.4670
  155TCq2    O5 2368   4.463   3.433  17.475  0.4011 -0.3279 -0.0550
  155TCq2    O6 2369   4.587   3.255  17.506 -0.1678 -0.5897 -0.0640
  155TCq2    H2 2370   4.296   3.449  17.625  0.0036 -0.0853 -0.2528
  155TCq2    H3 2371   4.541   3.125   0.001 -0.3823 -0.3506 -0.0159
  155TCq2    H4 2372   4.215   3.206   0.265 -2.5170 -0.4762 -0.3940
  156MPD2     C 2373   3.029   1.916  11.426 -0.0133  0.1552 -0.4015
  156MPD2    C1 2374   2.906   1.850  11.395  0.1426  0.0249  0.7286
  156MPD2    C2 2375   2.818   1.833  11.505  0.6194  0.5103 -0.5165
  156MPD2    C3 2376   2.853   1.885  11.633 -0.0068  0.9682  0.4039
  156MPD2    C4 2377   2.962   1.962  11.650  0.3698  0.0333 -0.8249
  156MPD2    C5 2378   3.055   1.972  11.546 -0.0195 -0.2682  0.0543
  156MPD2     H 2379   2.716   1.796  11.492  1.3522 -1.7030  0.0183
  156MPD2    H1 2380   2.987   2.011  11.743  0.7027  0.1360 -0.9687
  156MPD2    H2 2381   3.106   1.928  11.349  0.6774  1.0843  0.4293
  156MPD2    H3 2382   3.149   2.022  11.566  1.1246 -2.5526  0.4222
  156MPD2     N 2383   2.771   1.847  11.741  0.3005 -0.6348  0.7097
  156MPD2    H5 2384   2.702   1.774  11.726 -0.1788 -0.4201  1.8254
  156MPD2    N1 2385   2.882   1.824  11.260 -0.3689  0.1499 -0.1638
  156MPD2    H7 2386   2.948   1.864  11.194 -1.3322 -2.5305 -2.7180
  157TCq2    C1 2387   2.776   1.750  11.217 -0.7909  0.4987 -1.0349
  157TCq2    O2 2388   2.686   1.698  11.282 -0.9479  0.0841  0.1580
  157TCq2    C2 2389   2.754   1.772  11.074  0.0789 -0.0356 -0.7138
  157TCq2    C3 2390   2.868   1.775  11.002 -0.1868  0.0748  0.2946
  157TCq2    C4 2391   2.875   1.853  10.896  0.2285 -0.2288  0.7246
  157TCq2    C5 2392   2.766   1.937  10.875  0.7257 -0.2502 -0.3404
  157TCq2    C6 2393   2.651   1.928  10.956  0.4554  0.7048 -0.1840
  157TCq2    C7 2394   2.641   1.840  11.056 -0.3663 -0.0130 -0.0857
  157TCq2    C8 2395   2.563   2.045  10.956  0.8233  0.8487 -0.1470
  157TCq2    O4 2396   2.599   2.151  10.914  0.3230  0.8533 -0.0744
  157TCq2    C9 2397   2.979   1.835  10.805 -0.4078  0.1561 -0.7349
  157TCq2    O5 2398   2.977   1.905  10.702  0.3885  0.4874 -0.3760
  157TCq2    O6 2399   3.035   1.721  10.815  0.6453 -0.4326  0.4571
  157TCq2    H2 2400   2.944   1.703  11.029  0.0764  0.4309  0.5111
  157TCq2    H3 2401   2.755   1.996  10.785  0.3177  0.6978  0.3351
  157TCq2    H4 2402   2.573   1.848  11.141 -0.1313 -1.7748  0.2631
  158TMC2    C1 2403   3.299   0.417  13.402  0.1674  0.1540 -0.0425
  158TMC2    C2 2404   3.371   0.419  13.287 -0.3120  0.3302 -0.1776
  158TMC2    C3 2405   3.313   0.463  13.173 -0.2833 -0.5725  0.1255
  158TMC2    C4 2406   3.178   0.470  13.413 -0.0640 -0.2960 -0.5477
  158TMC2    C5 2407   3.120   0.509  13.296 -0.4805  0.1742  0.0531
  158TMC2    C6 2408   3.188   0.519  13.179  0.3498 -0.0419 -0.8077
  158TMC2     C 2409   3.383   0.412  13.522 -0.4646  0.0674  0.3675
  158TMC2     O 2410   3.503   0.424  13.493 -0.0045 -0.2064  0.4005
  158TMC2     H 2411   3.469   0.374  13.284  0.3413  1.6898  1.1671
  158TMC2    H1 2412   3.133   0.492  13.509 -0.0974 -0.3207 -0.5576
  158TMC2    H2 2413   3.152   0.570  13.091 -0.5587  1.8760  0.6919
  158TMC2    C7 2414   2.977   0.532  13.299  0.3653 -0.1504 -0.7775
  158TMC2    C8 2415   3.414   0.530  13.102  0.4338  0.3701  0.6952
  158TMC2    O1 2416   2.927   0.572  13.195  0.1163  0.2208 -0.1867
  158TMC2    O2 2417   3.534   0.525  13.132 -0.4885 -0.0115 -0.0683
  158TMC2    O5 2418   3.367   0.542  12.980  0.0527 -0.5792 -0.0938
  158TMC2    H5 2419   3.275   0.516  12.958  0.6250 -0.9292 -2.0590
  159MPD2     C 2420   3.505   0.345  14.019  0.2006  0.2921  0.4020
  159MPD2    C1 2421   3.372   0.305  14.001 -0.6438 -0.1678  0.0184
  159MPD2    C2 2422   3.313   0.327  13.871  0.0114 -0.1811  0.0440
  159MPD2    C3 2423   3.391   0.375  13.765 -0.7720 -1.1643  1.0109
  159MPD2    C4 2424   3.525   0.402  13.782  0.4968  0.2145  0.0217
  159MPD2    C5 2425   3.580   0.384  13.911 -0.8718  0.5254  0.7699
  159MPD2     H 2426   3.214   0.293  13.843 -0.5443  1.4527  0.0421
  159MPD2    H1 2427   3.596   0.436  13.708  1.0187 -1.1786 -0.1130
  159MPD2    H2 2428   3.554   0.339  14.116 -2.4629  0.4492  1.7471
  159MPD2    H3 2429   3.685   0.407  13.920 -0.4479 -1.6490  1.3889
  159MPD2     N 2430   3.322   0.390  13.645  0.0527 -0.4785 -0.0347
  159MPD2    H5 2431   3.222   0.373  13.650 -0.0646  0.9914  2.4100
  159MPD2    N1 2432   3.295   0.273  14.110  0.1955 -0.0452  0.2788
  159MPD2    H7 2433   3.340   0.284  14.200  1.6199 -1.8840 -0.1925
  160TMC2    C1 2434   3.037   2.445   1.255 -0.0550 -0.5090  0.2661
  160TMC2    C2 2435   2.981   2.321   1.277 -0.0925  0.9696 -0.0540
  160TMC2    C3 2436   2.948   2.242   1.177  0.0969 -1.2750 -0.3010
  160TMC2    C4 2437   3.067   2.499   1.128 -0.1998 -0.1758 -0.6116
  160TMC2    C5 2438   3.030   2.412   1.030 -0.4436 -0.1311 -0.0964
  160TMC2    C6 2439   2.961   2.297   1.051 -0.6308 -0.2458  0.1422
  160TMC2     C 2440   3.038   2.539   1.370  0.3604  0.0896 -0.5304
  160TMC2     O 2441   3.066   2.486   1.475  0.2908  0.4439  0.2220
  160TMC2     H 2442   2.960   2.296   1.381 -0.5681 -0.3346 -0.4643
  160TMC2    H1 2443   3.114   2.595   1.109  1.0590 -1.0340 -1.7601
  160TMC2    H2 2444   2.901   2.253   0.973 -2.2866 -1.2746  1.9958
  160TMC2    C7 2445   3.055   2.438   0.888  0.7044 -0.8450  0.2154
  160TMC2    C8 2446   2.893   2.107   1.195 -0.1150  0.7826  0.7803
  160TMC2    O1 2447   3.028   2.347   0.808 -0.6165 -0.0917 -0.6322
  160TMC2    O2 2448   2.842   2.042   1.108  0.4279 -0.5440  0.3459
  160TMC2    O5 2449   2.931   2.056   1.312  0.4513  0.3386  0.4681
  160TMC2    H5 2450   2.975   2.126   1.365  0.8915  0.0123  0.5223
  161MPD2     C 2451   2.991   2.766   1.558  0.0025  0.8748 -0.2008
  161MPD2    C1 2452   2.962   2.769   1.421  0.1102 -0.0300  0.4115
  161MPD2    C2 2453   2.912   2.889   1.376 -0.3283 -0.5954 -0.2254
  161MPD2    C3 2454   2.870   2.998   1.459  0.5878 -0.3100  0.2848
  161MPD2    C4 2455   2.894   2.985   1.594 -0.0087 -0.7155  0.2403
  161MPD2    C5 2456   2.955   2.872   1.637  1.3273 -0.0972 -0.4769
  161MPD2     H 2457   2.889   2.898   1.270  2.0180 -0.4462 -0.7110
  161MPD2    H1 2458   2.876   3.067   1.662 -1.2962  0.3943 -1.4489
  161MPD2    H2 2459   3.046   2.683   1.602 -0.8686  0.5175  0.2317
  161MPD2    H3 2460   2.979   2.857   1.742 -0.0083 -1.0174 -0.3015
  161MPD2     N 2461   2.800   3.115   1.409 -0.0734  0.4740  0.2571
  161MPD2    H5 2462   2.772   3.178   1.484  0.7524 -0.2908  1.2047
  161MPD2    N1 2463   2.983   2.660   1.336 -0.1724 -0.5722  0.1177
  161MPD2    H7 2464   2.967   2.686   1.239 -0.2610 -0.2498  0.2194
  162TMC2    C1 2465   1.213   0.340   1.593  0.3890  0.3634 -0.5430
  162TMC2    C2 2466   1.191   0.456   1.661  0.0902 -0.1871 -0.1559
  162TMC2    C3 2467   1.074   0.468   1.734  0.7124 -0.0694  0.0688
  162TMC2    C4 2468   1.126   0.235   1.603  0.0230 -0.1260 -0.3119
  162TMC2    C5 2469   1.010   0.251   1.682 -0.1756  0.0892  0.3446
  162TMC2    C6 2470   0.978   0.367   1.744  0.1387 -0.0973 -0.0588
  162TMC2     C 2471   1.316   0.327   1.490  0.2504 -0.0701 -0.3787
  162TMC2     O 2472   1.323   0.220   1.437  0.4743 -0.3636  0.6434
  162TMC2     H 2473   1.253   0.543   1.647  0.6252 -0.1553  2.3545
  162TMC2    H1 2474   1.148   0.139   1.557 -0.2443 -0.1247 -0.4451
  162TMC2    H2 2475   0.909   0.362   1.827 -1.9774 -1.9953 -1.9221
  162TMC2    C7 2476   0.915   0.143   1.705  0.3902 -0.3323 -0.5861
  162TMC2    C8 2477   1.058   0.581   1.815 -0.3698  0.0203 -0.1319
  162TMC2    O1 2478   0.805   0.174   1.745  0.2046  0.1841 -0.3642
  162TMC2    O2 2479   1.150   0.657   1.834  0.3603 -0.3390  0.3613
  162TMC2    O5 2480   0.928   0.619   1.828  0.5662 -0.2801 -0.3207
  162TMC2    H5 2481   0.865   0.553   1.792 -0.3382 -0.1006  0.9497
  163MPD2     C 2482   1.606   0.494   1.109  0.1224 -0.1500 -0.3397
  163MPD2    C1 2483   1.525   0.388   1.113  0.6371 -0.2444  0.0943
  163MPD2    C2 2484   1.449   0.373   1.229 -0.5615 -0.2342 -0.0984
  163MPD2    C3 2485   1.463   0.451   1.339 -0.0363 -0.2614 -0.0559
  163MPD2    C4 2486   1.554   0.551   1.330  0.6615  0.0402  0.7063
  163MPD2    C5 2487   1.629   0.569   1.217 -0.0565 -0.0196 -0.5709
  163MPD2     H 2488   1.371   0.298   1.225 -0.4378 -0.2149 -2.8317
  163MPD2    H1 2489   1.562   0.623   1.411 -2.2676  0.2110  0.8321
  163MPD2    H2 2490   1.663   0.513   1.019  0.0423  1.3079 -0.0812
  163MPD2    H3 2491   1.695   0.652   1.194 -1.4810  0.8650 -1.4679
  163MPD2     N 2492   1.397   0.437   1.464  0.0985 -0.0190 -0.2871
  163MPD2    H5 2493   1.404   0.508   1.536  0.9272 -0.4205  0.0356
  163MPD2    N1 2494   1.507   0.319   0.991 -0.2740 -0.0947  0.2043
  163MPD2    H7 2495   1.542   0.349   0.901 -2.2735  2.4283  0.2412
  164TCq2    C1 2496   1.000   0.093  11.474  0.3835  0.2333 -0.4900
  164TCq2    O2 2497   0.909   0.023  11.501 -0.2575 -0.3520  0.5601
  164TCq2    C2 2498   1.038   0.191  11.577 -0.4286 -0.1192 -0.5178
  164TCq2    C3 2499   1.168   0.245  11.588 -0.4618 -0.5476  0.1137
  164TCq2    C4 2500   1.195   0.328  11.697  0.1829  0.5092  0.2768
  164TCq2    C5 2501   1.092   0.373  11.774  0.3329 -0.3568  0.1896
  164TCq2    C6 2502   0.963   0.336  11.744  0.0709  0.3769  0.0246
  164TCq2    C7 2503   0.934   0.237  11.650 -0.7226 -0.0198 -0.0728
  164TCq2    C8 2504   0.847   0.417  11.791  0.4944 -0.0984 -0.2003
  164TCq2    O4 2505   0.736   0.395  11.744  0.6396  0.2052  0.1919
  164TCq2    C9 2506   1.325   0.390  11.716 -0.0482  0.9501  0.4201
  164TCq2    O5 2507   1.322   0.507  11.767 -0.0514  0.1481  0.7210
  164TCq2    O6 2508   1.423   0.325  11.674 -0.5184  0.3954 -0.0244
  164TCq2    H2 2509   1.251   0.211  11.526  1.4006 -2.6465  3.7537
  164TCq2    H3 2510   1.112   0.452  11.846  0.1825  0.5725 -0.7709
  164TCq2    H4 2511   0.833   0.202  11.629 -2.2154  2.6663  2.7575
  165MPD2     C 2512   3.936   0.693   2.005 -0.2084 -0.2390  0.3440
  165MPD2    C1 2513   3.815   0.750   1.960  0.4035  0.2148 -0.3572
  165MPD2    C2 2514   3.803   0.882   1.905 -0.0359 -1.1370 -0.4819
  165MPD2    C3 2515   3.921   0.957   1.911 -0.2938 -0.3914 -0.2197
  165MPD2    C4 2516   4.036   0.903   1.962 -0.4379 -0.1329 -0.2885
  165MPD2    C5 2517   4.043   0.774   1.999  0.1487 -0.0645  0.5827
  165MPD2     H 2518   3.713   0.911   1.851 -1.0791  1.3413  2.6375
  165MPD2    H1 2519   4.125   0.964   1.974  1.3382 -2.9196  0.5198
  165MPD2    H2 2520   3.945   0.589   2.034 -2.0935 -0.1856  1.1119
  165MPD2    H3 2521   4.145   0.740   2.014  0.8377  2.2775  1.0821
  165MPD2     N 2522   3.931   1.080   1.855 -0.2773  0.0160 -0.0961
  165MPD2    H5 2523   4.025   1.118   1.860  0.2808 -1.4073 -0.0174
  165MPD2    N1 2524   3.705   0.665   1.973 -0.7425 -0.2686 -0.4759
  165MPD2    H7 2525   3.727   0.576   2.017 -0.3888 -0.4561 -1.0251
  166TCq2    C1 2526   3.824   1.147   1.793 -0.1134 -0.3619 -0.2194
  166TCq2    O2 2527   3.711   1.114   1.767  0.2386  0.3082 -0.0412
  166TCq2    C2 2528   3.864   1.289   1.773  0.0048  0.2067 -0.9133
  166TCq2    C3 2529   3.952   1.357   1.856  0.6815  0.5633 -0.0213
  166TCq2    C4 2530   3.953   1.493   1.869 -0.0187  0.0256 -0.0797
  166TCq2    C5 2531   3.876   1.575   1.784  0.1736  0.1205 -0.6215
  166TCq2    C6 2532   3.784   1.506   1.708 -1.6419  0.6294 -0.5372
  166TCq2    C7 2533   3.776   1.365   1.701 -0.2912 -0.4536 -0.3757
  166TCq2    C8 2534   3.688   1.584   1.634 -0.5301 -0.0294  0.3335
  166TCq2    O4 2535   3.708   1.706   1.629  0.3499  0.0898 -0.3014
  166TCq2    C9 2536   4.038   1.553   1.973  0.4487  0.3679 -0.0249
  166TCq2    O5 2537   4.085   1.464   2.052 -0.6118 -0.1610 -0.4958
  166TCq2    O6 2538   4.066   1.674   1.969  0.3725  0.5314  0.0633
  166TCq2    H2 2539   4.007   1.293   1.924  0.1611  0.0319 -0.1034
  166TCq2    H3 2540   3.882   1.683   1.794  1.6078 -0.2798  2.8803
  166TCq2    H4 2541   3.714   1.306   1.635  0.8896 -2.5989  0.4058
  167TMC2    C1 2542   0.342   4.718  13.082 -0.0639 -0.0504  0.3480
  167TMC2    C2 2543   0.251   4.722  13.183  0.4801  0.3377 -0.0315
  167TMC2    C3 2544   0.221   4.602  13.244 -0.4099  0.3322 -0.0829
  167TMC2    C4 2545   0.401   4.605  13.040 -0.3831  0.3662 -0.0055
  167TMC2    C5 2546   0.383   4.491  13.114  0.0040 -0.4164 -0.0900
  167TMC2    C6 2547   0.289   4.488  13.211  0.1362 -0.0876 -0.4507
  167TMC2     C 2548   0.338   0.106  12.989 -0.4218  0.5168 -0.2062
  167TMC2     O 2549   0.238   0.180  13.004 -0.3493  0.1834  0.5457
  167TMC2     H 2550   0.204   0.089  13.219  0.0761  0.0620  0.1383
  167TMC2    H1 2551   0.478   4.607  12.964  0.2734 -1.0670  0.6097
  167TMC2    H2 2552   0.287   4.402  13.276 -1.1792 -1.2572 -2.0323
  167TMC2    C7 2553   0.454   4.368  13.093  0.4761  0.5402 -0.5178
  167TMC2    C8 2554   0.147   4.603  13.364 -0.0846 -0.5918 -0.1018
  167TMC2    O1 2555   0.415   4.280  13.165 -0.6343 -0.2186 -0.5343
  167TMC2    O2 2556   0.148   4.701  13.436 -0.1932 -0.4037  0.7257
  167TMC2    O5 2557   0.091   4.488  13.387  0.3916 -0.3450 -0.0664
  167TMC2    H5 2558   0.075   4.428  13.312  1.2099 -0.6698  0.0186
  168MPD2     C 2559   0.339   0.267  12.742 -0.1597  0.3340 -1.0488
  168MPD2    C1 2560   0.426   0.160  12.764 -1.2429 -0.1397 -0.8305
  168MPD2    C2 2561   0.522   0.134  12.673 -0.0758 -0.0637  0.2937
  168MPD2    C3 2562   0.513   0.195  12.545  0.2148  0.4937  0.3465
  168MPD2    C4 2563   0.412   0.282  12.516  0.1306  1.0383 -0.1451
  168MPD2    C5 2564   0.324   0.312  12.615 -0.1459 -0.1582  0.1554
  168MPD2     H 2565   0.599   0.065  12.703 -0.8660 -0.4899  1.3336
  168MPD2    H1 2566   0.400   0.322  12.416 -2.0320  2.7004  0.7718
  168MPD2    H2 2567   0.271   0.304  12.817 -0.0008  0.7882 -1.1326
  168MPD2    H3 2568   0.257   0.395  12.597 -2.3579 -2.3347 -1.6477
  168MPD2     N 2569   0.594   0.162  12.435 -0.1741  0.6003 -0.2105
  168MPD2    H5 2570   0.554   0.174  12.343 -0.2077  0.0381 -0.2657
  168MPD2    N1 2571   0.429   0.092  12.887  0.5280 -0.3796 -0.4460
  168MPD2    H7 2572   0.503   0.024  12.902 -0.0786 -1.2247 -1.2671
  169MPD1     C 2573   2.152   0.286   9.692  0.0081 -0.3191  0.1405
  169MPD1    C1 2574   2.250   0.272   9.601 -0.5485  0.0406  0.1957
  169MPD1    C2 2575   2.320   0.149   9.599 -0.4686  0.1936  0.4286
  169MPD1    C3 2576   2.312   0.067   9.705 -0.4941  0.1736 -1.1606
  169MPD1    C4 2577   2.218   0.094   9.806  0.2911  0.1193  0.2390
  169MPD1    C5 2578   2.134   0.202   9.794  0.0194  0.2387  0.2331
  169MPD1     H 2579   2.391   0.122   9.521 -1.4981  0.7991 -0.7262
  169MPD1    H1 2580   2.199   0.024   9.886  0.6147 -1.6157 -1.2058
  169MPD1    H2 2581   2.080   0.366   9.679  0.6311  0.2349  0.1004
  169MPD1    H3 2582   2.055   0.213   9.867 -0.8886 -0.2527 -0.6882
  169MPD1     N 2583   2.393   4.676   9.702 -0.4649  0.2720  0.0659
  169MPD1    H5 2584   2.457   4.674   9.623 -1.1942  1.6137 -0.5622
  169MPD1    N1 2585   2.260   0.364   9.485 -0.3264  0.2412 -0.2093
  169MPD1    H6 2586   2.207   0.448   9.506 -1.7201 -0.7147  0.0596
  169MPD1    H7 2587   2.354   0.383   9.449  0.1756 -1.3711  0.2285
  170MPD1     C 2588   0.629   2.184  13.493 -0.0774  0.2965  0.3177
  170MPD1    C1 2589   0.662   2.314  13.510 -0.9248 -0.3974 -0.1105
  170MPD1    C2 2590   0.790   2.347  13.560  0.5047  0.1524  0.2967
  170MPD1    C3 2591   0.884   2.252  13.599 -0.4205 -0.5228 -0.1535
  170MPD1    C4 2592   0.844   2.117  13.591  0.2264  0.0498  0.6785
  170MPD1    C5 2593   0.718   2.091  13.542 -0.4596 -0.9033 -0.6454
  170MPD1     H 2594   0.816   2.452  13.561  0.2437  0.2192 -0.1417
  170MPD1    H1 2595   0.908   2.033  13.610 -0.4901 -0.5243  0.5524
  170MPD1    H2 2596   0.529   2.159  13.459  0.4030 -1.8242  0.4580
  170MPD1    H3 2597   0.683   1.989  13.535  1.6448 -1.6527 -0.3338
  170MPD1     N 2598   1.018   2.281  13.632 -0.0548  0.0019  0.5518
  170MPD1    H5 2599   1.050   2.377  13.629 -3.8573  1.2501 -0.0306
  170MPD1    N1 2600   0.575   2.420  13.488 -0.0481  0.0773  0.3855
  170MPD1    H6 2601   0.626   2.502  13.456  0.4973 -0.4402 -0.0856
  170MPD1    H7 2602   0.498   2.411  13.421  0.5969  3.0200 -0.7429
  171MPD1     C 2603   0.347   3.153  15.325 -0.5046  0.3237 -0.3097
  171MPD1    C1 2604   0.318   3.197  15.455 -0.2753 -0.3217  0.0612
  171MPD1    C2 2605   0.336   3.102  15.556 -0.4000  0.2929 -0.5732
  171MPD1    C3 2606   0.392   2.978  15.533 -0.4541  0.0566  0.1934
  171MPD1    C4 2607   0.421   2.953  15.399 -0.5414  0.3979  0.0613
  171MPD1    C5 2608   0.399   3.037  15.298 -1.1927  0.1201  0.1839
  171MPD1     H 2609   0.293   3.122  15.653  0.4493  0.3000 -0.1931
  171MPD1    H1 2610   0.471   2.859  15.376  0.8895  1.6884 -2.0969
  171MPD1    H2 2611   0.339   3.209  15.232  0.3482 -0.6157 -0.9548
  171MPD1    H3 2612   0.429   3.008  15.198  2.8100  2.8108  0.6303
  171MPD1     N 2613   0.419   2.882  15.634 -0.0579  0.2846  0.0368
  171MPD1    H5 2614   0.435   2.787  15.602  2.1856  1.1967 -1.5362
  171MPD1    N1 2615   0.256   3.325  15.481  0.7328 -0.2289  0.1091
  171MPD1    H6 2616   0.265   3.372  15.571  1.2935 -1.0983  0.5064
  171MPD1    H7 2617   0.281   3.385  15.402 -2.8669  2.0609  0.7027
  172MPD1     C 2618   4.171   1.841  17.639  0.3767  0.4522 -0.4779
  172MPD1    C1 2619   4.115   1.952   0.007 -0.2610 -0.0373 -0.6014
  172MPD1    C2 2620   4.182   2.072   0.003  0.6145 -0.0956  0.2807
  172MPD1    C3 2621   4.309   2.092  17.649  0.0180 -0.0339  0.6789
  172MPD1    C4 2622   4.362   1.979  17.593 -0.6620 -0.6289 -0.5296
  172MPD1    C5 2623   4.294   1.859  17.580 -0.2889  0.1549  0.9013
  172MPD1     H 2624   4.144   2.153   0.065  1.3752  1.2477 -1.0015
  172MPD1    H1 2625   4.468   1.971  17.574 -0.5192  2.4620 -1.0531
  172MPD1    H2 2626   4.113   1.751  17.623  0.4780  0.2758  0.1812
  172MPD1    H3 2627   4.337   1.780  17.520 -0.5295 -0.4090  1.4715
  172MPD1     N 2628   4.389   2.208  17.659  0.0637  0.0170 -0.4420
  172MPD1    H5 2629   4.482   2.203  17.619  0.1577 -0.7386 -0.1184
  172MPD1    N1 2630   3.990   1.942   0.067  0.1829  0.0134  0.1002
  172MPD1    H6 2631   3.952   1.849   0.081  0.5807  0.2885  2.9738
  172MPD1    H7 2632   3.986   1.994   0.154  0.3809  1.0159 -0.4775
  173MPD1     C 2633   0.750   2.503  14.788 -0.4910 -0.2008  0.8346
  173MPD1    C1 2634   0.654   2.453  14.705  0.3774 -0.1462 -0.2317
  173MPD1    C2 2635   0.577   2.346  14.738 -0.2596 -0.5848  0.6548
  173MPD1    C3 2636   0.594   2.286  14.859  0.2342 -0.8645 -0.1889
  173MPD1    C4 2637   0.690   2.338  14.944  0.1900  0.9023  0.4873
  173MPD1    C5 2638   0.772   2.447  14.902 -0.1227 -0.1886 -0.5044
  173MPD1     H 2639   0.515   2.298  14.663 -1.2755 -1.2738  1.9297
  173MPD1    H1 2640   0.724   2.282  15.031 -1.3418  0.2287  0.6402
  173MPD1    H2 2641   0.806   2.593  14.767  3.1871 -2.3048  1.6052
  173MPD1    H3 2642   0.850   2.474  14.972  0.3115 -1.6394 -0.4202
  173MPD1     N 2643   0.517   2.179  14.896 -0.4440 -0.8585 -0.3914
  173MPD1    H5 2644   0.457   2.150  14.819  0.5260  2.4919 -2.4250
  173MPD1    N1 2645   0.623   2.517  14.582 -0.3210  0.7226  0.0741
  173MPD1    H6 2646   0.695   2.576  14.540  1.3137 -0.8235  0.7318
  173MPD1    H7 2647   0.570   2.463  14.514  0.6108 -1.2745  0.9421
  174MPD1     C 2648   4.659   1.845  14.378 -0.1412 -0.1617  0.1961
  174MPD1    C1 2649   4.642   1.766  14.495 -0.1527  0.2391  0.4988
  174MPD1    C2 2650   0.011   1.767  14.597 -0.3991 -0.6587 -0.6011
  174MPD1    C3 2651   0.118   1.849  14.586  0.4158 -0.1609 -0.7150
  174MPD1    C4 2652   0.138   1.929  14.472  0.0961 -0.0675  0.5719
  174MPD1    C5 2653   0.044   1.926  14.369 -0.0337  0.3292 -0.3286
  174MPD1     H 2654   4.708   1.710  14.684  0.5347 -0.8384 -0.4201
  174MPD1    H1 2655   0.217   2.004  14.467  0.0329 -0.1361 -1.5966
  174MPD1    H2 2656   4.596   1.846  14.290 -1.3218 -0.8031  1.0320
  174MPD1    H3 2657   0.058   2.005  14.296  0.7046  1.2261  0.7705
  174MPD1     N 2658   0.209   1.862  14.694 -0.3694  0.7752  0.1778
  174MPD1    H5 2659   0.264   1.945  14.677 -0.0452  0.3022 -1.0331
  174MPD1    N1 2660   4.525   1.693  14.521 -0.4637 -0.2088  0.5732
  174MPD1    H6 2661   4.530   1.635  14.605 -0.1510 -3.2907 -1.6045
  174MPD1    H7 2662   4.498   1.635  14.443 -0.7816 -0.7222  1.0694
  175MPD1     C 2663   3.871   3.383  15.692  0.0013 -0.3865 -0.0010
  175MPD1    C1 2664   3.751   3.446  15.694  0.5778 -0.6092  0.1606
  175MPD1    C2 2665   3.694   3.463  15.823  0.6746 -0.2092  0.1288
  175MPD1    C3 2666   3.762   3.436  15.939  0.0266  0.1406 -0.0666
  175MPD1    C4 2667   3.878   3.365  15.934  0.3673  0.9833  0.0285
  175MPD1    C5 2668   3.926   3.338  15.813 -0.0400  0.1000  0.4038
  175MPD1     H 2669   3.597   3.512  15.821  0.2824 -0.9616  0.8582
  175MPD1    H1 2670   3.950   3.355  16.015  1.4183 -0.2079 -1.0772
  175MPD1    H2 2671   3.925   3.357  15.602 -1.0966 -2.4650 -0.0442
  175MPD1    H3 2672   4.023   3.291  15.804 -0.1246  0.1760 -0.9057
  175MPD1     N 2673   3.719   3.467  16.068  1.2574 -0.0435  0.0899
  175MPD1    H5 2674   3.783   3.453  16.146  1.1403  0.4070  0.2681
  175MPD1    N1 2675   3.685   3.461  15.573 -0.3610  0.1011  0.4510
  175MPD1    H6 2676   3.742   3.501  15.498 -0.7297 -0.1067  0.0567
  175MPD1    H7 2677   3.602   3.519  15.580 -0.8130 -0.1479 -2.6947
  176MPD1     C 2678   1.158   0.393   0.936  0.1679  0.5290 -0.3336
  176MPD1    C1 2679   1.121   0.269   0.887  0.2331 -0.4909 -1.1592
  176MPD1    C2 2680   1.116   0.260   0.745 -0.3389  0.3820  0.5587
  176MPD1    C3 2681   1.161   0.362   0.656 -0.3321  0.5740 -0.1111
  176MPD1    C4 2682   1.219   0.482   0.717  0.2202  0.0117 -0.0877
  176MPD1    C5 2683   1.199   0.497   0.853 -0.8757 -0.5337 -0.3242
  176MPD1     H 2684   1.070   0.176   0.695  0.2558  1.1812 -1.3144
  176MPD1    H1 2685   1.275   0.559   0.666  0.6612 -0.5990 -0.5305
  176MPD1    H2 2686   1.154   0.424   1.039 -1.9448 -0.3744 -0.1546
  176MPD1    H3 2687   1.213   0.597   0.893  0.6422 -0.5334 -0.8578
  176MPD1     N 2688   1.149   0.344   0.518  0.5326 -0.2242  0.4740
  176MPD1    H5 2689   1.099   0.260   0.491 -1.6636  1.8755 -1.8638
  176MPD1    N1 2690   1.054   0.178   0.975  0.2351  0.2862 -0.1797
  176MPD1    H6 2691   1.054   0.080   0.949 -0.9800 -0.1510  1.4689
  176MPD1    H7 2692   1.094   0.175   1.069  1.7113 -2.3045 -0.9041
  177MPD1     C 2693   4.702   0.289   8.762 -0.3170 -0.6625 -0.1878
  177MPD1    C1 2694   4.593   0.208   8.751  0.5755  0.0113  0.1688
  177MPD1    C2 2695   4.488   0.240   8.835 -0.5860 -0.1610 -0.2565
  177MPD1    C3 2696   4.508   0.331   8.942 -0.8567  0.2379 -0.1058
  177MPD1    C4 2697   4.628   0.398   8.952 -0.0969 -0.3278 -0.2488
  177MPD1    C5 2698   4.712   0.389   8.852  0.1315 -0.0856  0.5224
  177MPD1     H 2699   4.393   0.189   8.827  0.0797 -1.5367  0.6323
  177MPD1    H1 2700   4.643   0.480   9.021  2.1257 -0.8338 -0.1310
  177MPD1    H2 2701   0.062   0.285   8.694  0.3873 -3.0277  0.8391
  177MPD1    H3 2702   0.077   0.450   8.863  0.3125  0.2486 -2.7632
  177MPD1     N 2703   4.402   0.343   9.037 -0.2272  0.3382  0.4974
  177MPD1    H5 2704   4.315   0.295   9.014 -1.1090  1.6079  1.1179
  177MPD1    N1 2705   4.575   0.130   8.639  0.1116  0.3297  0.0773
  177MPD1    H6 2706   4.524   0.046   8.665 -0.9206  1.0617  0.4074
  177MPD1    H7 2707   4.659   0.105   8.587 -0.1240 -0.9499  0.3191
  178MPD1     C 2708   2.664   0.683   0.117 -0.1735  0.5331 -0.0136
  178MPD1    C1 2709   2.536   0.696   0.158  0.7611 -0.5280  0.0461
  178MPD1    C2 2710   2.453   0.783   0.091  0.2442  0.6324 -0.5173
  178MPD1    C3 2711   2.500   0.863  17.690 -0.6589 -0.0703  0.1086
  178MPD1    C4 2712   2.629   0.851  17.656 -0.5661 -0.6810  0.2687
  178MPD1    C5 2713   2.715   0.768   0.023  0.4328 -0.4521  0.0371
  178MPD1     H 2714   2.353   0.800   0.127 -0.2166 -0.1623 -1.4327
  178MPD1    H1 2715   2.677   0.912  17.581  2.1974 -2.4845  0.5718
  178MPD1    H2 2716   2.724   0.609   0.170  0.5795 -0.4949 -2.2966
  178MPD1    H3 2717   2.820   0.767  17.698  0.8774  0.5289  1.8540
  178MPD1     N 2718   2.422   0.961  17.624 -0.0908  0.1397  0.4874
  178MPD1    H5 2719   2.470   1.004  17.545 -0.0077  1.6057  1.3502
  178MPD1    N1 2720   2.486   0.605   0.252  0.3930 -0.3303 -0.3475
  178MPD1    H6 2721   2.403   0.636   0.302  0.8170 -0.6381  0.5506
  178MPD1    H7 2722   2.551   0.565   0.320  0.1605 -0.7287 -0.3571
  179MPD1     C 2723   1.996   4.180  16.063 -0.6612 -0.1036  0.5002
  179MPD1    C1 2724   1.923   4.247  15.968  0.5124  0.3141 -0.0790
  179MPD1    C2 2725   1.802   4.194  15.932  0.2811  0.2205 -0.1072
  179MPD1    C3 2726   1.760   4.073  15.985 -0.2265  0.0110 -0.0099
  179MPD1    C4 2727   1.845   4.010  16.074  0.6845 -0.1824  0.3044
  179MPD1    C5 2728   1.967   4.057  16.110 -0.4033  0.8090  0.1932
  179MPD1     H 2729   1.736   4.254  15.869  0.8276  0.3062 -0.6028
  179MPD1    H1 2730   1.814   3.914  16.112  1.3300  0.6283  2.8806
  179MPD1    H2 2731   2.080   4.226  16.114  0.6543  0.0337 -1.8034
  179MPD1    H3 2732   2.033   3.996  16.171  0.2222  1.9806  0.6687
  179MPD1     N 2733   1.646   4.002  15.953 -0.2690  0.5523  0.4397
  179MPD1    H5 2734   1.640   3.913  16.002  2.9109 -0.4636 -1.0288
  179MPD1    N1 2735   1.963   4.378  15.943  0.6785  0.3606 -0.1128
  179MPD1    H6 2736   2.059   4.403  15.963  1.1541 -1.2014 -0.4763
  179MPD1    H7 2737   1.929   4.409  15.852 -1.4593  0.3627  0.6797
  180MPD1     C 2738   1.365   1.741  14.518 -0.1858 -0.3421  0.3782
  180MPD1    C1 2739   1.299   1.747  14.399  0.4014 -0.4819  0.3380
  180MPD1    C2 2740   1.198   1.655  14.381  0.1058  0.6670  0.1093
  180MPD1    C3 2741   1.193   1.537  14.456 -0.0904  0.1098 -0.5057
  180MPD1    C4 2742   1.280   1.531  14.566  0.3611 -0.0269 -0.2440
  180MPD1    C5 2743   1.361   1.629  14.598  0.3157 -0.3825  0.4932
  180MPD1     H 2744   1.129   1.673  14.299 -2.1872 -0.7033  1.7311
  180MPD1    H1 2745   1.265   1.455  14.643 -1.9435 -2.5473 -3.1631
  180MPD1    H2 2746   1.431   1.816  14.559  1.0379 -1.4029  0.3200
  180MPD1    H3 2747   1.411   1.636  14.694 -1.1867  2.5735  1.0503
  180MPD1     N 2748   1.112   1.426  14.416 -0.2744 -0.0664 -0.2509
  180MPD1    H5 2749   1.063   1.431  14.327  0.2377 -0.4961 -0.5611
  180MPD1    N1 2750   1.305   1.856  14.317 -0.7425 -0.5526  0.3713
  180MPD1    H6 2751   1.275   1.843  14.220 -0.4258  2.8978 -0.1819
  180MPD1    H7 2752   1.400   1.891  14.315 -1.3496  0.9899 -1.9858
  181MPD1     C 2753   2.463   2.991  10.337 -1.1387  0.6881 -0.1712
  181MPD1    C1 2754   2.511   2.894  10.252  0.0162  0.9887  0.6161
  181MPD1    C2 2755   2.647   2.884  10.225 -0.2161 -0.6822  0.2928
  181MPD1    C3 2756   2.732   2.976  10.292  0.1629 -0.4338 -0.2494
  181MPD1    C4 2757   2.678   3.074  10.369 -0.2433  0.1336  0.0266
  181MPD1    C5 2758   2.542   3.088  10.395 -0.1660 -0.5961 -0.1384
  181MPD1     H 2759   2.684   2.819  10.146 -0.5488 -1.2667  0.6200
  181MPD1    H1 2760   2.742   3.151  10.411  1.6904 -1.8226  0.6567
  181MPD1    H2 2761   2.356   3.003  10.349 -1.0774  0.6838  0.3405
  181MPD1    H3 2762   2.508   3.150  10.477 -0.9201 -0.9747 -0.1625
  181MPD1     N 2763   2.871   2.983  10.264  0.1332 -0.6540 -0.3581
  181MPD1    H5 2764   2.920   3.070  10.284 -2.1273  0.6110 -0.2942
  181MPD1    N1 2765   2.422   2.821  10.170 -0.6874 -0.4170  0.3344
  181MPD1    H6 2766   2.460   2.732  10.137  3.2529  1.3373  0.0780
  181MPD1    H7 2767   2.326   2.823  10.201 -0.9515  0.6991 -0.5318
  182MPD1     C 2768   4.457   1.771   1.659  0.8050  0.4773  0.3694
  182MPD1    C1 2769   4.332   1.727   1.702 -0.4013  0.3255 -0.3957
  182MPD1    C2 2770   4.228   1.685   1.616  0.0640  0.4679 -0.5343
  182MPD1    C3 2771   4.254   1.678   1.480 -0.1167 -0.2925  0.1012
  182MPD1    C4 2772   4.376   1.726   1.442  0.0182 -0.1787  0.3671
  182MPD1    C5 2773   4.473   1.775   1.528  0.0523  0.0952  0.2895
  182MPD1     H 2774   4.142   1.645   1.668 -0.0436  0.4901 -0.6929
  182MPD1    H1 2775   4.394   1.729   1.335  1.0171  1.0563  0.5701
  182MPD1    H2 2776   4.536   1.795   1.729  1.6128  0.7211 -0.6418
  182MPD1    H3 2777   4.557   1.825   1.481 -0.6332  3.1785  2.3616
  182MPD1     N 2778   4.170   1.622   1.373  1.2144  0.5702  0.7928
  182MPD1    H5 2779   4.199   1.641   1.278  2.6439  0.4051  1.1863
  182MPD1    N1 2780   4.320   1.686   1.832 -0.0905  0.7859  0.9303
  182MPD1    H6 2781   4.224   1.686   1.866 -0.1758 -0.7945  0.7197
  182MPD1    H7 2782   4.366   1.750   1.897 -1.2608  0.7435  1.8085
  183MPD1     C 2783   0.112   2.316   9.743  0.5162  0.8329 -1.5916
  183MPD1    C1 2784   0.018   2.239   9.807 -0.2073  0.1997 -0.7138
  183MPD1    C2 2785   4.627   2.295   9.849 -0.5087 -0.1821  0.9296
  183MPD1    C3 2786   4.615   2.432   9.859  0.3019 -0.1500 -0.2795
  183MPD1    C4 2787   4.712   2.510   9.801  0.0720 -0.1764 -0.2142
  183MPD1    C5 2788   0.083   2.448   9.719  0.2302 -0.2346 -0.4736
  183MPD1     H 2789   4.543   2.231   9.874  0.4705 -0.8902  2.4111
  183MPD1    H1 2790   4.714   2.618   9.802 -0.2766 -0.1391 -2.4147
  183MPD1    H2 2791   0.195   2.267   9.693  1.2496  1.0880 -0.6151
  183MPD1    H3 2792   0.148   2.511   9.660  0.0225  1.1699  0.7970
  183MPD1     N 2793   4.495   2.485   9.924  0.1569 -0.0236 -0.6465
  183MPD1    H5 2794   4.433   2.418   9.970 -1.4710  1.0440 -1.2681
  183MPD1    N1 2795   0.036   2.098   9.811 -0.0356 -0.2506 -0.5317
  183MPD1    H6 2796   4.714   2.052   9.889  0.2337 -0.3784 -0.4493
  183MPD1    H7 2797   0.131   2.066   9.796 -0.9017 -2.3922 -1.4330
  184MPD1     C 2798   2.806   4.546  10.508  0.6300 -0.2885 -0.2573
  184MPD1    C1 2799   2.696   4.604  10.444 -0.5287  0.3702 -0.0755
  184MPD1    C2 2800   2.716   0.002  10.393 -0.0622 -0.6574  0.4106
  184MPD1    C3 2801   2.833   0.062  10.372  0.0139  0.2876 -0.1805
  184MPD1    C4 2802   2.942   4.720  10.419  0.2373 -0.2487  0.7782
  184MPD1    C5 2803   2.929   4.603  10.485  0.4538 -0.1862 -0.1019
  184MPD1     H 2804   2.630   0.050  10.349  0.4247 -0.5154 -0.3877
  184MPD1    H1 2805   3.037   0.041  10.394  0.9640 -2.2818 -0.1074
  184MPD1    H2 2806   2.795   4.456  10.568 -0.1919  0.9771  1.4812
  184MPD1    H3 2807   3.022   4.556  10.515  1.0257  0.1257 -1.3645
  184MPD1     N 2808   2.861   0.188  10.315 -0.1422 -0.3138  0.3276
  184MPD1    H5 2809   2.959   0.209  10.302  0.0407 -1.2066  0.2546
  184MPD1    N1 2810   2.567   4.562  10.469  0.3654 -0.4947 -0.1979
  184MPD1    H6 2811   2.495   4.604  10.411  0.8766 -2.3183 -2.1609
  184MPD1    H7 2812   2.569   4.460  10.476 -1.7813 -0.5575 -0.7878
  185MPD1     C 2813   2.637   0.523   9.364  0.4590 -0.8954 -0.2062
  185MPD1    C1 2814   2.552   0.567   9.456  0.0710  0.0661  0.5756
  185MPD1    C2 2815   2.591   0.571   9.592 -0.3868  1.0978  0.7154
  185MPD1    C3 2816   2.717   0.528   9.630 -0.3152  0.2705  0.3382
  185MPD1    C4 2817   2.798   0.477   9.535 -0.4379  0.1669  0.1812
  185MPD1    C5 2818   2.756   0.469   9.408 -0.1708 -0.0109  0.6369
  185MPD1     H 2819   2.518   0.596   9.668  1.2033 -0.4944  2.7659
  185MPD1    H1 2820   2.897   0.436   9.549 -0.9071 -1.3757 -1.1017
  185MPD1    H2 2821   2.611   0.518   9.259  2.6768 -0.2170 -0.7684
  185MPD1    H3 2822   2.826   0.431   9.335  1.5878  0.6042  1.9891
  185MPD1     N 2823   2.765   0.524   9.761 -0.7817 -0.1924 -0.1952
  185MPD1    H5 2824   2.861   0.496   9.777 -1.1269 -0.4810  1.3392
  185MPD1    N1 2825   2.439   0.633   9.412  1.2047  0.1269 -0.1473
  185MPD1    H6 2826   2.402   0.603   9.322  0.6721 -0.9739  0.4414
  185MPD1    H7 2827   2.364   0.651   9.479  0.0583  3.2915 -2.2667
  186MPD1     C 2828   1.218   4.216  15.984 -0.1430  0.1641 -0.1254
  186MPD1    C1 2829   1.307   4.318  15.959  0.6691 -0.3080 -0.2217
  186MPD1    C2 2830   1.414   4.331  16.048  0.7531 -0.0701 -0.1649
  186MPD1    C3 2831   1.438   4.234  16.143 -0.2437 -0.7061 -0.4285
  186MPD1    C4 2832   1.366   4.121  16.156 -0.4993  0.1130 -0.6225
  186MPD1    C5 2833   1.256   4.119  16.071 -0.4411 -0.4388  0.1830
  186MPD1     H 2834   1.480   4.417  16.041  0.8178 -0.1867 -1.0088
  186MPD1    H1 2835   1.380   4.034  16.219 -1.0422  0.7312  0.3523
  186MPD1    H2 2836   1.124   4.207  15.931  0.5259 -1.2377 -1.0462
  186MPD1    H3 2837   1.198   4.028  16.085  0.5885 -0.9027  1.3740
  186MPD1     N 2838   1.545   4.246  16.236 -0.0432 -0.3937 -0.9725
  186MPD1    H5 2839   1.556   4.161  16.292 -0.3965  0.5557  0.5457
  186MPD1    N1 2840   1.278   4.428  15.871  0.6058  0.3929 -0.1451
  186MPD1    H6 2841   1.365   4.468  15.837  1.0462 -0.1401  0.3662
  186MPD1    H7 2842   1.218   4.400  15.794  0.5353  0.6342 -0.1782
  187MPD1     C 2843   0.731   0.673   0.418  0.6477  0.4098  0.2762
  187MPD1    C1 2844   0.863   0.666   0.396  0.3450  0.3354 -0.2619
  187MPD1    C2 2845   0.917   0.730   0.288 -1.1912 -0.0153 -0.0807
  187MPD1    C3 2846   0.838   0.783   0.183  0.5406 -0.2712 -0.3535
  187MPD1    C4 2847   0.697   0.771   0.207 -0.1960 -0.1304  0.2202
  187MPD1    C5 2848   0.650   0.718   0.322 -0.2663 -0.3839 -0.4257
  187MPD1     H 2849   1.025   0.737   0.288 -1.2004 -0.3826  4.3175
  187MPD1    H1 2850   0.620   0.799   0.136 -1.5943 -1.0184  1.3923
  187MPD1    H2 2851   0.679   0.626   0.502 -0.8397 -1.1149 -1.5042
  187MPD1    H3 2852   0.543   0.709   0.334  0.0301 -3.4671 -0.1657
  187MPD1     N 2853   0.885   0.832   0.059 -0.3591  0.1327  0.2249
  187MPD1    H5 2854   0.821   0.870  17.690  0.8532  2.1388  0.1986
  187MPD1    N1 2855   0.950   0.623   0.498  0.7752  0.1728  0.2321
  187MPD1    H6 2856   0.903   0.548   0.549 -0.7417 -0.2403 -1.7590
  187MPD1    H7 2857   1.042   0.589   0.473  0.2910 -0.3310 -0.8711
  188MPD1     C 2858   0.362   1.723  10.851 -0.1468  0.2395  0.0781
  188MPD1    C1 2859   0.328   1.732  10.717  0.8863 -0.2431  0.2624
  188MPD1    C2 2860   0.340   1.622  10.633 -0.1846  0.1741 -0.1877
  188MPD1    C3 2861   0.393   1.506  10.683 -0.1434 -0.7788  0.2823
  188MPD1    C4 2862   0.411   1.496  10.820  0.0143 -0.0421 -0.9613
  188MPD1    C5 2863   0.404   1.601  10.902  0.2588  0.1906  0.3318
  188MPD1     H 2864   0.297   1.626  10.534 -1.9740  0.0711  0.5925
  188MPD1    H1 2865   0.457   1.406  10.858  0.1332  0.7731  0.8119
  188MPD1    H2 2866   0.346   1.803  10.923 -3.1357 -1.6463  1.4736
  188MPD1    H3 2867   0.404   1.598  11.010  0.1848 -2.2183  0.2506
  188MPD1     N 2868   0.420   1.385  10.615 -0.1746  0.4368 -0.4826
  188MPD1    H5 2869   0.441   1.305  10.675  1.9851  1.8798  0.6856
  188MPD1    N1 2870   0.244   1.842  10.685  0.7458 -0.2111  0.2998
  188MPD1    H6 2871   0.274   1.921  10.742  0.7811  0.4146 -0.5972
  188MPD1    H7 2872   0.259   1.860  10.586 -0.1520 -3.5212 -0.4236
  189MPD1     C 2873   2.552   2.026   0.504 -1.0884 -0.1918 -0.1721
  189MPD1    C1 2874   2.533   2.155   0.547  0.0854  0.3671  0.0397
  189MPD1    C2 2875   2.407   2.207   0.566 -0.5707 -0.4798 -0.3215
  189MPD1    C3 2876   2.300   2.132   0.529  1.2189  0.7429 -0.7165
  189MPD1    C4 2877   2.317   2.012   0.461 -0.4848 -0.3966 -0.8874
  189MPD1    C5 2878   2.444   1.962   0.458  0.7414  0.0708 -0.0370
  189MPD1     H 2879   2.405   2.302   0.619 -2.0912  0.0852 -1.3604
  189MPD1    H1 2880   2.245   1.953   0.406 -2.9495  1.9545 -0.1658
  189MPD1    H2 2881   2.647   1.975   0.510 -0.0691  1.6337 -0.6917
  189MPD1    H3 2882   2.455   1.860   0.422 -2.0497  0.0051 -0.7500
  189MPD1     N 2883   2.171   2.196   0.513 -0.7839 -0.2814 -0.1646
  189MPD1    H5 2884   2.176   2.296   0.529  2.3592 -0.3235 -0.7088
  189MPD1    N1 2885   2.638   2.228   0.588  0.2655  0.3548  0.3311
  189MPD1    H6 2886   2.714   2.224   0.520  0.2336  1.7619  0.2118
  189MPD1    H7 2887   2.615   2.324   0.613 -1.1738  0.1049 -0.0840
  190MPD1     C 2888   0.968   0.921  15.266 -0.1666  0.6806  0.3504
  190MPD1    C1 2889   1.082   0.994  15.303 -0.3344  0.2695 -0.6638
  190MPD1    C2 2890   1.171   0.939  15.389 -0.2092  0.5449 -0.2157
  190MPD1    C3 2891   1.131   0.830  15.469 -0.4691  0.8469 -0.3805
  190MPD1    C4 2892   1.022   0.759  15.427 -0.6529  0.2772 -0.0814
  190MPD1    C5 2893   0.934   0.804  15.327  0.7624  0.3523 -0.9260
  190MPD1     H 2894   1.270   0.981  15.399 -0.1319  0.2940  0.0746
  190MPD1    H1 2895   0.990   0.669  15.478  0.6219 -0.4377 -0.5394
  190MPD1    H2 2896   0.892   0.957  15.198 -1.7780 -2.7509  0.3223
  190MPD1    H3 2897   0.845   0.746  15.307  0.3590  0.1321  1.4358
  190MPD1     N 2898   1.224   0.788  15.570  0.2721  0.6705 -0.1846
  190MPD1    H5 2899   1.306   0.845  15.592 -0.7272  1.6824  0.9100
  190MPD1    N1 2900   1.119   1.109  15.231 -0.0010 -0.1235 -0.1547
  190MPD1    H6 2901   1.178   1.181  15.271 -0.0601  0.9812 -2.0243
  190MPD1    H7 2902   1.027   1.145  15.204 -0.1569  0.5842  1.3097
  191MPD1     C 2903   1.168   3.332  12.417 -0.5801  0.0197 -0.3271
  191MPD1    C1 2904   1.062   3.290  12.496  0.2979 -0.3152 -0.4417
  191MPD1    C2 2905   0.954   3.239  12.432  0.2469  0.5210 -0.2455
  191MPD1    C3 2906   0.940   3.241  12.294  0.0120 -0.2344 -0.4250
  191MPD1    C4 2907   1.046   3.279  12.218 -0.5761 -0.3633  0.4339
  191MPD1    C5 2908   1.155   3.325  12.280  0.7131  0.0548 -0.6347
  191MPD1     H 2909   0.864   3.205  12.483 -0.1461  0.2797 -1.0988
  191MPD1    H1 2910   1.037   3.297  12.112 -1.1868  0.5556  0.6387
  191MPD1    H2 2911   1.253   3.376  12.467 -0.1206  1.1012 -2.0747
  191MPD1    H3 2912   1.232   3.365  12.215 -1.6258  1.6897 -2.4074
  191MPD1     N 2913   0.816   3.199  12.245 -0.0586 -0.0192 -0.4384
  191MPD1    H5 2914   0.750   3.172  12.317 -1.0797 -0.4572 -1.5369
  191MPD1    N1 2915   1.063   3.306  12.638  0.2237  0.5069 -0.1698
  191MPD1    H6 2916   0.973   3.337  12.674 -0.0633  0.6580 -1.0371
  191MPD1    H7 2917   1.141   3.356  12.681  0.1264  1.2330 -0.8495
  192MPD1     C 2918   0.759   3.037  11.271 -0.1332  0.4553  0.1904
  192MPD1    C1 2919   0.663   2.948  11.312  0.7918  0.1929  0.7800
  192MPD1    C2 2920   0.630   2.953  11.451  0.2761 -0.7540  0.0326
  192MPD1    C3 2921   0.711   3.017  11.533  0.4041 -0.1556 -1.0364
  192MPD1    C4 2922   0.811   3.098  11.491 -0.0436 -0.5172  0.4837
  192MPD1    C5 2923   0.831   3.113  11.356  0.5145 -0.1354  0.2025
  192MPD1     H 2924   0.547   2.895  11.489  1.7852 -2.1616  1.1801
  192MPD1    H1 2925   0.872   3.159  11.557  1.5811 -2.4253  0.7680
  192MPD1    H2 2926   0.781   3.056  11.167  0.4386  2.3551  0.6625
  192MPD1    H3 2927   0.902   3.181  11.310  0.9852 -0.6294  0.1941
  192MPD1     N 2928   0.689   3.008  11.672 -0.3005 -0.1119  0.7968
  192MPD1    H5 2929   0.762   3.061  11.719 -0.3311  2.3629 -1.9347
  192MPD1    N1 2930   0.567   2.899  11.217 -0.7343  0.2235  0.1661
  192MPD1    H6 2931   0.606   2.878  11.125  0.5178  0.7943  0.5566
  192MPD1    H7 2932   0.531   2.809  11.245  1.2881 -1.0593 -1.3729
  193MPD1     C 2933   0.292   2.836  17.494 -0.4281  0.3255 -0.6271
  193MPD1    C1 2934   0.383   2.747  17.434  0.2523 -0.2917 -0.5236
  193MPD1    C2 2935   0.495   2.799  17.377  0.4307  0.4840  0.8647
  193MPD1    C3 2936   0.520   2.935  17.380  0.1158 -0.4812 -0.0607
  193MPD1    C4 2937   0.448   3.022  17.462 -0.3636 -0.1440 -0.2322
  193MPD1    C5 2938   0.323   2.967  17.513 -0.1610 -0.1525 -0.1297
  193MPD1     H 2939   0.553   2.728  17.320 -0.3233 -0.4044  1.1948
  193MPD1    H1 2940   0.469   3.128  17.472 -1.9807 -0.0753  2.4001
  193MPD1    H2 2941   0.200   2.792  17.531 -0.5679  1.7271  0.6643
  193MPD1    H3 2942   0.250   3.037  17.551  1.8216  1.4097  0.8045
  193MPD1     N 2943   0.639   2.981  17.321 -0.0559 -0.4848  0.1057
  193MPD1    H5 2944   0.684   3.067  17.354 -2.8512  0.1217  2.3223
  193MPD1    N1 2945   0.342   2.615  17.412 -0.2607 -0.3459 -0.2965
  193MPD1    H6 2946   0.249   2.587  17.444  0.2799 -1.2333  0.4786
  193MPD1    H7 2947   0.417   2.550  17.431 -0.2326 -0.2371 -0.0276
  194MPD1     C 2948   3.546   1.039  17.548  0.2690  0.3257  0.1788
  194MPD1    C1 2949   3.436   0.959  17.566  0.5064 -0.2484 -0.1096
  194MPD1    C2 2950   3.441   0.831  17.507 -0.4235 -0.4669 -0.4963
  194MPD1    C3 2951   3.545   0.785  17.434  0.0710  0.2297  0.6430
  194MPD1    C4 2952   3.638   0.873  17.403  0.2672 -0.0647  0.6452
  194MPD1    C5 2953   3.639   0.996  17.459  1.0785 -0.6383  0.4363
  194MPD1     H 2954   3.351   0.777  17.533 -1.1340  0.7121 -0.5112
  194MPD1    H1 2955   3.714   0.848  17.330 -0.5507  0.0327 -0.2399
  194MPD1    H2 2956   3.561   1.133  17.598  0.7807  0.1657  0.3271
  194MPD1    H3 2957   3.721   1.065  17.443 -0.5547  1.5985  1.6635
  194MPD1     N 2958   3.558   0.657  17.375  0.2690 -0.9030 -0.1687
  194MPD1    H5 2959   3.642   0.638  17.322  0.5997  2.8914 -1.0151
  194MPD1    N1 2960   3.332   0.994  17.661 -0.0232 -0.0190  0.8283
  194MPD1    H6 2961   3.320   1.091  17.688  0.5611  0.0834  0.7276
  194MPD1    H7 2962   3.240   0.956  17.639  0.4437  0.0472 -1.2490
  195MPD1     C 2963   1.018   1.337   0.083 -0.0183  0.2837 -0.0306
  195MPD1    C1 2964   0.948   1.231   0.137  0.6961  0.3485 -0.1422
  195MPD1    C2 2965   0.838   1.192   0.064  0.8127 -0.2222 -0.0229
  195MPD1    C3 2966   0.784   1.263  17.652  0.3439 -0.0917  0.2591
  195MPD1    C4 2967   0.853   1.379  17.621 -0.6799  0.4521  0.5626
  195MPD1    C5 2968   0.969   1.411  17.681  0.4872  1.3067  0.1079
  195MPD1     H 2969   0.784   1.104   0.097  0.7925 -0.4185 -0.5706
  195MPD1    H1 2970   0.824   1.443  17.538  1.2012  1.0713  0.4012
  195MPD1    H2 2971   1.105   1.364   0.141 -1.5220  1.9256  1.4967
  195MPD1    H3 2972   1.023   1.500  17.652 -0.8357  2.0042 -0.1780
  195MPD1     N 2973   0.671   1.221  17.582  0.3358 -0.6143 -0.6474
  195MPD1    H5 2974   0.624   1.283  17.517 -1.1976 -2.7433 -1.5383
  195MPD1    N1 2975   0.998   1.160   0.249 -0.7905  0.8521 -0.2977
  195MPD1    H6 2976   1.065   1.208   0.307 -0.6911  1.5140 -0.9645
  195MPD1    H7 2977   0.922   1.124   0.307  0.1877  0.2406  0.5938
  196MPD1     C 2978   0.571   1.409   0.263  0.1945 -0.1765  0.0521
  196MPD1    C1 2979   0.498   1.303   0.301  0.1339  0.4161  0.1147
  196MPD1    C2 2980   0.421   1.328   0.419  0.5498 -0.4817 -0.1948
  196MPD1    C3 2981   0.414   1.452   0.480  0.0231 -0.3048 -0.0041
  196MPD1    C4 2982   0.476   1.558   0.416 -0.2040 -1.2080  0.2493
  196MPD1    C5 2983   0.561   1.528   0.321 -1.0660  0.2780 -0.6232
  196MPD1     H 2984   0.373   1.239   0.459 -1.9670  0.0431 -1.9927
  196MPD1    H1 2985   0.468   1.661   0.450 -0.8204 -0.9496 -0.6756
  196MPD1    H2 2986   0.647   1.396   0.187  0.6059  2.2683  0.0571
  196MPD1    H3 2987   0.606   1.614   0.271 -0.4576 -0.1939 -0.8776
  196MPD1     N 2988   0.337   1.479   0.594 -0.4934 -0.2048 -0.1277
  196MPD1    H5 2989   0.321   1.574   0.626  2.6315 -0.3247  1.8464
  196MPD1    N1 2990   0.515   1.174   0.252  0.1340 -0.4109 -0.0220
  196MPD1    H6 2991   0.557   1.171   0.159 -0.6070  1.3668 -0.4045
  196MPD1    H7 2992   0.432   1.115   0.253 -0.5877  0.6473  1.4405
  197MPD1     C 2993   3.089   4.008  17.480 -0.3769  0.0428  0.5200
  197MPD1    C1 2994   3.192   3.920  17.506  0.4367 -0.2167  0.6229
  197MPD1    C2 2995   3.324   3.958  17.485 -0.6954  0.3203 -0.5461
  197MPD1    C3 2996   3.348   4.089  17.445  0.0062 -0.1509 -0.2093
  197MPD1    C4 2997   3.245   4.179  17.422  0.5733 -1.4142 -0.3009
  197MPD1    C5 2998   3.119   4.132  17.437  0.5819  0.6467  0.3903
  197MPD1     H 2999   3.403   3.884  17.486 -1.5090 -0.5457  0.0931
  197MPD1    H1 3000   3.264   4.274  17.374 -0.6334 -0.5650  0.9118
  197MPD1    H2 3001   2.987   3.975  17.495 -1.0996  0.7183 -2.8060
  197MPD1    H3 3002   3.037   4.199  17.413 -0.8456 -0.7226  1.4699
  197MPD1     N 3003   3.477   4.136  17.421  0.2664  0.1879 -0.2437
  197MPD1    H5 3004   3.485   4.223  17.369  0.4016  0.8544  0.8996
  197MPD1    N1 3005   3.168   3.785  17.538 -0.4010 -0.1832 -0.3538
  197MPD1    H6 3006   3.257   3.752  17.576 -0.1369  0.2921 -0.5592
  197MPD1    H7 3007   3.093   3.766  17.604 -1.3231 -1.7029 -1.8359
  198MPD1     C 3008   1.376   1.314  14.827 -0.2604  0.2240 -0.0186
  198MPD1    C1 3009   1.276   1.342  14.919 -0.3658  0.1283  0.5941
  198MPD1    C2 3010   1.308   1.422  15.027 -0.3910  0.1711  0.3609
  198MPD1    C3 3011   1.426   1.485  15.036 -0.3649  0.9152 -0.2668
  198MPD1    C4 3012   1.523   1.459  14.944 -0.1690 -0.0427  0.5408
  198MPD1    C5 3013   1.500   1.366  14.845  0.4331 -0.3976  0.0775
  198MPD1     H 3014   1.243   1.413  15.114 -1.3358  1.3758 -0.2287
  198MPD1    H1 3015   1.619   1.510  14.947 -0.3894  0.3820  0.4748
  198MPD1    H2 3016   1.365   1.248  14.741  2.3445  0.0073 -0.1904
  198MPD1    H3 3017   1.570   1.324  14.773 -1.3558 -0.6976 -1.4700
  198MPD1     N 3018   1.446   1.578  15.144 -0.0337  0.5964 -0.4476
  198MPD1    H5 3019   1.363   1.616  15.190 -0.3509  2.3155 -2.4139
  198MPD1    N1 3020   1.161   1.262  14.917 -0.4207 -0.2248 -0.0215
  198MPD1    H6 3021   1.138   1.240  14.820  0.3621  0.0067 -0.2577
  198MPD1    H7 3022   1.090   1.311  14.970 -0.1714  0.6296 -0.4800
  199MPD1     C 3023   3.909   3.354   9.369  0.2932 -0.0390 -0.4251
  199MPD1    C1 3024   3.892   3.481   9.424  0.2607 -0.6163  0.7106
  199MPD1    C2 3025   3.753   3.505   9.454  0.2839 -0.1573  0.4150
  199MPD1    C3 3026   3.649   3.414   9.431  0.2035 -1.0076 -0.0747
  199MPD1    C4 3027   3.680   3.292   9.378  0.0288 -0.5683  1.0022
  199MPD1    C5 3028   3.812   3.268   9.348 -1.0845 -0.0683  0.2975
  199MPD1     H 3029   3.724   3.607   9.476  1.1234  0.4100 -1.0493
  199MPD1    H1 3030   3.601   3.221   9.356 -0.8393  0.1923  1.6584
  199MPD1    H2 3031   4.014   3.332   9.353  0.9843  0.8253  2.8931
  199MPD1    H3 3032   3.825   3.164   9.321 -0.5684  0.2907 -0.8725
  199MPD1     N 3033   3.508   3.453   9.445 -0.3437 -0.1279 -0.4581
  199MPD1    H5 3034   3.447   3.376   9.422  0.0683 -0.7284  0.4467
  199MPD1    N1 3035   3.998   3.579   9.422  0.3548 -0.0169  0.4257
  199MPD1    H6 3036   4.085   3.528   9.438  0.3633 -0.1030  0.1068
  199MPD1    H7 3037   3.990   3.633   9.508  0.0416  0.6461 -0.0202
  200MPD1     C 3038   2.072   3.489  15.474 -0.9890 -0.2586  0.2310
  200MPD1    C1 3039   2.204   3.491  15.470  0.6268  1.1457 -0.0025
  200MPD1    C2 3040   2.268   3.468  15.350  0.1312  0.1010 -0.2221
  200MPD1    C3 3041   2.192   3.429  15.236  0.6817  0.8936  0.1895
  200MPD1    C4 3042   2.050   3.414  15.243 -0.0823  0.5535 -0.3283
  200MPD1    C5 3043   2.000   3.455  15.367  0.4631 -1.3097 -0.0127
  200MPD1     H 3044   2.371   3.500  15.344  1.2834 -3.4437  1.0572
  200MPD1    H1 3045   1.996   3.381  15.155  0.0791  1.7362 -0.8638
  200MPD1    H2 3046   2.018   3.520  15.563 -0.9949  0.0246  0.1290
  200MPD1    H3 3047   1.892   3.457  15.370  0.4495 -2.0023  0.1391
  200MPD1     N 3048   2.246   3.415  15.107 -0.3281 -0.6722  0.1761
  200MPD1    H5 3049   2.189   3.415  15.023  0.3649 -3.3595 -0.2934
  200MPD1    N1 3050   2.286   3.537  15.577  0.3070  0.2104  0.2781
  200MPD1    H6 3051   2.243   3.504  15.663 -1.0912  1.8083  0.1969
  200MPD1    H7 3052   2.376   3.491  15.563  0.4454  0.8114 -0.8158
  201MPD1     C 3053   4.384   2.575  13.261 -0.0981 -0.1550 -0.0535
  201MPD1    C1 3054   4.283   2.511  13.203  0.1296  0.2536  0.7630
  201MPD1    C2 3055   4.223   2.410  13.267  0.5611 -0.0187  0.0863
  201MPD1    C3 3056   4.272   2.350  13.379 -0.0459  0.3186  0.0502
  201MPD1    C4 3057   4.392   2.401  13.429  0.7190  0.2918 -0.4671
  201MPD1    C5 3058   4.434   2.518  13.370 -0.0340  0.4045 -0.1580
  201MPD1     H 3059   4.135   2.368  13.221 -1.9923  0.8087  4.2127
  201MPD1    H1 3060   4.447   2.365  13.515 -1.4715 -3.5120 -0.6299
  201MPD1    H2 3061   4.429   2.669  13.229  0.5163 -1.4465 -3.0288
  201MPD1    H3 3062   4.515   2.574  13.415  1.0397 -2.1890  1.1389
  201MPD1     N 3063   4.225   2.218  13.420  0.3957 -0.7673  0.8459
  201MPD1    H5 3064   4.151   2.182  13.360 -1.2380  1.4173  1.5627
  201MPD1    N1 3065   4.236   2.563  13.081 -0.2595 -0.1910 -0.0797
  201MPD1    H6 3066   4.173   2.508  13.024 -3.0178  1.9519  0.8911
  201MPD1    H7 3067   4.306   2.608  13.023 -0.1443 -1.3683 -0.8615
  202MPD1     C 3068   0.148   1.637   9.538 -0.5026  0.5852 -0.0340
  202MPD1    C1 3069   0.081   1.742   9.595  0.5059  0.3425 -0.4093
  202MPD1    C2 3070   4.714   1.706   9.692  0.2415 -0.6290 -0.0653
  202MPD1    C3 3071   4.722   1.588   9.762  0.0279 -0.1849  0.3184
  202MPD1    C4 3072   0.085   1.494   9.718 -0.5741  0.2479 -0.6231
  202MPD1    C5 3073   0.153   1.519   9.608  0.1888 -0.1839 -0.1439
  202MPD1     H 3074   4.682   1.794   9.746  1.9103  0.0613 -0.2108
  202MPD1    H1 3075   0.085   1.399   9.769  0.7803  0.6644  0.1498
  202MPD1    H2 3076   0.208   1.650   9.449  0.4123  1.5907  0.7206
  202MPD1    H3 3077   0.213   1.437   9.572 -0.3262 -0.2519 -0.8482
  202MPD1     N 3078   4.654   1.552   9.878 -0.3610 -0.3707  0.4665
  202MPD1    H5 3079   4.660   1.457   9.911  4.1962 -0.3946 -0.4689
  202MPD1    N1 3080   0.053   1.847   9.505  0.3880  0.4317  0.0117
  202MPD1    H6 3081   0.001   1.919   9.556 -0.5450 -0.2630  0.0408
  202MPD1    H7 3082   0.139   1.891   9.472 -0.1180  2.8305  1.9487
  203MPD1     C 3083   2.590   2.674  13.201 -0.3466  0.3419 -0.1536
  203MPD1    C1 3084   2.665   2.578  13.269  0.7635  0.2208 -0.2670
  203MPD1    C2 3085   2.665   2.450  13.213 -0.0054  0.6544 -0.3038
  203MPD1    C3 3086   2.580   2.419  13.105 -0.0204 -0.1040 -0.1087
  203MPD1    C4 3087   2.510   2.517  13.049  0.3960  0.4561  0.0438
  203MPD1    C5 3088   2.512   2.642  13.098 -0.2418  0.8520 -0.3296
  203MPD1     H 3089   2.714   2.370  13.269 -0.4425  0.2929 -0.4444
  203MPD1    H1 3090   2.447   2.508  12.962 -0.8995 -1.4397  1.1795
  203MPD1    H2 3091   2.600   2.778  13.229  0.7380  0.3950 -0.7213
  203MPD1    H3 3092   2.460   2.722  13.047 -0.3767  1.6164  0.9945
  203MPD1     N 3093   2.598   2.285  13.060  0.3404 -0.0953  0.1705
  203MPD1    H5 3094   2.648   2.218  13.118  1.7930  0.7106 -0.1723
  203MPD1    N1 3095   2.765   2.617  13.350 -0.2500 -0.3764  0.6512
  203MPD1    H6 3096   2.786   2.547  13.420  2.2373  1.1240  1.3978
  203MPD1    H7 3097   2.747   2.704  13.400  0.5050 -0.4601  1.0703
  204MPD1     C 3098   2.352   2.971   0.126  0.2211 -0.0518 -0.0952
  204MPD1    C1 3099   2.445   3.003   0.031 -0.5697 -0.1592  0.2691
  204MPD1    C2 3100   2.557   2.915   0.009  0.3788  0.9707  0.2659
  204MPD1    C3 3101   2.556   2.790   0.068  0.4527 -0.0046 -0.5751
  204MPD1    C4 3102   2.461   2.757   0.161  0.5557  0.6414  0.9914
  204MPD1    C5 3103   2.363   2.851   0.195 -0.3536 -0.1600 -0.0768
  204MPD1     H 3104   2.641   2.943  17.648  0.2409  0.7055 -0.0444
  204MPD1    H1 3105   2.469   2.666   0.219 -3.5369 -0.2401  0.1929
  204MPD1    H2 3106   2.266   3.034   0.148 -0.8864 -0.7556 -2.4578
  204MPD1    H3 3107   2.293   2.820   0.271 -0.8795 -2.5570 -1.5333
  204MPD1     N 3108   2.659   2.700   0.029  0.1732 -0.8961 -0.0564
  204MPD1    H5 3109   2.732   2.742  17.672  0.1705 -0.1016  0.5085
  204MPD1    N1 3110   2.454   3.134  17.682 -1.1257 -0.8830 -0.4485
  204MPD1    H6 3111   2.366   3.184  17.681 -0.7290 -0.1298  1.2947
  204MPD1    H7 3112   2.487   3.134  17.586  0.0666  0.5964 -0.0579
  205MPD1     C 3113   2.672   0.874  17.306  0.8788  0.6243  0.4137
  205MPD1    C1 3114   2.630   1.004  17.312 -0.6083 -0.2691 -0.2527
  205MPD1    C2 3115   2.733   1.099  17.344  0.0085 -0.5605  0.5506
  205MPD1    C3 3116   2.869   1.060  17.354  0.5323  0.7389  0.0577
  205MPD1    C4 3117   2.905   0.931  17.326  0.1935  0.1069 -0.2898
  205MPD1    C5 3118   2.805   0.837  17.312 -0.6070  0.4690  0.2169
  205MPD1     H 3119   2.710   1.201  17.372  1.6377 -0.2903  0.8978
  205MPD1    H1 3120   3.005   0.888  17.336 -0.4535 -0.9798  1.5134
  205MPD1    H2 3121   2.598   0.796  17.293  1.0922  0.3705  0.7350
  205MPD1    H3 3122   2.828   0.731  17.309  0.2789  0.6526  0.5344
  205MPD1     N 3123   2.968   1.143  17.419  0.0406  0.0445 -0.1031
  205MPD1    H5 3124   3.063   1.107  17.429  0.0946  0.0623 -0.5594
  205MPD1    N1 3125   2.494   1.036  17.339  0.1706  0.2019  0.1161
  205MPD1    H6 3126   2.435   0.971  17.289 -0.4567 -0.8490  2.2270
  205MPD1    H7 3127   2.462   1.131  17.323  1.1677  0.8233  1.8033
  206MPD1     C 3128   3.666   0.769  17.015 -0.1876 -0.9044  0.0876
  206MPD1    C1 3129   3.712   0.670  16.925  0.2675 -0.3328 -0.1031
  206MPD1    C2 3130   3.617   0.588  16.868 -0.2734  1.0514 -0.0539
  206MPD1    C3 3131   3.486   0.596  16.902  0.3644  0.3483  0.2753
  206MPD1    C4 3132   3.448   0.694  16.989 -0.0440  0.8986 -0.2400
  206MPD1    C5 3133   3.537   0.781  17.049  0.2868 -0.0288 -0.1993
  206MPD1     H 3134   3.644   0.522  16.786  0.0771  0.6491  0.3876
  206MPD1    H1 3135   3.347   0.703  17.029  0.2248  1.1896  0.3684
  206MPD1    H2 3136   3.741   0.838  17.052  0.8423 -1.2581 -1.3248
  206MPD1    H3 3137   3.503   0.862  17.113  0.1603 -0.3185  0.1023
  206MPD1     N 3138   3.381   0.527  16.850 -0.3625 -0.1883  0.2340
  206MPD1    H5 3139   3.294   0.537  16.900 -0.0974 -0.6427  0.7753
  206MPD1    N1 3140   3.846   0.675  16.877  0.3204  0.0764  0.0872
  206MPD1    H6 3141   3.912   0.714  16.944  0.5651  1.7343 -1.1246
  206MPD1    H7 3142   3.882   0.584  16.847 -0.5459  0.3340 -1.6966
  207MPD1     C 3143   0.581   2.608  10.081 -0.2128 -0.0998  0.5476
  207MPD1    C1 3144   0.648   2.567  10.191 -0.0517  0.3528 -0.5835
  207MPD1    C2 3145   0.731   2.658  10.259  0.7963 -0.0416 -0.1141
  207MPD1    C3 3146   0.746   2.789  10.216  0.7735 -0.0182  0.3979
  207MPD1    C4 3147   0.671   2.824  10.111  1.0859 -0.3995  0.2363
  207MPD1    C5 3148   0.586   2.740  10.042 -0.2414  0.6236 -0.2482
  207MPD1     H 3149   0.778   2.629  10.352 -0.1110  2.1597  1.0234
  207MPD1    H1 3150   0.676   2.929  10.082  0.5479 -0.8890 -1.6155
  207MPD1    H2 3151   0.508   2.546  10.030 -0.0293  0.5654 -0.5328
  207MPD1    H3 3152   0.529   2.790   9.964 -1.3736 -0.1488  0.0849
  207MPD1     N 3153   0.830   2.891  10.270  0.2928  0.0886  0.6774
  207MPD1    H5 3154   0.806   2.984  10.237  1.3384  0.9316  2.2685
  207MPD1    N1 3155   0.636   2.434  10.226  0.4150  0.2797 -0.2092
  207MPD1    H6 3156   0.539   2.405  10.220  1.3554 -2.7755 -0.8250
  207MPD1    H7 3157   0.677   2.408  10.316  1.9787 -2.2274 -1.6434
  208MPD1     C 3158   0.194   1.867   0.300 -0.0194 -0.9956  0.1739
  208MPD1    C1 3159   0.091   1.910   0.372  0.5254  0.0704 -0.0094
  208MPD1    C2 3160   4.692   1.861   0.342  0.4088  0.1828  1.0790
  208MPD1    C3 3161   4.673   1.779   0.230 -0.4916  0.6154  0.4459
  208MPD1    C4 3162   0.060   1.732   0.162 -0.2905  0.0875  0.8288
  208MPD1    C5 3163   0.177   1.780   0.199  0.2564  0.1717 -0.5761
  208MPD1     H 3164   4.610   1.900   0.401 -0.0847  0.2110  0.3783
  208MPD1    H1 3165   0.060   1.653   0.087 -1.0360  1.0985 -0.2358
  208MPD1    H2 3166   0.289   1.912   0.326 -0.6696  0.5843 -0.2213
  208MPD1    H3 3167   0.269   1.753   0.148 -0.3038  1.0253 -2.0174
  208MPD1     N 3168   4.543   1.742   0.194 -0.2273  0.0782  0.4297
  208MPD1    H5 3169   4.473   1.790   0.250 -1.4568  0.3239 -1.3248
  208MPD1    N1 3170   0.105   1.990   0.488  0.2382 -0.1788 -0.6936
  208MPD1    H6 3171   0.018   2.042   0.494  1.6363  1.9666  0.6973
  208MPD1    H7 3172   0.169   2.068   0.475  1.2410 -0.6930  1.2456
  209MPD1     C 3173   1.696   3.288  11.872  0.2643  0.3228  0.1986
  209MPD1    C1 3174   1.617   3.209  11.797 -0.6367  0.0195 -0.6481
  209MPD1    C2 3175   1.654   3.189  11.662  0.8290  0.7267  0.1574
  209MPD1    C3 3176   1.752   3.271  11.606 -0.0577  1.1683 -0.2832
  209MPD1    C4 3177   1.810   3.373  11.676 -0.0539  0.6640 -0.5215
  209MPD1    C5 3178   1.785   3.377  11.816 -0.4217  0.4544  0.4514
  209MPD1     H 3179   1.595   3.126  11.597  1.1071  0.2913  0.3239
  209MPD1    H1 3180   1.889   3.435  11.635  0.2964  0.7340  0.2517
  209MPD1    H2 3181   1.681   3.290  11.979 -1.1746  1.1237 -0.0120
  209MPD1    H3 3182   1.842   3.425  11.894  0.2889 -0.0739  0.2567
  209MPD1     N 3183   1.786   3.247  11.467 -0.5085  0.1974  0.0060
  209MPD1    H5 3184   1.735   3.172  11.421 -0.1645  0.4981 -0.8613
  209MPD1    N1 3185   1.527   3.130  11.868 -0.5059  0.2701 -0.4909
  209MPD1    H6 3186   1.498   3.190  11.945  3.3966  0.6192  0.6756
  209MPD1    H7 3187   1.447   3.098  11.813 -0.3828 -0.6170 -0.1521
  210MPD1     C 3188   2.273   3.318  10.479 -0.1415 -0.6081 -0.2421
  210MPD1    C1 3189   2.317   3.389  10.591 -0.4515 -0.2245  0.4316
  210MPD1    C2 3190   2.240   3.380  10.708 -0.3511 -0.5474 -0.4530
  210MPD1    C3 3191   2.126   3.295  10.725  0.1418 -0.0210  0.1843
  210MPD1    C4 3192   2.105   3.210  10.616 -0.3289  0.0509  0.4252
  210MPD1    C5 3193   2.179   3.219  10.499  0.3277 -0.4327  0.4262
  210MPD1     H 3194   2.259   3.455  10.783 -0.2822 -1.9891  0.9680
  210MPD1    H1 3195   2.024   3.139  10.630  0.0440 -0.2631  1.0017
  210MPD1    H2 3196   2.337   3.311  10.393  0.4153 -1.0535  0.2133
  210MPD1    H3 3197   2.157   3.141  10.427  1.0616 -0.5955  0.3760
  210MPD1     N 3198   2.043   3.282  10.837  0.3984  0.2454  0.3272
  210MPD1    H5 3199   1.975   3.207  10.833 -0.8184  1.3368  0.6294
  210MPD1    N1 3200   2.426   3.477  10.583 -0.1896 -0.3580  0.4954
  210MPD1    H6 3201   2.467   3.467  10.491  0.0928  2.8534  0.2738
  210MPD1    H7 3202   2.494   3.438  10.649  1.4771  1.0136 -0.4144
  211MPD1     C 3203   3.419   2.406  16.275  0.3395  0.2069  0.6228
  211MPD1    C1 3204   3.313   2.462  16.217  0.1305 -0.2307 -0.0718
  211MPD1    C2 3205   3.191   2.450  16.282 -0.4068 -0.9848  0.3481
  211MPD1    C3 3206   3.172   2.360  16.391 -1.2567 -0.2550 -0.5445
  211MPD1    C4 3207   3.287   2.291  16.437 -0.2428 -0.2722  0.9819
  211MPD1    C5 3208   3.405   2.314  16.380  0.5506  0.4175 -0.1950
  211MPD1     H 3209   3.104   2.503  16.245  0.2058  0.6944  1.3345
  211MPD1    H1 3210   3.304   2.227  16.522  0.2340 -0.0781  1.0303
  211MPD1    H2 3211   3.519   2.417  16.234  0.7497  0.7436  1.7555
  211MPD1    H3 3212   3.495   2.272  16.422  1.3281  2.2388 -0.0363
  211MPD1     N 3213   3.044   2.349  16.443 -0.4824  0.6692 -0.0800
  211MPD1    H5 3214   2.975   2.405  16.395 -0.8293  0.8534  0.6434
  211MPD1    N1 3215   3.332   2.542  16.109  0.1746  0.0365  0.2653
  211MPD1    H6 3216   3.409   2.520  16.045 -0.0526  2.2372 -0.7768
  211MPD1    H7 3217   3.256   2.561  16.044  0.4283 -0.1412 -0.0902
  212MPD1     C 3218   2.595   0.279  16.612 -0.2964 -0.3223 -0.1062
  212MPD1    C1 3219   2.554   0.371  16.708 -0.0726 -0.1910 -0.6054
  212MPD1    C2 3220   2.481   0.327  16.814 -0.1566  0.1680  0.5974
  212MPD1    C3 3221   2.458   0.192  16.839  0.0148  0.3360  0.4369
  212MPD1    C4 3222   2.512   0.099  16.743 -0.7537  0.1917 -1.1498
  212MPD1    C5 3223   2.583   0.141  16.633  0.0586 -0.3285  0.0270
  212MPD1     H 3224   2.437   0.396  16.885  0.3081 -1.1574  2.1525
  212MPD1    H1 3225   2.490   4.719  16.760 -0.9434  0.0067 -2.5428
  212MPD1    H2 3226   2.625   0.312  16.513 -0.4157 -1.8733 -0.6578
  212MPD1    H3 3227   2.599   0.064  16.558  1.0564  0.1707 -0.2676
  212MPD1     N 3228   2.383   0.133  16.947  0.2114 -0.3830 -0.0623
  212MPD1    H5 3229   2.394   0.032  16.945  2.2675 -0.1777  0.6611
  212MPD1    N1 3230   2.562   0.509  16.695  0.7020  0.2061 -0.1888
  212MPD1    H6 3231   2.576   0.552  16.786 -0.4365  0.1357  0.0249
  212MPD1    H7 3232   2.641   0.532  16.636 -0.0392 -1.2261 -1.7257
  213MPD1     C 3233   0.687   1.128  16.084 -0.6233 -0.3945  0.0219
  213MPD1    C1 3234   0.645   1.018  16.018  1.0696 -0.5746 -0.4910
  213MPD1    C2 3235   0.592   1.051  15.889 -0.5838 -0.0312  0.1217
  213MPD1    C3 3236   0.579   1.178  15.843  0.3260 -0.7728 -0.6244
  213MPD1    C4 3237   0.605   1.283  15.931 -0.0126  0.3434  0.1509
  213MPD1    C5 3238   0.668   1.260  16.049 -0.1529 -0.0142  1.2722
  213MPD1     H 3239   0.575   0.962  15.829 -0.6197 -0.4955  0.8181
  213MPD1    H1 3240   0.573   1.381  15.898  0.2444  0.0807 -0.8875
  213MPD1    H2 3241   0.736   1.120  16.180  1.9547  3.6349 -0.9182
  213MPD1    H3 3242   0.694   1.332  16.125 -0.5585  0.7965  0.6365
  213MPD1     N 3243   0.518   1.198  15.716  0.4436 -0.6018 -0.5692
  213MPD1    H5 3244   0.496   1.114  15.663  0.4835 -1.7153  1.1995
  213MPD1    N1 3245   0.700   0.893  16.047 -0.4735 -0.2058 -0.1736
  213MPD1    H6 3246   0.638   0.816  16.023  0.3644 -1.3360  1.2964
  213MPD1    H7 3247   0.723   0.878  16.145 -1.3065  1.4023  0.2574
  214MPD1     C 3248   4.450   0.860  15.670  0.2891 -0.9593 -0.0875
  214MPD1    C1 3249   4.490   0.871  15.536  0.0140 -0.1110  0.3979
  214MPD1    C2 3250   4.600   0.946  15.507 -0.3965  0.5962  0.1888
  214MPD1    C3 3251   4.672   1.012  15.598  0.2644 -0.5285 -0.6418
  214MPD1    C4 3252   4.644   0.986  15.735  0.3115 -0.3708  0.2824
  214MPD1    C5 3253   4.533   0.912  15.768  0.0264 -0.4139  0.5198
  214MPD1     H 3254   4.636   0.945  15.405 -0.3045 -0.5256  0.2292
  214MPD1    H1 3255   4.709   1.033  15.808  0.7136 -0.7501  0.1668
  214MPD1    H2 3256   4.358   0.811  15.701 -0.2759 -0.2676 -0.6541
  214MPD1    H3 3257   4.510   0.890  15.872  0.2487 -1.0394  0.4406
  214MPD1     N 3258   0.055   1.099  15.561  0.1325  0.0392  0.5699
  214MPD1    H5 3259   0.105   1.134  15.642  0.3894  1.7843 -0.3595
  214MPD1    N1 3260   4.432   0.783  15.448  0.3654  0.5113 -0.0581
  214MPD1    H6 3261   4.345   0.743  15.484  1.7546  0.3240  3.0937
  214MPD1    H7 3262   4.418   0.823  15.356 -0.1516  0.4252 -0.0209
  215MPD1     C 3263   1.453   2.241  10.410  0.1682 -0.0690  0.1407
  215MPD1    C1 3264   1.340   2.322  10.420  0.6528 -0.9630  0.7493
  215MPD1    C2 3265   1.300   2.359  10.543  0.4533 -0.2773  0.0504
  215MPD1    C3 3266   1.382   2.337  10.654 -0.2385  1.0339 -0.7237
  215MPD1    C4 3267   1.505   2.275  10.637  0.1137 -0.5874  0.7229
  215MPD1    C5 3268   1.530   2.223  10.512  0.0453  0.5093  0.1288
  215MPD1     H 3269   1.204   2.410  10.553 -0.2300 -1.6364  0.4740
  215MPD1    H1 3270   1.574   2.258  10.719  0.5039 -0.8321  0.3459
  215MPD1    H2 3271   1.486   2.196  10.317 -0.4215  0.8132 -0.4975
  215MPD1    H3 3272   1.615   2.158  10.495  1.1040  2.4904 -1.9649
  215MPD1     N 3273   1.342   2.379  10.785 -0.0616 -0.3794 -0.1099
  215MPD1    H5 3274   1.244   2.406  10.793  0.1177  0.2795 -0.1440
  215MPD1    N1 3275   1.268   2.341  10.300  0.2490 -0.3336  0.4747
  215MPD1    H6 3276   1.224   2.433  10.296 -1.5621 -1.1303  1.7113
  215MPD1    H7 3277   1.336   2.332  10.225  0.0114 -1.2714  0.3699
  216MPD1     C 3278   2.689   4.452  16.379 -0.0458  0.4964 -0.1003
  216MPD1    C1 3279   2.712   4.314  16.392  0.0930  0.1094  0.1329
  216MPD1    C2 3280   2.719   4.265  16.519  0.5583 -0.5715 -0.1917
  216MPD1    C3 3281   2.700   4.338  16.633  0.4808 -0.2521 -0.2056
  216MPD1    C4 3282   2.676   4.476  16.614  0.5446 -0.5562  0.0328
  216MPD1    C5 3283   2.679   4.530  16.486  0.2050  0.3856 -0.3961
  216MPD1     H 3284   2.747   4.161  16.535 -2.3173 -1.0389  1.8026
  216MPD1    H1 3285   2.656   4.534  16.703 -1.2297 -0.9623 -0.1026
  216MPD1    H2 3286   2.698   4.497  16.281 -0.2285 -1.7208 -1.1547
  216MPD1    H3 3287   2.673   4.637  16.469 -4.8242  0.4510  1.8620
  216MPD1     N 3288   2.698   4.271  16.759 -0.3555 -0.3992 -0.6347
  216MPD1    H5 3289   2.686   4.170  16.756 -2.3321 -0.1196 -2.6281
  216MPD1    N1 3290   2.757   4.235  16.281 -0.7044 -0.2260 -0.6429
  216MPD1    H6 3291   2.711   4.272  16.198 -1.3976 -0.2007 -0.2513
  216MPD1    H7 3292   2.734   4.138  16.298 -2.8306  0.4602  0.4931
  217MPD1     C 3293   3.121   0.446   8.866 -0.2965 -0.6503  0.1926
  217MPD1    C1 3294   3.045   0.529   8.948  0.3467 -0.5619 -0.8587
  217MPD1    C2 3295   3.107   0.646   8.984 -0.3419 -0.2412  0.0375
  217MPD1    C3 3296   3.233   0.692   8.947 -0.6087 -0.4895 -0.0694
  217MPD1    C4 3297   3.295   0.610   8.858 -0.1395  0.4841  1.3875
  217MPD1    C5 3298   3.236   0.497   8.811 -0.3395  0.1113  0.9097
  217MPD1     H 3299   3.055   0.707   9.057  0.4373  0.6055 -0.1129
  217MPD1    H1 3300   3.393   0.628   8.816 -1.6100  2.0988 -1.2956
  217MPD1    H2 3301   3.081   0.351   8.832  1.7163 -1.4265  0.0093
  217MPD1    H3 3302   3.297   0.433   8.749  1.0008  0.6970  1.6190
  217MPD1     N 3303   3.292   0.820   8.984 -0.1696 -0.5008 -0.7762
  217MPD1    H5 3304   3.388   0.833   8.953  0.0292 -0.7683 -0.2839
  217MPD1    N1 3305   2.919   0.490   9.003  0.1330 -0.1253  0.5184
  217MPD1    H6 3306   2.864   0.569   9.037 -0.1068 -0.1681  0.2315
  217MPD1    H7 3307   2.858   0.432   8.946 -0.5312  0.2310  0.8678
  218MPD1     C 3308   4.073   3.147  13.072  0.5831  0.4316  0.2741
  218MPD1    C1 3309   4.186   3.220  13.101 -0.3225 -0.1430 -0.7752
  218MPD1    C2 3310   4.306   3.148  13.087 -0.4193 -0.3282  0.0121
  218MPD1    C3 3311   4.319   3.016  13.040 -0.1248  0.3125 -0.2684
  218MPD1    C4 3312   4.197   2.944  13.011  0.6134 -0.2749  0.1204
  218MPD1    C5 3313   4.076   3.012  13.030 -0.2543 -0.1256 -0.0243
  218MPD1     H 3314   4.400   3.196  13.114  0.5451 -2.6310  0.7363
  218MPD1    H1 3315   4.201   2.836  13.001 -1.7375 -0.4294  0.7613
  218MPD1    H2 3316   3.974   3.187  13.091  1.0233 -0.2768  4.0007
  218MPD1    H3 3317   3.986   2.951  13.036  0.0250 -0.5173  0.2039
  218MPD1     N 3318   4.453   2.971  13.025 -1.0597  0.1676 -0.8768
  218MPD1    H5 3319   4.530   3.033  13.049 -0.9641 -0.1446 -0.3809
  218MPD1    N1 3320   4.190   3.351  13.154  0.2065  0.5594  0.3828
  218MPD1    H6 3321   4.273   3.404  13.126  0.3569 -1.4491 -2.9989
  218MPD1    H7 3322   4.112   3.409  13.124  2.4987  1.6605 -3.5075
  219MPD1     C 3323   0.721   3.122  12.841 -0.0097 -0.0132  0.0299
  219MPD1    C1 3324   0.607   3.195  12.811 -0.0487 -0.1580  0.4632
  219MPD1    C2 3325   0.487   3.142  12.844  0.4704  0.1096  0.3350
  219MPD1    C3 3326   0.470   3.024  12.911  0.0753 -0.0747  0.8796
  219MPD1    C4 3327   0.586   2.959  12.946  0.8905 -0.2335 -0.0176
  219MPD1    C5 3328   0.708   3.002  12.910 -0.0279  0.2565 -0.2650
  219MPD1     H 3329   0.397   3.178  12.797  0.2785 -0.9264 -0.1047
  219MPD1    H1 3330   0.594   2.871  13.008 -2.0659 -0.7258 -0.3650
  219MPD1    H2 3331   0.820   3.160  12.819  0.2432 -0.1215  0.9686
  219MPD1    H3 3332   0.794   2.941  12.933 -0.5906 -0.7440 -0.7924
  219MPD1     N 3333   0.348   2.954  12.948 -0.2131  0.2780 -0.3465
  219MPD1    H5 3334   0.356   2.863  12.993  0.6875  0.7296  0.4002
  219MPD1    N1 3335   0.606   3.308  12.726  0.2707 -0.5412 -0.4210
  219MPD1    H6 3336   0.531   3.372  12.749  1.6850  0.7350  0.6858
  219MPD1    H7 3337   0.693   3.361  12.734 -0.3366  0.6350 -1.6053
  220MPD1     C 3338   0.306   3.426   9.987 -0.3157 -0.7028 -0.7844
  220MPD1    C1 3339   0.424   3.413  10.048  0.3946  0.0604 -0.2384
  220MPD1    C2 3340   0.456   3.285  10.090  0.2061 -0.0141  0.7476
  220MPD1    C3 3341   0.364   3.180  10.096 -0.2947 -0.4965 -0.1797
  220MPD1    C4 3342   0.241   3.208  10.045 -0.5639 -0.2782 -0.2034
  220MPD1    C5 3343   0.217   3.327   9.984  0.2618 -0.3161 -0.0894
  220MPD1     H 3344   0.555   3.262  10.127 -0.2236 -0.4914  1.6170
  220MPD1    H1 3345   0.163   3.133  10.039 -0.8930  0.1362 -1.0601
  220MPD1    H2 3346   0.288   3.519   9.934 -1.5269 -1.8555 -2.4247
  220MPD1    H3 3347   0.126   3.335   9.926  1.0728 -1.3083 -1.5019
  220MPD1     N 3348   0.402   3.062  10.172  0.4538  0.0153  0.4406
  220MPD1    H5 3349   0.496   3.064  10.211 -0.4891  0.4958  2.6887
  220MPD1    N1 3350   0.524   3.507  10.030  0.0753  0.1303 -0.4151
  220MPD1    H6 3351   0.598   3.504  10.100 -0.0730  3.1396 -0.1287
  220MPD1    H7 3352   0.484   3.599  10.014  0.1380  0.2944  0.4016
  221MPD1     C 3353   3.033   1.591  16.655  0.0796  0.3885 -0.9357
  221MPD1    C1 3354   3.137   1.514  16.714  0.4724  0.0939  0.1523
  221MPD1    C2 3355   3.193   1.417  16.637  0.6717 -0.4108  0.4306
  221MPD1    C3 3356   3.134   1.385  16.513  0.1660  0.2288 -0.2124
  221MPD1    C4 3357   3.025   1.457  16.468 -0.3052 -0.1344 -0.6860
  221MPD1    C5 3358   2.978   1.564  16.539 -0.0918  0.2833  0.1580
  221MPD1     H 3359   3.274   1.355  16.673  0.6774  1.2552  3.3575
  221MPD1    H1 3360   2.982   1.444  16.370  1.1355 -2.6174 -0.9834
  221MPD1    H2 3361   2.994   1.673  16.714 -2.7865 -0.3729 -1.7540
  221MPD1    H3 3362   2.905   1.626  16.490  0.2545  1.0974  0.6780
  221MPD1     N 3363   3.173   1.277  16.430  0.3061 -0.0110  0.0075
  221MPD1    H5 3364   3.123   1.242  16.349  0.7162  1.2912 -0.8152
  221MPD1    N1 3365   3.205   1.565  16.822  0.3074 -0.0490  0.0648
  221MPD1    H6 3366   3.146   1.611  16.891  0.6439  0.5755 -0.0666
  221MPD1    H7 3367   3.263   1.492  16.862  0.6878  1.0652  1.5364
  222MPD1     C 3368   3.944   0.582  17.553 -0.0456 -0.0019 -0.4475
  222MPD1    C1 3369   3.897   0.458  17.521 -0.4601  0.8080  0.3352
  222MPD1    C2 3370   3.767   0.427  17.563 -0.3089 -0.0299  0.3474
  222MPD1    C3 3371   3.695   0.517  17.641 -0.1683  0.1836 -0.4957
  222MPD1    C4 3372   3.752   0.639  17.677 -0.2369  0.1335 -0.3493
  222MPD1    C5 3373   3.876   0.662  17.637  0.1934  0.7445 -0.9419
  222MPD1     H 3374   3.725   0.332  17.534 -0.4057 -0.5240  2.0961
  222MPD1    H1 3375   3.698   0.703   0.046 -0.0992  0.4618 -0.5488
  222MPD1    H2 3376   4.047   0.607  17.532  0.1343 -0.0583  0.3690
  222MPD1    H3 3377   3.908   0.764  17.655 -1.3883  1.1482 -0.3835
  222MPD1     N 3378   3.566   0.492  17.683 -0.1965 -0.1375  0.4408
  222MPD1    H5 3379   3.519   0.573   0.021 -0.6936 -1.2115  2.0888
  222MPD1    N1 3380   3.969   0.377  17.434 -0.5274  0.0145  0.3249
  222MPD1    H6 3381   4.066   0.365  17.462 -0.7810  0.5620  1.4118
  222MPD1    H7 3382   3.939   0.281  17.415 -2.8330  0.6624  0.7062
  223MPD1     C 3383   2.675   0.293  17.141 -0.1374 -0.1731 -0.9383
  223MPD1    C1 3384   2.663   0.410  17.215 -0.9070 -0.6473 -0.5103
  223MPD1    C2 3385   2.753   0.442  17.313  0.5088 -0.1830  0.5604
  223MPD1    C3 3386   2.861   0.360  17.342 -0.4630 -0.1138 -0.3767
  223MPD1    C4 3387   2.878   0.250  17.259 -0.2393  0.8422  0.2854
  223MPD1    C5 3388   2.786   0.214  17.170 -0.4776  0.4031 -0.1636
  223MPD1     H 3389   2.736   0.535  17.367 -0.7851 -0.0541 -0.0713
  223MPD1    H1 3390   2.951   0.175  17.286  0.6006  2.3243  2.1975
  223MPD1    H2 3391   2.597   0.254  17.076 -0.0661  0.2204 -1.2543
  223MPD1    H3 3392   2.789   0.120  17.116  1.1993  0.7786 -0.7265
  223MPD1     N 3393   2.953   0.394  17.443  0.4189 -0.1808 -0.2213
  223MPD1    H5 3394   2.942   0.482  17.491  0.8450 -0.4788  0.4192
  223MPD1    N1 3395   2.539   0.476  17.208  0.3993 -0.6275  0.3573
  223MPD1    H6 3396   2.489   0.463  17.120 -0.0502 -0.2566  0.5592
  223MPD1    H7 3397   2.530   0.572  17.242  3.4457  0.2020 -1.1981
  224MPD1     C 3398   4.210   2.870   9.529  0.1278 -0.3117 -0.5893
  224MPD1    C1 3399   4.285   2.769   9.591  0.2804 -0.2062  0.9531
  224MPD1    C2 3400   4.222   2.662   9.643 -0.5196  0.3128  0.0634
  224MPD1    C3 3401   4.085   2.653   9.655 -0.4222  0.4115 -0.5407
  224MPD1    C4 3402   4.011   2.761   9.605  1.0144  0.5720  0.2993
  224MPD1    C5 3403   4.074   2.870   9.542  0.6000  0.6807  0.3756
  224MPD1     H 3404   4.284   2.582   9.680 -0.5245  0.6737  0.8568
  224MPD1    H1 3405   3.904   2.775   9.617  0.8332 -1.5971  1.1868
  224MPD1    H2 3406   4.256   2.949   9.470  0.3641  1.7420  2.3259
  224MPD1    H3 3407   4.010   2.948   9.502  0.9228  1.8170  2.0852
  224MPD1     N 3408   4.013   2.549   9.721 -0.0544  0.0434  0.0589
  224MPD1    H5 3409   3.912   2.559   9.721  0.0722  1.2454  0.1606
  224MPD1    N1 3410   4.427   2.760   9.557 -0.1086  0.4114  0.3758
  224MPD1    H6 3411   4.482   2.728   9.637 -1.2621  1.5877  1.6443
  224MPD1    H7 3412   4.460   2.851   9.525 -0.1652  0.3028  0.0145
  225MPD1     C 3413   0.479   3.709  12.876  0.2783  0.0323  0.4400
  225MPD1    C1 3414   0.435   3.580  12.841 -0.3486  0.7486  0.4030
  225MPD1    C2 3415   0.371   3.564  12.723  0.2771 -0.1852  0.9932
  225MPD1    C3 3416   0.330   3.667  12.642  0.5438 -0.5217 -0.4600
  225MPD1    C4 3417   0.359   3.797  12.683 -0.4063 -0.0491 -0.3685
  225MPD1    C5 3418   0.438   3.814  12.795  0.0627  0.4848  0.7523
  225MPD1     H 3419   0.334   3.467  12.694 -2.2453  1.3699 -0.9378
  225MPD1    H1 3420   0.328   3.884  12.626 -1.4220  0.6212  1.1901
  225MPD1    H2 3421   0.520   3.732  12.973 -0.1480 -1.0553  0.8777
  225MPD1    H3 3422   0.464   3.917  12.817 -3.5525  1.7716 -0.9489
  225MPD1     N 3423   0.250   3.658  12.526 -0.2718  0.3119  0.0058
  225MPD1    H5 3424   0.209   3.747  12.497 -0.6975  0.6865  1.7228
  225MPD1    N1 3425   0.461   3.480  12.935 -0.0293 -0.5226 -0.2020
  225MPD1    H6 3426   0.382   3.423  12.965 -1.5438  0.4202 -2.3838
  225MPD1    H7 3427   0.496   3.505  13.027  0.5471 -1.6011 -0.1245
  226MPD1     C 3428   3.140   2.573   9.799  0.1583  0.1553  0.2105
  226MPD1    C1 3429   3.271   2.607   9.835 -0.5529  0.1205 -0.1703
  226MPD1    C2 3430   3.314   2.734   9.823 -1.0286  0.1324 -0.5067
  226MPD1    C3 3431   3.226   2.834   9.799  0.0124  0.0517 -0.9807
  226MPD1    C4 3432   3.093   2.800   9.800 -0.3269  0.0868 -0.5834
  226MPD1    C5 3433   3.046   2.672   9.785 -0.6097  0.6063  0.5087
  226MPD1     H 3434   3.418   2.762   9.832 -0.5565 -1.4333 -1.0472
  226MPD1    H1 3435   3.024   2.882   9.785 -0.5312  0.0487  0.1034
  226MPD1    H2 3436   3.118   2.467   9.797  4.6554 -0.8320  1.5967
  226MPD1    H3 3437   2.942   2.643   9.779 -0.9426  1.5375  1.6459
  226MPD1     N 3438   3.274   2.968   9.787 -0.8847  0.3448 -0.4706
  226MPD1    H5 3439   3.372   2.973   9.811 -0.0219 -2.1952 -3.5152
  226MPD1    N1 3440   3.369   2.509   9.867 -0.2915  0.3500 -0.6773
  226MPD1    H6 3441   3.439   2.537   9.935  0.5812 -0.8151 -1.1106
  226MPD1    H7 3442   3.325   2.429   9.912 -0.4346  0.9245  0.2102
  227MPD1     C 3443   3.142   4.049  10.007 -0.7370  1.0001  0.2386
  227MPD1    C1 3444   3.277   4.027   9.996  0.2606 -0.5806  0.1836
  227MPD1    C2 3445   3.319   3.894   9.957 -0.0098  0.2813 -0.3052
  227MPD1    C3 3446   3.227   3.794   9.941  0.4213 -0.4438 -0.4570
  227MPD1    C4 3447   3.093   3.820   9.959 -0.7680 -0.3444  0.5275
  227MPD1    C5 3448   3.057   3.949   9.983  0.2976 -0.1566 -0.0744
  227MPD1     H 3449   3.425   3.884   9.940 -0.1761 -0.3796 -0.9742
  227MPD1    H1 3450   3.017   3.744   9.944  0.8110 -1.9520  0.6251
  227MPD1    H2 3451   3.100   4.149  10.022 -2.0607  0.1413  2.2865
  227MPD1    H3 3452   2.952   3.958  10.006  0.6204 -1.9769  2.0590
  227MPD1     N 3453   3.272   3.665   9.895 -0.1023 -0.3354  0.2688
  227MPD1    H5 3454   3.368   3.663   9.863  0.1054 -0.4922  0.9139
  227MPD1    N1 3455   3.363   4.139   9.995 -0.3149 -0.3318 -0.3316
  227MPD1    H6 3456   3.456   4.112  10.025 -1.0278 -1.5454  0.8049
  227MPD1    H7 3457   3.321   4.211  10.052 -0.6825 -1.2327  0.5368
  228MPD1     C 3458   1.458   0.996  12.592  0.7293  0.0777  0.3666
  228MPD1    C1 3459   1.337   0.994  12.524 -0.1775 -0.1391 -0.7632
  228MPD1    C2 3460   1.222   0.961  12.595 -0.0109  0.4279 -0.3388
  228MPD1    C3 3461   1.233   0.923  12.723  1.1901  0.5381  0.5002
  228MPD1    C4 3462   1.354   0.914  12.788  0.2009 -0.2904 -0.0196
  228MPD1    C5 3463   1.470   0.960  12.725 -0.1651  0.5267 -0.6605
  228MPD1     H 3464   1.128   0.966  12.541 -0.6033 -0.9995  0.5755
  228MPD1    H1 3465   1.384   0.887  12.889  0.7128  1.8781  0.4104
  228MPD1    H2 3466   1.548   1.031  12.543  0.3962 -0.1796 -0.4285
  228MPD1    H3 3467   1.567   0.953  12.771 -0.6728 -1.0908  0.1570
  228MPD1     N 3468   1.116   0.881  12.781  0.0105 -0.2418 -0.5906
  228MPD1    H5 3469   1.030   0.885  12.727 -0.9395  0.4392  0.9752
  228MPD1    N1 3470   1.324   1.054  12.399 -0.3638  0.4596 -0.8838
  228MPD1    H6 3471   1.246   1.018  12.344  0.0783 -2.5390  0.4713
  228MPD1    H7 3472   1.411   1.048  12.347 -0.0202 -0.1598 -0.2367
  229MPD1     C 3473   1.012   4.156  15.338  0.0869 -0.6676 -0.2534
  229MPD1    C1 3474   1.104   4.251  15.370 -0.4425  0.7022 -0.1164
  229MPD1    C2 3475   1.239   4.215  15.381 -0.0001 -1.1725  0.0666
  229MPD1    C3 3476   1.277   4.084  15.357  0.9036 -0.0704  0.4517
  229MPD1    C4 3477   1.181   3.988  15.325  0.5044  0.0856 -0.9121
  229MPD1    C5 3478   1.045   4.033  15.307  0.0894  0.8065 -0.4595
  229MPD1     H 3479   1.311   4.294  15.400 -1.2368 -0.4098  1.5648
  229MPD1    H1 3480   1.211   3.889  15.292 -0.7660  0.2178 -2.4607
  229MPD1    H2 3481   0.907   4.185  15.339  0.3385  0.4012 -3.2580
  229MPD1    H3 3482   0.969   3.966  15.269  1.0334 -0.3371 -0.3624
  229MPD1     N 3483   1.415   4.052  15.358  0.0071 -0.2168 -0.4809
  229MPD1    H5 3484   1.446   3.961  15.326 -1.9660 -0.4775 -1.6827
  229MPD1    N1 3485   1.066   4.380  15.407  0.1434 -0.2041  0.1155
  229MPD1    H6 3486   1.144   4.446  15.399  0.1721 -0.0670  1.6853
  229MPD1    H7 3487   0.986   4.414  15.354 -1.0349  3.3137  4.1672
  230MPD1     C 3488   2.358   3.917  15.836 -0.1435  0.6387  0.3563
  230MPD1    C1 3489   2.280   3.809  15.833 -0.4528 -0.0559  0.1027
  230MPD1    C2 3490   2.146   3.817  15.789  0.2588 -0.2052  0.2656
  230MPD1    C3 3491   2.103   3.939  15.738  0.3730 -0.0451 -0.7812
  230MPD1    C4 3492   2.182   4.051  15.743 -0.4883  0.2752  0.0922
  230MPD1    C5 3493   2.304   4.037  15.807  0.6920 -0.1951 -0.1289
  230MPD1     H 3494   2.078   3.732  15.795 -2.2887  2.0147  2.6290
  230MPD1    H1 3495   2.162   4.152  15.709 -2.1522  0.0825  0.5029
  230MPD1    H2 3496   2.460   3.917  15.875 -0.3754  1.0945  0.9730
  230MPD1    H3 3497   2.370   4.123  15.810 -1.0836  1.2254 -1.1803
  230MPD1     N 3498   1.982   3.935  15.674  0.3130 -0.1353  0.4839
  230MPD1    H5 3499   1.933   3.846  15.675 -0.7501  0.4248 -1.7073
  230MPD1    N1 3500   2.318   3.700  15.910 -0.1008 -0.2664  0.0763
  230MPD1    H6 3501   2.419   3.699  15.923  0.1364  3.0560 -1.5147
  230MPD1    H7 3502   2.269   3.617  15.877  1.6604 -1.6648  1.0122
  231MPD1     C 3503   3.613   0.879  15.683  0.1986 -0.0649  0.0798
  231MPD1    C1 3504   3.671   0.788  15.597  0.4955  0.4187 -0.1621
  231MPD1    C2 3505   3.809   0.808  15.568 -0.5675  0.3665  1.0589
  231MPD1    C3 3506   3.878   0.924  15.612 -0.6554  0.2711 -0.3910
  231MPD1    C4 3507   3.810   1.021  15.684  0.4272 -0.2398 -0.2754
  231MPD1    C5 3508   3.684   0.993  15.724  0.8539 -0.0630  0.1711
  231MPD1     H 3509   3.867   0.743  15.504 -1.1202 -2.2775  3.2431
  231MPD1    H1 3510   3.858   1.105  15.732  1.0777  0.8515 -2.8476
  231MPD1    H2 3511   3.511   0.866  15.716  0.2706 -1.7448 -0.3820
  231MPD1    H3 3512   3.632   1.062  15.789 -0.0976 -1.7556  1.2266
  231MPD1     N 3513   4.011   0.951  15.578 -0.2566  0.6690  0.7952
  231MPD1    H5 3514   4.050   0.899  15.501 -0.6205  0.7328  0.5689
  231MPD1    N1 3515   3.603   0.674  15.552 -0.2639  0.5195  0.2193
  231MPD1    H6 3516   3.650   0.633  15.471 -0.1133 -0.7894  0.9814
  231MPD1    H7 3517   3.508   0.697  15.523 -0.9009 -1.7662  0.4840
  232MPD1     C 3518   2.174   3.361   0.209 -0.2623 -0.1697 -0.0662
  232MPD1    C1 3519   2.175   3.416   0.336  0.5431 -0.1319 -0.0183
  232MPD1    C2 3520   2.052   3.440   0.400  0.6098 -0.4099 -0.1097
  232MPD1    C3 3521   1.932   3.397   0.343 -0.4285 -0.0951 -0.0452
  232MPD1    C4 3522   1.939   3.345   0.216 -0.0961  0.3983  0.3032
  232MPD1    C5 3523   2.053   3.319   0.148 -0.1160  0.9103 -0.3173
  232MPD1     H 3524   2.055   3.491   0.495  0.1820  1.4243 -1.0850
  232MPD1    H1 3525   1.843   3.328   0.168  0.4516  2.6459 -1.5964
  232MPD1    H2 3526   2.262   3.345   0.148  0.0824 -0.4857  0.5170
  232MPD1    H3 3527   2.061   3.267   0.053  0.5586  3.5716 -1.6914
  232MPD1     N 3528   1.814   3.430   0.416  0.1056  0.0886 -0.1580
  232MPD1    H5 3529   1.825   3.462   0.511  2.0054 -0.6354 -0.1180
  232MPD1    N1 3530   2.292   3.469   0.384  0.4544  0.5016 -1.1637
  232MPD1    H6 3531   2.376   3.420   0.356  3.5039  5.3016 -0.3490
  232MPD1    H7 3532   2.296   3.468   0.485  1.0228 -2.0667 -1.2147
  233MPD1     C 3533   2.808   0.264   0.784  0.0998 -0.1595  0.1019
  233MPD1    C1 3534   2.753   0.392   0.800 -0.2312 -0.0494 -0.2721
  233MPD1    C2 3535   2.837   0.481   0.871 -0.2938 -0.4917 -0.3888
  233MPD1    C3 3536   2.959   0.445   0.934 -0.0382  0.1468 -0.4248
  233MPD1    C4 3537   3.000   0.319   0.928 -0.2948  0.0102 -0.3313
  233MPD1    C5 3538   2.923   0.232   0.850 -0.5921 -0.5104 -0.3314
  233MPD1     H 3539   2.818   0.587   0.866  0.0452 -0.4696 -1.2982
  233MPD1    H1 3540   3.087   0.286   0.983 -0.7259  1.1503  1.0313
  233MPD1    H2 3541   2.748   0.189   0.733  1.3282  0.2787 -1.9951
  233MPD1    H3 3542   2.958   0.130   0.839  0.8091  0.0109 -0.6071
  233MPD1     N 3543   3.028   0.533   1.010  0.7178  0.4566 -0.9216
  233MPD1    H5 3544   3.100   0.494   1.069 -0.5619  1.1053  1.0894
  233MPD1    N1 3545   2.641   0.432   0.721 -0.1954 -0.3543  0.1101
  233MPD1    H6 3546   2.579   0.354   0.700 -0.2110 -0.5536  0.9203
  233MPD1    H7 3547   2.585   0.504   0.767 -2.2147 -0.5035 -2.1357
  234MPD1     C 3548   0.017   0.584   9.641  0.1555  0.0482 -1.0409
  234MPD1    C1 3549   4.670   0.601   9.523  0.8766  0.3629  0.4122
  234MPD1    C2 3550   4.631   0.728   9.495  0.3040  0.1173 -0.1063
  234MPD1    C3 3551   4.626   0.826   9.603  0.6660 -0.3635  0.5693
  234MPD1    C4 3552   4.689   0.800   9.727  0.2438  0.0664  0.2265
  234MPD1    C5 3553   0.033   0.686   9.735 -0.5482  0.0266 -0.4541
  234MPD1     H 3554   4.596   0.754   9.396  1.0259 -2.3514 -0.9950
  234MPD1    H1 3555   4.691   0.875   9.806  3.8132  1.1150 -0.8760
  234MPD1    H2 3556   0.061   0.492   9.677  1.2737  1.2396  0.6533
  234MPD1    H3 3557   0.099   0.667   9.818 -0.5404  0.7621 -0.2953
  234MPD1     N 3558   4.556   0.946   9.584  0.5033 -0.0716 -0.4375
  234MPD1    H5 3559   4.522   0.965   9.490 -2.7034  0.6335  0.8780
  234MPD1    N1 3560   4.689   0.499   9.422  0.0596 -0.3376  0.0498
  234MPD1    H6 3561   4.620   0.501   9.347 -2.1295  1.1101  2.1321
  234MPD1    H7 3562   4.684   0.406   9.462 -1.0928 -1.1901 -2.0530
  235MPD1     C 3563   1.521   3.256   9.413  0.3531  0.7988 -0.2930
  235MPD1    C1 3564   1.612   3.360   9.381 -0.1937  0.5359 -0.1104
  235MPD1    C2 3565   1.610   3.472   9.463 -0.1036 -0.3306 -0.4813
  235MPD1    C3 3566   1.514   3.482   9.562 -0.6710  0.5149 -0.0314
  235MPD1    C4 3567   1.438   3.376   9.601  0.8429 -0.3401 -0.8505
  235MPD1    C5 3568   1.452   3.265   9.528 -0.6565  0.0671  0.4159
  235MPD1     H 3569   1.673   3.557   9.442  1.5223 -1.4183  0.0222
  235MPD1    H1 3570   1.372   3.378   9.687  1.5261  0.3534 -0.3409
  235MPD1    H2 3571   1.509   3.167   9.351 -0.1081  1.7837 -1.6201
  235MPD1    H3 3572   1.381   3.186   9.551 -0.3572 -0.3991 -0.2323
  235MPD1     N 3573   1.525   3.600   9.640 -0.7100 -0.1548  0.4986
  235MPD1    H5 3574   1.604   3.658   9.615 -1.7076  1.1120  0.2450
  235MPD1    N1 3575   1.692   3.356   9.269  0.0882 -0.4217 -0.4557
  235MPD1    H6 3576   1.724   3.260   9.257 -0.1240 -0.6590  0.8966
  235MPD1    H7 3577   1.779   3.401   9.294  0.7794 -0.7595 -2.2288
  236MPD1     C 3578   0.086   0.095  10.220  0.2876 -0.2076 -0.2217
  236MPD1    C1 3579   0.118   4.687  10.180 -0.3607 -0.4775 -0.3831
  236MPD1    C2 3580   0.220   4.620  10.244 -0.1682 -0.4122 -0.6644
  236MPD1    C3 3581   0.282   4.678  10.354 -0.5190  0.3377 -0.3910
  236MPD1    C4 3582   0.265   0.085  10.383  0.1441 -0.3963  0.3252
  236MPD1    C5 3583   0.165   0.156  10.316 -0.1759 -0.6765  0.6733
  236MPD1     H 3584   0.241   4.521  10.205 -0.1219 -0.3711 -0.7450
  236MPD1    H1 3585   0.315   0.129  10.469  1.2967  1.6914 -1.4132
  236MPD1    H2 3586   0.007   0.149  10.170 -1.0044 -0.3604  1.6432
  236MPD1    H3 3587   0.148   0.258  10.348 -0.9639 -0.7074  0.3384
  236MPD1     N 3588   0.386   4.606  10.424 -0.2507  0.4354  0.2848
  236MPD1    H5 3589   0.441   4.661  10.489 -0.1291 -0.3784  0.8690
  236MPD1    N1 3590   0.060   4.635  10.066 -0.4832  0.2416  0.4062
  236MPD1    H6 3591   0.049   4.535  10.079 -1.9366  0.3886  0.3430
  236MPD1    H7 3592   4.693   4.676  10.047 -0.1195  1.1732  0.6504
  237MPD1     C 3593   0.451   2.269  15.373 -0.4794  0.0190  0.7676
  237MPD1    C1 3594   0.402   2.370  15.285 -0.1301 -0.3392 -0.9866
  237MPD1    C2 3595   0.270   2.413  15.297  0.0341 -0.4479  0.4496
  237MPD1    C3 3596   0.187   2.353  15.391 -0.3932  0.1106  0.1965
  237MPD1    C4 3597   0.240   2.253  15.473 -0.1366 -0.2690 -0.8940
  237MPD1    C5 3598   0.371   2.222  15.472 -0.6478 -0.4011 -0.1594
  237MPD1     H 3599   0.237   2.499  15.240 -1.4854 -0.4720  1.2900
  237MPD1    H1 3600   0.187   2.206  15.554 -0.6606 -0.1690 -1.1786
  237MPD1    H2 3601   0.554   2.236  15.367 -0.5645  0.2356 -1.6299
  237MPD1    H3 3602   0.411   2.151  15.544 -0.2419  0.2825  0.2921
  237MPD1     N 3603   0.051   2.378  15.408 -0.0491  0.0052  0.2177
  237MPD1    H5 3604   0.001   2.333  15.484  1.2418 -1.5703  0.1285
  237MPD1    N1 3605   0.493   2.433  15.195  0.0943 -0.0999  0.3422
  237MPD1    H6 3606   0.553   2.360  15.158  1.0010  0.6344  0.3516
  237MPD1    H7 3607   0.446   2.478  15.117  2.0473  0.4182 -0.5264
  238MPD1     C 3608   1.343   1.986  14.993 -0.0786 -0.0618 -0.4314
  238MPD1    C1 3609   1.293   1.923  15.102  1.0523 -0.1114 -0.0173
  238MPD1    C2 3610   1.212   1.813  15.082  0.0733  0.6408  0.0068
  238MPD1    C3 3611   1.186   1.774  14.950  0.4138 -0.0859 -0.6977
  238MPD1    C4 3612   1.237   1.845  14.846  1.0945  0.4583 -0.3867
  238MPD1    C5 3613   1.313   1.955  14.868  0.3495 -0.0937 -0.0732
  238MPD1     H 3614   1.142   1.785  15.161  0.1732 -0.4172 -0.2764
  238MPD1    H1 3615   1.207   1.812  14.747 -1.3731  1.6923 -0.0468
  238MPD1    H2 3616   1.409   2.071  15.002  1.3825 -1.2004 -0.4077
  238MPD1    H3 3617   1.333   2.014  14.780 -0.4457  0.3262  0.0272
  238MPD1     N 3618   1.087   1.674  14.915 -0.0383 -0.0594  0.1802
  238MPD1    H5 3619   1.067   1.663  14.816  1.2992 -0.4998 -0.0430
  238MPD1    N1 3620   1.334   1.972  15.227  0.7403  0.4587 -0.4482
  238MPD1    H6 3621   1.355   2.071  15.219 -0.0490  0.6719  0.1195
  238MPD1    H7 3622   1.272   1.948  15.305  1.8411 -0.6334  0.0980
  239MPD1     C 3623   1.810   1.778  14.927  0.5234  0.2487  0.4791
  239MPD1    C1 3624   1.922   1.820  14.861 -0.5993  0.5736 -0.3876
  239MPD1    C2 3625   1.913   1.922  14.770 -0.3608 -0.0178  0.1547
  239MPD1    C3 3626   1.788   1.973  14.729  0.5714 -0.4223  0.0927
  239MPD1    C4 3627   1.677   1.918  14.788  0.3456 -0.1059  0.2029
  239MPD1    C5 3628   1.690   1.827  14.888  0.7809  0.3829 -0.0915
  239MPD1     H 3629   2.004   1.972  14.740  0.2352 -0.4715  1.2345
  239MPD1    H1 3630   1.577   1.950  14.761  0.2571 -0.8932 -0.4014
  239MPD1    H2 3631   1.800   1.696  14.997 -0.5224 -1.2211 -1.3963
  239MPD1    H3 3632   1.594   1.795  14.928  0.4340 -0.7604 -1.8239
  239MPD1     N 3633   1.776   2.078  14.635 -0.4668 -0.3721  0.7927
  239MPD1    H5 3634   1.684   2.115  14.612  0.4963  0.6302 -1.4011
  239MPD1    N1 3635   2.051   1.773  14.904 -1.2997 -0.0563 -0.2092
  239MPD1    H6 3636   2.124   1.776  14.833  0.4006 -1.0197  1.4851
  239MPD1    H7 3637   2.058   1.681  14.947 -0.1135 -0.4109 -1.1687
  240MPD1     C 3638   0.050   2.118  13.394 -0.6501  0.1508 -0.2019
  240MPD1    C1 3639   0.015   2.011  13.478 -0.2442  0.8796  0.1272
  240MPD1    C2 3640   0.103   1.984  13.580 -0.4147  0.2252 -0.5070
  240MPD1    C3 3641   0.214   2.059  13.606  0.5093 -0.1826 -0.0892
  240MPD1    C4 3642   0.245   2.170  13.527  0.3011 -0.0631 -0.2991
  240MPD1    C5 3643   0.154   2.202  13.427  0.1706 -0.4461  0.5279
  240MPD1     H 3644   0.086   1.894  13.638 -1.8994  0.0284 -1.2484
  240MPD1    H1 3645   0.334   2.232  13.526  0.4788 -0.3084  1.3587
  240MPD1    H2 3646   4.720   2.134  13.303  1.2026 -0.3644 -1.4105
  240MPD1    H3 3647   0.178   2.288  13.364 -3.0224  1.0771  1.3912
  240MPD1     N 3648   0.305   2.009  13.700  0.1874 -0.0985  0.0163
  240MPD1    H5 3649   0.286   1.916  13.735 -1.6101  1.5041  3.3443
  240MPD1    N1 3650   4.641   1.921  13.435  0.1984  0.0094 -0.0278
  240MPD1    H6 3651   4.575   1.971  13.377 -0.6564 -0.4829  0.5112
  240MPD1    H7 3652   4.589   1.883  13.514  0.6828 -0.3798  0.1053
  241MPD1     C 3653   1.239   2.327  14.045  0.3286  0.0454 -0.0489
  241MPD1    C1 3654   1.206   2.204  14.109  0.6256  0.3256  0.2073
  241MPD1    C2 3655   1.081   2.150  14.099  0.4811  0.0348 -0.3851
  241MPD1    C3 3656   0.982   2.204  14.021  0.1969 -0.3903 -0.1510
  241MPD1    C4 3657   1.018   2.320  13.955 -0.1049  0.2444  0.4667
  241MPD1    C5 3658   1.138   2.377  13.976  0.4390 -0.1947  0.6291
  241MPD1     H 3659   1.069   2.060  14.158  1.1650  1.5597  2.0652
  241MPD1    H1 3660   0.939   2.361  13.894  1.7038 -0.4335 -2.3920
  241MPD1    H2 3661   1.338   2.370  14.038  1.4809 -2.7365 -0.5475
  241MPD1    H3 3662   1.157   2.472  13.927 -1.2725  0.1820  0.7041
  241MPD1     N 3663   0.857   2.147  13.989  0.3165 -0.2698  0.4485
  241MPD1    H5 3664   0.793   2.198  13.929 -1.3110 -1.3462  1.2615
  241MPD1    N1 3665   1.291   2.151  14.210 -0.5259 -0.5423  0.3790
  241MPD1    H6 3666   1.387   2.179  14.191 -0.0557 -1.6384  1.1487
  241MPD1    H7 3667   1.283   2.050  14.205 -0.1332 -0.4389 -2.4140
  242MPD1     C 3668   0.989   0.244  16.272  0.3006  0.0917 -0.1509
  242MPD1    C1 3669   0.870   0.198  16.225 -0.2116 -0.6453  0.4002
  242MPD1    C2 3670   0.857   0.164  16.093 -0.4723 -0.2670 -0.7404
  242MPD1    C3 3671   0.959   0.194  16.009 -0.4989 -0.3721  0.8260
  242MPD1    C4 3672   1.069   0.258  16.050  0.6897 -0.0455 -0.2157
  242MPD1    C5 3673   1.083   0.288  16.181  0.6461 -0.1970  0.1740
  242MPD1     H 3674   0.767   0.112  16.062 -0.0571 -2.7270  2.1345
  242MPD1    H1 3675   1.148   0.281  15.979  0.5617  1.6294  0.1771
  242MPD1    H2 3676   0.992   0.276  16.375 -2.6774 -0.8738  0.2386
  242MPD1    H3 3677   1.169   0.339  16.222  1.1836 -0.0483 -1.1431
  242MPD1     N 3678   0.947   0.173  15.872 -0.0398  0.5905 -0.2294
  242MPD1    H5 3679   1.031   0.181  15.816  0.3528 -0.6106  0.1863
  242MPD1    N1 3680   0.781   0.149  16.322  0.1699  0.4186 -0.4867
  242MPD1    H6 3681   0.687   0.151  16.283 -0.6511  0.4191  1.4991
  242MPD1    H7 3682   0.790   0.210  16.402  0.6397  1.0231 -1.0024
  243MPD1     C 3683   2.785   3.444  17.479 -0.1015  0.6751  0.8291
  243MPD1    C1 3684   2.849   3.324  17.498 -0.0801  0.2875  0.2583
  243MPD1    C2 3685   2.771   3.207  17.476  0.0015  0.0255 -0.0410
  243MPD1    C3 3686   2.638   3.213  17.439 -0.4657  0.1867  0.1053
  243MPD1    C4 3687   2.571   3.336  17.428 -0.1756 -0.5806 -0.2264
  243MPD1    C5 3688   2.648   3.451  17.437 -0.2966 -0.4019  0.2038
  243MPD1     H 3689   2.823   3.113  17.488 -1.6014 -0.5848  2.1544
  243MPD1    H1 3690   2.471   3.357  17.394  0.6819  2.9275 -0.5583
  243MPD1    H2 3691   2.841   3.537  17.468  2.8962 -0.9252  2.3598
  243MPD1    H3 3692   2.622   3.552  17.407 -2.0474 -0.9115  0.0145
  243MPD1     N 3693   2.579   3.085  17.394 -0.1877 -0.5338  0.5634
  243MPD1    H5 3694   2.647   3.009  17.391  0.2916 -0.2103  3.5477
  243MPD1    N1 3695   2.986   3.316  17.516 -0.3852 -0.5835 -0.5989
  243MPD1    H6 3696   3.014   3.405  17.557 -0.4180 -0.4775 -0.8073
  243MPD1    H7 3697   3.009   3.228  17.561  0.9986  0.3930  0.6290
  244MPD1     C 3698   2.727   2.128  17.405 -0.6606  0.0548 -0.6268
  244MPD1    C1 3699   2.749   2.172  17.273  0.0413 -0.1431 -0.5397
  244MPD1    C2 3700   2.709   2.295  17.234 -0.0152 -0.0801  1.1496
  244MPD1    C3 3701   2.635   2.375  17.315 -0.1904  0.4200  0.0386
  244MPD1    C4 3702   2.599   2.329  17.440 -0.7572 -0.0510 -0.0270
  244MPD1    C5 3703   2.642   2.205  17.481  0.2832 -0.3319 -0.1544
  244MPD1     H 3704   2.741   2.325  17.135 -0.4148 -0.4993  0.8874
  244MPD1    H1 3705   2.538   2.385  17.510 -0.4103  0.2035  0.0724
  244MPD1    H2 3706   2.773   2.040  17.448 -4.1852 -1.2374  0.4586
  244MPD1    H3 3707   2.611   2.184  17.582 -1.6087 -2.1543 -1.0897
  244MPD1     N 3708   2.596   2.510  17.269 -0.3529  0.2342  0.0291
  244MPD1    H5 3709   2.641   2.547  17.186 -4.8563  0.4580 -2.3638
  244MPD1    N1 3710   2.831   2.105  17.185  0.3511  0.7611  0.6379
  244MPD1    H6 3711   2.797   2.009  17.189 -2.6520  1.8311  0.9886
  244MPD1    H7 3712   2.816   2.125  17.086  0.0621 -1.1332  0.2945
  245MPD1     C 3713   4.158   4.068  13.540 -0.3187 -0.0982  0.0545
  245MPD1    C1 3714   4.115   4.089  13.672  0.4565  0.3761  0.6105
  245MPD1    C2 3715   4.162   4.197  13.735  0.0137  0.2303 -0.7648
  245MPD1    C3 3716   4.229   4.299  13.671 -0.0833 -0.0992 -0.2375
  245MPD1    C4 3717   4.265   4.279  13.534 -0.3136  0.4551 -0.3072
  245MPD1    C5 3718   4.229   4.162  13.473  0.3769 -0.4312 -0.7229
  245MPD1     H 3719   4.137   4.226  13.837  0.8954  0.8854 -0.7315
  245MPD1    H1 3720   4.326   4.356  13.487 -2.3697  1.2737 -1.6649
  245MPD1    H2 3721   4.141   3.982  13.476 -1.0574 -0.4545  0.7311
  245MPD1    H3 3722   4.268   4.142  13.373 -1.6716 -1.3221 -1.3402
  245MPD1     N 3723   4.265   4.420  13.743  0.1822 -0.3089 -0.0087
  245MPD1    H5 3724   4.244   4.423  13.842  2.7783  1.0846  0.5069
  245MPD1    N1 3725   4.053   3.983  13.734  0.2786  0.3372 -0.0658
  245MPD1    H6 3726   3.987   4.010  13.808 -1.7717 -1.4295 -1.2516
  245MPD1    H7 3727   4.000   3.929  13.666  1.0204 -2.8791  1.9313
  246MPD1     C 3728   0.780   1.469  10.519  0.3741 -0.5053  0.8327
  246MPD1    C1 3729   0.820   1.546  10.417  0.2900 -0.0627 -0.6740
  246MPD1    C2 3730   0.820   1.508  10.282 -0.0358  0.5701  0.2082
  246MPD1    C3 3731   0.789   1.372  10.255  0.3938  0.1533 -0.2178
  246MPD1    C4 3732   0.768   1.289  10.364 -0.7731  0.4170 -0.1895
  246MPD1    C5 3733   0.761   1.340  10.491  0.2176 -0.5025 -0.1316
  246MPD1     H 3734   0.816   1.577  10.199 -0.6225  1.3305  0.8622
  246MPD1    H1 3735   0.714   1.196  10.347  0.2874 -0.0775 -0.8931
  246MPD1    H2 3736   0.768   1.512  10.618  0.6777 -1.2031  1.1694
  246MPD1    H3 3737   0.725   1.275  10.570 -0.5792 -0.7190 -0.6745
  246MPD1     N 3738   0.785   1.322  10.124  0.3870 -0.1683  0.2566
  246MPD1    H5 3739   0.799   1.393  10.052 -1.4579  0.7733  0.8248
  246MPD1    N1 3740   0.826   1.687  10.430  0.2251  0.1600 -0.2032
  246MPD1    H6 3741   0.860   1.716  10.521  1.3696  0.7085 -0.7997
  246MPD1    H7 3742   0.898   1.720  10.366 -0.9321  0.1726 -1.5006
  247MPD1     C 3743   3.972   0.264  15.377 -0.0901  0.8019  0.0454
  247MPD1    C1 3744   4.025   0.140  15.400  0.0450  0.4775 -0.3991
  247MPD1    C2 3745   3.940   0.043  15.463 -0.4616 -0.0415  0.3139
  247MPD1    C3 3746   3.800   0.073  15.478 -0.2723  0.8411 -0.0039
  247MPD1    C4 3747   3.756   0.199  15.444  0.1170  0.4766  0.1273
  247MPD1    C5 3748   3.840   0.288  15.384  0.4748  0.5526 -0.2147
  247MPD1     H 3749   3.979   4.672  15.492 -2.2590 -0.9151 -0.1305
  247MPD1    H1 3750   3.650   0.222  15.448  0.2449  1.0751  0.1620
  247MPD1    H2 3751   4.033   0.345  15.339  1.8463 -0.5812  0.1358
  247MPD1    H3 3752   3.811   0.383  15.341  1.6433  0.6964 -0.6612
  247MPD1     N 3753   3.699   4.712  15.524  0.3662  0.2404 -0.5265
  247MPD1    H5 3754   3.602   4.724  15.497 -0.0813 -3.5047 -0.6582
  247MPD1    N1 3755   4.159   0.120  15.399 -0.4146 -0.0970 -0.2892
  247MPD1    H6 3756   4.215   0.178  15.335 -1.9506 -0.3551 -1.8609
  247MPD1    H7 3757   4.181   0.024  15.373  0.0526  0.3256 -1.5065
  248MPD1     C 3758   4.618   2.577   0.289  1.1084  0.1278  0.2997
  248MPD1    C1 3759   4.712   2.670   0.247  0.4293 -0.2226 -0.1402
  248MPD1    C2 3760   4.672   2.797   0.210  0.2100 -0.3343 -0.0504
  248MPD1    C3 3761   4.541   2.838   0.227  0.0952  0.1462  0.2083
  248MPD1    C4 3762   4.451   2.753   0.282 -0.2076  0.2794 -0.6102
  248MPD1    C5 3763   4.494   2.630   0.321 -0.0374  0.0118 -0.0394
  248MPD1     H 3764   0.018   2.861   0.158  1.2681 -0.5438  1.1199
  248MPD1    H1 3765   4.346   2.772   0.303 -0.8392 -1.2818 -2.4178
  248MPD1    H2 3766   4.644   2.474   0.308 -0.2684 -0.2133  0.3044
  248MPD1    H3 3767   4.424   2.559   0.364 -0.0413 -0.5680 -0.9943
  248MPD1     N 3768   4.509   2.971   0.195  0.1314  0.0894  0.0465
  248MPD1    H5 3769   4.580   3.026   0.147 -0.2587  0.2867 -0.3054
  248MPD1    N1 3770   0.116   2.622   0.215  0.7685 -0.2808 -0.1825
  248MPD1    H6 3771   0.191   2.690   0.224  0.0316  0.0117  3.8292
  248MPD1    H7 3772   0.145   2.551   0.282 -4.1717 -0.0826  2.1305
  249MPD1     C 3773   1.506   2.813  11.145  0.4264 -0.5116  0.0898
  249MPD1    C1 3774   1.606   2.859  11.064  0.0575  0.1892 -0.3203
  249MPD1    C2 3775   1.581   2.853  10.929 -0.4706  0.1604 -0.4679
  249MPD1    C3 3776   1.456   2.814  10.884  0.0737  1.1445 -0.0510
  249MPD1    C4 3777   1.353   2.784  10.966 -0.0721 -0.7350 -0.3170
  249MPD1    C5 3778   1.381   2.784  11.102 -0.0471  0.6050  0.0496
  249MPD1     H 3779   1.664   2.887  10.868  0.7419  0.8160  1.5206
  249MPD1    H1 3780   1.252   2.769  10.929  0.8987 -1.9731 -2.4317
  249MPD1    H2 3781   1.532   2.827  11.250 -1.4877  1.7653  0.2584
  249MPD1    H3 3782   1.301   2.768  11.174  2.2257  0.5468  2.5855
  249MPD1     N 3783   1.443   2.802  10.741 -0.3178  0.1841  1.1103
  249MPD1    H5 3784   1.517   2.832  10.679 -0.0139 -2.2521  0.3010
  249MPD1    N1 3785   1.733   2.886  11.109  0.2218 -0.9942 -0.0979
  249MPD1    H6 3786   1.779   2.952  11.046 -1.2074  0.1034  0.0267
  249MPD1    H7 3787   1.730   2.924  11.203 -1.4582 -0.8422 -0.2156
  250MPD2     C 3788   2.320   2.497  13.380  0.5442  0.1380 -0.8793
  250MPD2    C1 3789   2.239   2.581  13.301  0.2207  0.7886 -0.1333
  250MPD2    C2 3790   2.181   2.528  13.191 -0.3089 -0.5339 -1.3904
  250MPD2    C3 3791   2.206   2.398  13.159 -0.7116 -0.1528 -0.2765
  250MPD2    C4 3792   2.292   2.320  13.229  0.0036  0.7064  0.5874
  250MPD2    C5 3793   2.352   2.365  13.342 -0.5057 -0.3021  0.1183
  250MPD2     H 3794   2.110   2.591  13.138 -1.5158  0.9133  1.9514
  250MPD2    H1 3795   2.319   2.223  13.190  2.9394  1.0847  1.6571
  250MPD2    H2 3796   2.355   2.531  13.477 -0.8512 -1.1012  0.0529
  250MPD2    H3 3797   2.424   2.315  13.405 -2.8964 -1.8879  1.5937
  250MPD2     N 3798   2.161   2.346  13.037  0.2296  0.0214  0.5431
  250MPD2    H5 3799   2.208   2.261  13.008  0.1253  0.5916 -1.2569
  250MPD2    N1 3800   2.224   2.716  13.340  0.0194  0.1250 -0.6342
  250MPD2    H7 3801   2.294   2.744  13.407  0.6792 -1.5348 -0.6200
  251TMC3    C1 3802   2.157   2.957  13.339 -0.6678 -0.0368 -0.0698
  251TMC3    C2 3803   2.059   3.050  13.325  0.2326  0.0024 -0.0184
  251TMC3    C3 3804   2.098   3.184  13.334  0.5145  0.4419 -0.3657
  251TMC3    C4 3805   2.287   2.992  13.363  0.3009  0.0136 -0.8875
  251TMC3    C5 3806   2.319   3.126  13.366  0.2093  1.0216  0.7357
  251TMC3    C6 3807   2.224   3.223  13.359 -0.3490  0.4319 -0.0602
  251TMC3     C 3808   2.131   2.812  13.294  0.4002  0.9012  0.2404
  251TMC3     O 3809   2.016   2.791  13.259 -0.0156  0.1644 -0.1892
  251TMC3     H 3810   1.959   3.015  13.299  1.5461 -3.0447 -0.9371
  251TMC3    H1 3811   2.371   2.924  13.359  0.8810  0.7440 -1.2093
  251TMC3    H2 3812   2.260   3.325  13.371 -0.9964  0.6927 -0.2937
  251TMC3    C7 3813   2.461   3.154  13.368 -0.8052  1.2886  0.8208
  251TMC3    C8 3814   1.997   3.286  13.332  0.4243 -0.7300 -0.0867
  251TMC3    O1 3815   2.542   3.085  13.430  0.2165  0.3030 -0.3693
  251TMC3    O2 3816   2.026   3.394  13.386 -0.1987  0.1369  0.3333
  252TMC3    C1 3817   2.505   4.483   9.786 -0.4862  0.4702  0.5422
  252TMC3    C2 3818   2.623   4.528   9.737  0.0433  0.1399  0.5080
  252TMC3    C3 3819   2.739   4.454   9.762  0.2128 -0.3694  0.4594
  252TMC3    C4 3820   2.497   4.366   9.858  0.1432  0.0916  0.4882
  252TMC3    C5 3821   2.614   4.293   9.869 -0.4737  0.3738  0.0042
  252TMC3    C6 3822   2.736   4.339   9.831 -0.6626 -0.7361  0.2618
  252TMC3     C 3823   2.404   4.585   9.807 -0.8688  0.2671 -1.2026
  252TMC3     O 3824   2.338   4.577   9.913  0.4976 -0.4480  0.2118
  252TMC3     H 3825   2.637   4.632   9.710 -2.0949 -0.0485 -1.3540
  252TMC3    H1 3826   2.408   4.317   9.897  0.5926 -2.5155 -1.6714
  252TMC3    H2 3827   2.825   4.276   9.834 -0.1772  0.0171  1.6152
  252TMC3    C7 3828   2.604   4.157   9.915 -0.5261  0.2102  0.2010
  252TMC3    C8 3829   2.865   4.505   9.710 -0.7311  0.7153 -0.2955
  252TMC3    O1 3830   2.529   4.134  10.009 -0.0370 -0.6417 -0.0268
  252TMC3    O2 3831   2.866   4.592   9.622  0.3373  0.3519 -0.3389
  253MPD2     C 3832   3.954   2.516  15.407  0.4679  0.3150 -0.1099
  253MPD2    C1 3833   3.829   2.469  15.447 -0.4775 -0.6464 -0.0975
  253MPD2    C2 3834   3.770   2.515  15.562 -0.4417 -0.6209 -0.1594
  253MPD2    C3 3835   3.846   2.598  15.648 -0.2339  0.0092  0.2296
  253MPD2    C4 3836   3.970   2.638  15.605 -0.0190  0.6225 -0.0754
  253MPD2    C5 3837   4.021   2.603  15.489 -0.1610  0.5995 -0.0810
  253MPD2     H 3838   3.678   2.467  15.593 -0.0264 -0.2471  1.6313
  253MPD2    H1 3839   4.037   2.701  15.663  0.2507  0.9714 -0.7693
  253MPD2    H2 3840   4.006   2.505  15.312 -2.3490  0.8226 -1.7033
  253MPD2    H3 3841   4.121   2.641  15.471 -0.4283  0.7789 -1.1959
  253MPD2     N 3842   3.808   2.647  15.771 -0.2632  0.0382 -0.4887
  253MPD2    H5 3843   3.876   2.704  15.822 -0.1204  1.2694 -2.0552
  253MPD2    N1 3844   3.758   2.390  15.353 -0.0271  0.1389 -0.2040
  253MPD2    H7 3845   3.665   2.359  15.380 -0.5957  1.2164 -0.9251
  254TMC3    C1 3846   3.676   2.703  15.949 -0.3460  0.2754  0.6060
  254TMC3    C2 3847   3.561   2.764  15.981 -0.7466  0.1213  0.4402
  254TMC3    C3 3848   3.540   2.796  16.111  0.1122 -0.3263 -0.4870
  254TMC3    C4 3849   3.747   2.646  16.043 -0.4625  0.0760  0.1735
  254TMC3    C5 3850   3.715   2.658  16.178 -0.3380  0.2963  0.7564
  254TMC3    C6 3851   3.608   2.732  16.216 -0.2167  0.0132 -0.3674
  254TMC3     C 3852   3.684   2.636  15.820 -0.2295 -0.5295  0.6778
  254TMC3     O 3853   3.608   2.538  15.804  0.7109 -0.4923 -0.2515
  254TMC3     H 3854   3.498   2.791  15.897  1.1985  0.0056 -1.0779
  254TMC3    H1 3855   3.822   2.575  16.013  1.7152  2.4316  0.0358
  254TMC3    H2 3856   3.584   2.762  16.317  3.5618 -1.2578  0.8819
  254TMC3    C7 3857   3.802   2.588  16.283 -0.1688 -0.0330  0.1909
  254TMC3    C8 3858   3.425   2.877  16.159 -0.1173  0.1404 -0.4060
  254TMC3    O1 3859   3.913   2.550  16.258  0.4139 -0.6196  0.0436
  254TMC3    O2 3860   3.391   2.845  16.272 -0.0511 -1.0489 -0.2868
  255MPD2     C 3861   1.928   1.347  10.177 -0.0025  0.3791  0.1755
  255MPD2    C1 3862   2.061   1.376  10.205  0.3002 -0.0187 -0.5527
  255MPD2    C2 3863   2.158   1.346  10.109  0.8392 -0.0508 -0.6208
  255MPD2    C3 3864   2.119   1.288   9.990  0.2570  0.1602 -0.8459
  255MPD2    C4 3865   1.988   1.249   9.971 -0.2032  0.1964 -0.2380
  255MPD2    C5 3866   1.896   1.287  10.060 -0.1758 -0.3421  0.5284
  255MPD2     H 3867   2.262   1.373  10.125  0.3063  0.7057  1.5768
  255MPD2    H1 3868   1.955   1.199   9.880  0.1061  0.2378 -0.3753
  255MPD2    H2 3869   1.847   1.364  10.247  0.0575 -0.6547  0.4950
  255MPD2    H3 3870   1.790   1.267  10.049 -0.1808 -0.8827  1.5595
  255MPD2     N 3871   2.218   1.275   9.887  0.8802 -0.5695 -0.2647
  255MPD2    H5 3872   2.310   1.306   9.916  0.2540  1.9416 -1.0157
  255MPD2    N1 3873   2.083   1.458  10.320  0.0116 -0.3565  0.2213
  255MPD2    H7 3874   2.003   1.488  10.374  1.0017  0.4384  1.2530
  256TMC3    C1 3875   2.182   1.594  10.483 -0.3816  0.0468  0.4584
  256TMC3    C2 3876   2.234   1.713  10.457 -0.1824 -0.0092  0.2420
  256TMC3    C3 3877   2.162   1.828  10.481  0.5024 -0.9884 -0.6727
  256TMC3    C4 3878   2.052   1.584  10.523 -0.9864  0.5777 -0.0155
  256TMC3    C5 3879   1.979   1.698  10.541  0.7348  0.2997 -0.2776
  256TMC3    C6 3880   2.030   1.824  10.514 -0.7112  0.5521  0.1720
  256TMC3     C 3881   2.206   1.497  10.375 -0.1202 -0.4237  0.0719
  256TMC3     O 3882   2.316   1.472  10.333 -0.1180  0.4445 -0.0835
  256TMC3     H 3883   2.342   1.710  10.455 -0.1781  0.5171 -0.2662
  256TMC3    H1 3884   2.012   1.487  10.552 -0.2592  0.4061  0.4264
  256TMC3    H2 3885   1.966   1.912  10.510 -0.1469  0.9112 -0.7940
  256TMC3    C7 3886   1.844   1.660  10.495 -0.0151 -0.4208 -0.0519
  256TMC3    C8 3887   2.203   1.954  10.419 -0.3229 -0.2545  0.5753
  256TMC3    O1 3888   1.829   1.545  10.449 -0.4631 -0.1376 -0.1182
  256TMC3    O2 3889   2.169   2.053  10.482  0.5327 -0.5941  0.3997
  257MPD2     C 3890   1.257   3.056  13.457  0.1256  1.1196 -0.0656
  257MPD2    C1 3891   1.223   2.955  13.373 -0.1149  0.3493 -0.1615
  257MPD2    C2 3892   1.241   2.824  13.414 -0.0684 -0.0838  0.5609
  257MPD2    C3 3893   1.291   2.802  13.536 -0.0668 -0.0603 -0.3243
  257MPD2    C4 3894   1.319   2.900  13.623  0.1218 -0.4946  0.1389
  257MPD2    C5 3895   1.299   3.029  13.586 -0.1955 -0.4469 -0.0897
  257MPD2     H 3896   1.203   2.742  13.354  0.6254 -1.1386  1.5482
  257MPD2    H1 3897   1.345   2.877  13.726 -0.2891  2.3478  0.8946
  257MPD2    H2 3898   1.247   3.161  13.431  2.9088  1.4274  0.0461
  257MPD2    H3 3899   1.313   3.107  13.660  2.1292 -0.1618 -0.7946
  257MPD2     N 3900   1.303   2.663  13.569 -0.2503 -0.2490  0.2933
  257MPD2    H5 3901   1.294   2.596  13.494 -1.5252 -1.5496  1.5947
  257MPD2    N1 3902   1.182   2.994  13.239  0.1108 -0.3290 -0.3454
  257MPD2    H7 3903   1.183   3.094  13.222  2.6146 -0.2810  0.1086
  258TMC3    C1 3904   1.370   2.472  13.661  0.7632 -0.2349 -0.3534
  258TMC3    C2 3905   1.249   2.405  13.636 -0.5787  0.1894 -0.3630
  258TMC3    C3 3906   1.247   2.271  13.670  0.0924  0.1713  0.7303
  258TMC3    C4 3907   1.478   2.418  13.725 -0.8343  0.5720  0.6826
  258TMC3    C5 3908   1.473   2.288  13.762  0.2054 -0.3140 -0.2480
  258TMC3    C6 3909   1.356   2.209  13.735  0.2062 -0.5391 -0.0689
  258TMC3     C 3910   1.362   2.608  13.670 -0.0248 -0.2192 -0.1383
  258TMC3     O 3911   1.405   2.662  13.770 -0.1926 -0.1206  0.0483
  258TMC3     H 3912   1.168   2.452  13.581 -1.1313 -0.9678 -0.5393
  258TMC3    H1 3913   1.572   2.467  13.745 -0.4524  1.0329 -2.2493
  258TMC3    H2 3914   1.350   2.101  13.745  1.1655 -0.5719  0.1446
  258TMC3    C7 3915   1.570   2.237  13.854 -0.6263  0.6066  0.3767
  258TMC3    C8 3916   1.122   2.196  13.661 -0.1835 -0.1848 -0.5790
  258TMC3    O1 3917   1.641   2.319  13.910  0.1026  0.8578 -0.1903
  258TMC3    O2 3918   1.126   2.078  13.688  0.0626 -0.1068  0.3357
  259MPD2     C 3919   4.666   3.686   0.808  0.1253 -0.2265  0.5320
  259MPD2    C1 3920   0.070   3.668   0.853  0.3775 -0.2457 -1.0210
  259MPD2    C2 3921   0.173   3.660   0.764 -0.0693 -0.4116  0.4110
  259MPD2    C3 3922   0.146   3.663   0.630 -0.7818 -0.7750  0.5602
  259MPD2    C4 3923   0.021   3.699   0.589  0.1602 -0.4323  0.0764
  259MPD2    C5 3924   4.647   3.712   0.677  0.4056 -0.1051  0.0088
  259MPD2     H 3925   0.271   3.631   0.800 -0.0226 -0.0723  0.5574
  259MPD2    H1 3926   4.716   3.714   0.486 -1.2952  2.7219  0.9420
  259MPD2    H2 3927   4.588   3.706   0.880 -0.5429  1.3314 -0.6266
  259MPD2    H3 3928   4.552   3.750   0.641  0.0495  1.4504  2.5885
  259MPD2     N 3929   0.245   3.628   0.536  0.3525 -0.2794 -0.1774
  259MPD2    H5 3930   0.336   3.605   0.577 -0.6664 -2.7179  0.6874
  259MPD2    N1 3931   0.089   3.664   0.992 -0.1178 -0.1140 -0.5389
  259MPD2    H7 3932   0.002   3.678   1.043  1.3172  2.0268  1.3612
  260TMC3    C1 3933   0.344   3.589   0.320  0.2102 -0.3667 -0.0711
  260TMC3    C2 3934   0.436   3.673   0.257 -0.7147 -0.5201  0.0244
  260TMC3    C3 3935   0.557   3.619   0.238 -0.5206 -0.1756  0.5821
  260TMC3    C4 3936   0.366   3.461   0.369  0.3368  0.1602 -0.1667
  260TMC3    C5 3937   0.495   3.419   0.346 -0.1989  0.5250 -0.3709
  260TMC3    C6 3938   0.589   3.495   0.288 -0.3335  0.0602  0.0882
  260TMC3     C 3939   0.243   3.661   0.405  0.4471 -0.1933 -0.5880
  260TMC3     O 3940   0.179   3.758   0.358 -0.7469  0.3117 -0.8739
  260TMC3     H 3941   0.410   3.777   0.239 -3.2590 -1.1507  0.0723
  260TMC3    H1 3942   0.284   3.394   0.394 -0.1761  1.1128  0.6936
  260TMC3    H2 3943   0.687   3.454   0.268 -1.0580 -2.5303  1.7215
  260TMC3    C7 3944   0.539   3.287   0.383 -0.8661 -0.2745 -0.2631
  260TMC3    C8 3945   0.662   3.713   0.219 -0.0934  0.6201  0.1294
  260TMC3    O1 3946   0.659   3.274   0.425  0.2134  0.3551  0.3077
  260TMC3    O2 3947   0.612   3.820   0.187 -0.1005 -0.2694  0.3420
  261MPD2     C 3948   1.627   2.548  12.449  0.4877 -0.0583 -0.0124
  261MPD2    C1 3949   1.728   2.490  12.375 -1.0102  0.6382  0.3263
  261MPD2    C2 3950   1.780   2.547  12.255  0.4364  1.1013 -0.2155
  261MPD2    C3 3951   1.727   2.667  12.214  0.8125  0.0858  0.1092
  261MPD2    C4 3952   1.619   2.728  12.284 -0.2237  0.1763  0.9015
  261MPD2    C5 3953   1.570   2.663  12.396  0.0850 -1.2958  0.5565
  261MPD2     H 3954   1.866   2.496  12.215 -1.0069  0.7031 -2.8006
  261MPD2    H1 3955   1.573   2.818  12.247  0.1588 -0.1168 -0.2956
  261MPD2    H2 3956   1.580   2.509  12.538  2.9244  0.7819  1.6274
  261MPD2    H3 3957   1.489   2.704  12.454 -0.2123 -0.8191 -0.2001
  261MPD2     N 3958   1.786   2.741  12.109 -0.6131  0.2372 -0.7920
  261MPD2    H5 3959   1.736   2.827  12.086 -2.7573 -0.7834  0.0748
  261MPD2    N1 3960   1.817   2.393  12.436  0.3859 -0.2367 -0.0557
  261MPD2    H7 3961   1.889   2.359  12.373  2.3056  2.3698  0.7510
  262TMC3    C1 3962   1.938   2.800  11.941  0.5179  0.3525 -0.5591
  262TMC3    C2 3963   1.946   2.927  11.994  0.2219  0.1137  0.0192
  262TMC3    C3 3964   1.980   3.031  11.914 -0.1734  0.4234  0.2828
  262TMC3    C4 3965   1.962   2.779  11.810 -0.0275  0.1769  0.1990
  262TMC3    C5 3966   1.989   2.885  11.726 -0.8261 -0.1221  0.4276
  262TMC3    C6 3967   1.991   3.012  11.780  0.6653  0.0847  0.7815
  262TMC3     C 3968   1.882   2.697  12.019  0.4595 -0.6802  0.0221
  262TMC3     O 3969   1.922   2.583  11.996  0.8234  0.5309  0.5025
  262TMC3     H 3970   1.926   2.941  12.100  1.2733  1.6083  0.0112
  262TMC3    H1 3971   1.962   2.676  11.777 -1.7843  0.6280 -1.1610
  262TMC3    H2 3972   2.022   3.095  11.718  0.5507  1.1207  2.0967
  262TMC3    C7 3973   2.005   2.865  11.581  0.1212  0.2896 -0.1660
  262TMC3    C8 3974   2.019   3.158  11.974 -0.2887 -0.0679  0.4803
  262TMC3    O1 3975   1.966   2.755  11.544 -0.0466  0.1237 -0.3294
  262TMC3    O2 3976   2.092   3.234  11.912  0.1080  0.1493 -0.1514
  263MPD2     C 3977   2.933   2.525  11.799  0.2698 -0.1024  0.1855
  263MPD2    C1 3978   3.056   2.472  11.777 -0.4808 -0.0204 -0.5144
  263MPD2    C2 3979   3.134   2.530  11.684  0.4067 -0.1261  0.3090
  263MPD2    C3 3980   3.083   2.631  11.598  0.4336 -0.8053 -0.1691
  263MPD2    C4 3981   2.958   2.686  11.627 -0.1436  0.6576 -0.2061
  263MPD2    C5 3982   2.889   2.642  11.734 -0.4925 -0.6797 -0.7280
  263MPD2     H 3983   3.233   2.492  11.661  0.9478  0.6197  1.4161
  263MPD2    H1 3984   2.918   2.771  11.574 -1.3884 -0.3685 -0.9132
  263MPD2    H2 3985   2.877   2.485  11.883  2.7550 -1.4120  1.2172
  263MPD2    H3 3986   2.791   2.676  11.762  1.2436  1.6076  2.4944
  263MPD2     N 3987   3.148   2.669  11.478 -0.0648  0.4816 -0.1165
  263MPD2    H5 3988   3.231   2.615  11.454 -1.3420 -1.7910  0.5743
  263MPD2    N1 3989   3.091   2.363  11.855 -0.4982 -0.3152 -0.2050
  263MPD2    H7 3990   3.017   2.305  11.893  0.2358 -1.3031 -0.2880
  264TMC3    C1 3991   3.205   2.775  11.275  0.8115  0.4414  0.0859
  264TMC3    C2 3992   3.148   2.833  11.166  0.2204  0.4479  0.0906
  264TMC3    C3 3993   3.213   2.825  11.045 -0.0650  0.0714  0.3620
  264TMC3    C4 3994   3.331   2.710  11.269  0.2517  0.7637  1.3328
  264TMC3    C5 3995   3.394   2.710  11.146  0.4518 -0.3528  0.3824
  264TMC3    C6 3996   3.336   2.763  11.029  0.2080 -0.3102 -0.3479
  264TMC3     C 3997   3.125   2.772  11.395  0.1396  0.3958 -0.3549
  264TMC3     O 3998   3.038   2.859  11.403  0.1359 -0.0639  0.5079
  264TMC3     H 3999   3.053   2.886  11.173 -0.2286 -0.3672  0.2013
  264TMC3    H1 4000   3.371   2.656  11.354  2.6007 -1.4812 -1.2246
  264TMC3    H2 4001   3.390   2.765  10.935 -0.5844  0.5426 -0.7866
  264TMC3    C7 4002   3.533   2.672  11.131 -0.6984 -0.1265  0.1426
  264TMC3    C8 4003   3.206   2.935  10.944  0.6320  0.4099  0.1273
  264TMC3    O1 4004   3.564   2.616  11.027  0.3413  0.3599 -0.5490
  264TMC3    O2 4005   3.279   2.933  10.845 -0.3639 -0.0062 -0.0660
  265MPD2     C 4006   0.685   2.189  15.774  0.7151 -0.1610  0.8789
  265MPD2    C1 4007   0.686   2.308  15.696  0.2394 -0.2081  0.5353
  265MPD2    C2 4008   0.754   2.295  15.573  0.0547  0.2788  0.0588
  265MPD2    C3 4009   0.812   2.180  15.525  0.3836  0.3861 -0.4478
  265MPD2    C4 4010   0.795   2.069  15.593 -0.2484  0.7397  0.5445
  265MPD2    C5 4011   0.736   2.073  15.719  0.1897 -0.5481 -0.3899
  265MPD2     H 4012   0.779   2.384  15.515  0.8797  1.0294  1.5373
  265MPD2    H1 4013   0.831   1.974  15.556 -1.2354 -0.2039  1.9726
  265MPD2    H2 4014   0.644   2.178  15.874  1.4776  2.9288  1.5338
  265MPD2    H3 4015   0.722   1.973  15.758  1.1364 -0.4680  0.1406
  265MPD2     N 4016   0.869   2.163  15.393 -0.1005 -0.6474  0.4931
  265MPD2    H5 4017   0.907   2.077  15.354  1.4661  0.8779 -1.3178
  265MPD2    N1 4018   0.633   2.430  15.749  0.3731 -0.0779 -0.2678
  265MPD2    H7 4019   0.641   2.506  15.683  0.7816  2.8714  3.1549
  266TMC3    C1 4020   0.568   2.593  15.913 -0.0932 -0.3725 -0.0550
  266TMC3    C2 4021   0.588   2.627  16.047  0.0127 -0.0140  0.1997
  266TMC3    C3 4022   0.571   2.755  16.080 -0.2117 -0.0439 -0.0803
  266TMC3    C4 4023   0.518   2.681  15.820 -0.5443 -0.6204  0.2099
  266TMC3    C5 4024   0.488   2.809  15.858 -0.2029 -0.6873  0.0594
  266TMC3    C6 4025   0.509   2.842  15.990  0.0447  0.8030  0.1034
  266TMC3     C 4026   0.596   2.454  15.881  0.9210 -0.3429  0.7609
  266TMC3     O 4027   0.618   2.380  15.976  0.2077  0.2241 -0.3691
  266TMC3     H 4028   0.636   2.557  16.115  1.2900  0.6738  0.0126
  266TMC3    H1 4029   0.508   2.659  15.714 -2.1801 -0.4738  0.3360
  266TMC3    H2 4030   0.479   2.938  16.028  0.7064  1.1843 -0.3316
  266TMC3    C7 4031   0.436   2.916  15.769 -0.5305  0.3250  0.3208
  266TMC3    C8 4032   0.655   2.805  16.192 -0.0720  1.0091 -0.0028
  266TMC3    O1 4033   0.408   3.023  15.824 -0.2195  0.1358 -0.7215
  266TMC3    O2 4034   0.758   2.742  16.208 -0.3812 -0.3783 -0.4298
  267MPD2     C 4035   2.811   4.256   0.141 -0.1578 -0.0599 -0.8997
  267MPD2    C1 4036   2.892   4.307   0.049 -0.2585 -0.8666 -0.3742
  267MPD2    C2 4037   2.846   4.326  17.622 -0.3756  0.5658  0.0707
  267MPD2    C3 4038   2.722   4.285  17.588  0.3731 -0.1157  0.3396
  267MPD2    C4 4039   2.643   4.237  17.685 -1.0677 -0.2169  0.1053
  267MPD2    C5 4040   2.686   4.221   0.108 -0.1213 -0.2032  0.2608
  267MPD2     H 4041   2.911   4.354  17.540  0.3540 -1.8781 -0.1870
  267MPD2    H1 4042   2.541   4.203  17.671 -1.8422  1.6510  1.1826
  267MPD2    H2 4043   2.841   4.234   0.243 -1.8381  0.8634 -0.2068
  267MPD2    H3 4044   2.629   4.174   0.188 -0.9481  1.6008  0.7446
  267MPD2     N 4045   2.669   4.272  17.455  0.2173  0.1191  0.1312
  267MPD2    H5 4046   2.577   4.230  17.452 -0.2319  1.0879  0.3996
  267MPD2    N1 4047   3.030   4.329   0.082  0.9736  0.0066 -0.2085
  267MPD2    H7 4048   3.046   4.299   0.177  0.0348 -0.4405 -0.1881
  268TMC3    C1 4049   3.258   4.332   0.061 -0.1455  0.4080 -1.0187
  268TMC3    C2 4050   3.368   4.401   0.030  0.4558  0.1070 -0.9061
  268TMC3    C3 4051   3.493   4.337   0.033  0.2014  0.5967  0.1863
  268TMC3    C4 4052   3.258   4.202   0.109 -0.1137 -0.2560 -0.1349
  268TMC3    C5 4053   3.381   4.139   0.106  0.3260 -0.0658  0.3455
  268TMC3    C6 4054   3.497   4.207   0.072 -0.3404 -0.0002 -0.5113
  268TMC3     C 4055   3.128   4.384   0.008  1.0138  0.7911 -0.7119
  268TMC3     O 4056   3.131   4.461  17.613 -0.0374 -0.4556  0.3968
  268TMC3     H 4057   3.367   4.509   0.022  0.4341  0.2332  0.6232
  268TMC3    H1 4058   3.172   4.137   0.122 -1.6550  1.5451 -1.2423
  268TMC3    H2 4059   3.591   4.153   0.061 -0.9247 -0.7725 -1.7654
  268TMC3    C7 4060   3.378   4.001   0.152 -0.1009 -0.1409  0.6485
  268TMC3    C8 4061   3.617   4.387  17.667 -0.5129 -0.5146  0.0189
  268TMC3    O1 4062   3.287   3.960   0.226  0.7977  0.2123  0.4961
  268TMC3    O2 4063   3.721   4.345   0.013  0.3108  0.3612  0.1767
  269MPD2     C 4064   3.290   3.096  15.630 -0.5170 -0.0134  0.1222
  269MPD2    C1 4065   3.215   3.155  15.730  0.1188  0.5061 -0.0168
  269MPD2    C2 4066   3.220   3.292  15.745 -0.1831 -0.1445 -0.0613
  269MPD2    C3 4067   3.294   3.381  15.668 -0.4633 -0.2604  0.0056
  269MPD2    C4 4068   3.365   3.323  15.571  0.1908 -0.3457 -0.8417
  269MPD2    C5 4069   3.360   3.188  15.550  0.8905  0.7645  0.0398
  269MPD2     H 4070   3.166   3.332  15.830  0.9458  0.2007  0.4905
  269MPD2    H1 4071   3.422   3.379  15.498 -1.5557 -0.9220 -2.6512
  269MPD2    H2 4072   3.295   2.992  15.602 -0.3004 -0.0414  0.2657
  269MPD2    H3 4073   3.424   3.153  15.470  2.2057 -0.5632  1.6775
  269MPD2     N 4074   3.290   3.516  15.687  0.1469 -0.0675  0.1997
  269MPD2    H5 4075   3.224   3.541  15.761  0.0794 -1.9706  0.8038
  269MPD2    N1 4076   3.132   3.078  15.805  0.3604  0.3952  0.0895
  269MPD2    H7 4077   3.145   2.978  15.795 -0.6732  0.2252  0.4593
  270TMC3    C1 4078   2.938   3.011  15.931 -0.4273  0.2619  0.0568
  270TMC3    C2 4079   2.801   3.011  15.912  0.3708  0.6110 -0.3882
  270TMC3    C3 4080   2.736   2.896  15.897 -0.2500 -0.6453  0.5104
  270TMC3    C4 4081   2.999   2.891  15.946  0.2368  0.0797 -0.4089
  270TMC3    C5 4082   2.924   2.774  15.931 -0.6700  0.0233 -0.6647
  270TMC3    C6 4083   2.794   2.772  15.899  0.0986 -0.4264 -0.0753
  270TMC3     C 4084   3.013   3.118  15.859  0.1590 -0.4452  0.4435
  270TMC3     O 4085   2.970   3.233  15.847 -0.0728  0.0821 -0.4340
  270TMC3     H 4086   2.746   3.103  15.897  1.4538  1.4574  0.8857
  270TMC3    H1 4087   3.100   2.877  15.981  0.0810 -0.2708 -0.0904
  270TMC3    H2 4088   2.732   2.683  15.904 -1.1396  0.3989 -0.9744
  270TMC3    C7 4089   2.992   2.641  15.962 -0.1747  0.4708  0.3633
  270TMC3    C8 4090   2.620   2.912  15.800 -0.5815 -0.3633  0.3675
  270TMC3    O1 4091   3.113   2.639  15.949 -0.0731 -0.0130 -0.0807
  270TMC3    O2 4092   2.529   2.983  15.830 -0.2569  0.0292 -0.1087
  271MPD2     C 4093   2.007   2.763  14.126 -0.4269  0.6611 -0.0347
  271MPD2    C1 4094   1.951   2.748  14.250  0.3182 -0.9617  0.4047
  271MPD2    C2 4095   1.828   2.814  14.269 -0.5605 -0.3728 -0.2615
  271MPD2    C3 4096   1.761   2.878  14.162  0.4319  0.1335 -0.1011
  271MPD2    C4 4097   1.821   2.879  14.039 -0.1933  0.2415  0.2476
  271MPD2    C5 4098   1.944   2.831  14.020 -0.4867  0.4361  0.3377
  271MPD2     H 4099   1.778   2.809  14.365 -0.6498  0.3440 -0.2715
  271MPD2    H1 4100   1.757   2.917  13.961 -0.5774 -1.3244 -0.2031
  271MPD2    H2 4101   2.101   2.714  14.102 -0.3854  0.3246  0.8082
  271MPD2    H3 4102   1.978   2.821  13.918  0.4116 -1.9997  0.8746
  271MPD2     N 4103   1.641   2.940  14.178 -0.3790 -0.1200  0.0846
  271MPD2    H5 4104   1.604   2.984  14.095  0.5825  1.4886  0.5193
  271MPD2    N1 4105   2.015   2.684  14.363  0.0663 -0.1675  0.0211
  271MPD2    H7 4106   1.962   2.695  14.449  0.5191  1.3138  0.1232
  272TMC3    C1 4107   2.192   2.592  14.474  0.0651 -0.2189  0.4880
  272TMC3    C2 4108   2.301   2.509  14.466 -0.0034 -0.0772  0.1846
  272TMC3    C3 4109   2.382   2.507  14.581  0.1671 -0.2515 -0.1379
  272TMC3    C4 4110   2.168   2.675  14.582  0.6550 -0.1947  0.5140
  272TMC3    C5 4111   2.261   2.670  14.682 -0.2264  0.6981 -0.3621
  272TMC3    C6 4112   2.365   2.586  14.690  0.2680  0.1510 -0.6455
  272TMC3     C 4113   2.133   2.618  14.354 -0.1482  0.7947 -0.0987
  272TMC3     O 4114   2.199   2.585  14.257 -0.0510  0.0784 -0.1021
  272TMC3     H 4115   2.320   2.445  14.382 -2.1025 -0.0270 -0.3359
  272TMC3    H1 4116   2.085   2.743  14.596 -0.5472 -1.3980 -0.7391
  272TMC3    H2 4117   2.436   2.586  14.772 -0.0739  0.5241 -0.3491
  272TMC3    C7 4118   2.222   2.733  14.798 -0.7810  0.2707  0.5295
  272TMC3    C8 4119   2.507   2.432  14.572 -0.2340  0.7772 -0.2286
  272TMC3    O1 4120   2.107   2.716  14.837  0.3771  0.4564 -0.4608
  272TMC3    O2 4121   2.550   2.404  14.465  0.7239  0.3066  0.7261
  273MPD2     C 4122   3.495   0.896  11.989  0.6607 -0.0681  0.0554
  273MPD2    C1 4123   3.593   0.989  11.979  0.0801  0.0490 -0.2951
  273MPD2    C2 4124   3.638   1.033  11.850  0.1156  0.6312 -0.0909
  273MPD2    C3 4125   3.581   0.975  11.736  0.2891 -0.4699  0.0594
  273MPD2    C4 4126   3.478   0.884  11.749 -0.2876  0.7282  0.4057
  273MPD2    C5 4127   3.430   0.854  11.877  0.0758  0.1840  0.4070
  273MPD2     H 4128   3.723   1.097  11.831 -0.1703  0.6508 -1.3071
  273MPD2    H1 4129   3.441   0.832  11.661 -1.2504  2.0287  0.0403
  273MPD2    H2 4130   3.460   0.844  12.077  0.4458  0.5048  0.3094
  273MPD2    H3 4131   3.344   0.788  11.882  1.8203 -2.2731 -2.3610
  273MPD2     N 4132   3.621   1.016  11.610  0.5229  0.9473  0.7104
  273MPD2    H5 4133   3.543   1.003  11.547 -0.7793 -0.6788  2.6874
  273MPD2    N1 4134   3.651   1.044  12.090  0.1173  0.5988 -0.3339
  273MPD2    H7 4135   3.625   1.005  12.180 -2.5079 -0.1423 -1.4301
  274TMC3    C1 4136   3.721   1.181  11.472 -0.3513  0.7833  0.2797
  274TMC3    C2 4137   3.636   1.140  11.371  0.8055 -0.0027  0.4963
  274TMC3    C3 4138   3.602   1.237  11.283  0.0396 -0.3512 -0.7607
  274TMC3    C4 4139   3.767   1.315  11.489 -0.0654  0.7372 -0.5098
  274TMC3    C5 4140   3.708   1.407  11.408  0.3834 -0.2906 -0.6732
  274TMC3    C6 4141   3.626   1.369  11.304 -0.1578  0.0708  0.3137
  274TMC3     C 4142   3.733   1.099  11.588  0.3796  0.0261  0.3865
  274TMC3     O 4143   3.833   1.129  11.650  0.2093  0.1486  0.4431
  274TMC3     H 4144   3.606   1.036  11.358 -1.0868  0.7426 -1.0622
  274TMC3    H1 4145   3.816   1.350  11.579 -0.9785 -0.6035  0.5076
  274TMC3    H2 4146   3.567   1.445  11.254 -0.1941 -0.2981 -0.2136
  274TMC3    C7 4147   3.655   1.516  11.488  0.2193 -0.5066 -0.4881
  274TMC3    C8 4148   3.497   1.205  11.186  0.2672  0.5665  0.5055
  274TMC3    O1 4149   3.536   1.535  11.489  0.1898 -0.4869 -0.2486
  274TMC3    O2 4150   3.421   1.115  11.216  0.2162 -0.2395 -0.1234
  275MPD2     C 4151   3.858   3.399  14.514  0.2051  0.4152  0.1659
  275MPD2    C1 4152   3.791   3.378  14.629 -1.2807 -0.5521 -0.0893
  275MPD2    C2 4153   3.660   3.415  14.629  0.3218  0.0869 -0.3636
  275MPD2    C3 4154   3.590   3.463  14.519 -0.4911 -0.4714  0.5994
  275MPD2    C4 4155   3.663   3.476  14.405  0.4114 -0.8377  0.0450
  275MPD2    C5 4156   3.793   3.436  14.400  0.1827  0.3971  0.3179
  275MPD2     H 4157   3.599   3.397  14.717  1.6730 -1.1084  0.3275
  275MPD2    H1 4158   3.619   3.516  14.315 -2.0907 -1.0867  1.1338
  275MPD2    H2 4159   3.956   3.356  14.502 -0.4152 -1.2937  1.2468
  275MPD2    H3 4160   3.846   3.444  14.306 -0.3064  1.1068  0.1052
  275MPD2     N 4161   3.454   3.501  14.524 -0.4900  0.0004 -0.6270
  275MPD2    H5 4162   3.402   3.520  14.440  1.1946 -3.3524 -2.4235
  275MPD2    N1 4163   3.845   3.326  14.753 -0.0186 -0.3958 -0.4909
  275MPD2    H7 4164   3.782   3.325  14.833 -0.3422 -0.2863 -0.7468
  276TMC3    C1 4165   3.983   3.256  14.915  0.1556  0.2934 -0.6039
  276TMC3    C2 4166   3.880   3.189  14.965  0.0408 -0.7883  0.4310
  276TMC3    C3 4167   3.870   3.201  15.099  0.2124 -0.4507  0.1497
  276TMC3    C4 4168   4.067   3.341  14.976 -0.1890 -0.3444  1.0260
  276TMC3    C5 4169   4.046   3.352  15.110  0.4226  0.3824 -0.2406
  276TMC3    C6 4170   3.945   3.283  15.173 -0.4111  0.3095 -0.2969
  276TMC3     C 4171   3.969   3.291  14.776  0.1890 -0.3745  0.3135
  276TMC3     O 4172   4.066   3.320  14.711  0.3676 -0.1313 -0.1224
  276TMC3     H 4173   3.828   3.113  14.908 -0.6812  0.8337 -1.0692
  276TMC3    H1 4174   4.137   3.400  14.918  0.5315 -1.3356  0.8754
  276TMC3    H2 4175   3.937   3.291  15.281  1.0290  0.4669 -0.2001
  276TMC3    C7 4176   4.128   3.432  15.193  0.1322  0.2285 -0.6050
  276TMC3    C8 4177   3.749   3.154  15.157 -0.2204 -0.0676 -0.0774
  276TMC3    O1 4178   4.102   3.448  15.313  0.2795 -0.2118 -0.2128
  276TMC3    O2 4179   3.721   3.205  15.263  0.4566  0.4048  0.4944
  277MPD2     C 4180   0.977   2.744  13.746  0.9274  0.1220 -0.4698
  277MPD2    C1 4181   0.868   2.744  13.659 -0.1539 -0.0904 -0.1766
  277MPD2    C2 4182   0.749   2.688  13.698 -0.7301 -0.1507  0.0791
  277MPD2    C3 4183   0.744   2.621  13.818 -0.5389 -0.3692 -0.2982
  277MPD2    C4 4184   0.856   2.617  13.904 -0.7907 -0.3428  0.8483
  277MPD2    C5 4185   0.970   2.689  13.872  0.1225 -0.4659 -0.1720
  277MPD2     H 4186   0.662   2.688  13.633  0.7261 -0.3439 -1.8694
  277MPD2    H1 4187   0.859   2.562  13.996 -2.7852 -0.0540  1.0858
  277MPD2    H2 4188   1.072   2.776  13.705  1.4936  0.2971  0.9868
  277MPD2    H3 4189   1.059   2.675  13.932  0.6289 -1.9762 -1.2797
  277MPD2     N 4190   0.623   2.570  13.851  0.0354  0.0984  0.0396
  277MPD2    H5 4191   0.544   2.607  13.799 -0.2491  0.7173  0.9068
  277MPD2    N1 4192   0.877   2.814  13.540  0.8179 -0.3165  0.9993
  277MPD2    H7 4193   0.952   2.878  13.517  0.3731  0.3930  1.5188
  278TMC3    C1 4194   0.462   2.456  13.979  0.6215  0.2556 -0.6728
  278TMC3    C2 4195   0.426   2.331  14.035  0.1466 -0.1666 -0.1061
  278TMC3    C3 4196   0.291   2.314  14.049 -0.1317  0.3391 -0.9923
  278TMC3    C4 4197   0.377   2.556  13.950 -0.1517 -0.1097 -0.2539
  278TMC3    C5 4198   0.245   2.530  13.963  0.6626 -0.5557  0.3393
  278TMC3    C6 4199   0.197   2.411  14.014 -0.9697  0.0142 -0.1865
  278TMC3     C 4200   0.605   2.477  13.951 -0.7906 -0.3654 -0.1469
  278TMC3     O 4201   0.684   2.391  13.996 -0.4237  0.2401 -0.6647
  278TMC3     H 4202   0.491   2.244  14.037  1.0094  0.4678 -0.6339
  278TMC3    H1 4203   0.411   2.655  13.919 -0.6116  0.1813  0.1685
  278TMC3    H2 4204   0.091   2.391  14.022 -1.0712  0.7092  0.1362
  278TMC3    C7 4205   0.159   2.638  13.913 -0.5412 -0.0166  0.0063
  278TMC3    C8 4206   0.245   2.174  14.073  0.5000 -0.1059  0.0241
  278TMC3    O1 4207   0.219   2.737  13.873  0.3285  0.4779  0.1818
  278TMC3    O2 4208   0.329   2.104  14.127  0.2708 -0.1133 -0.2191
  279MPD2     C 4209   0.267   2.116  17.699 -0.3849  0.2669 -0.0231
  279MPD2    C1 4210   0.241   2.219  17.617 -0.0958 -0.2959  0.0960
  279MPD2    C2 4211   0.296   2.229  17.492 -0.2519 -0.5704  0.1643
  279MPD2    C3 4212   0.404   2.144  17.459 -0.1602  0.0598 -0.6473
  279MPD2    C4 4213   0.440   2.042  17.552  0.9615 -0.5911  0.3208
  279MPD2    C5 4214   0.358   2.022  17.665  0.2134 -0.0051 -0.3751
  279MPD2     H 4215   0.267   2.297  17.413 -2.4385 -1.6797  0.0252
  279MPD2    H1 4216   0.513   1.967  17.525  1.4587 -0.2717  0.7830
  279MPD2    H2 4217   0.221   2.102   0.096  0.4515 -0.1328  0.3237
  279MPD2    H3 4218   0.372   1.927   0.016  0.8622  0.5537  0.4738
  279MPD2     N 4219   0.455   2.154  17.331  0.5130  0.3228  0.1354
  279MPD2    H5 4220   0.434   2.239  17.280  1.9221 -0.4939 -1.8106
  279MPD2    N1 4221   0.135   2.310  17.664  0.7626  0.1522  0.1393
  279MPD2    H7 4222   0.084   2.292   0.050 -0.5573 -1.3972 -0.9539
  280TMC3    C1 4223   4.691   2.473  17.673  0.1245  0.5551 -0.1175
  280TMC3    C2 4224   4.587   2.384  17.688  0.3103  0.1773  0.2248
  280TMC3    C3 4225   4.457   2.428  17.682 -0.5949  0.4477  0.7633
  280TMC3    C4 4226   4.657   2.599  17.635  0.5875 -0.7382  0.7945
  280TMC3    C5 4227   4.526   2.642  17.633  0.4484 -0.0112 -0.6322
  280TMC3    C6 4228   4.420   2.561  17.665  0.3196 -0.7725  0.4897
  280TMC3     C 4229   0.082   2.424  17.610  0.1829 -0.1889  0.0933
  280TMC3     O 4230   0.112   2.479  17.502  0.1426 -0.1086  0.2380
  280TMC3     H 4231   4.616   2.280   0.001 -0.7794 -0.2219 -0.5256
  280TMC3    H1 4232   0.013   2.668  17.613 -0.6152  0.0768 -1.0779
  280TMC3    H2 4233   4.316   2.585  17.680 -0.0543 -3.1046  1.5607
  280TMC3    C7 4234   4.497   2.768  17.578  0.1504  0.0905 -0.0144
  280TMC3    C8 4235   4.346   2.336  17.691  0.2338 -0.2435  0.3824
  280TMC3    O1 4236   4.596   2.842  17.575  0.2278  0.8013  0.4769
  280TMC3    O2 4237   4.233   2.369   0.015  0.2500 -0.6948  0.2564
  281TMC3    C1 4238   3.023   3.141  13.700 -0.6042  0.0854 -0.1909
  281TMC3    C2 4239   3.034   3.264  13.649  0.1213  0.0263 -0.3340
  281TMC3    C3 4240   3.130   3.299  13.566  0.3215 -0.3051 -0.3250
  281TMC3    C4 4241   3.108   3.041  13.664 -0.5716 -0.1459  0.2384
  281TMC3    C5 4242   3.199   3.076  13.572 -0.2692  1.1132 -0.2576
  281TMC3    C6 4243   3.222   3.204  13.536  0.1661  0.6915 -0.0151
  281TMC3     C 4244   2.891   3.095  13.745  0.9485  0.5080 -0.0011
  281TMC3     O 4245   2.866   2.979  13.783  0.4257 -0.1208  0.1326
  281TMC3     H 4246   2.984   3.351  13.691 -0.3224 -0.5244  0.2884
  281TMC3    H1 4247   3.095   2.936  13.686 -0.6084 -0.4591 -1.2989
  281TMC3    H2 4248   3.287   3.219  13.450 -1.6348 -3.5059 -2.0929
  281TMC3    C7 4249   3.304   2.983  13.527 -0.8098  0.0082 -0.0059
  281TMC3    C8 4250   3.074   3.376  13.460 -0.0310  0.1647 -0.2575
  281TMC3    O1 4251   3.420   3.017  13.520 -0.2534  0.0254 -0.9740
  281TMC3    O2 4252   3.131   3.475  13.414 -0.1130 -0.0563  0.7290
  282MPD2     C 4253   0.619   4.370  15.517 -0.3943 -0.0583 -0.8169
  282MPD2    C1 4254   0.486   4.354  15.556 -0.0857  0.6383 -0.7154
  282MPD2    C2 4255   0.390   4.362  15.463  0.0416 -0.1701  0.0267
  282MPD2    C3 4256   0.422   4.390  15.332 -0.8263  0.7250 -0.6768
  282MPD2    C4 4257   0.558   4.393  15.288 -0.8360 -0.4430  0.2649
  282MPD2    C5 4258   0.652   4.393  15.385  0.8025 -0.1124 -0.0628
  282MPD2     H 4259   0.285   4.352  15.489 -0.8361  1.9347 -2.6702
  282MPD2    H1 4260   0.586   4.404  15.184 -2.0505  2.7301  0.2710
  282MPD2    H2 4261   0.694   4.363  15.595 -1.5814 -1.7978  0.1702
  282MPD2    H3 4262   0.756   4.402  15.354  0.3473  1.9031 -0.9763
  282MPD2     N 4263   0.313   4.402  15.247 -0.0388 -0.2884  0.0447
  282MPD2    H5 4264   0.217   4.394  15.281  0.0376 -1.0765  0.0764
  282MPD2    N1 4265   0.468   4.324  15.685 -0.7509  0.2874  0.4565
  282MPD2    H7 4266   0.539   4.322  15.758 -1.3485 -2.1353  0.9881
  283TMC3    C1 4267   0.344   4.264  15.884  0.0633  0.1525  0.1225
  283TMC3    C2 4268   0.382   4.383  15.954 -0.0904  0.0781 -0.3173
  283TMC3    C3 4269   0.345   4.406  16.083  0.9685 -0.0977  0.6514
  283TMC3    C4 4270   0.268   4.168  15.949 -0.3895 -0.3093 -0.1214
  283TMC3    C5 4271   0.229   4.192  16.078  0.2804 -0.2607 -0.2741
  283TMC3    C6 4272   0.258   4.311  16.138 -0.9601 -0.1089  0.6469
  283TMC3     C 4273   0.348   4.275  15.738  0.3768 -0.1884 -0.3626
  283TMC3     O 4274   0.242   4.237  15.684  0.0332  0.9623  0.0640
  283TMC3     H 4275   0.425   4.464  15.896 -0.0073 -0.7617 -1.4243
  283TMC3    H1 4276   0.220   4.090  15.891  0.5795 -1.0270  0.0477
  283TMC3    H2 4277   0.219   4.337  16.236  1.9818  1.5608  1.3635
  283TMC3    C7 4278   0.132   4.100  16.148  0.2464  0.1715 -0.2766
  283TMC3    C8 4279   0.345   4.546  16.152  0.1846 -0.1399 -0.5358
  283TMC3    O1 4280   0.063   4.141  16.241 -0.3442  0.2762  0.7990
  283TMC3    O2 4281   0.291   4.551  16.263 -0.1793 -0.2437 -0.2494
  284MPD2     C 4282   3.193   3.807  11.993 -0.5483  0.5287  0.1506
  284MPD2    C1 4283   3.290   3.725  11.938 -0.5887 -0.5148  0.2569
  284MPD2    C2 4284   3.257   3.594  11.908 -0.5485 -0.2600 -0.2795
  284MPD2    C3 4285   3.130   3.544  11.932 -0.4293 -0.4364 -0.1412
  284MPD2    C4 4286   3.035   3.630  11.986  0.4776  0.3708 -0.6853
  284MPD2    C5 4287   3.069   3.757  12.015 -0.0000  0.5913  0.3906
  284MPD2     H 4288   3.331   3.529  11.864 -2.3476 -2.3336 -0.2166
  284MPD2    H1 4289   2.932   3.600  12.000  0.8175  0.3964  1.8872
  284MPD2    H2 4290   3.202   3.913  12.013 -2.2085  0.9487 -1.3554
  284MPD2    H3 4291   2.991   3.822  12.052 -2.9478 -1.9822 -1.3109
  284MPD2     N 4292   3.096   3.411  11.902  0.6876 -0.0466  0.7766
  284MPD2    H5 4293   3.011   3.370  11.940 -0.2930  0.7782 -0.5421
  284MPD2    N1 4294   3.422   3.757  11.911 -0.1723  0.1746  0.3558
  284MPD2    H7 4295   3.483   3.679  11.890  0.5520  0.3296  1.8428
  285TMC3    C1 4296   3.633   3.872  11.910  0.0764 -0.0597  0.7625
  285TMC3    C2 4297   3.679   3.787  11.817 -0.0034 -0.3805 -0.5041
  285TMC3    C3 4298   3.807   3.795  11.786  0.5257  0.2037 -0.9233
  285TMC3    C4 4299   3.699   3.977  11.958  0.5712  0.2376  0.2941
  285TMC3    C5 4300   3.831   3.973  11.937  0.4626 -0.1656  0.3941
  285TMC3    C6 4301   3.889   3.884  11.855 -0.0494  0.2507 -0.7471
  285TMC3     C 4302   3.490   3.877  11.933 -0.2079  0.5698  0.1000
  285TMC3     O 4303   3.443   3.977  11.989 -0.5505 -0.2511  0.2665
  285TMC3     H 4304   3.623   3.703  11.777 -3.3957  2.0872 -0.9337
  285TMC3    H1 4305   3.655   4.053  12.021 -1.0835  0.3393 -0.9745
  285TMC3    H2 4306   3.997   3.887  11.851 -0.1361  0.6647 -2.6755
  285TMC3    C7 4307   3.912   4.071  12.010  0.1133  0.2866 -0.0158
  285TMC3    C8 4308   3.850   3.706  11.676 -0.1935  0.4062  0.3805
  285TMC3    O1 4309   4.020   4.048  12.058  0.0863  0.1718  0.2847
  285TMC3    O2 4310   3.771   3.630  11.624  0.6748  0.3220  0.5497
  286MPD2     C 4311   3.689   2.328   1.658 -0.0927  0.4066 -0.9694
  286MPD2    C1 4312   3.704   2.271   1.530 -0.5611 -0.0643 -0.1157
  286MPD2    C2 4313   3.828   2.230   1.483 -0.4088  0.4392 -0.9780
  286MPD2    C3 4314   3.933   2.219   1.568 -0.4312 -0.8506  0.0448
  286MPD2    C4 4315   3.923   2.278   1.691  0.6853  0.7123  0.1420
  286MPD2    C5 4316   3.805   2.335   1.732 -1.3282 -0.3124 -0.0089
  286MPD2     H 4317   3.828   2.185   1.385 -0.9321  1.8647 -1.6194
  286MPD2    H1 4318   4.012   2.273   1.753  0.5966  0.7214  0.2699
  286MPD2    H2 4319   3.604   2.378   1.704 -0.2468 -2.7924  2.2458
  286MPD2    H3 4320   3.806   2.386   1.827  2.2728  0.5172 -0.4935
  286MPD2     N 4321   4.049   2.145   1.534 -0.7469  0.1994 -0.0810
  286MPD2    H5 4322   4.122   2.147   1.604 -1.6130 -0.7120  0.8469
  286MPD2    N1 4323   3.596   2.269   1.438 -0.4546  0.6660  0.8314
  286MPD2    H7 4324   3.620   2.222   1.351  2.2968  0.3996  1.7253
  287TMC3    C1 4325   4.212   2.024   1.395 -0.3339  0.3740  0.0196
  287TMC3    C2 4326   4.227   1.939   1.283  0.6879 -0.0997  0.1393
  287TMC3    C3 4327   4.347   1.954   1.220  0.0634 -0.2385  0.4610
  287TMC3    C4 4328   4.314   2.104   1.450  0.3139  0.0785  0.4362
  287TMC3    C5 4329   4.425   2.109   1.376  0.2475  0.0346  0.9783
  287TMC3    C6 4330   4.439   2.044   1.260  0.0771 -0.2969 -0.0891
  287TMC3     C 4331   4.076   2.068   1.425  0.2091 -1.0108 -0.1730
  287TMC3     O 4332   3.999   2.027   1.335  0.3023 -0.1474 -0.1355
  287TMC3     H 4333   4.141   1.889   1.239  0.9916  0.0033 -0.5713
  287TMC3    H1 4334   4.304   2.157   1.544  0.6934  0.9554 -0.0160
  287TMC3    H2 4335   4.529   2.048   1.200  0.2205  0.4322  0.1807
  287TMC3    C7 4336   4.528   2.208   1.426  1.2973 -0.1192  0.1426
  287TMC3    C8 4337   4.361   1.864   1.111  1.0225 -0.2211 -0.4341
  287TMC3    O1 4338   4.487   2.291   1.512 -0.4937  0.8852  0.5212
  287TMC3    O2 4339   4.287   1.768   1.126 -0.8600  0.1071 -0.3616
  288TMC3    C1 4340   0.269   1.842  14.921 -0.4937 -0.8458  0.4297
  288TMC3    C2 4341   0.241   1.793  15.044 -0.4371 -0.1550  0.0149
  288TMC3    C3 4342   0.276   1.864  15.153 -0.1923 -0.0002 -0.1779
  288TMC3    C4 4343   0.349   1.957  14.906 -0.2070  0.2949 -0.0586
  288TMC3    C5 4344   0.394   2.013  15.020 -0.5372 -0.8647  0.3608
  288TMC3    C6 4345   0.372   1.961  15.144  0.2868  0.7705 -0.3423
  288TMC3     C 4346   0.202   1.779  14.807 -0.1568 -0.5114 -0.4002
  288TMC3     O 4347   0.145   1.671  14.827 -0.4537  0.0623  0.2751
  288TMC3     H 4348   0.201   1.693  15.038 -0.0566 -0.3026 -0.1132
  288TMC3    H1 4349   0.392   1.980  14.809  0.5087 -1.1028 -0.0719
  288TMC3    H2 4350   0.415   2.006  15.233  0.8461 -1.5925  0.5732
  288TMC3    C7 4351   0.505   2.110  15.018 -0.4195  0.1754  0.0960
  288TMC3    C8 4352   0.230   1.817  15.284 -0.6368 -0.0350 -0.3186
  288TMC3    O1 4353   0.569   2.128  15.123  0.3202  0.8104 -0.6857
  288TMC3    O2 4354   0.262   1.890  15.375 -0.8016  0.1328 -0.3427
  289MPD2     C 4355   0.439   1.651  14.401  0.9872 -0.3859  0.0211
  289MPD2    C1 4356   0.399   1.634  14.269  0.5911 -0.5575  0.1620
  289MPD2    C2 4357   0.282   1.559  14.246  0.3145 -0.1952 -0.1123
  289MPD2    C3 4358   0.198   1.513  14.346 -0.4771  0.5309 -0.1391
  289MPD2    C4 4359   0.241   1.539  14.474 -0.3270 -0.4863 -0.2796
  289MPD2    C5 4360   0.358   1.603  14.502  0.0341 -0.2712 -0.3686
  289MPD2     H 4361   0.256   1.531  14.145 -0.4401 -1.1815  0.3654
  289MPD2    H1 4362   0.195   1.490  14.558 -1.4705  0.8913 -0.0954
  289MPD2    H2 4363   0.526   1.714  14.417  0.6132  0.3485 -0.8359
  289MPD2    H3 4364   0.385   1.624  14.605  1.2511  0.1979 -0.7885
  289MPD2     N 4365   0.088   1.424  14.333 -0.3229  0.8771  0.2271
  289MPD2    H5 4366   0.045   1.399  14.421  0.8506  0.9819  0.8242
  289MPD2    N1 4367   0.468   1.712  14.169 -0.2122  0.2249  0.4515
  289MPD2    H7 4368   0.537   1.779  14.202  0.4446 -0.1675 -0.1207
  290TMC3    C1 4369   4.607   1.360  14.237 -0.0249  0.2458 -0.0501
  290TMC3    C2 4370   4.507   1.431  14.176 -0.4734 -0.3777 -0.1425
  290TMC3    C3 4371   4.397   1.446  14.247  0.2152  0.3289 -0.5997
  290TMC3    C4 4372   4.592   1.286  14.351 -0.8203  0.0012 -0.5184
  290TMC3    C5 4373   4.472   1.307  14.414 -0.4790  1.0785 -0.2211
  290TMC3    C6 4374   4.375   1.385  14.366 -0.7737  0.2180  0.4575
  290TMC3     C 4375   0.019   1.411  14.223  0.2907 -0.5884 -0.1817
  290TMC3     O 4376   0.051   1.457  14.115 -0.5823 -0.0201 -0.6395
  290TMC3     H 4377   4.538   1.508  14.108  1.3762 -2.2142 -1.3775
  290TMC3    H1 4378   4.672   1.233  14.401 -2.2744 -1.6004  0.1414
  290TMC3    H2 4379   4.285   1.406  14.423 -1.3168  1.3483 -0.8099
  290TMC3    C7 4380   4.479   1.284  14.549  0.8982  0.1127  0.4643
  290TMC3    C8 4381   4.346   1.583  14.243 -0.3869 -0.3055 -0.3888
  290TMC3    O1 4382   4.458   1.381  14.622 -0.1797 -0.0277 -0.3893
  290TMC3    O2 4383   4.317   1.627  14.353 -0.2988 -0.2760 -0.0683
  291MPD2     C 4384   0.008   1.331   0.441  0.2365  0.0845 -0.0962
  291MPD2    C1 4385   0.020   1.199   0.405  0.2218 -0.1452  0.2325
  291MPD2    C2 4386   0.078   1.169   0.283  0.1879  0.3416  0.5891
  291MPD2    C3 4387   0.129   1.269   0.206  0.2075 -0.4107  0.6128
  291MPD2    C4 4388   0.122   1.396   0.242 -0.1646  1.2411  0.1879
  291MPD2    C5 4389   0.052   1.427   0.357 -0.3444  0.6964 -0.0332
  291MPD2     H 4390   0.080   1.065   0.253 -2.9346 -0.2369  2.4772
  291MPD2    H1 4391   0.159   1.479   0.183  1.1466  0.5669  0.0532
  291MPD2    H2 4392   4.668   1.363   0.522  0.9456 -1.8140  1.2244
  291MPD2    H3 4393   0.047   1.529   0.394  3.1091  1.1516 -0.7696
  291MPD2     N 4394   0.188   1.243   0.081  0.3070 -0.2837  0.6081
  291MPD2    H5 4395   0.228   1.325   0.037  0.6623 -0.9425 -0.3107
  291MPD2    N1 4396   4.692   1.096   0.482  0.6146 -0.5932  0.7436
  291MPD2    H7 4397   4.707   1.003   0.444 -0.2135 -0.0433 -0.9445
  292TMC3    C1 4398   4.553   0.972   0.629 -0.2006  0.3666  0.3847
  292TMC3    C2 4399   4.416   0.977   0.643 -0.3542  0.2373  0.9769
  292TMC3    C3 4400   4.350   0.855   0.667 -0.2124  0.1095 -0.3804
  292TMC3    C4 4401   4.628   0.859   0.640 -0.7993 -0.0246 -0.0382
  292TMC3    C5 4402   4.556   0.746   0.668 -0.1577  0.5938  0.3525
  292TMC3    C6 4403   4.422   0.741   0.687 -0.3882 -0.4995 -0.4664
  292TMC3     C 4404   4.612   1.105   0.595  0.4004  0.0762  0.1799
  292TMC3     O 4405   4.561   1.207   0.641  0.9650  0.7491 -0.3022
  292TMC3     H 4406   4.356   1.065   0.623 -0.0148  0.7749  2.3521
  292TMC3    H1 4407   0.011   0.860   0.625 -0.7365  0.6100  0.4201
  292TMC3    H2 4408   4.371   0.649   0.711 -0.2698 -0.4413 -0.0021
  292TMC3    C7 4409   4.623   0.616   0.639 -0.4933 -0.6064  0.2848
  292TMC3    C8 4410   4.204   0.837   0.632  0.2220 -0.1087  0.2501
  292TMC3    O1 4411   4.700   0.613   0.544 -0.4004 -0.0685  0.0174
  292TMC3    O2 4412   4.137   0.932   0.669  0.2885 -0.4358  0.5042
  293MPD2     C 4413   1.335   2.676  12.720 -0.9727 -0.2207  0.2773
  293MPD2    C1 4414   1.292   2.590  12.816  0.6191  0.1608  0.1992
  293MPD2    C2 4415   1.331   2.611  12.949  0.5383  0.7040 -0.3321
  293MPD2    C3 4416   1.419   2.721  12.986  0.7932 -0.2967  0.2073
  293MPD2    C4 4417   1.465   2.796  12.876  0.5316 -0.5857  0.2300
  293MPD2    C5 4418   1.427   2.770  12.748  0.3356 -0.5932 -0.1212
  293MPD2     H 4419   1.295   2.548  13.030  0.6516  0.8357 -0.1792
  293MPD2    H1 4420   1.528   2.884  12.888  0.5799 -0.8320  1.6681
  293MPD2    H2 4421   1.310   2.654  12.617  0.4871  1.2936 -0.4034
  293MPD2    H3 4422   1.467   2.830  12.667 -0.2986 -1.2963 -0.9526
  293MPD2     N 4423   1.452   2.747  13.123  0.0169 -0.0267 -0.3393
  293MPD2    H5 4424   1.432   2.679  13.195  0.7031  0.7150  0.5499
  293MPD2    N1 4425   1.194   2.498  12.772  0.0435 -0.2979 -0.3318
  293MPD2    H7 4426   1.158   2.504  12.677 -1.0365  0.8526  0.1492
  294TMC3    C1 4427   1.058   2.310  12.755 -0.1806  0.7874 -0.0352
  294TMC3    C2 4428   0.941   2.255  12.799  0.2321 -0.5584  0.4166
  294TMC3    C3 4429   0.897   2.138  12.740  0.3866 -0.1067 -0.3677
  294TMC3    C4 4430   1.127   2.262  12.648 -0.2656  0.3299 -0.4477
  294TMC3    C5 4431   1.075   2.153  12.584 -0.4710 -0.0541 -0.0716
  294TMC3    C6 4432   0.963   2.084  12.631 -0.3607  0.1306 -0.1590
  294TMC3     C 4433   1.127   2.395  12.846  0.4651 -0.8970  0.4628
  294TMC3     O 4434   1.133   2.383  12.967 -0.6972 -0.0439  0.2015
  294TMC3     H 4435   0.887   2.305  12.879 -0.2286  1.4438 -1.1377
  294TMC3    H1 4436   1.232   2.282  12.626 -0.3595 -1.1075 -2.1674
  294TMC3    H2 4437   0.928   2.002  12.569 -1.0103  0.7219 -0.5644
  294TMC3    C7 4438   1.155   2.092  12.479  0.9889  0.0008 -0.4088
  294TMC3    C8 4439   0.765   2.088  12.782  0.6062 -0.2204 -0.1614
  294TMC3    O1 4440   1.141   1.975  12.449 -0.4078 -0.5095 -1.0079
  294TMC3    O2 4441   0.714   2.141  12.877 -0.0186 -0.1646  0.3900
  295MPD2     C 4442   2.278   0.547   0.575 -0.7586 -0.5136 -0.2939
  295MPD2    C1 4443   2.335   0.650   0.649 -0.7619 -0.2930 -0.2621
  295MPD2    C2 4444   2.371   0.625   0.783  0.4403  0.0402 -0.1687
  295MPD2    C3 4445   2.347   0.502   0.841  0.4319  0.2060 -0.6195
  295MPD2    C4 4446   2.278   0.406   0.771 -0.1640 -0.0737 -0.1931
  295MPD2    C5 4447   2.243   0.428   0.641  0.0184  0.1626  0.2035
  295MPD2     H 4448   2.409   0.710   0.838 -0.6296 -1.3616  2.7579
  295MPD2    H1 4449   2.249   0.315   0.822 -3.1890  0.9188 -0.1551
  295MPD2    H2 4450   2.247   0.556   0.472 -3.4858  0.7607  0.6520
  295MPD2    H3 4451   2.177   0.367   0.580  1.3007  0.3947 -1.4097
  295MPD2     N 4452   2.390   0.475   0.976  1.0743 -0.1730 -0.1067
  295MPD2    H5 4453   2.354   0.399   1.033 -1.8883  1.1606 -0.2339
  295MPD2    N1 4454   2.378   0.776   0.595  0.0723 -0.0665  0.1179
  295MPD2    H7 4455   2.425   0.846   0.652  0.3648 -1.3195  1.4336
  296TMC3    C1 4456   2.509   0.484   1.173  0.6015  0.2441 -0.1308
  296TMC3    C2 4457   2.636   0.515   1.229 -0.2807  0.2724  0.3171
  296TMC3    C3 4458   2.652   0.515   1.365 -0.1106 -0.3630 -0.1036
  296TMC3    C4 4459   2.404   0.457   1.261 -0.3856  0.9690 -0.0407
  296TMC3    C5 4460   2.424   0.447   1.398  0.2047  0.8325 -0.0137
  296TMC3    C6 4461   2.550   0.483   1.448 -0.7251  0.4164  0.8416
  296TMC3     C 4462   2.489   0.537   1.042 -0.5628 -0.8421 -0.5616
  296TMC3     O 4463   2.575   0.611   0.995  0.2922 -0.5292  0.5426
  296TMC3     H 4464   2.717   0.562   1.175 -0.9967 -1.7613 -2.5431
  296TMC3    H1 4465   2.300   0.446   1.233  0.0047  2.9500 -2.2604
  296TMC3    H2 4466   2.569   0.482   1.555  0.8983 -0.4997  0.5406
  296TMC3    C7 4467   2.314   0.490   1.479 -0.1639  0.0103 -0.3087
  296TMC3    C8 4468   2.730   0.625   1.409  0.8144 -0.7885 -0.1813
  296TMC3    O1 4469   2.263   0.589   1.435  0.5024  0.0506 -0.3014
  296TMC3    O2 4470   2.752   0.718   1.334  0.0343 -0.3436 -0.1511
  297MPD2     C 4471   3.955   3.218  16.635  0.1894  1.0739 -0.4170
  297MPD2    C1 4472   3.946   3.345  16.596 -0.6230  1.1246  0.2323
  297MPD2    C2 4473   4.065   3.411  16.579  0.2739  0.3915  0.2964
  297MPD2    C3 4474   4.188   3.344  16.573  0.8481 -0.3064 -0.9067
  297MPD2    C4 4475   4.195   3.211  16.615 -0.0677  0.0661 -0.1239
  297MPD2    C5 4476   4.075   3.155  16.654 -0.1161 -0.0616  0.1239
  297MPD2     H 4477   4.061   3.513  16.543 -2.6943 -0.0401 -0.5784
  297MPD2    H1 4478   4.283   3.147  16.620  0.9979  1.6643  1.4239
  297MPD2    H2 4479   3.876   3.148  16.658 -0.2416  0.9757 -2.1705
  297MPD2    H3 4480   4.072   3.051  16.686 -1.4302 -0.5949 -1.7516
  297MPD2     N 4481   4.305   3.423  16.552  0.4071 -0.2640  0.1586
  297MPD2    H5 4482   4.286   3.521  16.536 -0.2102  0.0450  2.7516
  297MPD2    N1 4483   3.825   3.408  16.570 -0.1048 -0.0635 -0.1089
  297MPD2    H7 4484   3.838   3.505  16.542  1.1033  0.0608  0.8551
  298TMC3    C1 4485   3.612   3.436  16.472 -0.6100 -0.5754 -0.3207
  298TMC3    C2 4486   3.657   3.462  16.347 -0.2043 -0.0243  0.1806
  298TMC3    C3 4487   3.570   3.516  16.255 -0.2198  0.0089 -0.1682
  298TMC3    C4 4488   3.486   3.467  16.505 -0.4676 -0.0198  0.3709
  298TMC3    C5 4489   3.395   3.504  16.413 -0.4590 -0.6019  0.7175
  298TMC3    C6 4490   3.435   3.523  16.288  0.5591 -0.1007  0.1468
  298TMC3     C 4491   3.690   3.348  16.556  0.0402  0.9214 -0.1971
  298TMC3     O 4492   3.629   3.258  16.616  0.0742  0.6110 -0.8201
  298TMC3     H 4493   3.759   3.436  16.321 -0.5111 -0.9299 -0.1269
  298TMC3    H1 4494   3.460   3.437  16.606 -2.6025  2.7594  0.6426
  298TMC3    H2 4495   3.360   3.560  16.219 -1.3228 -0.1093  2.1834
  298TMC3    C7 4496   3.298   3.596  16.471  0.5130  0.7642 -0.0144
  298TMC3    C8 4497   3.592   3.500  16.109 -0.2514 -0.9272  0.3967
  298TMC3    O1 4498   3.330   3.639  16.582  0.5798 -0.0307 -0.1804
  298TMC3    O2 4499   3.495   3.523  16.038  0.0719  0.4235  0.2999
  299MPD2     C 4500   0.246   2.782  11.076 -0.6042  0.3324  0.2823
  299MPD2    C1 4501   0.280   2.881  10.981  0.8585  0.0489 -0.0048
  299MPD2    C2 4502   0.225   2.871  10.856 -0.4137 -0.9664  0.0131
  299MPD2    C3 4503   0.131   2.774  10.830  0.2584  0.4924  0.1261
  299MPD2    C4 4504   0.095   2.677  10.927 -0.9178 -0.5380  0.5093
  299MPD2    C5 4505   0.145   2.693  11.055 -0.6056  0.3156 -0.3273
  299MPD2     H 4506   0.241   2.951  10.784  0.9301  0.0825  1.4614
  299MPD2    H1 4507   0.014   2.607  10.908 -0.7143 -0.7791  0.5308
  299MPD2    H2 4508   0.294   2.790  11.173 -0.7929 -0.4754  0.4387
  299MPD2    H3 4509   0.111   2.629  11.136 -1.3845  0.1467 -0.7927
  299MPD2     N 4510   0.058   2.766  10.715 -0.4196  0.0212 -0.5564
  299MPD2    H5 4511   4.713   2.693  10.708  0.4405 -0.9026  0.5346
  299MPD2    N1 4512   0.364   2.988  11.023 -0.5119  0.5403  0.7055
  299MPD2    H7 4513   0.412   2.980  11.112 -3.4601 -0.3865  2.2084
  300TMC3    C1 4514   4.696   2.810  10.505  0.0037 -0.7606 -0.4279
  300TMC3    C2 4515   0.007   2.843  10.373  0.1259  0.3571 -0.4028
  300TMC3    C3 4516   4.636   2.842  10.273 -0.2775 -0.5211 -0.4052
  300TMC3    C4 4517   4.566   2.773  10.530 -0.5159 -0.3625  0.3817
  300TMC3    C5 4518   4.487   2.750  10.417 -0.4580 -0.8335 -0.1813
  300TMC3    C6 4519   4.508   2.790  10.293 -0.8183 -0.5787  0.2686
  300TMC3     C 4520   0.071   2.845  10.603  0.5056 -0.5745  0.1010
  300TMC3     O 4521   0.155   2.929  10.573 -0.1413  0.3936  0.0130
  300TMC3     H 4522   0.101   2.892  10.354  1.8365 -1.7731  2.5519
  300TMC3    H1 4523   4.523   2.750  10.627 -0.2289 -2.5250 -0.0055
  300TMC3    H2 4524   4.436   2.788  10.212  0.8146 -1.6052 -1.1475
  300TMC3    C7 4525   4.347   2.733  10.442 -0.3833 -0.4104  0.0968
  300TMC3    C8 4526   4.631   2.956  10.203 -1.1419  0.4042  0.0259
  300TMC3    O1 4527   4.295   2.644  10.378  0.0301 -0.4027 -0.0522
  300TMC3    O2 4528   4.579   2.951  10.090  1.0452  0.1966 -0.3038
  301MPD2     C 4529   2.556   3.730   1.933 -0.1421  0.1360 -0.0669
  301MPD2    C1 4530   2.475   3.756   1.823  0.8597  0.5449 -1.6361
  301MPD2    C2 4531   2.517   3.702   1.702  1.2977 -0.2498  0.3942
  301MPD2    C3 4532   2.626   3.619   1.684  0.6403 -0.5340  0.7754
  301MPD2    C4 4533   2.696   3.585   1.791 -0.2286 -0.3669 -0.4739
  301MPD2    C5 4534   2.661   3.643   1.916  0.2837 -0.1082  0.0827
  301MPD2     H 4535   2.450   3.723   1.619  2.3331 -0.2061 -0.4302
  301MPD2    H1 4536   2.791   3.534   1.787  1.3534  2.5337  0.1816
  301MPD2    H2 4537   2.533   3.770   2.031  1.7681 -0.5993  0.6841
  301MPD2    H3 4538   2.724   3.632   2.003 -1.1955  3.6619  1.6248
  301MPD2     N 4539   2.658   3.567   1.561 -0.2303  0.0679 -0.1428
  301MPD2    H5 4540   2.739   3.505   1.561  0.4990  1.0001 -3.3144
  301MPD2    N1 4541   2.352   3.824   1.821  0.9093  0.4310  0.8660
  301MPD2    H7 4542   2.320   3.837   1.726 -1.2214 -1.6208  1.3222
  302TMC3    C1 4543   2.627   3.485   1.346 -0.3413 -0.2053  0.5347
  302TMC3    C2 4544   2.707   3.370   1.374  0.2092  0.2421 -0.1222
  302TMC3    C3 4545   2.733   3.292   1.264  0.0925  0.3333  0.1996
  302TMC3    C4 4546   2.580   3.506   1.219  0.0238  0.1109  0.7324
  302TMC3    C5 4547   2.611   3.424   1.117  0.3603 -0.1436  0.6005
  302TMC3    C6 4548   2.694   3.316   1.131  0.2565  0.2122  0.5635
  302TMC3     C 4549   2.588   3.588   1.443  0.6696  0.6731  0.2271
  302TMC3     O 4550   2.505   3.675   1.415  0.4409 -0.1314  0.5346
  302TMC3     H 4551   2.766   3.359   1.464  0.1379 -1.5470 -0.3009
  302TMC3    H1 4552   2.552   3.608   1.195 -0.5230 -0.2310 -0.0977
  302TMC3    H2 4553   2.715   3.251   1.047  2.6470  1.0740  0.4919
  302TMC3    C7 4554   2.542   3.430   0.990 -0.1543  0.1959 -0.5415
  302TMC3    C8 4555   2.785   3.160   1.277 -0.1679 -0.2339 -0.3451
  302TMC3    O1 4556   2.600   3.378   0.894 -0.1395  0.4583 -0.1059
  302TMC3    O2 4557   2.826   3.111   1.176  0.0199  0.2109 -0.5287
  303MPD2     C 4558   1.905   2.872   9.954 -0.4449 -0.5456 -0.4160
  303MPD2    C1 4559   1.903   2.761   9.872 -0.1690 -0.4366 -0.8118
  303MPD2    C2 4560   2.027   2.719   9.830  0.0548  0.0625 -0.0243
  303MPD2    C3 4561   2.145   2.779   9.866  0.4206  0.1155 -0.2859
  303MPD2    C4 4562   2.140   2.890   9.948  0.1446  0.1657  0.3397
  303MPD2    C5 4563   2.021   2.931   9.997 -0.0422  0.4603  0.5537
  303MPD2     H 4564   2.033   2.637   9.759  1.9125 -1.7205  2.1869
  303MPD2    H1 4565   2.226   2.932   9.998 -0.3864  0.2174  1.1963
  303MPD2    H2 4566   1.814   2.917   9.994  0.8298  4.9155 -3.7188
  303MPD2    H3 4567   2.015   3.007  10.075 -1.0650  0.4701  0.4749
  303MPD2     N 4568   2.273   2.727   9.833  0.4481  0.0733  0.5003
  303MPD2    H5 4569   2.353   2.783   9.861  2.1962 -2.0278 -0.3112
  303MPD2    N1 4570   1.784   2.708   9.833 -0.1957 -0.7003 -0.3428
  303MPD2    H7 4571   1.700   2.741   9.880  0.3186 -1.5637  1.1586
  304TMC3    C1 4572   1.649   2.531   9.776 -0.1102 -0.2646 -0.0606
  304TMC3    C2 4573   1.601   2.442   9.684  0.5670 -0.0922  0.2740
  304TMC3    C3 4574   1.513   2.343   9.716  0.2115  0.6446 -0.5766
  304TMC3    C4 4575   1.611   2.519   9.911  0.1806 -0.7008 -0.7619
  304TMC3    C5 4576   1.516   2.427   9.945  0.7755 -0.4365 -0.3225
  304TMC3    C6 4577   1.470   2.340   9.850  0.6725 -0.3610  0.3236
  304TMC3     C 4578   1.767   2.603   9.748 -0.0091 -0.4799 -0.2337
  304TMC3     O 4579   1.839   2.538   9.670  0.0547 -0.4329 -0.2386
  304TMC3     H 4580   1.638   2.447   9.582  0.6265  0.5537  0.3260
  304TMC3    H1 4581   1.657   2.566   9.998 -1.5041 -0.4950  0.0156
  304TMC3    H2 4582   1.385   2.273   9.862  0.4796 -0.6063 -2.3036
  304TMC3    C7 4583   1.549   2.359  10.065  0.2024  0.1263 -0.4956
  304TMC3    C8 4584   1.558   2.205   9.681 -0.6206  0.0491 -0.7897
  304TMC3    O1 4585   1.585   2.432  10.158 -0.4233 -0.1168  0.1320
  304TMC3    O2 4586   1.555   2.120   9.770  0.1572  0.4961 -0.3296
  305MPD2     C 4587   0.161   0.160  14.252 -0.1871  0.5600 -0.1307
  305MPD2    C1 4588   0.205   0.024  14.244  0.3332  0.7297 -0.2441
  305MPD2    C2 4589   0.178   4.677  14.132 -0.2451 -1.0568 -0.2220
  305MPD2    C3 4590   0.131   0.011  14.017 -0.1362  0.1036  0.8789
  305MPD2    C4 4591   0.092   0.143  14.023  0.1582 -0.3601 -0.1914
  305MPD2    C5 4592   0.111   0.209  14.142  0.3566 -0.1088 -0.6966
  305MPD2     H 4593   0.191   4.570  14.144  2.3740 -0.6661  0.5160
  305MPD2    H1 4594   0.060   0.204  13.940  0.0971 -2.7486 -1.9223
  305MPD2    H2 4595   0.178   0.227  14.336  2.2817 -0.0865 -0.1088
  305MPD2    H3 4596   0.081   0.313  14.148 -1.0323 -0.3535 -3.5719
  305MPD2     N 4597   0.117   4.659  13.900 -0.3947  0.0503 -0.4616
  305MPD2    H5 4598   0.120   4.714  13.814 -0.3317 -1.0821 -1.1809
  305MPD2    N1 4599   0.274   4.697  14.356 -0.1693 -1.0246  0.2697
  305MPD2    H7 4600   0.276   0.035  14.436  0.3194  1.0589 -1.3879
  306TMC3    C1 4601   0.388   4.560  14.514  0.2278 -0.6403  0.1974
  306TMC3    C2 4602   0.493   4.471  14.543 -0.0891 -0.4011 -0.4293
  306TMC3    C3 4603   0.539   4.472  14.671  0.4553  0.4143 -0.0736
  306TMC3    C4 4604   0.329   4.633  14.609 -0.2987  0.8076  0.6240
  306TMC3    C5 4605   0.380   4.624  14.737  0.1793 -0.3940  0.0060
  306TMC3    C6 4606   0.488   4.547  14.773 -0.2241 -0.3707 -0.1203
  306TMC3     C 4607   0.338   4.574  14.370 -0.1886 -0.5961 -0.1818
  306TMC3     O 4608   0.347   4.483  14.291 -0.3397 -0.1089  0.2608
  306TMC3     H 4609   0.536   4.423  14.456 -0.5658 -0.5185 -0.5997
  306TMC3    H1 4610   0.259   4.713  14.588 -1.6046 -0.2086  1.1007
  306TMC3    H2 4611   0.529   4.546  14.873 -0.4246  0.1112 -0.0326
  306TMC3    C7 4612   0.322   4.717  14.835  0.0345 -0.1728 -0.2861
  306TMC3    C8 4613   0.635   4.367  14.713 -0.3003  0.0228  0.0221
  306TMC3    O1 4614   0.214   0.047  14.811 -0.4015  0.5541 -0.7306
  306TMC3    O2 4615   0.704   4.315  14.625  0.6430 -0.6217 -0.7471
  307MPD2     C 4616   3.023   1.671   0.550  0.2775  0.1739  0.7144
  307MPD2    C1 4617   3.029   1.806   0.553 -0.1872 -1.0987 -0.5411
  307MPD2    C2 4618   2.927   1.871   0.617 -0.5567  0.6380 -0.4526
  307MPD2    C3 4619   2.825   1.801   0.681  0.0317  0.1664 -0.5044
  307MPD2    C4 4620   2.818   1.663   0.675 -0.4879  0.5443  0.0246
  307MPD2    C5 4621   2.918   1.601   0.605 -0.2000 -0.3906 -0.4948
  307MPD2     H 4622   2.932   1.979   0.630  0.1493  0.3980  1.2761
  307MPD2    H1 4623   2.747   1.600   0.728  0.6550 -1.6123 -1.0246
  307MPD2    H2 4624   3.105   1.613   0.510  1.0525  0.5968  1.6830
  307MPD2    H3 4625   2.919   1.493   0.610  1.4347 -0.3825 -0.4122
  307MPD2     N 4626   2.733   1.866   0.760  0.3511 -0.7081  0.0977
  307MPD2    H5 4627   2.756   1.962   0.783  1.5421 -0.8279 -0.6171
  307MPD2    N1 4628   3.112   1.885   0.479  0.0619  0.5179  0.0188
  307MPD2    H7 4629   3.101   1.986   0.480  0.3146  0.5425  0.2981
  308TMC3    C1 4630   2.298   1.962   0.924  0.1252  0.0386 -0.0819
  308TMC3    C2 4631   2.351   2.062   0.999  0.5871 -0.2412  0.1956
  308TMC3    C3 4632   2.489   2.068   1.020 -0.0445 -0.1855  0.8732
  308TMC3    C4 4633   2.389   1.887   0.853  0.2107  0.9927  0.3464
  308TMC3    C5 4634   2.523   1.912   0.856  0.5948  0.3094 -1.0458
  308TMC3    C6 4635   2.576   1.999   0.947 -0.7830 -0.3527  0.2437
  308TMC3     C 4636   2.164   1.976   0.868 -0.4068  0.5034 -0.5616
  308TMC3     O 4637   2.119   1.880   0.804  0.4593 -0.1846  0.9019
  308TMC3     H 4638   2.287   2.136   1.045  1.5769  1.3403 -0.9717
  308TMC3    H1 4639   2.351   1.820   0.776  0.7412 -0.0668  1.0159
  308TMC3    H2 4640   2.684   2.002   0.958 -0.6968 -1.5693 -0.2401
  308TMC3    C7 4641   2.609   1.816   0.796 -0.6431 -0.0501 -0.3389
  308TMC3    C8 4642   2.534   2.184   1.093  0.2222 -0.8455  0.2050
  308TMC3    O1 4643   2.550   1.718   0.755 -0.2276 -0.2205 -0.3912
  308TMC3    O2 4644   2.463   2.212   1.186  0.8931  0.5547 -0.1917
  309MPD2     C 4645   2.007   3.030  17.404  0.3109  0.5013 -0.6287
  309MPD2    C1 4646   1.888   2.970  17.367  0.0420 -0.3783 -0.1311
  309MPD2    C2 4647   1.773   2.999  17.433  0.1335  0.2091  0.1178
  309MPD2    C3 4648   1.768   3.095  17.533  0.3396  0.2279 -0.1540
  309MPD2    C4 4649   1.885   3.145  17.572 -0.6682  1.1534  0.4304
  309MPD2    C5 4650   2.008   3.115  17.511  0.2995 -0.6401  0.3169
  309MPD2     H 4651   1.681   2.948  17.406 -0.4452  0.6251  1.3029
  309MPD2    H1 4652   1.893   3.223  17.647  1.2816  0.3336  1.0818
  309MPD2    H2 4653   2.096   3.008  17.347  0.8467 -1.1294  0.8143
  309MPD2    H3 4654   2.102   3.160  17.542  0.0145 -1.4970  2.4074
  309MPD2     N 4655   1.651   3.147  17.581 -0.0720  0.2405  0.2018
  309MPD2    H5 4656   1.653   3.217  17.654  3.0969  2.7622 -2.3001
  309MPD2    N1 4657   1.876   2.883  17.257  0.1272 -0.0828 -0.9585
  309MPD2    H7 4658   1.786   2.838  17.242 -0.9269  1.9536 -0.7522
  310TMC3    C1 4659   1.909   2.789  17.043 -0.1139  0.7528  0.4544
  310TMC3    C2 4660   1.887   2.837  16.913 -0.3139  0.2645  0.2300
  310TMC3    C3 4661   1.859   2.746  16.823  0.4419  0.3234  0.7981
  310TMC3    C4 4662   1.925   2.659  17.068 -0.0700  0.2662  0.0243
  310TMC3    C5 4663   1.922   2.563  16.969  0.8208  0.0204 -0.4605
  310TMC3    C6 4664   1.870   2.608  16.851  0.0247 -0.5572  0.0827
  310TMC3     C 4665   1.956   2.881  17.146 -0.3002 -0.0143 -0.6674
  310TMC3     O 4666   2.039   2.962  17.112 -0.2911  0.1188 -0.3523
  310TMC3     H 4667   1.905   2.940  16.884 -1.9552  0.5074  0.0554
  310TMC3    H1 4668   1.962   2.630  17.166 -0.5655  1.7726  0.6626
  310TMC3    H2 4669   1.863   2.536  16.771  0.6549  0.4042 -0.8336
  310TMC3    C7 4670   2.051   2.492  16.948 -0.5782  0.0535 -0.1757
  310TMC3    C8 4671   1.877   2.784  16.683  0.6700  0.3027 -0.3052
  310TMC3    O1 4672   2.084   2.472  16.829  0.3135  0.1286  0.4969
  310TMC3    O2 4673   1.862   2.905  16.652 -0.2864  0.7197 -0.5628
  311MPD2     C 4674   4.337   4.029  12.984 -0.1614 -0.0589  0.0161
  311MPD2    C1 4675   4.317   4.151  13.048 -0.0388  0.0432 -0.4348
  311MPD2    C2 4676   4.209   4.176  13.123  0.3449  0.8092  0.6404
  311MPD2    C3 4677   4.113   4.079  13.143 -0.1715  0.0648 -0.2563
  311MPD2    C4 4678   4.142   3.954  13.097 -0.6639  0.5130  0.2988
  311MPD2    C5 4679   4.252   3.927  13.021 -0.2286  0.4092  0.3678
  311MPD2     H 4680   4.211   4.275  13.167 -2.1954  2.3115 -2.6338
  311MPD2    H1 4681   4.077   3.869  13.113 -0.1656  0.1084  0.1696
  311MPD2    H2 4682   4.404   4.015  12.901 -0.1129 -2.8577  0.5359
  311MPD2    H3 4683   4.258   3.824  12.986 -2.9216  1.0439 -1.9980
  311MPD2     N 4684   3.996   4.112  13.214 -0.3799  0.4591 -0.3350
  311MPD2    H5 4685   3.984   4.211  13.234 -0.1519  0.5655 -0.7099
  311MPD2    N1 4686   4.397   4.258  13.011  0.1396  0.2472 -0.2782
  311MPD2    H7 4687   4.379   4.346  13.058 -1.4433 -0.5228  0.5916
  312TMC3    C1 4688   3.779   4.082  13.312  0.4433 -0.0060  0.3311
  312TMC3    C2 4689   3.671   4.101  13.236 -0.1173  0.5393  0.0483
  312TMC3    C3 4690   3.584   4.209  13.266 -0.1781 -0.9242 -0.1092
  312TMC3    C4 4691   3.820   4.160  13.414  0.1476 -0.3507  0.1755
  312TMC3    C5 4692   3.732   4.265  13.438 -0.4969 -0.6557  0.3748
  312TMC3    C6 4693   3.613   4.298  13.369 -0.1909  0.6030  0.6712
  312TMC3     C 4694   3.896   4.023  13.248 -0.1075  0.6667  0.6467
  312TMC3     O 4695   3.890   3.907  13.220  0.0708  0.2578  0.2548
  312TMC3     H 4696   3.633   4.019  13.176  1.3466 -0.5561  0.6030
  312TMC3    H1 4697   3.904   4.133  13.477 -1.1462 -1.6034  1.3735
  312TMC3    H2 4698   3.540   4.372  13.400  1.9423  2.8280  0.4565
  312TMC3    C7 4699   3.767   4.350  13.549  0.5944  0.0434 -0.4219
  312TMC3    C8 4700   3.451   4.190  13.221  0.4900  0.4027 -0.0711
  312TMC3    O1 4701   3.725   4.461  13.528  0.1089  0.5298 -0.0765
  312TMC3    O2 4702   3.425   4.085  13.166 -0.2238  0.0756  0.2442
  313MPD2     C 4703   4.332   3.907  10.813 -0.2200  0.0214  0.1773
  313MPD2    C1 4704   4.229   3.820  10.829  0.3489 -0.1571 -0.2411
  313MPD2    C2 4705   4.225   3.711  10.736  0.1543 -0.2032 -0.2288
  313MPD2    C3 4706   4.301   3.704  10.626  0.3320  0.0063 -0.0093
  313MPD2    C4 4707   4.393   3.814  10.604 -0.3495  0.4890 -0.9335
  313MPD2    C5 4708   4.405   3.904  10.698 -0.0625  0.5955  0.1454
  313MPD2     H 4709   4.155   3.631  10.755 -2.0994  1.4520 -1.5572
  313MPD2    H1 4710   4.454   3.822  10.514  0.7575 -1.8118 -0.3906
  313MPD2    H2 4711   4.356   3.994  10.873  0.3692 -0.6643  0.9269
  313MPD2    H3 4712   4.478   3.984  10.701 -0.7333  1.2159 -0.0555
  313MPD2     N 4713   4.270   3.601  10.538 -0.0968 -0.0043 -0.0752
  313MPD2    H5 4714   4.223   3.519  10.575  0.5667 -0.3970 -0.0951
  313MPD2    N1 4715   4.140   3.813  10.939 -0.4038  0.7517  0.1190
  313MPD2    H7 4716   4.058   3.753  10.929 -0.2978  0.4019  1.3016
  314TMC3    C1 4717   4.011   3.881  11.125 -0.2887  0.5604 -0.8659
  314TMC3    C2 4718   4.022   3.910  11.254  0.1099 -0.3500 -0.5488
  314TMC3    C3 4719   3.909   3.918  11.328 -0.3818 -0.9438 -0.0984
  314TMC3    C4 4720   3.901   3.888  11.044  0.0631 -0.6024 -1.4677
  314TMC3    C5 4721   3.790   3.925  11.118  1.0503  0.2515  0.5620
  314TMC3    C6 4722   3.795   3.920  11.256  0.4898  0.8315  0.6364
  314TMC3     C 4723   4.136   3.894  11.054  0.1923  0.1700  0.0878
  314TMC3     O 4724   4.221   3.969  11.099  0.1065 -0.2071  0.8282
  314TMC3     H 4725   4.121   3.904  11.297  0.0273 -0.6551 -0.3990
  314TMC3    H1 4726   3.899   3.875  10.936 -2.5087 -1.9861 -1.2602
  314TMC3    H2 4727   3.700   3.941  11.304  1.2578  0.8863  2.1077
  314TMC3    C7 4728   3.663   3.951  11.050 -0.3781  0.2356 -0.2283
  314TMC3    C8 4729   3.916   3.997  11.451 -0.2822 -0.2865  0.1155
  314TMC3    O1 4730   3.560   3.953  11.115  0.1556  0.1459 -0.5361
  314TMC3    O2 4731   4.028   4.041  11.479  0.1640  0.0613  0.2784
  315MPD2     C 4732   3.331   2.632  17.411  0.2615 -0.3649 -0.5024
  315MPD2    C1 4733   3.469   2.620  17.413  0.1916  0.5835 -0.3310
  315MPD2    C2 4734   3.540   2.731  17.384  0.0510 -0.2799 -0.8963
  315MPD2    C3 4735   3.480   2.858  17.368 -0.2186 -0.3650  0.2583
  315MPD2    C4 4736   3.346   2.872  17.393  0.2938 -0.3933 -0.2489
  315MPD2    C5 4737   3.272   2.756  17.401  0.4665  0.5948 -0.1321
  315MPD2     H 4738   3.648   2.735  17.381  0.0974  0.7884  1.6480
  315MPD2    H1 4739   3.288   2.963  17.383  0.1696 -0.6424 -1.9068
  315MPD2    H2 4740   3.264   2.547  17.418  0.4268 -0.4441  0.0921
  315MPD2    H3 4741   3.165   2.763  17.414  0.3826  0.5103 -0.7415
  315MPD2     N 4742   3.566   2.979  17.354  0.2060 -1.3323 -0.0246
  315MPD2    H5 4743   3.667   2.965  17.358  0.6108  1.6208  0.3942
  315MPD2    N1 4744   3.540   2.500  17.440  0.4177  0.1588  0.1115
  315MPD2    H7 4745   3.640   2.494  17.427  0.0787 -0.0106 -2.3022
  316TMC3    C1 4746   3.637   3.193  17.305 -0.0073 -0.3937 -0.1668
  316TMC3    C2 4747   3.756   3.151  17.370 -0.4052  0.2033  0.1522
  316TMC3    C3 4748   3.829   3.248  17.428  0.1551  0.0399  0.0272
  316TMC3    C4 4749   3.598   3.325  17.290  0.7079 -0.2474 -0.3020
  316TMC3    C5 4750   3.672   3.417  17.360 -0.3028  0.8835  0.0095
  316TMC3    C6 4751   3.783   3.372  17.429  0.1921 -0.3008 -0.0229
  316TMC3     C 4752   3.525   3.105  17.313  0.2111  0.1719  0.3774
  316TMC3     O 4753   3.411   3.148  17.289 -0.3766 -0.2486  0.4695
  316TMC3     H 4754   3.796   3.051  17.380  2.0032  1.0162 -1.3939
  316TMC3    H1 4755   3.519   3.355  17.222  1.8811 -2.1157 -2.5060
  316TMC3    H2 4756   3.846   3.446  17.478 -0.5936  0.2056  0.2265
  316TMC3    C7 4757   3.697   3.545  17.302  0.1263 -0.4524  0.3050
  316TMC3    C8 4758   3.971   3.233  17.411 -0.0207  0.2224  0.0534
  316TMC3    O1 4759   3.811   3.553  17.259 -0.2673 -0.4263 -0.4701
  316TMC3    O2 4760   4.013   3.324  17.342  0.2260 -0.3755 -0.2025
  317MPD2     C 4761   0.227   1.489  13.138 -0.1026  0.4166 -0.1083
  317MPD2    C1 4762   0.230   1.360  13.095  0.0713 -0.4290 -0.2005
  317MPD2    C2 4763   0.329   1.272  13.146 -0.2524  0.4882  0.5233
  317MPD2    C3 4764   0.436   1.316  13.219 -0.0627 -0.5962  0.1767
  317MPD2    C4 4765   0.445   1.449  13.245 -0.3708  0.7155  0.1422
  317MPD2    C5 4766   0.338   1.531  13.209 -0.3543 -0.6007  0.2197
  317MPD2     H 4767   0.325   1.168  13.116  2.7067 -0.3608  3.0204
  317MPD2    H1 4768   0.529   1.483  13.305  1.3990 -0.8427 -1.4735
  317MPD2    H2 4769   0.167   1.569  13.095 -1.0797 -0.7707 -0.9768
  317MPD2    H3 4770   0.353   1.635  13.235  1.1087 -1.0638  1.2523
  317MPD2     N 4771   0.529   1.216  13.253 -0.5179 -0.1162  0.0050
  317MPD2    H5 4772   0.488   1.124  13.247 -0.6872 -0.1818  2.2233
  317MPD2    N1 4773   0.133   1.312  12.997 -0.1485 -0.0581 -0.3631
  317MPD2    H7 4774   0.154   1.219  12.960 -1.2235 -0.2672 -0.4342
  318TMC3    C1 4775   0.709   1.116  13.371 -0.5686 -0.2057  0.7007
  318TMC3    C2 4776   0.624   1.018  13.412  0.4413 -0.4349 -0.8722
  318TMC3    C3 4777   0.683   0.903  13.455 -0.9855 -0.4223 -0.5009
  318TMC3    C4 4778   0.845   1.106  13.380  0.4637  0.2538  0.3814
  318TMC3    C5 4779   0.890   0.987  13.435 -0.1102 -0.6627  0.2845
  318TMC3    C6 4780   0.813   0.885  13.477 -0.2928 -0.0893  0.0049
  318TMC3     C 4781   0.642   1.238  13.322  0.2694 -0.1176 -0.0841
  318TMC3     O 4782   0.703   1.344  13.339  0.6728 -0.0283 -0.0066
  318TMC3     H 4783   0.522   1.045  13.436  0.6722  0.8053 -1.2814
  318TMC3    H1 4784   0.910   1.181  13.338 -1.1213  1.6142  0.3434
  318TMC3    H2 4785   0.856   0.788  13.500 -0.5225 -0.1852  0.0278
  318TMC3    C7 4786   1.011   0.940  13.375  0.4278  0.2629 -0.2877
  318TMC3    C8 4787   0.597   0.807  13.510 -0.2894  0.4305  0.6317
  318TMC3    O1 4788   1.037   0.987  13.266  0.1208 -0.4921 -0.4306
  318TMC3    O2 4789   0.634   0.735  13.604 -0.1529  0.1002  0.3663
  319MPD2     C 4790   1.598   2.477  16.602 -0.1025  0.2078  0.1405
  319MPD2    C1 4791   1.500   2.398  16.656 -0.9745  0.2666 -1.0593
  319MPD2    C2 4792   1.411   2.325  16.569 -0.2471 -0.1177 -0.3400
  319MPD2    C3 4793   1.438   2.324  16.434  0.0759 -0.6911  0.2261
  319MPD2    C4 4794   1.538   2.406  16.389 -0.3091 -0.1598  0.0210
  319MPD2    C5 4795   1.620   2.477  16.470  0.1862 -0.5324  0.9371
  319MPD2     H 4796   1.320   2.285  16.612 -0.6175  1.3794  0.2518
  319MPD2    H1 4797   1.559   2.435  16.287  2.6538  0.1584  0.7278
  319MPD2    H2 4798   1.658   2.541  16.666 -0.5899 -1.7674  2.5588
  319MPD2    H3 4799   1.694   2.542  16.424 -2.5521  0.9290 -1.4828
  319MPD2     N 4800   1.345   2.270  16.338 -0.6696  0.0254 -0.8742
  319MPD2    H5 4801   1.373   2.287  16.242  0.5748 -0.6011 -0.6226
  319MPD2    N1 4802   1.473   2.403  16.794 -0.1620  0.2497  0.1261
  319MPD2    H7 4803   1.438   2.322  16.844 -0.6784 -0.6728 -1.7729
  320TMC3    C1 4804   1.180   2.136  16.248 -0.2309  0.4021  0.1863
  320TMC3    C2 4805   1.149   2.230  16.151  0.2636 -0.1647  0.3185
  320TMC3    C3 4806   1.072   2.199  16.044 -0.5451 -0.5121  0.4060
  320TMC3    C4 4807   1.125   2.007  16.235  0.4149 -1.0047 -0.0036
  320TMC3    C5 4808   1.052   1.984  16.121  0.1882  0.4775 -0.2153
  320TMC3    C6 4809   1.026   2.077  16.028  0.2807 -0.4413  0.0603
  320TMC3     C 4810   1.257   2.166  16.364  0.3941  0.5132  0.0837
  320TMC3     O 4811   1.244   2.098  16.463  0.1841 -0.2301  0.1266
  320TMC3     H 4812   1.185   2.332  16.157  0.4617 -0.2583  0.7102
  320TMC3    H1 4813   1.156   1.936  16.311  2.1277  0.9875  1.1469
  320TMC3    H2 4814   0.956   2.065  15.946 -2.2441  2.1345  1.8331
  320TMC3    C7 4815   1.035   1.842  16.071  0.0549 -0.5904  0.9394
  320TMC3    C8 4816   1.044   2.289  15.933 -0.1135 -0.1273  0.3905
  320TMC3    O1 4817   0.998   1.834  15.956  0.2455 -0.1891 -0.3349
  320TMC3    O2 4818   1.033   2.240  15.823 -0.2602 -0.2838  0.4535
  321TMC3    C1 4819   1.508   2.481  17.018 -0.2532 -0.1951 -0.3719
  321TMC3    C2 4820   1.457   2.362  17.074 -0.1116 -0.3681 -0.1415
  321TMC3    C3 4821   1.417   2.356  17.203 -0.6101  0.1610 -0.8304
  321TMC3    C4 4822   1.536   2.586  17.101  0.1335  0.1173 -0.2883
  321TMC3    C5 4823   1.496   2.578  17.227  0.0159 -0.1771  0.0070
  321TMC3    C6 4824   1.433   2.469  17.285 -0.3324  0.3456  0.2899
  321TMC3     C 4825   1.516   2.507  16.876  0.0601  0.0041 -0.5068
  321TMC3     O 4826   1.544   2.624  16.849 -0.0106 -0.3380  0.2464
  321TMC3     H 4827   1.435   2.270  17.021 -0.5101 -1.3443  1.7214
  321TMC3    H1 4828   1.602   2.664  17.065 -1.4504  1.9996  0.8206
  321TMC3    H2 4829   1.390   2.481  17.384  0.3203 -2.0522  0.8551
  321TMC3    C7 4830   1.600   2.627  17.316 -0.0227  0.0826  0.4567
  321TMC3    C8 4831   1.451   2.236  17.284 -0.0705 -0.3543  0.8185
  321TMC3    O1 4832   1.653   2.728  17.277  0.4694  0.3780  0.7655
  321TMC3    O2 4833   1.431   2.242  17.406 -0.2197 -0.3749  0.3969
  322MPD2     C 4834   4.657   3.696  13.780  0.1556 -0.1505  0.2582
  322MPD2    C1 4835   4.700   3.640  13.895 -0.4498  0.3223 -0.1398
  322MPD2    C2 4836   0.026   3.517  13.893 -0.0951 -0.0064  0.7979
  322MPD2    C3 4837   0.041   3.446  13.778 -0.4539 -0.5058 -0.6730
  322MPD2    C4 4838   4.718   3.496  13.661 -0.1557  0.9021  0.0397
  322MPD2    C5 4839   4.656   3.621  13.662 -1.1668 -0.3041  0.3743
  322MPD2     H 4840   0.067   3.473  13.983  0.8089 -1.5327 -0.3456
  322MPD2    H1 4841   0.017   3.458  13.562  2.2308  0.0466  0.9640
  322MPD2    H2 4842   4.604   3.790  13.791  0.2075 -0.3999  2.7043
  322MPD2    H3 4843   4.609   3.674  13.580 -0.3738 -1.1923 -0.6442
  322MPD2     N 4844   0.117   3.319  13.785  0.3759  0.3770 -0.2340
  322MPD2    H5 4845   0.140   3.267  13.869  0.4718 -0.2816 -0.6705
  322MPD2    N1 4846   4.705   3.720  14.017  0.1422  0.4988 -0.4015
  322MPD2    H7 4847   4.681   3.818  14.008 -0.9052  0.2353 -0.3935
  323TMC3    C1 4848   0.043   3.792  14.226  0.4369  0.6815  0.0186
  323TMC3    C2 4849   0.121   3.900  14.182 -0.0726 -0.0651 -0.2189
  323TMC3    C3 4850   0.184   3.982  14.276 -0.2883  0.7955  0.4000
  323TMC3    C4 4851   0.033   3.770  14.363  0.1420 -0.0166  0.0596
  323TMC3    C5 4852   0.107   3.838  14.446  0.2852  0.3681 -0.2000
  323TMC3    C6 4853   0.179   3.949  14.409  0.3534  0.3481 -0.0681
  323TMC3     C 4854   0.029   3.677  14.136  0.3272  0.4004  0.1467
  323TMC3     O 4855   0.030   3.563  14.182 -0.2946 -0.2267  0.3676
  323TMC3     H 4856   0.128   3.922  14.076  0.0770 -0.9803 -0.3972
  323TMC3    H1 4857   4.699   3.681  14.386  0.0516 -0.7245 -2.8606
  323TMC3    H2 4858   0.216   4.016  14.486  0.5998  0.1785 -0.0384
  323TMC3    C7 4859   0.180   3.747  14.523  0.1321  0.3463 -0.3386
  323TMC3    C8 4860   0.305   4.056  14.247  0.2340  0.3241  0.2913
  323TMC3    O1 4861   0.150   3.628  14.501 -0.3074 -0.2494 -0.9575
  323TMC3    O2 4862   0.379   4.054  14.346  0.4876 -0.4309  0.3137
  324MPD2     C 4863   1.760   0.124  14.662  0.5381 -0.7419  0.2819
  324MPD2    C1 4864   1.753   0.256  14.596 -0.0217  0.6902 -0.2140
  324MPD2    C2 4865   1.634   0.323  14.588 -0.2486 -0.0093 -0.1015
  324MPD2    C3 4866   1.517   0.267  14.624  0.1903 -0.3062  0.2373
  324MPD2    C4 4867   1.515   0.141  14.673  0.0353  0.0683  0.5718
  324MPD2    C5 4868   1.635   0.078  14.701 -0.2161 -0.2252 -0.5674
  324MPD2     H 4869   1.627   0.427  14.557 -2.0216 -0.2183 -0.3995
  324MPD2    H1 4870   1.424   0.096  14.712  1.1000 -2.1936  0.4319
  324MPD2    H2 4871   1.854   0.073  14.677  1.9032  1.7464  0.2191
  324MPD2    H3 4872   1.636   4.707  14.751 -0.6239 -0.0673 -0.2577
  324MPD2     N 4873   1.390   0.321  14.598 -0.1733 -0.4369  0.0589
  324MPD2    H5 4874   1.305   0.268  14.618  1.0963 -2.0939  1.0931
  324MPD2    N1 4875   1.872   0.321  14.563 -0.3091 -0.0845  0.1028
  324MPD2    H7 4876   1.858   0.420  14.541  1.8734  0.5415  1.5114
  325TMC3    C1 4877   1.224   0.423  14.466  0.3616  0.1978  0.0818
  325TMC3    C2 4878   1.138   0.332  14.514  0.2146  0.1512  0.3757
  325TMC3    C3 4879   1.008   0.330  14.464 -0.6803  0.4573 -0.0668
  325TMC3    C4 4880   1.190   0.519  14.374 -0.4722 -0.0701  0.3958
  325TMC3    C5 4881   1.063   0.514  14.326  0.3852 -0.7476  0.2177
  325TMC3    C6 4882   0.973   0.428  14.378  0.5553 -0.1156  0.8001
  325TMC3     C 4883   1.364   0.420  14.506  0.3562  0.1623 -0.1224
  325TMC3     O 4884   1.444   0.486  14.443 -1.0764 -0.1893 -0.1525
  325TMC3     H 4885   1.150   0.283  14.611 -0.3693  4.1175  2.4346
  325TMC3    H1 4886   1.263   0.593  14.343 -1.0870  0.3834  0.0243
  325TMC3    H2 4887   0.882   0.413  14.322  1.0167  0.3637 -0.0811
  325TMC3    C7 4888   1.025   0.552  14.185 -0.8292 -0.4430 -0.4133
  325TMC3    C8 4889   0.995   0.201  14.407  0.3664  0.0860 -0.2653
  325TMC3    O1 4890   0.966   0.468  14.120  0.0438  0.4420  0.2532
  325TMC3    O2 4891   1.101   0.141  14.398 -0.1403 -0.4633  0.5867
  326MPD2     C 4892   2.883   1.450  11.360  0.7293 -0.0666  0.4898
  326MPD2    C1 4893   2.951   1.469  11.243  0.0809  0.3755 -0.4001
  326MPD2    C2 4894   3.079   1.522  11.241  0.4202  0.3488 -0.7424
  326MPD2    C3 4895   3.143   1.553  11.361  0.6745  0.3136  0.2823
  326MPD2    C4 4896   3.074   1.545  11.481  0.4058 -0.4914  0.0003
  326MPD2    C5 4897   2.945   1.486  11.477  0.7445  0.7349  0.2568
  326MPD2     H 4898   3.131   1.533  11.146  1.5524 -1.1687 -0.2939
  326MPD2    H1 4899   3.112   1.575  11.578  0.0274  0.0805 -0.0224
  326MPD2    H2 4900   2.780   1.416  11.366 -0.3302  2.6779 -1.7988
  326MPD2    H3 4901   2.883   1.475  11.565  0.1548 -0.7770 -0.3484
  326MPD2     N 4902   3.255   1.640  11.364  0.2404  0.4168  0.1181
  326MPD2    H5 4903   3.274   1.674  11.458 -1.3800 -1.5913  1.1942
  326MPD2    N1 4904   2.890   1.438  11.119 -0.2686  0.6629 -0.1953
  326MPD2    H7 4905   2.946   1.450  11.035  1.5424 -1.3957  0.7242
  327TMC3    C1 4906   2.764   1.356  10.942 -0.3451  0.1579 -0.7039
  327TMC3    C2 4907   2.718   1.457  10.860  0.5384  0.3936 -0.3631
  327TMC3    C3 4908   2.735   1.431  10.726  0.0003  1.1287  0.2209
  327TMC3    C4 4909   2.854   1.256  10.906  0.3984  0.1783  0.3488
  327TMC3    C5 4910   2.867   1.241  10.769  0.2621 -0.0632 -0.5748
  327TMC3    C6 4911   2.807   1.322  10.679  0.0141 -0.5512  0.0934
  327TMC3     C 4912   2.766   1.393  11.086  0.5756  0.1739  0.7095
  327TMC3     O 4913   2.667   1.383  11.152  0.0404  0.1076 -0.7268
  327TMC3     H 4914   2.677   1.552  10.892  0.3622  0.5063 -0.9252
  327TMC3    H1 4915   2.879   1.169  10.966  2.8368 -0.7389 -1.9634
  327TMC3    H2 4916   2.832   1.321  10.573  0.4878 -2.8359  0.2259
  327TMC3    C7 4917   2.999   1.195  10.726  0.1761 -0.2392 -0.0349
  327TMC3    C8 4918   2.721   1.551  10.641  0.5180 -0.5090 -0.0715
  327TMC3    O1 4919   3.008   1.161  10.611 -0.0959 -0.1445  0.0122
  327TMC3    O2 4920   2.800   1.583  10.553  0.1305  0.1197 -0.0054
  328MPD2     C 4921   1.461   0.782  17.672 -0.1237 -0.1508 -0.0455
  328MPD2    C1 4922   1.349   0.725  17.613  0.2811 -0.1714  0.2710
  328MPD2    C2 4923   1.319   0.741  17.474 -0.1969  0.2681 -0.0810
  328MPD2    C3 4924   1.387   0.835  17.411  0.0708 -0.2987 -0.3234
  328MPD2    C4 4925   1.486   0.902  17.472  0.1999 -0.3246 -0.1212
  328MPD2    C5 4926   1.533   0.878  17.598 -0.0578  0.1631  0.6259
  328MPD2     H 4927   1.249   0.679  17.420 -0.8712  0.8482  0.1293
  328MPD2    H1 4928   1.536   0.978  17.413 -1.5628 -0.0015 -1.1925
  328MPD2    H2 4929   1.478   0.765   0.078  3.1101  1.2444 -0.3583
  328MPD2    H3 4930   1.614   0.929  17.650 -0.9867  0.8382  1.4174
  328MPD2     N 4931   1.364   0.881  17.277  0.4146 -0.6739 -0.4192
  328MPD2    H5 4932   1.440   0.934  17.235 -0.3529  1.7578  1.2924
  328MPD2    N1 4933   1.275   0.634  17.693 -0.1361  0.2681 -0.2724
  328MPD2    H7 4934   1.328   0.613   0.077 -0.6925  2.8859  0.7281
  329TMC3    C1 4935   1.120   0.492   0.075 -0.0505  0.2364  0.1213
  329TMC3    C2 4936   0.999   0.436   0.052 -0.1932 -1.0197 -0.3537
  329TMC3    C3 4937   0.941   0.370   0.156 -0.3942 -0.8824  1.5014
  329TMC3    C4 4938   1.191   0.473   0.188 -0.1407 -0.2275  0.4672
  329TMC3    C5 4939   1.136   0.401   0.291 -0.0241  0.1880 -0.1794
  329TMC3    C6 4940   1.004   0.371   0.276 -0.9201 -0.0771 -0.3485
  329TMC3     C 4941   1.155   0.588  17.671 -0.5613  0.2882  0.4921
  329TMC3     O 4942   1.084   0.600  17.570  0.0761  0.2666 -0.7138
  329TMC3     H 4943   0.944   0.462  17.663 -1.2414 -0.7011  0.3803
  329TMC3    H1 4944   1.295   0.498   0.203  0.4015  0.0822 -3.7834
  329TMC3    H2 4945   0.951   0.335   0.363  1.0828  0.7681  1.2187
  329TMC3    C7 4946   1.188   0.431   0.416 -0.0160 -0.1208 -0.1609
  329TMC3    C8 4947   0.800   0.369   0.162  0.0497 -0.3964 -0.1613
  329TMC3    O1 4948   1.229   0.543   0.433  0.4232  0.1321  0.9557
  329TMC3    O2 4949   0.740   0.314   0.258 -0.4854  0.2491 -0.3618
  330TMC3    C1 4950   4.190   0.465   9.431 -0.5011 -0.9042 -0.1271
  330TMC3    C2 4951   4.080   0.399   9.395  0.5347  0.0561 -0.0171
  330TMC3    C3 4952   4.074   0.330   9.277 -0.2482 -0.2476  0.3033
  330TMC3    C4 4953   4.304   0.463   9.353  0.0568 -0.0200 -0.0970
  330TMC3    C5 4954   4.296   0.398   9.236  0.2263  0.5973 -0.4376
  330TMC3    C6 4955   4.186   0.326   9.194 -0.6182 -0.2006 -0.5312
  330TMC3     C 4956   4.163   0.566   9.535  0.8362  0.0426  0.7509
  330TMC3     O 4957   4.048   0.607   9.538  0.3502 -0.3451 -0.2462
  330TMC3     H 4958   4.001   0.401   9.470 -0.8929 -0.8952 -1.4758
  330TMC3    H1 4959   4.387   0.526   9.382 -0.7883  0.1484  1.9501
  330TMC3    H2 4960   4.172   0.300   9.089  2.2808  0.3654 -1.0579
  330TMC3    C7 4961   4.418   0.405   9.156  0.2209 -0.2152 -0.0115
  330TMC3    C8 4962   3.942   0.339   9.220 -0.0070 -0.8051 -0.1518
  330TMC3    O1 4963   4.509   0.469   9.204  0.3400  0.3833  0.6170
  330TMC3    O2 4964   3.939   0.367   9.100  0.2121  0.5924  0.0662
  331MPD2     C 4965   1.128   4.169  12.993 -0.5264  0.1860  0.2010
  331MPD2    C1 4966   1.252   4.225  12.971 -0.1803  0.0715 -0.3341
  331MPD2    C2 4967   1.346   4.151  12.907 -0.0210 -0.6062  0.3427
  331MPD2    C3 4968   1.317   4.028  12.863  0.5516 -0.3830  0.4266
  331MPD2    C4 4969   1.195   3.965  12.896  0.3567  0.3170  0.0003
  331MPD2    C5 4970   1.098   4.038  12.953  0.6290 -0.2732 -0.3220
  331MPD2     H 4971   1.435   4.199  12.868 -0.0237 -0.5301  0.4311
  331MPD2    H1 4972   1.169   3.862  12.872 -0.4649 -0.2646  3.2773
  331MPD2    H2 4973   1.045   4.235  13.016 -0.4698  0.5414 -0.6132
  331MPD2    H3 4974   1.001   3.998  12.981  0.5529  1.1748  1.5543
  331MPD2     N 4975   1.421   3.969  12.782  0.2833  0.1571  0.2060
  331MPD2    H5 4976   1.500   4.030  12.765  0.1468  0.0553 -0.8152
  331MPD2    N1 4977   1.274   4.358  13.004  0.0027 -0.0514  0.1775
  331MPD2    H7 4978   1.199   4.408  13.052 -0.7253 -1.2888  0.3204
  332TMC3    C1 4979   1.549   3.838  12.642 -0.3783 -0.1290 -0.3168
  332TMC3    C2 4980   1.571   3.947  12.565  0.0900  0.3356 -0.4581
  332TMC3    C3 4981   1.694   3.963  12.509 -0.5842 -0.2549  0.2314
  332TMC3    C4 4982   1.645   3.746  12.664  0.0471  0.0284  0.0221
  332TMC3    C5 4983   1.767   3.766  12.604 -0.3746 -0.1670  0.8317
  332TMC3    C6 4984   1.796   3.880  12.538 -0.2785 -0.2603 -0.0194
  332TMC3     C 4985   1.429   3.845  12.729  0.2142 -0.4703  0.0506
  332TMC3     O 4986   1.372   3.743  12.763 -0.4610  0.1628  0.1377
  332TMC3     H 4987   1.489   4.016  12.548  1.9821  2.7194  0.0404
  332TMC3    H1 4988   1.616   3.654  12.713 -1.5598  0.5572  0.0604
  332TMC3    H2 4989   1.890   3.892  12.486  0.1575  1.4613  1.1554
  332TMC3    C7 4990   1.870   3.670  12.636 -0.1750 -0.0049  0.7119
  332TMC3    C8 4991   1.724   4.083  12.420  0.1362 -0.5211  0.5072
  332TMC3    O1 4992   1.826   3.556  12.639  0.2727 -0.3181  0.6055
  332TMC3    O2 4993   1.843   4.094  12.393 -0.8525 -0.0561  0.2319
  333MPD2     C 4994   1.711   0.104  11.103  0.2700  0.6834 -0.1956
  333MPD2    C1 4995   1.802   0.004  11.080  0.2097 -0.5176  0.9192
  333MPD2    C2 4996   1.767   4.599  11.127 -0.8237 -0.9239  0.1033
  333MPD2    C3 4997   1.650   4.581  11.196 -0.3369  0.1142  0.0499
  333MPD2    C4 4998   1.564   4.686  11.214 -0.3303  0.1876 -0.5787
  333MPD2    C5 4999   1.591   0.084  11.169  0.4881 -0.7644  0.1143
  333MPD2     H 5000   1.824   4.508  11.111  0.0407 -0.3401 -0.1075
  333MPD2    H1 5001   1.475   4.674  11.274  0.2366 -3.1907 -0.3837
  333MPD2    H2 5002   1.723   0.206  11.070  0.6876  0.8104  0.3495
  333MPD2    H3 5003   1.540   0.173  11.202 -0.3851 -0.5259 -1.8796
  333MPD2     N 5004   1.628   4.448  11.242  0.2569 -0.0048  0.9926
  333MPD2    H5 5005   1.709   4.390  11.227  1.9680  2.6001  0.1229
  333MPD2    N1 5006   1.912   0.034  10.992  0.1273  0.2142 -0.5939
  333MPD2    H7 5007   1.911   0.130  10.961 -0.8095  0.8545  1.3989
  334TMC3    C1 5008   2.105   4.715  10.868  0.0225 -0.8396 -0.6175
  334TMC3    C2 5009   2.182   4.619  10.817  1.2323  0.3534  0.2216
  334TMC3    C3 5010   2.305   4.644  10.761  0.1780  0.2588  0.3206
  334TMC3    C4 5011   2.164   0.113  10.883  0.0979 -0.1952  0.0695
  334TMC3    C5 5012   2.284   0.140  10.819 -0.1756  0.5090  1.0644
  334TMC3    C6 5013   2.359   0.043  10.758 -0.4293  0.0179 -0.0756
  334TMC3     C 5014   2.009   4.662  10.958 -0.5374  0.1421 -0.2299
  334TMC3     O 5015   2.001   4.542  10.975 -0.3559  0.2874  0.2651
  334TMC3     H 5016   2.144   4.518  10.814  1.2294  0.3075  2.3695
  334TMC3    H1 5017   2.106   0.193  10.928 -0.1294 -0.7709  0.8052
  334TMC3    H2 5018   2.450   0.059  10.701 -0.1385 -1.0568  0.0927
  334TMC3    C7 5019   2.338   0.270  10.817 -0.0706 -0.2534  0.1115
  334TMC3    C8 5020   2.392   4.535  10.777 -0.9432 -0.3654  0.7452
  334TMC3    O1 5021   2.304   0.341  10.915 -0.2831 -0.4119  0.0158
  334TMC3    O2 5022   2.355   4.420  10.748 -0.9817  0.3146  0.2504
  335TMC3    C1 5023   2.248   1.101  17.560 -0.3996  0.7736  0.0906
  335TMC3    C2 5024   2.120   1.096  17.521 -0.8269  0.0723 -0.4618
  335TMC3    C3 5025   2.076   1.202  17.445  0.3509  0.2952  0.6170
  335TMC3    C4 5026   2.332   1.209  17.539 -0.4015 -0.7614  0.2152
  335TMC3    C5 5027   2.283   1.318  17.476 -0.3713 -0.0721 -0.5628
  335TMC3    C6 5028   2.154   1.315  17.433  0.7531  0.3475 -0.2829
  335TMC3     C 5029   2.289   0.984  17.636  0.1528  0.1336  0.0441
  335TMC3     O 5030   2.213   0.910  17.695 -0.3614 -0.3584 -0.0151
  335TMC3     H 5031   2.058   1.013  17.552  0.0934 -0.6303 -0.5406
  335TMC3    H1 5032   2.435   1.216  17.573 -1.0198  1.8094  1.5709
  335TMC3    H2 5033   2.110   1.394  17.373 -0.8594 -1.4542 -1.4706
  335TMC3    C7 5034   2.379   1.373  17.390 -0.2026  0.6283  0.4482
  335TMC3    C8 5035   2.019   1.153  17.321 -0.2311  0.1862  0.3653
  335TMC3    O1 5036   2.491   1.324  17.395  0.1548  0.0061 -0.4227
  335TMC3    O2 5037   2.069   1.182  17.212 -0.5219  0.2178  0.2698
  336MPD2     C 5038   1.570   3.493  16.179  0.3510  0.0225  0.1256
  336MPD2    C1 5039   1.461   3.469  16.102  1.1385  0.2969 -0.0623
  336MPD2    C2 5040   1.403   3.346  16.090  0.0074  0.4142 -0.7297
  336MPD2    C3 5041   1.458   3.238  16.155 -0.3010 -0.0183 -0.0382
  336MPD2    C4 5042   1.569   3.262  16.234  0.1856  0.5635 -0.0264
  336MPD2    C5 5043   1.628   3.389  16.247 -0.8676  0.2617  0.1216
  336MPD2     H 5044   1.323   3.341  16.018 -0.0597 -1.1441 -0.5420
  336MPD2    H1 5045   1.617   3.178  16.284 -0.4300 -1.2998 -2.5644
  336MPD2    H2 5046   1.603   3.596  16.195 -0.4686  0.2763  0.1489
  336MPD2    H3 5047   1.708   3.407  16.318 -0.3412  0.7830 -0.6080
  336MPD2     N 5048   1.416   3.104  16.148  0.2473 -0.6275  0.4124
  336MPD2    H5 5049   1.463   3.033  16.203 -0.2463 -2.4948 -1.5781
  336MPD2    N1 5050   1.424   3.582  16.031  0.6282 -0.1143 -0.0274
  336MPD2    H7 5051   1.496   3.653  16.040  1.1643 -0.6511 -0.0530
  337TMC3    C1 5052   1.324   3.734  15.872 -0.0085  0.2687  0.2860
  337TMC3    C2 5053   1.221   3.776  15.788  0.7263 -0.4325 -0.1496
  337TMC3    C3 5054   1.233   3.895  15.728 -0.2162 -0.0453 -0.2833
  337TMC3    C4 5055   1.432   3.819  15.895  0.1388  0.8476 -0.1401
  337TMC3    C5 5056   1.441   3.943  15.836  0.3267  0.2115 -0.3458
  337TMC3    C6 5057   1.335   3.981  15.749 -0.8886 -0.1791  0.1804
  337TMC3     C 5058   1.310   3.611  15.951  0.8196 -0.3423 -0.4288
  337TMC3     O 5059   1.219   3.532  15.929  0.3091 -0.1647  0.4341
  337TMC3     H 5060   1.133   3.714  15.774  0.3668  0.5305 -2.1257
  337TMC3    H1 5061   1.516   3.792  15.959 -1.0730  3.7571  2.6723
  337TMC3    H2 5062   1.339   4.076  15.698 -0.0242 -0.2210  0.1714
  337TMC3    C7 5063   1.554   4.038  15.858  0.1171  1.2286  0.6485
  337TMC3    C8 5064   1.111   3.952  15.689  0.7147 -0.0806 -0.7238
  337TMC3    O1 5065   1.556   4.133  15.779  0.7070  0.0084  0.3060
  337TMC3    O2 5066   1.086   4.064  15.727  0.6105 -0.2228 -0.7141
  338MPD2     C 5067   2.324   3.002   1.028  0.5759 -0.0247 -1.1063
  338MPD2    C1 5068   2.204   3.060   0.999  0.5028 -0.0416 -0.0739
  338MPD2    C2 5069   2.165   3.167   1.068  0.0464  0.4283  0.6925
  338MPD2    C3 5070   2.239   3.228   1.173 -0.3540  0.1599  0.1551
  338MPD2    C4 5071   2.362   3.172   1.199  0.8821  0.3904  0.4330
  338MPD2    C5 5072   2.405   3.065   1.121  0.1967  0.6858 -0.3435
  338MPD2     H 5073   2.066   3.205   1.044  0.3231  0.0376 -1.0569
  338MPD2    H1 5074   2.433   3.215   1.268 -1.5547  0.6439  2.8154
  338MPD2    H2 5075   2.365   2.915   0.978 -2.1700 -1.3961 -0.9557
  338MPD2    H3 5076   2.499   3.017   1.148  0.3906  0.2639 -1.7566
  338MPD2     N 5077   2.186   3.336   1.248 -0.5879 -0.2244  0.0156
  338MPD2    H5 5078   2.099   3.378   1.218 -1.0965 -2.4937 -1.6903
  338MPD2    N1 5079   2.123   3.024   0.893  0.2090  0.3440  0.5242
  338MPD2    H7 5080   2.034   3.073   0.893  0.1560  0.2416  1.2288
  339TMC3    C1 5081   2.120   3.466   1.419 -0.5510  0.3088  0.2341
  339TMC3    C2 5082   2.098   3.471   1.552  0.4915 -0.3950 -0.4436
  339TMC3    C3 5083   1.967   3.494   1.599  0.3713  0.2177  0.3730
  339TMC3    C4 5084   2.015   3.497   1.331 -0.8090  0.1703 -0.4520
  339TMC3    C5 5085   1.890   3.502   1.379  0.2644 -0.5393 -0.2428
  339TMC3    C6 5086   1.855   3.496   1.513  0.0077 -0.5712  0.3550
  339TMC3     C 5087   2.224   3.375   1.372 -0.0262 -0.1235 -0.4672
  339TMC3     O 5088   2.311   3.338   1.446 -0.9103  0.3898 -0.3646
  339TMC3     H 5089   2.175   3.432   1.617  0.2101  1.0150  0.7380
  339TMC3    H1 5090   2.029   3.522   1.226 -1.4679  1.3302 -0.2681
  339TMC3    H2 5091   1.753   3.517   1.544  0.2082 -0.4880  0.9549
  339TMC3    C7 5092   1.792   3.473   1.275 -0.0475  0.6994  0.2024
  339TMC3    C8 5093   1.961   3.523   1.747 -0.4622  0.2364  0.4377
  339TMC3    O1 5094   1.841   3.434   1.168  0.4132 -0.1327  0.3824
  339TMC3    O2 5095   2.070   3.543   1.799 -0.3041  0.0587  0.0671
  340MPD2     C 5096   1.425   1.793  10.229 -0.6651 -0.3108 -0.2684
  340MPD2    C1 5097   1.503   1.681  10.227  0.2113  0.9568 -1.0197
  340MPD2    C2 5098   1.620   1.676  10.299  0.1267 -0.5267 -0.2159
  340MPD2    C3 5099   1.643   1.768  10.393 -0.2422  0.1858 -0.7076
  340MPD2    C4 5100   1.555   1.879  10.407 -0.2065 -0.4308 -0.3800
  340MPD2    C5 5101   1.444   1.888  10.327  0.6966 -0.1152  0.1690
  340MPD2     H 5102   1.693   1.597  10.279 -0.3378 -1.3115  1.1871
  340MPD2    H1 5103   1.572   1.954  10.483  1.2786 -0.9324 -0.2347
  340MPD2    H2 5104   1.334   1.803  10.172  0.6064  0.1545 -2.2347
  340MPD2    H3 5105   1.383   1.976  10.344  0.0517 -0.2473 -1.4270
  340MPD2     N 5106   1.753   1.763  10.481 -0.1901 -0.2121 -0.3296
  340MPD2    H5 5107   1.774   1.853  10.524 -0.2234  0.7091 -2.2601
  340MPD2    N1 5108   1.466   1.580  10.135  0.1360  0.2429  0.5694
  340MPD2    H7 5109   1.398   1.610  10.067 -0.0413  1.0281  1.0918
  341TMC3    C1 5110   1.483   1.376  10.021  0.4279  0.7637  0.7309
  341TMC3    C2 5111   1.492   1.243  10.028 -0.9091  0.0589 -0.3078
  341TMC3    C3 5112   1.517   1.162   9.918 -0.1043 -0.6705  0.3697
  341TMC3    C4 5113   1.486   1.441   9.898 -0.7702 -0.2884  0.6170
  341TMC3    C5 5114   1.512   1.360   9.788 -0.0697 -0.9476  0.5244
  341TMC3    C6 5115   1.519   1.215   9.789  0.0049  0.4854 -0.8192
  341TMC3     C 5116   1.508   1.447  10.143  0.4569 -0.0958 -0.5209
  341TMC3     O 5117   1.589   1.394  10.216 -0.1435  0.3208  0.0943
  341TMC3     H 5118   1.485   1.198  10.127 -2.0300 -0.5534 -0.6723
  341TMC3    H1 5119   1.494   1.549   9.892 -1.9620 -0.2582 -0.3586
  341TMC3    H2 5120   1.534   1.156   9.699 -0.4499  1.4327 -1.5191
  341TMC3    C7 5121   1.512   1.419   9.657 -0.6362  0.2378  0.4220
  341TMC3    C8 5122   1.550   1.021   9.939 -0.5356  0.1669  0.2580
  341TMC3    O1 5123   1.556   1.354   9.563 -0.4609  0.3335  0.3636
  341TMC3    O2 5124   1.508   0.975  10.045  0.4319 -0.6309  0.2464
  342MPD2     C 5125   4.623   3.989   0.038  0.1753  0.0896  0.5068
  342MPD2    C1 5126   4.688   4.065  17.652 -0.4773  0.4173 -0.2215
  342MPD2    C2 5127   0.014   4.189  17.695  0.3391  0.3209 -1.0113
  342MPD2    C3 5128   0.011   4.227   0.128 -0.2234 -0.2462  0.1526
  342MPD2    C4 5129   4.683   4.136   0.218 -0.3809  0.0747 -0.8799
  342MPD2    C5 5130   4.618   4.029   0.169  0.0895 -0.4955 -0.7636
  342MPD2     H 5131   0.059   4.249  17.617  1.5325 -0.6622 -1.0669
  342MPD2    H1 5132   4.683   4.142   0.326 -0.9278  0.0829 -0.8798
  342MPD2    H2 5133   4.592   3.888   0.017  0.9892  0.0856 -0.6647
  342MPD2    H3 5134   4.577   3.945   0.225 -1.4060  0.4748 -0.4100
  342MPD2     N 5135   0.068   4.348   0.176  0.2014  0.0115 -0.3459
  342MPD2    H5 5136   0.064   4.360   0.277  4.1060 -0.7541 -0.0774
  342MPD2    N1 5137   4.706   4.026  17.517 -0.1227 -0.5866  0.1545
  342MPD2    H7 5138   0.038   4.087  17.460  0.4959  0.4282  1.8441
  343TMC3    C1 5139   4.699   3.889  17.328  0.3932  1.0343  0.1271
  343TMC3    C2 5140   0.111   3.888  17.306  0.1284  0.7947  0.5861
  343TMC3    C3 5141   0.161   3.810  17.213  0.5522 -0.3136  0.1420
  343TMC3    C4 5142   4.614   3.809  17.255  0.3848  0.4774  0.3837
  343TMC3    C5 5143   4.672   3.736  17.151 -0.0578 -0.1786  0.5760
  343TMC3    C6 5144   0.084   3.732  17.129  0.2068 -0.2466 -0.2528
  343TMC3     C 5145   4.661   3.906  17.464 -0.8194  0.3652 -0.2085
  343TMC3     O 5146   4.577   3.827  17.499  0.0213  0.3218 -0.2747
  343TMC3     H 5147   0.167   3.960  17.365 -1.4341  0.9830  1.8356
  343TMC3    H1 5148   4.513   3.797  17.290  0.0912 -3.0282 -1.6429
  343TMC3    H2 5149   0.135   3.692  17.041  3.9657 -0.3677  1.9732
  343TMC3    C7 5150   4.590   3.620  17.112 -1.0245  0.2766 -0.0550
  343TMC3    C8 5151   0.299   3.838  17.175  0.1802 -0.0412  0.4255
  343TMC3    O1 5152   4.509   3.581  17.193 -0.2391 -0.6692  0.0301
  343TMC3    O2 5153   0.340   3.953  17.190  0.1228 -0.2622 -0.4833
  344MPD2     C 5154   1.029   3.418  10.962 -0.1200 -0.2308  0.3001
  344MPD2    C1 5155   0.916   3.452  10.894  0.4078 -0.1445 -0.5950
  344MPD2    C2 5156   0.929   3.521  10.776  0.3633  0.4590  0.2301
  344MPD2    C3 5157   1.054   3.568  10.733 -0.2907  0.1392 -0.3160
  344MPD2    C4 5158   1.160   3.541  10.807 -0.5408 -0.1424 -0.0269
  344MPD2    C5 5159   1.151   3.451  10.914 -0.4059  0.3153  0.7891
  344MPD2     H 5160   0.841   3.545  10.717  1.2183  2.1102 -0.3667
  344MPD2    H1 5161   1.262   3.573  10.788  0.2500 -3.0454 -0.6337
  344MPD2    H2 5162   1.028   3.351  11.047 -0.9856  0.5188  0.8801
  344MPD2    H3 5163   1.243   3.414  10.958 -0.0459  0.7162  0.3870
  344MPD2     N 5164   1.076   3.633  10.613  0.2678  0.1958  0.4114
  344MPD2    H5 5165   1.170   3.671  10.620  0.2078  0.4102  0.0665
  344MPD2    N1 5166   0.792   3.422  10.951  0.3596  0.2178  0.7915
  344MPD2    H7 5167   0.711   3.422  10.890 -0.0161  2.3845  1.3175
  345TMC3    C1 5168   1.027   3.764  10.421 -0.7421 -0.4873 -0.2918
  345TMC3    C2 5169   1.155   3.759  10.364  0.4704 -0.1200  0.0880
  345TMC3    C3 5170   1.201   3.873  10.301  0.3571 -0.7804  0.2797
  345TMC3    C4 5171   0.936   3.860  10.384 -0.0064  0.4058  0.5482
  345TMC3    C5 5172   0.983   3.956  10.299  0.0155 -1.2139 -0.4503
  345TMC3    C6 5173   1.113   3.971  10.263 -0.2064 -0.4180 -0.4510
  345TMC3     C 5174   0.981   3.657  10.515 -0.2153 -0.2024  0.0851
  345TMC3     O 5175   0.865   3.611  10.504  0.4058 -0.2996  0.3817
  345TMC3     H 5176   1.220   3.674  10.380 -0.9401 -1.5866 -2.1154
  345TMC3    H1 5177   0.834   3.845  10.415 -0.3713 -1.2136 -1.4091
  345TMC3    H2 5178   1.135   4.046  10.188 -4.0915  1.2347  0.0766
  345TMC3    C7 5179   0.902   4.070  10.258  0.6262  0.2046 -0.2152
  345TMC3    C8 5180   1.344   3.902  10.281  0.1893  0.1693  0.4945
  345TMC3    O1 5181   0.965   4.169  10.225  0.6697 -0.1880  0.6344
  345TMC3    O2 5182   1.420   3.808  10.291  0.5682 -0.2153 -0.1607
  346MPD2     C 5183   0.569   0.504  14.420 -0.2165 -0.3006 -0.7771
  346MPD2    C1 5184   0.622   0.537  14.297 -0.1971 -0.4603  0.5674
  346MPD2    C2 5185   0.683   0.659  14.281  0.2548 -0.1094 -0.4265
  346MPD2    C3 5186   0.689   0.752  14.384  0.1419  0.1423  0.1307
  346MPD2    C4 5187   0.646   0.714  14.505  0.1494 -0.7416  0.6568
  346MPD2    C5 5188   0.586   0.590  14.521 -0.2364  0.0055 -0.1569
  346MPD2     H 5189   0.735   0.686  14.189  1.1436 -1.4162 -0.3223
  346MPD2    H1 5190   0.653   0.777  14.593  0.8656  0.3601 -0.1915
  346MPD2    H2 5191   0.522   0.407  14.432 -1.4390  0.2350 -1.2304
  346MPD2    H3 5192   0.554   0.567  14.622  1.0036 -1.1367 -0.0146
  346MPD2     N 5193   0.756   0.872  14.363  0.3461 -0.0451 -0.2537
  346MPD2    H5 5194   0.782   0.897  14.269  1.4845  0.3555  0.1713
  346MPD2    N1 5195   0.627   0.440  14.199  0.0303 -0.2709 -0.6825
  346MPD2    H7 5196   0.693   0.466  14.127 -0.7239 -0.6788 -1.5168
  347TMC3    C1 5197   0.833   1.086  14.381 -0.2451  0.0930  0.1951
  347TMC3    C2 5198   0.845   1.102  14.243  0.1872 -0.2110  0.3799
  347TMC3    C3 5199   0.954   1.159  14.192 -0.3982  0.3751 -0.3342
  347TMC3    C4 5200   0.913   1.160  14.467  0.1005 -0.3133 -0.3721
  347TMC3    C5 5201   1.023   1.219  14.409 -0.7428 -0.1089  0.6484
  347TMC3    C6 5202   1.044   1.227  14.274  0.3864  0.1703  0.4349
  347TMC3     C 5203   0.775   0.970  14.450  0.0089  0.0094 -0.3030
  347TMC3     O 5204   0.778   0.968  14.573 -0.2131  0.1342 -0.0205
  347TMC3     H 5205   0.772   1.063  14.174  0.1073 -0.3404  0.5355
  347TMC3    H1 5206   0.885   1.157  14.572 -3.3269  0.7981 -1.2473
  347TMC3    H2 5207   1.128   1.278  14.228 -0.6148 -0.8358 -2.5713
  347TMC3    C7 5208   1.089   1.316  14.491  0.7226 -0.0648  0.3414
  347TMC3    C8 5209   0.979   1.179  14.051 -0.1659 -0.3965  0.3247
  347TMC3    O1 5210   1.094   1.307  14.611 -0.3206  0.0667  0.0001
  347TMC3    O2 5211   1.031   1.285  14.027  0.2399  0.3695 -0.2796
  348MPD2     C 5212   3.907   0.076  12.441  0.4171  0.0308  0.4561
  348MPD2    C1 5213   3.991   0.184  12.438  0.2425 -0.2433 -0.5213
  348MPD2    C2 5214   3.953   0.286  12.352  0.2762  0.3595  0.0134
  348MPD2    C3 5215   3.836   0.288  12.281  0.0360 -0.0920 -0.6546
  348MPD2    C4 5216   3.749   0.179  12.292  0.6186  0.2172  0.2332
  348MPD2    C5 5217   3.789   0.070  12.366 -0.5996  0.2592  0.2224
  348MPD2     H 5218   4.018   0.371  12.335 -0.2401  1.1261  1.9442
  348MPD2    H1 5219   3.657   0.177  12.234  2.1793 -1.8171 -2.1961
  348MPD2    H2 5220   3.938   4.711  12.492  1.6299  1.6393  2.5877
  348MPD2    H3 5221   3.726   4.707  12.359  0.6770 -0.8042  2.1684
  348MPD2     N 5222   3.815   0.404  12.193 -0.6138 -0.2229  0.4054
  348MPD2    H5 5223   3.873   0.485  12.212  0.2509 -0.3936 -1.4986
  348MPD2    N1 5224   4.102   0.200  12.525 -0.4219  0.1723  0.3455
  348MPD2    H7 5225   4.158   0.285  12.525  0.8256 -0.6576  0.2674
  349TMC3    C1 5226   4.284   0.117  12.665  0.4529 -0.1357  0.9330
  349TMC3    C2 5227   4.348   4.719  12.669  0.0532  0.2251 -0.1871
  349TMC3    C3 5228   4.464   4.713  12.601 -0.9192  0.0232 -0.0643
  349TMC3    C4 5229   4.347   0.231  12.616  0.6141  0.2952 -0.1100
  349TMC3    C5 5230   4.472   0.224  12.561 -0.0208 -0.5821  1.1744
  349TMC3    C6 5231   4.532   0.099  12.557 -0.6056  0.2517  0.0400
  349TMC3     C 5232   4.147   0.103  12.615 -1.0087 -1.1766  0.7637
  349TMC3     O 5233   4.084   0.006  12.653  0.1249  0.3018 -0.7160
  349TMC3     H 5234   4.294   4.626  12.687  2.1620 -1.0219 -0.3092
  349TMC3    H1 5235   4.301   0.329  12.619  1.0707  0.5342 -1.3048
  349TMC3    H2 5236   4.628   0.075  12.513 -0.2497 -2.7374  2.4364
  349TMC3    C7 5237   4.474   0.284  12.429  0.6660  0.4427 -0.6886
  349TMC3    C8 5238   4.526   4.580  12.607  0.4863  0.5342  0.9964
  349TMC3    O1 5239   4.471   0.202  12.338  0.5488  0.0548  0.3728
  349TMC3    O2 5240   4.475   4.499  12.682  0.1703 -0.1117  0.7648
  350MPD2     C 5241   3.487   3.441  10.160 -0.7769  0.1405  0.1541
  350MPD2    C1 5242   3.539   3.313  10.161 -0.1731 -0.6047  0.7470
  350MPD2    C2 5243   3.679   3.293  10.158 -0.3985 -0.2065 -0.1579
  350MPD2    C3 5244   3.766   3.398  10.145  0.0754 -0.2777 -0.3526
  350MPD2    C4 5245   3.713   3.526  10.146  0.0401  0.1996 -0.0576
  350MPD2    C5 5246   3.577   3.541  10.148  0.2311 -0.1001  0.0934
  350MPD2     H 5247   3.723   3.194  10.170  0.4561  0.0761 -0.9712
  350MPD2    H1 5248   3.774   3.616  10.140 -1.1237  0.9360 -0.9897
  350MPD2    H2 5249   3.380   3.454  10.173 -1.1529 -1.7001 -1.0953
  350MPD2    H3 5250   3.544   3.644  10.138 -0.0386 -0.0769  1.1532
  350MPD2     N 5251   3.907   3.374  10.133 -0.3799 -0.4513  0.6704
  350MPD2    H5 5252   3.931   3.277  10.154  0.3427 -0.2615  0.7018
  350MPD2    N1 5253   3.463   3.193  10.160 -0.3717 -0.0285 -0.1616
  350MPD2    H7 5254   3.518   3.108  10.152  0.5098  0.5874 -0.6673
  351TMC3    C1 5255   3.272   3.043  10.169  0.0532 -0.8250 -0.6790
  351TMC3    C2 5256   3.357   2.931  10.175 -0.1682 -0.8736  0.4201
  351TMC3    C3 5257   3.301   2.812  10.208  0.2148  0.2097 -0.4944
  351TMC3    C4 5258   3.131   3.034  10.177 -0.4139  0.2338 -0.0915
  351TMC3    C5 5259   3.088   2.910  10.208 -0.2938  0.3069  0.2392
  351TMC3    C6 5260   3.166   2.801  10.225 -0.3160  0.5679 -0.0655
  351TMC3     C 5261   3.323   3.181  10.178 -0.0432 -0.5037 -0.6899
  351TMC3     O 5262   3.239   3.272  10.174 -1.1577 -0.5701  0.2150
  351TMC3     H 5263   3.463   2.941  10.193  0.0844 -3.5339  0.2737
  351TMC3    H1 5264   3.065   3.119  10.166 -0.3954  0.5049  1.9381
  351TMC3    H2 5265   3.124   2.701  10.231  0.6863  0.3414  3.2990
  351TMC3    C7 5266   2.947   2.879  10.225 -0.0248 -0.9074 -0.4020
  351TMC3    C8 5267   3.384   2.696  10.224 -0.7124 -0.2967  0.2891
  351TMC3    O1 5268   2.909   2.761  10.204 -0.1565  0.6422  0.7331
  351TMC3    O2 5269   3.508   2.712  10.206 -0.0189 -0.0733 -0.0451
  352MPD2     C 5270   2.155   4.626   1.602  0.0409 -0.1370  0.3211
  352MPD2    C1 5271   2.033   4.622   1.676 -0.6351  0.0329  0.8431
  352MPD2    C2 5272   2.015   4.517   1.764  0.3186  0.6129 -0.3928
  352MPD2    C3 5273   2.119   4.419   1.772 -0.2536  0.6527  0.1235
  352MPD2    C4 5274   2.237   4.429   1.699  0.3658  0.3864  0.5114
  352MPD2    C5 5275   2.246   4.524   1.607  0.2945  0.1311  0.0527
  352MPD2     H 5276   1.923   4.502   1.820  0.9038 -1.5259  0.0021
  352MPD2    H1 5277   2.309   4.348   1.711 -0.5735 -1.2401 -4.7687
  352MPD2    H2 5278   2.174   4.700   1.526 -0.2753 -0.9014 -0.4985
  352MPD2    H3 5279   2.342   4.521   1.557  0.5644  3.1985  0.4179
  352MPD2     N 5280   2.102   4.295   1.845 -0.5581 -0.6296 -0.6066
  352MPD2    H5 5281   2.187   4.240   1.844  0.1926  0.5488 -1.9162
  352MPD2    N1 5282   1.941   4.723   1.652  0.3616  0.1532  0.5349
  352MPD2    H7 5283   1.971   0.080   1.598  1.5131 -0.0934  0.8046
  353TMC3    C1 5284   1.994   4.093   1.911 -0.1100  0.1296 -0.8105
  353TMC3    C2 5285   2.122   4.047   1.942 -0.5181  0.8017 -0.0502
  353TMC3    C3 5286   2.169   3.938   1.878  0.3809  0.1915 -0.1033
  353TMC3    C4 5287   1.908   4.018   1.830 -0.3356 -0.2875  0.5958
  353TMC3    C5 5288   1.965   3.905   1.767 -0.2007  0.1667 -0.1980
  353TMC3    C6 5289   2.098   3.876   1.779 -0.1284  1.2021  0.1112
  353TMC3     C 5290   1.981   4.234   1.883 -0.2811 -0.1717 -1.0289
  353TMC3     O 5291   1.873   4.276   1.849 -0.0052 -0.1122  0.0991
  353TMC3     H 5292   2.171   4.096   2.025  1.0854 -0.9484  0.0256
  353TMC3    H1 5293   1.814   4.064   1.800 -0.0002  1.1984  1.7790
  353TMC3    H2 5294   2.135   3.786   1.732  1.2025  1.1448  1.2799
  353TMC3    C7 5295   1.891   3.843   1.659 -0.8803 -0.5542 -0.2094
  353TMC3    C8 5296   2.286   3.878   1.926  0.4018 -0.5103  0.2632
  353TMC3    O1 5297   1.962   3.792   1.574 -0.4733 -0.6598  0.1167
  353TMC3    O2 5298   2.323   3.889   2.041 -0.3987  0.4162 -0.5090
  354TMC3    C1 5299   3.291   1.489  13.722  0.2977  0.6910 -0.3286
  354TMC3    C2 5300   3.178   1.557  13.678  0.6739  0.5898  0.1394
  354TMC3    C3 5301   3.178   1.596  13.544 -0.4790  0.3049  0.5682
  354TMC3    C4 5302   3.392   1.452  13.638  0.3219  0.3356 -0.8746
  354TMC3    C5 5303   3.372   1.474  13.505 -0.5292  0.8149 -0.5610
  354TMC3    C6 5304   3.271   1.553  13.454  0.2230  0.6245  0.0991
  354TMC3     C 5305   3.278   1.431  13.860 -0.3125  0.2616  0.1077
  354TMC3     O 5306   3.166   1.430  13.905  0.4990 -0.2016  0.0324
  354TMC3     H 5307   3.099   1.584  13.747 -0.4616  0.0386 -0.9341
  354TMC3    H1 5308   3.455   1.367  13.663 -2.3907 -1.7879 -1.3472
  354TMC3    H2 5309   3.254   1.547  13.347 -0.7852 -0.3448  0.3186
  354TMC3    C7 5310   3.425   1.367  13.421  0.1529 -0.2758  0.2846
  354TMC3    C8 5311   3.063   1.668  13.495  0.3436 -0.2327  0.2180
  354TMC3    O1 5312   3.432   1.258  13.473  0.3096 -0.2079  0.2172
  354TMC3    O2 5313   3.090   1.741  13.401  0.3011  0.3535 -0.0706
  355MPD2     C 5314   3.671   2.188  12.506  0.4358 -0.7617  0.3598
  355MPD2    C1 5315   3.644   2.245  12.383  0.0366  0.8763 -0.1561
  355MPD2    C2 5316   3.746   2.296  12.307  0.1005 -0.0530  0.3463
  355MPD2    C3 5317   3.880   2.290  12.350  0.5168 -0.5702 -0.5385
  355MPD2    C4 5318   3.903   2.230  12.468  0.0009 -0.3232 -0.1154
  355MPD2    C5 5319   3.804   2.187  12.552  0.3387  0.2016 -0.4497
  355MPD2     H 5320   3.727   2.339  12.209 -2.5231  1.1963  1.3910
  355MPD2    H1 5321   4.007   2.216  12.498 -0.0797 -0.3929  0.1308
  355MPD2    H2 5322   3.594   2.141  12.567  0.9878 -0.9499  0.9105
  355MPD2    H3 5323   3.829   2.157  12.653 -1.1887 -2.9116 -0.9862
  355MPD2     N 5324   3.990   2.352  12.279  0.3229 -0.5620 -0.0319
  355MPD2    H5 5325   4.081   2.330  12.320 -0.0566  0.6269  1.4383
  355MPD2    N1 5326   3.504   2.249  12.342 -0.3545 -0.6912 -0.6617
  355MPD2    H7 5327   3.449   2.185  12.398  0.8257 -0.6737  0.5154
  356TMC3    C1 5328   4.111   2.485  12.136 -0.8157  0.3919  0.1437
  356TMC3    C2 5329   4.115   2.546  12.014  0.2326 -0.0454  0.5125
  356TMC3    C3 5330   4.213   2.640  11.995 -0.5948  0.3314  0.2873
  356TMC3    C4 5331   4.202   2.519  12.234 -0.1331 -0.4104  0.0724
  356TMC3    C5 5332   4.274   2.631  12.218  0.3998 -0.7985  0.3896
  356TMC3    C6 5333   4.294   2.691  12.093 -0.5073  0.5900 -0.4067
  356TMC3     C 5334   3.984   2.411  12.158  0.5782  0.2057  0.7951
  356TMC3     O 5335   3.899   2.410  12.072  0.0474 -0.2683  0.8742
  356TMC3     H 5336   4.066   2.505  11.926 -0.5600 -1.2152  1.5008
  356TMC3    H1 5337   4.179   2.481  12.333  1.0258  2.5658  1.4737
  356TMC3    H2 5338   4.361   2.775  12.074 -1.1315  0.7441 -1.9595
  356TMC3    C7 5339   4.363   2.664  12.326 -0.2330 -0.3548 -0.4024
  356TMC3    C8 5340   4.226   2.683  11.854  0.1560  0.5389  0.2408
  356TMC3    O1 5341   4.390   2.574  12.406  0.2877  0.0383  0.1103
  356TMC3    O2 5342   4.133   2.663  11.777  0.1123  0.6358  0.0621
  357MPD2     C 5343   3.383   1.429   0.976  0.3814  0.1221  0.0734
  357MPD2    C1 5344   3.447   1.367   1.083  0.8128  0.2228 -0.5191
  357MPD2    C2 5345   3.385   1.269   1.157  0.0093  0.2819  0.1796
  357MPD2    C3 5346   3.247   1.242   1.129 -0.0044  0.6272  0.9463
  357MPD2    C4 5347   3.184   1.323   1.033  0.0980 -0.2950  0.6548
  357MPD2    C5 5348   3.250   1.409   0.957 -0.3507 -0.2236 -0.2145
  357MPD2     H 5349   3.437   1.206   1.229 -0.5631 -0.3628  0.0301
  357MPD2    H1 5350   3.079   1.318   1.010  1.0844  0.1443 -4.0467
  357MPD2    H2 5351   3.444   1.488   0.909  1.5841  0.2497  1.2633
  357MPD2    H3 5352   3.195   1.457   0.876 -0.0045  0.3042 -0.1385
  357MPD2     N 5353   3.180   1.123   1.168 -0.3983  0.5313 -0.1468
  357MPD2    H5 5354   3.087   1.102   1.132  0.2193 -1.3250 -0.6682
  357MPD2    N1 5355   3.581   1.409   1.108 -0.3101  0.2297 -0.2605
  357MPD2    H7 5356   3.618   1.478   1.044  0.6248 -1.7296 -1.8128
  358TMC3    C1 5357   3.783   1.435   1.197 -0.4543  0.2254  0.6210
  358TMC3    C2 5358   3.824   1.452   1.072 -0.3628 -0.0648 -1.3747
  358TMC3    C3 5359   3.944   1.513   1.055 -0.8578  0.7190 -0.2565
  358TMC3    C4 5360   3.858   1.447   1.307 -0.1309  0.2333  0.2891
  358TMC3    C5 5361   3.985   1.503   1.288 -0.0773 -0.5205  0.4662
  358TMC3    C6 5362   4.029   1.545   1.162  0.6133  0.5303  0.0078
  358TMC3     C 5363   3.659   1.376   1.216  0.9495  0.0675  0.1532
  358TMC3     O 5364   3.627   1.309   1.315  0.1699  0.2095 -0.2192
  358TMC3     H 5365   3.764   1.449   0.982 -2.5784  0.1933  0.0814
  358TMC3    H1 5366   3.825   1.414   1.405 -1.7308  0.3652 -0.1988
  358TMC3    H2 5367   4.134   1.559   1.143  0.2520  1.0920 -1.6049
  358TMC3    C7 5368   4.059   1.548   1.406  0.3125  0.1956 -0.5103
  358TMC3    C8 5369   3.977   1.558   0.921 -0.2717  0.1049  0.4960
  358TMC3    O1 5370   4.020   1.511   1.516  0.2036  0.0870  0.0740
  358TMC3    O2 5371   3.936   1.491   0.825  0.2482 -0.6937  0.1342
  359MPD2     C 5372   3.645   0.973  12.818 -1.1358  0.0048  0.8834
  359MPD2    C1 5373   3.685   0.917  12.699 -0.8173  0.5759 -0.1072
  359MPD2    C2 5374   3.673   0.778  12.690  0.0795  0.2517 -0.4652
  359MPD2    C3 5375   3.640   0.698  12.802 -0.0444 -0.2997 -0.5993
  359MPD2    C4 5376   3.624   0.759  12.926  0.0452  0.6295  0.1676
  359MPD2    C5 5377   3.620   0.894  12.928 -0.4105 -0.3262 -0.0018
  359MPD2     H 5378   3.688   0.741  12.589 -2.3555  2.2741 -1.5791
  359MPD2    H1 5379   3.617   0.708  13.022 -2.7657 -0.6534 -0.7004
  359MPD2    H2 5380   3.648   1.079  12.842  1.1635  0.3602 -0.9697
  359MPD2    H3 5381   3.614   0.940  13.026 -1.2581  1.0301 -0.6882
  359MPD2     N 5382   3.622   0.556  12.794  0.1321  0.0973 -0.1169
  359MPD2    H5 5383   3.591   0.514  12.881 -0.9736 -0.0764 -0.6000
  359MPD2    N1 5384   3.743   0.989  12.590 -0.0047 -0.4051  0.5401
  359MPD2    H7 5385   3.764   0.942  12.503 -1.4822  1.9289 -1.0455
  360TMC3    C1 5386   3.782   1.185  12.463  0.6717 -0.0426  0.0603
  360TMC3    C2 5387   3.872   1.290  12.460 -0.3915 -0.0859 -0.1634
  360TMC3    C3 5388   3.917   1.334  12.343 -0.3397 -0.2189 -0.5869
  360TMC3    C4 5389   3.730   1.138  12.342 -0.4417  0.3237  0.4507
  360TMC3    C5 5390   3.781   1.189  12.226 -0.0258  0.0519  0.7536
  360TMC3    C6 5391   3.870   1.282  12.226  0.5463 -1.0079 -0.0747
  360TMC3     C 5392   3.765   1.125  12.592 -0.1520 -0.1179  0.5040
  360TMC3     O 5393   3.766   1.201  12.688  0.0505  0.0329 -0.3660
  360TMC3     H 5394   3.931   1.311  12.548 -1.8838  1.0513  0.5820
  360TMC3    H1 5395   3.667   1.050  12.344 -0.6749  0.5048  1.7688
  360TMC3    H2 5396   3.916   1.319  12.135 -0.3963 -0.0294 -0.1494
  360TMC3    C7 5397   3.732   1.152  12.099 -0.0953 -0.1180 -0.1779
  360TMC3    C8 5398   4.029   1.411  12.345  0.2195  0.0069 -0.4092
  360TMC3    O1 5399   3.758   1.227  12.005 -0.4474 -0.2508  0.1886
  360TMC3    O2 5400   4.041   1.506  12.425  0.2436  0.0396 -0.5534
  361MPD2     C 5401   1.080   0.252  17.500  0.3832  0.4537  0.2349
  361MPD2    C1 5402   0.994   0.154  17.459 -0.1810 -0.4842  0.2494
  361MPD2    C2 5403   1.045   0.027  17.442 -0.3028  0.5512  0.5741
  361MPD2    C3 5404   1.178   4.724  17.476 -0.1916  0.8043  0.5668
  361MPD2    C4 5405   1.254   0.100  17.524  0.1974  0.3247 -0.2536
  361MPD2    C5 5406   1.210   0.227  17.538  0.4469 -0.2450  0.0468
  361MPD2     H 5407   0.978   4.670  17.420  1.7110 -1.1457  0.6467
  361MPD2    H1 5408   1.357   0.085  17.554 -0.7794  2.1074  4.1418
  361MPD2    H2 5409   1.040   0.352  17.512  1.5355  1.2139 -2.3605
  361MPD2    H3 5410   1.278   0.297  17.585  0.7864  0.6452 -1.7549
  361MPD2     N 5411   1.229   4.595  17.485  0.1098 -0.1223 -0.4738
  361MPD2    H5 5412   1.325   4.598  17.521  0.7384 -0.8550 -2.0988
  361MPD2    N1 5413   0.862   0.184  17.422  0.1260  0.0790  0.2675
  361MPD2    H7 5414   0.814   0.100  17.391 -1.3124  0.8628  0.3735
  362TMC3    C1 5415   0.663   0.298  17.386  0.2502  0.7188 -0.3472
  362TMC3    C2 5416   0.582   0.215  17.454 -0.3846 -0.1247  0.0386
  362TMC3    C3 5417   0.447   0.246  17.459 -0.6641  0.5045  0.2971
  362TMC3    C4 5418   0.624   0.406  17.312  0.2121 -0.0215 -0.7546
  362TMC3    C5 5419   0.487   0.430  17.305 -0.2297 -0.5216  0.3900
  362TMC3    C6 5420   0.393   0.353  17.385  0.3179 -0.1676  0.1682
  362TMC3     C 5421   0.800   0.304  17.417 -0.9199  1.2910 -0.2095
  362TMC3     O 5422   0.847   0.418  17.417 -0.1165  0.5848 -0.0691
  362TMC3     H 5423   0.625   0.130  17.505 -1.0451  1.4567  3.2318
  362TMC3    H1 5424   0.699   0.460  17.255 -0.0022 -0.8471 -1.8331
  362TMC3    H2 5425   0.289   0.379  17.396  0.1723 -0.1581 -1.3416
  362TMC3    C7 5426   0.438   0.499  17.191  0.5404 -0.0794  0.2036
  362TMC3    C8 5427   0.352   0.146  17.510  0.3540 -0.9616 -0.0942
  362TMC3    O1 5428   0.514   0.569  17.122  0.1324  0.6242 -0.2091
  362TMC3    O2 5429   0.392   0.029  17.521 -0.1737  0.1428 -0.7570
  363TMC3    C1 5430   4.338   2.644   9.998 -0.2695 -0.4527 -0.0172
  363TMC3    C2 5431   4.297   2.547  10.082  0.1260  0.6049  0.1473
  363TMC3    C3 5432   4.170   2.551  10.132  0.1817  0.8943 -0.8058
  363TMC3    C4 5433   4.250   2.735   9.945  0.5369 -0.7103 -0.0603
  363TMC3    C5 5434   4.123   2.734   9.986  0.1077 -0.0883  0.3265
  363TMC3    C6 5435   4.079   2.645  10.084  0.3459 -0.2898  0.3565
  363TMC3     C 5436   4.460   2.618   9.923 -0.0787 -0.2025  0.0435
  363TMC3     O 5437   4.495   2.708   9.850 -0.3244  0.1941 -0.9830
  363TMC3     H 5438   4.372   2.486  10.131 -1.0450  0.1131  1.3031
  363TMC3    H1 5439   4.282   2.793   9.860  4.3640 -1.4538  0.8737
  363TMC3    H2 5440   3.976   2.646  10.117  0.4824 -2.1577  0.8454
  363TMC3    C7 5441   4.029   2.837   9.948  0.8658  0.0005 -0.2633
  363TMC3    C8 5442   4.135   2.460  10.231  0.2820 -0.3388  0.4777
  363TMC3    O1 5443   3.923   2.841  10.006  0.8069  0.2532  0.2532
  363TMC3    O2 5444   4.031   2.470  10.297  0.2350 -0.0841  0.1730
  364MPD2     C 5445   2.502   2.016  10.578  1.1081  0.0255 -0.0962
  364MPD2    C1 5446   2.620   1.965  10.530  0.0386 -0.5627 -0.4924
  364MPD2    C2 5447   2.651   1.831  10.559  0.4570  0.5277  0.0209
  364MPD2    C3 5448   2.568   1.754  10.635 -0.0685 -0.1004 -0.4531
  364MPD2    C4 5449   2.457   1.805  10.688  0.2217 -0.7564 -0.6197
  364MPD2    C5 5450   2.420   1.940  10.659  0.2040  0.2619  0.4006
  364MPD2     H 5451   2.757   1.815  10.549 -0.0199 -2.1387 -0.9825
  364MPD2    H1 5452   2.412   1.745  10.766 -0.4679 -0.4128 -0.7528
  364MPD2    H2 5453   2.480   2.120  10.556 -0.6817  0.0844  1.9522
  364MPD2    H3 5454   2.338   1.981  10.717  0.7420 -0.4070  1.6332
  364MPD2     N 5455   2.609   1.623  10.676 -0.5617 -0.6338  0.0817
  364MPD2    H5 5456   2.554   1.574  10.745 -1.3761  0.3444  0.1274
  364MPD2    N1 5457   2.710   2.063  10.485 -0.6620 -0.1147  0.3653
  364MPD2    H7 5458   2.686   2.161  10.496 -0.6184 -0.0008 -0.5328
  365TMC3    C1 5459   2.890   2.139  10.357 -0.9494 -0.1327  0.0350
  365TMC3    C2 5460   2.967   2.123  10.250  0.1607  0.1326 -0.2017
  365TMC3    C3 5461   3.031   2.234  10.198 -0.0370  0.2405 -0.2727
  365TMC3    C4 5462   2.893   2.256  10.426  0.3390 -0.5324  0.2175
  365TMC3    C5 5463   2.947   2.367  10.368  0.6276  0.7475  0.3021
  365TMC3    C6 5464   3.017   2.355  10.253 -0.3534 -0.5300 -0.2697
  365TMC3     C 5465   2.816   2.028  10.411 -0.2080  0.0253  0.2732
  365TMC3     O 5466   2.841   1.919  10.362  0.6827 -0.0727 -0.1519
  365TMC3     H 5467   2.955   2.033  10.192  0.0449 -0.5020  0.8188
  365TMC3    H1 5468   2.863   2.255  10.530  0.2082 -1.2913  0.1754
  365TMC3    H2 5469   3.080   2.432  10.210  0.0748  1.1287  3.3021
  365TMC3    C7 5470   2.962   2.485  10.446 -0.5439 -0.2030  0.0095
  365TMC3    C8 5471   3.110   2.220  10.070  0.5416 -0.0743 -0.3402
  365TMC3    O1 5472   3.055   2.558  10.411 -0.1696  0.1032  0.1470
  365TMC3    O2 5473   3.129   2.318   9.996 -0.6649  0.1547 -0.7854
  366MPD2     C 5474   1.384   2.336  15.385  0.2414 -0.1709 -0.8538
  366MPD2    C1 5475   1.338   2.416  15.279 -0.3698  0.2366  0.0753
  366MPD2    C2 5476   1.402   2.401  15.158  0.1074 -0.4277  0.2746
  366MPD2    C3 5477   1.507   2.315  15.146  0.5146  1.0852  0.7034
  366MPD2    C4 5478   1.544   2.228  15.245 -0.1082  0.6607  0.4546
  366MPD2    C5 5479   1.488   2.247  15.364  0.4335  0.3537 -0.3573
  366MPD2     H 5480   1.370   2.453  15.069  0.7076 -0.6581 -0.0762
  366MPD2    H1 5481   1.628   2.160  15.236 -0.2856  0.4618  0.3096
  366MPD2    H2 5482   1.356   2.339  15.489  0.8677  2.3662 -0.7545
  366MPD2    H3 5483   1.535   2.188  15.442 -2.6769 -0.6632  0.7449
  366MPD2     N 5484   1.574   2.294  15.016  0.1528  0.3323 -0.1784
  366MPD2    H5 5485   1.629   2.209  15.007 -1.5546 -0.9271  1.2299
  366MPD2    N1 5486   1.231   2.511  15.298  0.0021  0.1199 -0.1178
  366MPD2    H7 5487   1.216   2.578  15.223  2.8846 -1.0089 -1.6972
  367TMC3    C1 5488   1.112   2.662  15.442 -0.3003 -0.1549  0.1458
  367TMC3    C2 5489   1.185   2.744  15.521  1.0287  0.0016  0.3495
  367TMC3    C3 5490   1.188   2.877  15.501  0.8414 -0.4973 -0.5170
  367TMC3    C4 5491   1.022   2.719  15.356  0.1446 -0.6421 -0.5058
  367TMC3    C5 5492   1.018   2.854  15.338 -0.1012 -0.1115 -0.8775
  367TMC3    C6 5493   1.099   2.938  15.409  0.7024 -0.2545 -0.2330
  367TMC3     C 5494   1.168   2.529  15.420 -0.0515  0.1574 -0.3752
  367TMC3     O 5495   1.193   2.479  15.531  0.0167 -0.2955  0.2737
  367TMC3     H 5496   1.242   2.707  15.606 -1.3213 -0.6793  1.6112
  367TMC3    H1 5497   0.982   2.645  15.287  1.9319 -2.3862  0.3117
  367TMC3    H2 5498   1.101   3.044  15.383  1.8365 -0.6257 -1.6720
  367TMC3    C7 5499   0.936   2.919  15.240 -0.1598  0.1797 -0.0985
  367TMC3    C8 5500   1.286   2.943  15.584 -0.3408 -0.7882  0.8488
  367TMC3    O1 5501   0.975   3.023  15.194 -0.0619 -0.6143 -0.3326
  367TMC3    O2 5502   1.358   2.879  15.657  0.4433  0.3814  0.4415
  368MPD2     C 5503   2.013   0.115  13.476  0.2106  0.6737 -0.0905
  368MPD2    C1 5504   2.047   0.241  13.428 -0.2771  0.2747  0.3393
  368MPD2    C2 5505   2.164   0.251  13.354 -0.2799  0.1458 -0.0581
  368MPD2    C3 5506   2.239   0.141  13.316 -0.4210 -0.1386 -0.1644
  368MPD2    C4 5507   2.201   0.015  13.364 -0.8848 -1.0119  0.2012
  368MPD2    C5 5508   2.090   0.010  13.437  0.2820 -0.2035 -0.0165
  368MPD2     H 5509   2.205   0.348  13.328 -0.3390 -0.3695 -2.0627
  368MPD2    H1 5510   2.255   4.651  13.334 -0.6669 -0.0993 -2.0914
  368MPD2    H2 5511   1.920   0.102  13.530 -1.5701  0.9194 -3.0347
  368MPD2    H3 5512   2.056   4.637  13.469  0.5599 -0.8213 -1.6138
  368MPD2     N 5513   2.359   0.153  13.247  0.2548 -0.1759 -0.0029
  368MPD2    H5 5514   2.421   0.073  13.254  0.1777 -0.1950  0.5091
  368MPD2    N1 5515   1.962   0.355  13.457 -0.0271  0.1372 -0.4010
  368MPD2    H7 5516   1.889   0.332  13.523 -0.0738 -0.3280 -0.6143
  369TMC3    C1 5517   1.860   0.558  13.392 -0.6719  0.3369 -0.2489
  369TMC3    C2 5518   1.857   0.643  13.291 -0.0088 -0.0162 -0.6658
  369TMC3    C3 5519   1.756   0.645  13.201  0.0610 -0.0832 -0.3947
  369TMC3    C4 5520   1.743   0.483  13.404 -0.3078  0.4025  0.1298
  369TMC3    C5 5521   1.628   0.509  13.332  0.4277 -0.0105  0.1311
  369TMC3    C6 5522   1.635   0.588  13.221  0.0605 -0.2628  0.5653
  369TMC3     C 5523   1.979   0.480  13.397 -0.4168  0.8415 -0.3314
  369TMC3     O 5524   2.044   0.506  13.302  0.3136  0.0387  0.0929
  369TMC3     H 5525   1.939   0.712  13.272  2.2129 -1.8156  2.4578
  369TMC3    H1 5526   1.735   0.419  13.491  0.3473  0.4357  0.2164
  369TMC3    H2 5527   1.558   0.596  13.145  0.0871 -1.4380  0.4115
  369TMC3    C7 5528   1.524   0.404  13.346  1.1612  1.4155 -0.1671
  369TMC3    C8 5529   1.796   0.674  13.066  0.3905 -0.1712  0.1054
  369TMC3    O1 5530   1.540   0.339  13.450 -0.2707  0.1894 -0.1881
  369TMC3    O2 5531   1.717   0.741  12.997 -0.2124  0.6225  0.5177
  370TMC3    C1 5532   1.826   0.585  16.273 -0.6154 -0.1951 -0.4174
  370TMC3    C2 5533   1.789   0.519  16.392 -0.7792  0.1903 -0.6950
  370TMC3    C3 5534   1.833   0.389  16.403  0.0933  0.3559  0.6135
  370TMC3    C4 5535   1.901   0.521  16.173 -0.7555  0.5843  0.1133
  370TMC3    C5 5536   1.942   0.390  16.194  0.1425 -0.0137 -0.5083
  370TMC3    C6 5537   1.914   0.320  16.313  0.3395  0.2866  0.3719
  370TMC3     C 5538   1.763   0.711  16.251  0.5962 -0.4813  0.3792
  370TMC3     O 5539   1.695   0.763  16.343 -0.7467  0.0223  0.3444
  370TMC3     H 5540   1.723   0.563  16.466 -0.2295 -3.6457  2.0462
  370TMC3    H1 5541   1.955   0.584  16.104 -0.3890 -1.4293 -1.4421
  370TMC3    H2 5542   1.945   0.219  16.335  0.9910 -0.3472 -3.4508
  370TMC3    C7 5543   2.030   0.325  16.098 -0.0715 -0.2548 -0.6726
  370TMC3    C8 5544   1.807   0.322  16.530  0.4462  0.3111  0.0213
  370TMC3    O1 5545   2.103   0.399  16.037  0.0560 -0.0801 -0.2062
  370TMC3    O2 5546   1.807   0.200  16.531  0.0976  0.6879 -0.2935
  371TMC3    C1 5547   3.317   3.742  15.665 -0.2422  0.0292  0.3246
  371TMC3    C2 5548   3.267   3.740  15.792 -0.1258  0.6199 -0.0226
  371TMC3    C3 5549   3.176   3.830  15.824 -0.3904  0.4611 -0.2343
  371TMC3    C4 5550   3.280   3.834  15.572  0.5981  0.7911  0.0005
  371TMC3    C5 5551   3.186   3.928  15.610 -0.0142  0.1671  1.0561
  371TMC3    C6 5552   3.138   3.925  15.735  0.5457  0.6488 -0.3872
  371TMC3     C 5553   3.353   3.615  15.615 -1.0551  0.7244  0.2292
  371TMC3     O 5554   3.425   3.600  15.519  0.4024  0.2383 -0.0873
  371TMC3     H 5555   3.307   3.669  15.863 -0.4094  0.5616  0.0787
  371TMC3    H1 5556   3.306   3.835  15.467  0.5401 -1.1892 -0.0475
  371TMC3    H2 5557   3.062   3.999  15.759  0.7438  0.9253 -0.6182
  371TMC3    C7 5558   3.188   4.058  15.550 -0.5968  0.2423 -0.8620
  371TMC3    C8 5559   3.082   3.781  15.918 -0.5890 -0.7150 -0.4316
  371TMC3    O1 5560   3.091   4.126  15.566  0.9222  0.0781  0.4988
  371TMC3    O2 5561   3.117   3.697  16.000  0.1011  0.2376  0.4815
  372MPD2     C 5562   2.696   0.593  13.361 -0.2447 -0.3422 -0.0283
  372MPD2    C1 5563   2.772   0.501  13.427 -0.8346  0.4723 -0.1318
  372MPD2    C2 5564   2.715   0.415  13.518 -0.1556  0.2941 -0.6083
  372MPD2    C3 5565   2.573   0.408  13.527  0.6163  0.4523  0.3957
  372MPD2    C4 5566   2.500   0.500  13.459  0.2014 -0.4189  0.1268
  372MPD2    C5 5567   2.563   0.589  13.373 -0.0256 -0.6808  0.4513
  372MPD2     H 5568   2.777   0.341  13.566  2.9114  1.9953 -1.9624
  372MPD2    H1 5569   2.392   0.507  13.466  0.3493 -1.7273  3.8104
  372MPD2    H2 5570   2.749   0.665  13.300 -0.2895 -3.0117 -3.2306
  372MPD2    H3 5571   2.494   0.654  13.321  0.3107 -0.4204  0.3327
  372MPD2     N 5572   2.516   0.298  13.599  0.1074  0.0102 -0.4535
  372MPD2    H5 5573   2.574   0.216  13.616  0.2587 -0.1497 -1.6919
  372MPD2    N1 5574   2.913   0.491  13.412 -0.1346 -0.1875 -0.3253
  372MPD2    H7 5575   2.974   0.440  13.474  1.4553  1.3341 -0.6515
  373TMC3    C1 5576   2.363   0.173  13.723  0.1972 -0.5024 -0.3869
  373TMC3    C2 5577   2.268   0.195  13.822 -0.5609  0.1114  0.2107
  373TMC3    C3 5578   2.188   0.093  13.858 -0.1940  0.4588 -0.3553
  373TMC3    C4 5579   2.354   0.059  13.654  0.3900 -0.5406 -0.0619
  373TMC3    C5 5580   2.268   4.684  13.693 -0.0557  0.9173  0.3815
  373TMC3    C6 5581   2.182   4.702  13.797 -0.0961 -0.3707 -0.0210
  373TMC3     C 5582   2.388   0.290  13.642 -0.1163  0.5402  0.9285
  373TMC3     O 5583   2.302   0.381  13.638 -0.3296  0.4578 -0.1404
  373TMC3     H 5584   2.247   0.284  13.880 -0.0350  1.4940 -1.7040
  373TMC3    H1 5585   2.422   0.033  13.573  0.8263 -2.5051  0.9290
  373TMC3    H2 5586   2.121   4.617  13.826  0.7533 -1.0073 -0.1083
  373TMC3    C7 5587   2.304   4.547  13.669  0.1210 -0.0638  0.0720
  373TMC3    C8 5588   2.180   0.073  13.996 -0.1742 -0.0124 -0.2249
  373TMC3    O1 5589   2.230   4.467  13.613  0.1586 -0.3446  0.3052
  373TMC3    O2 5590   2.075   0.039  14.050  0.1614  0.2084 -0.5245
  374TMC3    C1 5591   2.809   0.384  10.183  0.5047  0.1965  0.3785
  374TMC3    C2 5592   2.939   0.422  10.190 -0.0079 -1.2762 -0.3745
  374TMC3    C3 5593   2.981   0.521  10.099  0.1312 -1.5925  0.5685
  374TMC3    C4 5594   2.727   0.416  10.078  0.2549  0.5155 -0.3265
  374TMC3    C5 5595   2.778   0.502   9.988 -0.2897  0.1999 -0.2962
  374TMC3    C6 5596   2.900   0.560  10.000 -0.5144 -0.2453  0.7863
  374TMC3     C 5597   2.764   0.277  10.278  0.6083 -0.1773  0.0838
  374TMC3     O 5598   2.643   0.265  10.274  0.3559 -0.2808 -0.2947
  374TMC3     H 5599   3.000   0.393  10.275 -0.4896  0.2043  0.4669
  374TMC3    H1 5600   2.637   0.357  10.065 -0.9097  2.1345  0.4927
  374TMC3    H2 5601   2.936   0.641   9.937 -0.2747 -1.5477 -0.7482
  374TMC3    C7 5602   2.693   0.544   9.875 -0.1715  0.2295  0.1218
  374TMC3    C8 5603   3.126   0.563  10.093 -0.3276  0.5555  0.7053
  374TMC3    O1 5604   2.573   0.560   9.894  0.2260  0.2515 -0.9280
  374TMC3    O2 5605   3.157   0.622   9.991 -0.7955 -0.0668  0.0636
  375MPD2     C 5606   3.282   1.095  16.795  1.1047 -0.1989 -0.3677
  375MPD2    C1 5607   3.183   1.046  16.709  0.7522  0.1078 -0.7238
  375MPD2    C2 5608   3.213   0.941  16.625  0.1443 -0.1122 -0.4643
  375MPD2    C3 5609   3.332   0.871  16.633 -0.1744  0.8206  0.5099
  375MPD2    C4 5610   3.427   0.915  16.717  0.1520 -0.4051  0.5197
  375MPD2    C5 5611   3.403   1.020  16.797  0.6870  0.0846 -0.7706
  375MPD2     H 5612   3.135   0.912  16.555  0.1274 -0.2765 -0.3767
  375MPD2    H1 5613   3.526   0.876  16.737 -0.3632 -0.9412  2.0543
  375MPD2    H2 5614   3.266   1.184  16.853  0.1433  0.5033 -1.7125
  375MPD2    H3 5615   3.469   1.051  16.878 -1.5362  1.0515  0.6667
  375MPD2     N 5616   3.375   0.769  16.545 -0.0769  0.7771 -0.6012
  375MPD2    H5 5617   3.474   0.748  16.548 -0.2188  0.2424  0.3560
  375MPD2    N1 5618   3.053   1.099  16.701  0.0663 -0.4491 -0.3726
  375MPD2    H7 5619   2.998   1.086  16.617  0.6851  0.7098 -0.9493
  376TMC3    C1 5620   3.370   0.614  16.365  0.6821 -0.1083 -0.0299
  376TMC3    C2 5621   3.477   0.548  16.426  0.0986 -0.2393  0.2041
  376TMC3    C3 5622   3.540   0.452  16.348  0.0265 -0.2503  0.0278
  376TMC3    C4 5623   3.322   0.590  16.242  0.2401  0.1501  0.5861
  376TMC3    C5 5624   3.403   0.503  16.172  0.5995  0.3690 -0.4781
  376TMC3    C6 5625   3.507   0.429  16.219 -0.3124 -0.1331 -0.0858
  376TMC3     C 5626   3.293   0.707  16.453 -0.5330 -0.1975 -0.9140
  376TMC3     O 5627   3.173   0.731  16.437  0.4069  0.2483  0.0812
  376TMC3     H 5628   3.506   0.565  16.529  1.7912  0.3178 -0.3776
  376TMC3    H1 5629   3.240   0.652  16.206 -1.2305 -2.1507  0.0046
  376TMC3    H2 5630   3.571   0.362  16.162 -1.3184 -2.2485  1.3061
  376TMC3    C7 5631   3.365   0.460  16.039  0.5987  0.7738  0.3135
  376TMC3    C8 5632   3.677   0.437  16.382  0.6195 -0.7502 -0.6609
  376TMC3    O1 5633   3.411   0.350  16.003 -0.4748  0.4191 -0.0384
  376TMC3    O2 5634   3.766   0.436  16.300  0.0137 -0.4842 -0.2606
  377MPD2     C 5635   0.848   0.569  12.404 -0.5627 -0.9292  0.1431
  377MPD2    C1 5636   0.899   0.544  12.529  0.1359  0.4000  0.7052
  377MPD2    C2 5637   0.814   0.524  12.636  0.5574 -0.0182  0.0417
  377MPD2    C3 5638   0.678   0.537  12.617 -0.7245 -0.2788 -0.1414
  377MPD2    C4 5639   0.628   0.568  12.490 -0.2929  0.0975 -0.2009
  377MPD2    C5 5640   0.712   0.583  12.383 -0.0937  0.3604 -0.2611
  377MPD2     H 5641   0.846   0.488  12.733 -0.6878 -0.4199  0.3062
  377MPD2    H1 5642   0.522   0.574  12.472 -0.3485 -1.1638 -0.2871
  377MPD2    H2 5643   0.913   0.602  12.324  2.1107  0.0855  2.7129
  377MPD2    H3 5644   0.673   0.592  12.282 -0.7623  0.3564 -0.0056
  377MPD2     N 5645   0.575   0.528  12.717  0.3427 -0.1186 -0.2795
  377MPD2    H5 5646   0.486   0.572  12.696  0.7771  0.8146 -0.1494
  377MPD2    N1 5647   1.034   0.552  12.540  0.5917 -0.8113 -0.6867
  377MPD2    H7 5648   1.086   0.551  12.453  1.6997 -1.8788 -0.0117
  378TMC3    C1 5649   1.432   0.653  12.528  0.4201  0.4801 -0.0261
  378TMC3    C2 5650   1.303   0.616  12.531 -0.1377 -0.6189  0.7154
  378TMC3    C3 5651   1.246   0.556  12.646 -0.5193 -0.5609  0.1775
  378TMC3    C4 5652   1.515   0.611  12.633  0.2052  0.3804 -0.0199
  378TMC3    C5 5653   1.458   0.545  12.742 -0.0436  0.4264 -0.9747
  378TMC3    C6 5654   1.323   0.526  12.755  0.3946  0.0519  0.5206
  378TMC3     C 5655   1.494   0.698  12.401 -0.5704  0.4076 -0.8087
  378TMC3     O 5656   1.413   0.744  12.322 -0.1000  0.5838  0.0164
  378TMC3     H 5657   1.242   0.655  12.450 -1.0949  0.0135  1.7431
  378TMC3    H1 5658   1.612   0.660  12.642  0.8587 -0.9468  0.1807
  378TMC3    H2 5659   1.282   0.449  12.819  1.1659 -0.1736  0.7468
  378TMC3    C7 5660   1.534   0.484  12.848 -0.6710  0.3117 -0.6319
  378TMC3    C8 5661   1.103   0.543  12.658  0.1598  0.2965 -0.5717
  378TMC3    O1 5662   1.475   0.459  12.953  0.2815 -0.2144 -0.9311
  378TMC3    O2 5663   1.062   0.524  12.769 -0.2422 -0.1076  0.0759
  379MPD2     C 5664   2.159   2.761  16.255  0.2372 -0.3760  0.6420
  379MPD2    C1 5665   2.059   2.855  16.289 -0.3971 -0.8925  0.1526
  379MPD2    C2 5666   1.982   2.832  16.407 -0.1331 -0.0270  0.1728
  379MPD2    C3 5667   2.012   2.720  16.486  0.0586  0.4870 -1.0323
  379MPD2    C4 5668   2.117   2.639  16.454  0.5076  0.5501 -0.3124
  379MPD2    C5 5669   2.192   2.657  16.341  0.4637 -0.9769 -0.2885
  379MPD2     H 5670   1.891   2.883  16.434 -0.6593  0.5709 -2.7484
  379MPD2    H1 5671   2.133   2.559  16.526  0.3711  1.5391  0.8300
  379MPD2    H2 5672   2.198   2.765  16.154  2.7630 -0.1092  1.6384
  379MPD2    H3 5673   2.272   2.592  16.308  0.5382 -0.4485 -1.1586
  379MPD2     N 5674   1.961   2.697  16.614  0.1893  0.3952 -0.0127
  379MPD2    H5 5675   2.009   2.624  16.666  1.8572  0.5150 -1.4040
  379MPD2    N1 5676   2.047   2.958  16.194 -0.2058  0.1224 -0.2996
  379MPD2    H7 5677   2.118   2.964  16.121 -0.4301 -1.0613 -0.6096
  380TMC3    C1 5678   1.963   3.155  16.090 -0.3407  0.4161  0.1423
  380TMC3    C2 5679   2.086   3.206  16.062 -0.1409 -0.3864 -0.6199
  380TMC3    C3 5680   2.090   3.301  15.957  0.4112  0.1326  0.2829
  380TMC3    C4 5681   1.846   3.187  16.020 -0.1431  0.1099  0.4300
  380TMC3    C5 5682   1.862   3.286  15.932  0.1345 -0.0473 -0.4392
  380TMC3    C6 5683   1.979   3.338  15.888 -0.1601  0.3526 -0.4282
  380TMC3     C 5684   1.941   3.049  16.192 -0.1292  0.0555  0.4370
  380TMC3     O 5685   1.832   3.038  16.247  0.1747 -0.1273 -0.5775
  380TMC3     H 5686   2.173   3.184  16.123  0.2434  0.3635 -0.8983
  380TMC3    H1 5687   1.751   3.148  16.054 -0.0242  2.3311  3.3313
  380TMC3    H2 5688   1.986   3.414  15.811  1.8203  0.0252 -0.5828
  380TMC3    C7 5689   1.750   3.334  15.863 -0.4602  0.2378  0.4820
  380TMC3    C8 5690   2.220   3.357  15.916  0.0330 -0.5224 -0.5522
  380TMC3    O1 5691   1.759   3.453  15.831 -0.7859 -0.6187  0.5263
  380TMC3    O2 5692   2.225   3.455  15.846  0.2727  0.3037 -0.0046
  381TMC3    C1 5693   1.737   4.341  16.342  0.3661  0.6381  0.8468
  381TMC3    C2 5694   1.839   4.431  16.337 -0.7131  0.5617  0.3804
  381TMC3    C3 5695   1.880   4.498  16.451 -0.0903  0.7853  0.2657
  381TMC3    C4 5696   1.662   4.346  16.461 -0.8785 -0.3911  0.3272
  381TMC3    C5 5697   1.696   4.428  16.569  0.3578  0.5286  0.1476
  381TMC3    C6 5698   1.798   4.516  16.566 -0.1835  0.1288  0.3755
  381TMC3     C 5699   1.641   4.343  16.230 -0.1482  0.0334 -0.2164
  381TMC3     O 5700   1.651   4.449  16.172  0.3719  0.2377 -0.0838
  381TMC3     H 5701   1.895   4.454  16.247 -2.7858 -1.1911 -1.3694
  381TMC3    H1 5702   1.581   4.277  16.482 -0.9300  0.4353  2.9442
  381TMC3    H2 5703   1.825   4.585  16.645 -1.0318  0.9830 -0.0707
  381TMC3    C7 5704   1.605   4.412  16.684  0.2309  0.0239  0.1732
  381TMC3    C8 5705   2.011   4.562  16.444  0.6258 -0.2903  0.4576
  381TMC3    O1 5706   1.555   4.303  16.708  0.2869 -0.7525  0.2388
  381TMC3    O2 5707   2.097   4.533  16.359 -0.2292  0.5729 -0.0433
  382MPD2     C 5708   1.639   1.466   0.042 -0.1917  0.0521 -0.6698
  382MPD2    C1 5709   1.514   1.501  17.697  0.4038 -0.5252 -0.1559
  382MPD2    C2 5710   1.433   1.402  17.644  0.8132  0.0019 -0.7020
  382MPD2    C3 5711   1.469   1.270  17.630 -0.8832 -0.6457  0.9104
  382MPD2    C4 5712   1.591   1.232  17.690 -0.4095  0.7941  0.5096
  382MPD2    C5 5713   1.672   1.331   0.038  0.4819 -0.2700 -0.1951
  382MPD2     H 5714   1.336   1.436  17.608  0.2637 -1.0197 -0.1966
  382MPD2    H1 5715   1.618   1.127  17.694  3.0865  1.7026  0.6052
  382MPD2    H2 5716   1.705   1.538   0.088 -0.1412  0.7429 -1.8393
  382MPD2    H3 5717   1.768   1.291   0.069  0.3338  0.1225  0.7538
  382MPD2     N 5718   1.381   1.167  17.580  0.1629 -0.4417  0.1573
  382MPD2    H5 5719   1.415   1.072  17.590 -0.7513 -0.8808 -0.9430
  382MPD2    N1 5720   1.457   1.631  17.700  0.3398  0.1185  0.2342
  382MPD2    H7 5721   1.362   1.635  17.666  0.3290  0.9967  0.3664
  383TMC3    C1 5722   1.176   1.080  17.487 -1.2307 -0.0366 -0.3706
  383TMC3    C2 5723   1.078   1.106  17.394 -0.0498 -0.1808  0.0997
  383TMC3    C3 5724   0.963   1.029  17.407 -0.9349 -0.2324 -0.3976
  383TMC3    C4 5725   1.156   1.001  17.597  1.1174  0.2215 -0.3101
  383TMC3    C5 5726   1.038   0.932  17.609  0.2881  0.1370 -0.5926
  383TMC3    C6 5727   0.945   0.938  17.509  0.0138  0.2495 -0.8749
  383TMC3     C 5728   1.265   1.191  17.505 -0.0386 -0.1639  0.6132
  383TMC3     O 5729   1.241   1.293  17.440  0.0997 -0.0059 -0.2797
  383TMC3     H 5730   1.088   1.169  17.306  0.6852 -0.2693  0.1184
  383TMC3    H1 5731   1.234   0.995  17.672 -0.6127 -0.3836  1.4387
  383TMC3    H2 5732   0.850   0.888  17.516 -1.5943  3.3987 -0.0407
  383TMC3    C7 5733   1.015   0.866   0.036  0.1992 -0.1867 -0.4708
  383TMC3    C8 5734   0.855   1.045  17.316  0.1144  0.1817  0.0693
  383TMC3    O1 5735   1.101   0.861   0.121 -0.0742 -0.1050  0.4234
  383TMC3    O2 5736   0.775   0.956  17.304  0.4879  0.0523 -0.5738
  384MPD2     C 5737   2.610   3.269  12.796  0.0137  0.2520  0.0160
  384MPD2    C1 5738   2.555   3.144  12.789 -0.5040 -0.4150  0.1641
  384MPD2    C2 5739   2.589   3.058  12.677 -1.1585  0.5964  0.0728
  384MPD2    C3 5740   2.694   3.091  12.588 -0.5171  0.3452  0.1471
  384MPD2    C4 5741   2.752   3.217  12.607 -0.4277 -0.3609 -0.2188
  384MPD2    C5 5742   2.705   3.309  12.703 -1.1307 -0.2615 -0.6152
  384MPD2     H 5743   2.540   2.961  12.670 -1.0087  0.5995 -1.0337
  384MPD2    H1 5744   2.824   3.260  12.538  0.4743 -1.4632  0.0442
  384MPD2    H2 5745   2.580   3.331  12.880  3.4180 -1.8598  2.7818
  384MPD2    H3 5746   2.745   3.409  12.714  0.1893 -0.7734 -0.6608
  384MPD2     N 5747   2.745   3.008  12.482 -0.6932  0.0425 -0.2829
  384MPD2    H5 5748   2.822   3.038  12.424 -0.6493  0.7300  0.1373
  384MPD2    N1 5749   2.443   3.097  12.867  0.0572  0.6429 -0.1986
  384MPD2    H7 5750   2.402   3.009  12.840 -1.6248  2.2335 -2.8119
  385TMC3    C1 5751   2.758   2.822  12.337  0.2849 -0.0496 -0.0631
  385TMC3    C2 5752   2.741   2.909  12.235 -0.5966  0.5798 -0.3322
  385TMC3    C3 5753   2.682   2.866  12.114 -0.1082  0.8728 -0.4699
  385TMC3    C4 5754   2.713   2.696  12.324  0.6652 -0.3609  0.0448
  385TMC3    C5 5755   2.644   2.653  12.211 -0.1617  0.6738  0.1852
  385TMC3    C6 5756   2.633   2.735  12.101 -0.5586  0.0819  0.4884
  385TMC3     C 5757   2.707   2.875  12.466 -0.6416  0.3764 -0.5256
  385TMC3     O 5758   2.627   2.807  12.527  0.0035  0.2245 -0.4279
  385TMC3     H 5759   2.767   3.014  12.247  0.4101  0.3135 -0.2006
  385TMC3    H1 5760   2.724   2.633  12.412  0.1591  0.4535  0.6855
  385TMC3    H2 5761   2.577   2.708  12.012 -1.2633 -0.4174  1.0813
  385TMC3    C7 5762   2.514   2.595  12.246  0.6460 -0.2960 -0.6140
  385TMC3    C8 5763   2.709   2.951  12.003 -0.2715  0.3618 -0.8381
  385TMC3    O1 5764   2.441   2.563  12.151  0.4373  0.0865  0.3840
  385TMC3    O2 5765   2.755   3.065  12.025  0.2353 -0.2440  0.5371
  386TMC3    C1 5766   3.077   1.047  12.189  0.1534  0.1399 -0.0585
  386TMC3    C2 5767   3.109   1.094  12.064  0.4323 -0.5660  0.6057
  386TMC3    C3 5768   3.034   1.188  12.004  0.0098  0.1755 -0.5231
  386TMC3    C4 5769   2.963   1.094  12.249  0.1896  0.0216 -0.0234
  386TMC3    C5 5770   2.878   1.169  12.172  0.0136  0.4194 -0.3250
  386TMC3    C6 5771   2.917   1.227  12.056 -0.0531 -0.0972 -0.1750
  386TMC3     C 5772   3.107   0.911  12.227  0.5619 -0.4512  0.1124
  386TMC3     O 5773   3.010   0.841  12.254  0.0256  0.7246  0.2944
  386TMC3     H 5774   3.202   1.066  12.017  1.0315  0.7438  0.9910
  386TMC3    H1 5775   2.936   1.031  12.334  0.6496 -2.0792 -1.4203
  386TMC3    H2 5776   2.859   1.305  12.010 -1.3996 -0.8054  0.3344
  386TMC3    C7 5777   2.738   1.125  12.171  0.2738  0.3833  0.4638
  386TMC3    C8 5778   3.014   1.174  11.858  0.4020 -0.5463  0.4270
  386TMC3    O1 5779   2.676   1.102  12.275  0.5154 -0.0181 -0.0131
  386TMC3    O2 5780   2.898   1.160  11.823 -0.1419 -0.0210 -0.1466
  387MPD2     C 5781   0.389   0.817   9.902  0.6999  0.4222 -0.4760
  387MPD2    C1 5782   0.491   0.813   9.994 -0.1532  0.4720  0.1737
  387MPD2    C2 5783   0.562   0.695  10.009 -0.2632 -0.7612 -0.2321
  387MPD2    C3 5784   0.530   0.582   9.938 -1.3420 -0.0886  0.3444
  387MPD2    C4 5785   0.439   0.586   9.839 -0.1750  0.1496 -0.1071
  387MPD2    C5 5786   0.377   0.704   9.819  0.1930 -0.1748 -0.1725
  387MPD2     H 5787   0.659   0.688  10.057 -0.6023 -2.1082  0.2368
  387MPD2    H1 5788   0.409   0.507   9.772  3.1405 -0.4956 -0.8526
  387MPD2    H2 5789   0.323   0.902   9.901 -0.4101 -0.4220  1.1131
  387MPD2    H3 5790   0.294   0.700   9.749  0.9624 -0.4518 -1.0680
  387MPD2     N 5791   0.589   0.458   9.982 -0.2827  0.1107 -0.3186
  387MPD2    H5 5792   0.663   0.468  10.051  0.0016  1.4608 -0.8148
  387MPD2    N1 5793   0.514   0.905  10.098 -0.2072  0.3720 -0.2122
  387MPD2    H7 5794   0.580   0.871  10.168 -2.7863 -0.6285  1.7321
  388TMC3    C1 5795   0.456   1.059  10.272  0.1262  0.8164 -0.9749
  388TMC3    C2 5796   0.417   1.185  10.314 -0.4393  0.1167  0.4183
  388TMC3    C3 5797   0.434   1.220  10.444 -0.7258 -1.1425  0.1743
  388TMC3    C4 5798   0.517   0.967  10.353  0.6235 -0.1233  0.2528
  388TMC3    C5 5799   0.539   1.001  10.484 -0.0561 -0.4269  0.3295
  388TMC3    C6 5800   0.491   1.122  10.529  1.1710  0.7173  0.4116
  388TMC3     C 5801   0.438   1.023  10.129  0.0974  0.5599 -0.3096
  388TMC3     O 5802   0.354   1.081  10.063 -0.3842  0.0925 -0.4128
  388TMC3     H 5803   0.371   1.251  10.241  1.8115 -0.1009 -1.1980
  388TMC3    H1 5804   0.539   0.867  10.318 -1.4604  0.7055 -3.4252
  388TMC3    H2 5805   0.502   1.143  10.634  0.5097  2.3789  0.1381
  388TMC3    C7 5806   0.573   0.899  10.579 -0.2722  0.8257  0.1466
  388TMC3    C8 5807   0.401   1.355  10.477 -0.3924  0.1454  1.1337
  388TMC3    O1 5808   0.518   0.899  10.691 -0.3349  0.1734  0.4615
  388TMC3    O2 5809   0.374   1.434  10.391 -0.1814  0.0153  0.5991
  389MPD2     C 5810   4.633   3.736  11.372 -0.4918 -0.2019 -0.5210
  389MPD2    C1 5811   4.596   3.626  11.287 -0.0393  0.0430  0.2200
  389MPD2    C2 5812   4.535   3.514  11.349 -0.3048  0.1979  0.4461
  389MPD2    C3 5813   4.503   3.519  11.485  0.5585  0.1147  0.5091
  389MPD2    C4 5814   4.547   3.620  11.567 -0.2670  0.5441 -0.6078
  389MPD2    C5 5815   4.619   3.722  11.506 -0.1664 -0.4292 -0.4073
  389MPD2     H 5816   4.492   3.437  11.286  1.5101  0.2349 -0.8223
  389MPD2    H1 5817   4.520   3.617  11.672 -2.3507 -3.4196 -1.2502
  389MPD2    H2 5818   4.685   3.822  11.332  1.1288 -0.3363  1.2879
  389MPD2    H3 5819   4.658   3.798  11.573 -1.0665  0.5553 -0.9778
  389MPD2     N 5820   4.407   3.430  11.547  0.3124  0.1267  0.0362
  389MPD2    H5 5821   4.389   3.451  11.645  2.3495 -0.6543  0.5895
  389MPD2    N1 5822   4.612   3.651  11.149 -0.0058  0.0171  1.3186
  389MPD2    H7 5823   4.664   3.735  11.126  0.2860 -0.7144 -0.6346
  390TMC3    C1 5824   4.215   3.297  11.548 -0.3122  0.2747  0.3922
  390TMC3    C2 5825   4.226   3.239  11.669  0.2646  0.8938  0.0332
  390TMC3    C3 5826   4.124   3.164  11.721 -0.7938 -0.0866 -0.1631
  390TMC3    C4 5827   4.110   3.264  11.470  0.9857 -0.1084 -0.5696
  390TMC3    C5 5828   4.015   3.180  11.517  0.3245  0.3430  0.9998
  390TMC3    C6 5829   4.015   3.127  11.642  0.7181 -0.6118 -0.5631
  390TMC3     C 5830   4.340   3.328  11.485 -0.6590  0.4484 -0.1213
  390TMC3     O 5831   4.343   3.277  11.374  0.2194  0.4242  0.9983
  390TMC3     H 5832   4.320   3.262  11.719  1.4115 -0.3385 -1.5636
  390TMC3    H1 5833   4.097   3.321  11.379  0.7924 -0.5341 -0.8066
  390TMC3    H2 5834   3.945   3.048  11.667 -0.6367  0.9969  0.6622
  390TMC3    C7 5835   3.908   3.141  11.421  0.0917  0.1426 -0.2252
  390TMC3    C8 5836   4.125   3.125  11.857  0.2049  0.0530  0.0123
  390TMC3    O1 5837   3.949   3.133  11.305  0.4263 -0.3984 -0.8535
  390TMC3    O2 5838   4.197   3.187  11.932  0.1980  0.4329 -0.1934
  391MPD2     C 5839   3.339   0.516  11.506  0.4406 -0.0474 -0.1577
  391MPD2    C1 5840   3.476   0.527  11.512  0.7390  0.4901  0.5845
  391MPD2    C2 5841   3.542   0.508  11.395 -0.2388  0.4113  0.0419
  391MPD2    C3 5842   3.473   0.474  11.278  0.1274  0.0134  0.6034
  391MPD2    C4 5843   3.337   0.470  11.273  0.0828 -0.8336 -0.2314
  391MPD2    C5 5844   3.276   0.485  11.391  1.0262 -0.5322 -0.2423
  391MPD2     H 5845   3.649   0.524  11.400 -0.2053 -0.3469  1.6761
  391MPD2    H1 5846   3.270   0.460  11.189  1.0572  0.1334 -1.1212
  391MPD2    H2 5847   3.272   0.541  11.588 -0.4998 -1.0305 -0.6304
  391MPD2    H3 5848   3.168   0.493  11.389  1.0296 -0.2017  0.5743
  391MPD2     N 5849   3.556   0.439  11.168 -0.1970  0.1926  0.1621
  391MPD2    H5 5850   3.652   0.428  11.196 -0.3304 -0.2661  0.4325
  391MPD2    N1 5851   3.533   0.553  11.638 -0.3117  0.7081  0.5450
  391MPD2    H7 5852   3.478   0.529  11.719  1.0701 -0.3801  1.1552
  392TMC3    C1 5853   3.608   0.410  10.943 -0.2991  0.0706 -1.3856
  392TMC3    C2 5854   3.577   0.356  10.824 -0.2544  0.3468  0.9156
  392TMC3    C3 5855   3.639   0.407  10.712 -0.3036 -0.2751  0.0547
  392TMC3    C4 5856   3.711   0.498  10.958 -0.2242 -0.2578 -0.7772
  392TMC3    C5 5857   3.783   0.535  10.847  0.1340  0.0286  0.3360
  392TMC3    C6 5858   3.738   0.497  10.719  0.5345  0.1471  0.5718
  392TMC3     C 5859   3.505   0.397  11.046  0.3423  0.0733  0.3273
  392TMC3     O 5860   3.396   0.345  11.020  0.6626  0.6760  0.2681
  392TMC3     H 5861   3.492   0.290  10.815  2.2945 -2.9529  0.9609
  392TMC3    H1 5862   3.747   0.532  11.055  1.3533 -1.3696 -0.9870
  392TMC3    H2 5863   3.791   0.517  10.626  1.3768  0.0105  1.0294
  392TMC3    C7 5864   3.907   0.614  10.869  0.0965 -0.5838  0.3512
  392TMC3    C8 5865   3.566   0.404  10.589 -0.1381 -1.0305 -0.2833
  392TMC3    O1 5866   3.939   0.631  10.985 -0.5883 -0.1415 -0.7893
  392TMC3    O2 5867   3.466   0.333  10.577 -0.3861  0.3235 -0.3371
  393TMC3    C1 5868   3.342   3.391  10.555  0.6036 -0.2310  0.0729
  393TMC3    C2 5869   3.208   3.366  10.576  0.0428  0.4130  0.0290
  393TMC3    C3 5870   3.159   3.238  10.571  0.5082 -0.1156  0.4601
  393TMC3    C4 5871   3.434   3.292  10.548  0.5858 -0.3804 -0.8277
  393TMC3    C5 5872   3.382   3.163  10.555 -0.9420  0.0741 -0.0530
  393TMC3    C6 5873   3.248   3.136  10.558 -0.2084 -0.1216 -0.2817
  393TMC3     C 5874   3.385   3.517  10.500 -0.1639 -0.9130 -0.2740
  393TMC3     O 5875   3.504   3.549  10.520 -0.0635 -0.6295 -0.0969
  393TMC3     H 5876   3.138   3.448  10.568 -0.4451  0.1276  1.2971
  393TMC3    H1 5877   3.534   3.322  10.577 -0.1038  0.2197  0.9542
  393TMC3    H2 5878   3.210   3.035  10.557  0.3371 -0.2941 -2.7583
  393TMC3    C7 5879   3.468   3.051  10.523 -0.2232 -0.0707  0.1156
  393TMC3    C8 5880   3.017   3.196  10.577 -1.1585 -0.7950  0.5733
  393TMC3    O1 5881   3.413   2.942  10.512  0.3177 -0.1310 -0.4211
  393TMC3    O2 5882   2.991   3.080  10.541 -0.1376 -0.0828  0.0860
  394TMC3    C1 5883   4.589   3.612  10.909 -0.0159  0.2628  0.2082
  394TMC3    C2 5884   4.549   3.537  10.801  0.0388  0.2352 -0.2654
  394TMC3    C3 5885   4.605   3.560  10.678  0.2980  0.0296 -0.0461
  394TMC3    C4 5886   4.681   3.711  10.891 -0.0684  0.3046 -0.3677
  394TMC3    C5 5887   0.007   3.725  10.768 -0.1239 -0.3209 -0.3654
  394TMC3    C6 5888   4.701   3.649  10.661 -0.2956 -0.5088 -0.5361
  394TMC3     C 5889   4.560   3.571  11.047  0.6610 -0.3271  0.1401
  394TMC3     O 5890   4.488   3.469  11.059 -0.3056 -0.1770  0.3213
  394TMC3     H 5891   4.474   3.459  10.808  1.5470 -1.1194  0.6602
  394TMC3    H1 5892   4.711   3.786  10.962  1.7368  0.6328 -1.4832
  394TMC3    H2 5893   0.023   3.673  10.566 -2.5626  1.0746 -1.2434
  394TMC3    C7 5894   0.135   3.789  10.766  0.0787 -0.1372 -0.1262
  394TMC3    C8 5895   4.580   3.459  10.578  0.2307 -0.5478  0.9627
  394TMC3    O1 5896   0.151   3.894  10.832 -0.6056  0.0195 -0.4877
  394TMC3    O2 5897   4.546   3.351  10.621  0.2940 -0.2993 -0.3930
  395TMC3    C1 5898   3.750   0.540  14.508  0.8991  0.0863  0.0226
  395TMC3    C2 5899   3.685   0.473  14.609  0.0518  0.4961 -0.1724
  395TMC3    C3 5900   3.703   0.520  14.735  0.6206 -0.3867  0.6760
  395TMC3    C4 5901   3.796   0.665  14.516 -0.1679 -0.3595  0.3423
  395TMC3    C5 5902   3.803   0.717  14.641 -0.1305  0.0534 -0.2769
  395TMC3    C6 5903   3.765   0.642  14.753  0.1382  0.3456 -0.6314
  395TMC3     C 5904   3.761   0.478  14.383 -0.3253 -0.5960  0.0914
  395TMC3     O 5905   3.704   0.531  14.292  0.0792  0.1598  0.2871
  395TMC3     H 5906   3.660   0.372  14.577 -0.0486  0.0764  1.2377
  395TMC3    H1 5907   3.841   0.705  14.426 -1.0325  0.8268  0.4451
  395TMC3    H2 5908   3.770   0.675  14.857 -2.1384 -0.0084 -0.4115
  395TMC3    C7 5909   3.918   0.808  14.658  0.0239  0.0989 -0.0379
  395TMC3    C8 5910   3.700   0.423  14.843 -0.6575 -0.2259  0.2977
  395TMC3    O1 5911   3.977   0.847  14.558  0.2429  0.4722  0.3073
  395TMC3    O2 5912   3.758   0.475  14.941  0.2674  1.1515  0.2096
  396MPD2     C 5913   4.133   1.647  17.370  0.2070 -0.2147  0.5553
  396MPD2    C1 5914   4.246   1.620  17.293 -0.0093 -0.2596 -0.5206
  396MPD2    C2 5915   4.279   1.702  17.187  0.0460  0.7735  0.7620
  396MPD2    C3 5916   4.197   1.811  17.156 -0.0474  0.3934 -0.4074
  396MPD2    C4 5917   4.088   1.834  17.230 -0.8517 -0.3186  0.2612
  396MPD2    C5 5918   4.057   1.756  17.339 -0.3147  0.5259  0.2199
  396MPD2     H 5919   4.354   1.665  17.117 -1.3689 -0.0217 -0.3593
  396MPD2    H1 5920   4.024   1.921  17.217  0.7970  0.9971  0.8525
  396MPD2    H2 5921   4.103   1.596  17.461  0.5758  0.5766  1.1211
  396MPD2    H3 5922   3.978   1.791  17.404 -1.1851  0.3491 -0.7350
  396MPD2     N 5923   4.232   1.886  17.040 -0.2927 -1.4853 -0.5568
  396MPD2    H5 5924   4.311   1.862  16.982 -0.4693  0.2869 -1.5440
  396MPD2    N1 5925   4.300   1.495  17.320  0.3879  0.3003 -0.7943
  396MPD2    H7 5926   4.240   1.437  17.377  0.8310 -1.3922 -2.0518
  397TMC3    C1 5927   4.390   1.296  17.246 -0.5806 -0.1257  0.4474
  397TMC3    C2 5928   4.395   1.246  17.123 -0.1502 -0.3948  0.3039
  397TMC3    C3 5929   4.295   1.163  17.082 -0.1009 -0.1640  0.8204
  397TMC3    C4 5930   4.307   1.242  17.338 -0.6408 -0.3321  0.0075
  397TMC3    C5 5931   4.219   1.142  17.306  0.1680  0.4914 -0.2862
  397TMC3    C6 5932   4.217   1.114  17.174  0.1794 -0.2326  0.1961
  397TMC3     C 5933   4.402   1.439  17.250  0.0221 -0.1595  0.2143
  397TMC3     O 5934   4.483   1.493  17.172  0.3951 -0.2983 -0.2558
  397TMC3     H 5935   4.447   1.296  17.043 -0.8014  0.6566  0.5484
  397TMC3    H1 5936   4.321   1.269  17.442  3.6295 -1.4820 -0.2987
  397TMC3    H2 5937   4.130   1.059  17.139 -0.8742  1.0464  0.8266
  397TMC3    C7 5938   4.132   1.076  17.404  0.0514 -0.7494 -0.1336
  397TMC3    C8 5939   4.208   1.226  16.986 -0.3427  0.1205  0.2601
  397TMC3    O1 5940   4.048   1.002  17.355  0.8929 -0.5916 -0.2495
  397TMC3    O2 5941   4.194   1.348  17.001 -0.0017 -0.5870 -0.6243
  398MPD2     C 5942   1.992   2.892   0.427  0.1325  0.1278  0.0356
  398MPD2    C1 5943   2.056   2.775   0.459 -0.0129  0.0433  0.2917
  398MPD2    C2 5944   2.182   2.789   0.511  0.0088 -0.7012  0.2331
  398MPD2    C3 5945   2.247   2.909   0.519  1.0638 -0.4473 -0.5385
  398MPD2    C4 5946   2.183   3.026   0.479  0.3940 -0.6840  0.4981
  398MPD2    C5 5947   2.050   3.012   0.444  0.4792 -0.0997  0.4648
  398MPD2     H 5948   2.236   2.696   0.527  3.4554  1.3330  0.5466
  398MPD2    H1 5949   2.232   3.123   0.479  0.5320 -0.7510 -0.5932
  398MPD2    H2 5950   1.890   2.892   0.388 -0.1886  0.9688  0.8870
  398MPD2    H3 5951   2.004   3.103   0.406  2.1813 -0.7037 -3.1314
  398MPD2     N 5952   2.380   2.907   0.558 -0.3002 -0.0200  0.9049
  398MPD2    H5 5953   2.411   2.820   0.601  1.0125 -0.9177 -1.8580
  398MPD2    N1 5954   2.013   2.646   0.440 -0.7568  0.3397 -0.5961
  398MPD2    H7 5955   2.083   2.578   0.470 -1.8169 -0.5589 -0.1866
  399TMC3    C1 5956   1.882   2.451   0.403  0.0681 -0.1876  0.0132
  399TMC3    C2 5957   1.985   2.369   0.424  0.7749  0.0798  0.3927
  399TMC3    C3 5958   1.957   2.238   0.437  0.0424  0.7993 -0.1532
  399TMC3    C4 5959   1.757   2.406   0.389 -0.2961 -0.1010 -0.5980
  399TMC3    C5 5960   1.734   2.273   0.387 -0.6942  0.7440  0.6109
  399TMC3    C6 5961   1.832   2.184   0.421 -0.0420  0.0165 -0.3630
  399TMC3     C 5962   1.899   2.592   0.395  0.1597 -0.0767 -0.4280
  399TMC3     O 5963   1.791   2.648   0.372 -0.2378  0.2460 -0.1759
  399TMC3     H 5964   2.085   2.410   0.419 -0.5533  3.0356 -1.4518
  399TMC3    H1 5965   1.674   2.471   0.363 -0.0833  0.2803 -0.3214
  399TMC3    H2 5966   1.811   2.079   0.438 -0.1556  0.4262  2.0567
  399TMC3    C7 5967   1.601   2.210   0.370  0.2613  0.5090  1.2450
  399TMC3    C8 5968   2.053   2.140   0.470  0.1426 -0.7465  0.5374
  399TMC3    O1 5969   1.607   2.089   0.381 -0.8614 -0.4774  0.1435
  399TMC3    O2 5970   2.020   2.028   0.458  0.0832 -0.1773 -0.3286
  400TMC3    C1 5971   1.266   0.900  17.063  0.1574 -0.3665 -0.8900
  400TMC3    C2 5972   1.152   0.963  17.009 -0.6652 -0.7238 -0.5606
  400TMC3    C3 5973   1.178   1.066  16.915 -0.5126  0.1324  0.3305
  400TMC3    C4 5974   1.395   0.931  17.022  0.6292 -0.0575  0.3374
  400TMC3    C5 5975   1.417   1.049  16.958 -0.0294 -0.2248 -1.0982
  400TMC3    C6 5976   1.307   1.112  16.897  0.3637 -0.6004  0.1084
  400TMC3     C 5977   1.259   0.842  17.198 -0.4419  0.3295  0.2364
  400TMC3     O 5978   1.151   0.815  17.247  0.1696  0.4852  0.1298
  400TMC3     H 5979   1.056   0.961  17.059  0.4293  0.1848  1.5561
  400TMC3    H1 5980   1.483   0.885  17.066  1.0847 -0.6167 -1.1486
  400TMC3    H2 5981   1.321   1.196  16.831 -0.5010  0.2997  1.0788
  400TMC3    C7 5982   1.474   1.134  17.063 -0.2301 -0.0783 -0.3221
  400TMC3    C8 5983   1.074   1.172  16.905  0.0675  0.5930  0.0311
  400TMC3    O1 5984   1.535   1.076  17.152  0.1234  0.3463 -0.0934
  400TMC3    O2 5985   1.117   1.284  16.891 -0.0386 -0.1994  0.4340
  401MPD2     C 5986   3.380   4.670   0.358  0.3021  0.2752  0.0768
  401MPD2    C1 5987   3.499   4.612   0.325 -0.4600  0.0140 -0.4989
  401MPD2    C2 5988   3.524   4.484   0.360 -0.1399 -0.3322 -0.9530
  401MPD2    C3 5989   3.436   4.416   0.435  1.0418  0.7004 -0.4069
  401MPD2    C4 5990   3.314   4.474   0.471  0.4457  0.0129 -0.1082
  401MPD2    C5 5991   3.286   4.604   0.432 -0.5012  0.1542 -0.5104
  401MPD2     H 5992   3.618   4.447   0.323 -0.5642 -0.6455 -1.7209
  401MPD2    H1 5993   3.235   4.427   0.528 -0.1428 -2.6188 -3.1045
  401MPD2    H2 5994   3.363   0.046   0.323 -1.4275 -0.1710 -0.3812
  401MPD2    H3 5995   3.188   4.651   0.430  0.8575  3.0785  1.2193
  401MPD2     N 5996   3.478   4.283   0.470 -0.0716 -0.1800 -0.2336
  401MPD2    H5 5997   3.562   4.249   0.425  0.1757 -1.3142  1.1054
  401MPD2    N1 5998   3.604   4.676   0.259  0.1489  0.6839  0.3443
  401MPD2    H7 5999   3.693   4.630   0.243 -1.7116 -2.7569 -0.1095
  402TMC3    C1 6000   3.469   4.068   0.546 -1.1437  0.3647 -0.2620
  402TMC3    C2 6001   3.470   3.989   0.656  0.0171  0.3069  0.2718
  402TMC3    C3 6002   3.549   3.878   0.653 -0.0948  0.1918  0.2332
  402TMC3    C4 6003   3.541   4.027   0.439 -0.6192 -0.1955 -0.3320
  402TMC3    C5 6004   3.630   3.925   0.439  0.7008 -1.0831  0.3319
  402TMC3    C6 6005   3.625   3.840   0.545 -0.0839 -0.4153 -0.0102
  402TMC3     C 6006   3.403   4.191   0.535 -0.0499 -0.0346  0.3560
  402TMC3     O 6007   3.309   4.207   0.610  0.0952 -0.0114 -0.0205
  402TMC3     H 6008   3.402   4.011   0.738 -0.1696  1.8017 -0.2999
  402TMC3    H1 6009   3.546   4.096   0.356 -0.6875  2.0418  1.5278
  402TMC3    H2 6010   3.687   3.751   0.545 -2.2441 -1.9154  2.1887
  402TMC3    C7 6011   3.740   3.934   0.348 -0.2009 -0.2461  0.2893
  402TMC3    C8 6012   3.581   3.819   0.786  0.1216  0.4045 -0.0804
  402TMC3    O1 6013   3.757   4.047   0.296  0.1135 -0.4618 -0.0257
  402TMC3    O2 6014   3.688   3.760   0.799  0.1242  0.3833  0.5151
  403MPD2     C 6015   1.475   3.366  13.619 -0.4058  0.1325 -0.4030
  403MPD2    C1 6016   1.584   3.282  13.628  0.5061 -0.2352  0.0327
  403MPD2    C2 6017   1.689   3.331  13.708 -0.2285  0.5981 -0.2063
  403MPD2    C3 6018   1.682   3.446  13.786 -0.0484 -0.2416 -0.1196
  403MPD2    C4 6019   1.561   3.514  13.787 -0.3422 -0.3874  0.4686
  403MPD2    C5 6020   1.463   3.483  13.694 -0.4991 -0.0924  0.0375
  403MPD2     H 6021   1.791   3.296  13.694  0.3112  0.1178  4.7560
  403MPD2    H1 6022   1.548   3.612  13.831  2.0686  0.3563 -0.4846
  403MPD2    H2 6023   1.393   3.334  13.557  0.8635 -2.6018 -0.6706
  403MPD2    H3 6024   1.381   3.552  13.676  1.3356  2.0453 -0.0518
  403MPD2     N 6025   1.802   3.487  13.851 -0.4535 -0.1958  0.2940
  403MPD2    H5 6026   1.873   3.415  13.856 -2.1371 -2.0720 -3.5232
  403MPD2    N1 6027   1.592   3.172  13.541 -0.4619  0.3484  0.3324
  403MPD2    H7 6028   1.520   3.164  13.470 -1.2216  1.5077  0.9705
  404TMC3    C1 6029   1.695   2.967  13.465  0.0352 -0.7048 -0.1400
  404TMC3    C2 6030   1.772   2.858  13.496 -0.0560 -0.2516 -0.2040
  404TMC3    C3 6031   1.737   2.748  13.427  0.0500 -0.1187 -0.1238
  404TMC3    C4 6032   1.602   2.969  13.360 -0.5371  0.4483 -0.3138
  404TMC3    C5 6033   1.574   2.852  13.293 -0.1674 -0.6158 -0.1041
  404TMC3    C6 6034   1.640   2.737  13.323 -0.6615 -0.4565  0.9607
  404TMC3     C 6035   1.693   3.080  13.555  0.4222  0.8836  0.7002
  404TMC3     O 6036   1.795   3.095  13.623 -1.0959 -0.1483 -0.2513
  404TMC3     H 6037   1.846   2.867  13.575  0.6833 -2.8711 -0.5839
  404TMC3    H1 6038   1.546   3.057  13.331 -0.1316  1.0700  0.7896
  404TMC3    H2 6039   1.626   2.636  13.287 -2.5501 -0.3357  1.3291
  404TMC3    C7 6040   1.510   2.861  13.163  0.8033  0.5563 -0.1614
  404TMC3    C8 6041   1.801   2.627  13.470  0.3026  0.1558 -0.1983
  404TMC3    O1 6042   1.532   2.965  13.107 -0.5757  0.2195 -0.1886
  404TMC3    O2 6043   1.859   2.558  13.385 -0.1255  0.9804  0.1812
  405MPD2     C 6044   2.704   3.925  14.833  0.6420  0.2470 -0.2586
  405MPD2    C1 6045   2.613   3.843  14.769 -0.2791  0.5253  0.2466
  405MPD2    C2 6046   2.532   3.897  14.676 -0.4059 -0.0298 -0.0127
  405MPD2    C3 6047   2.523   4.034  14.657 -0.4607  0.5510 -0.8402
  405MPD2    C4 6048   2.600   4.115  14.737  0.3639 -0.0691 -0.3546
  405MPD2    C5 6049   2.706   4.059  14.813  0.0221  0.0011  0.0391
  405MPD2     H 6050   2.464   3.843  14.611  1.5290 -1.0542 -1.1962
  405MPD2    H1 6051   2.600   4.222  14.720  2.9244 -0.2188 -1.2182
  405MPD2    H2 6052   2.776   3.878  14.899  2.5370 -0.4981 -2.8952
  405MPD2    H3 6053   2.781   4.118  14.866 -0.9630  1.1169  0.2008
  405MPD2     N 6054   2.435   4.079  14.559  0.3954 -0.0032 -0.0156
  405MPD2    H5 6055   2.395   4.007  14.499 -1.2815 -0.4518  1.6551
  405MPD2    N1 6056   2.629   3.708  14.792  0.5362 -0.5267 -0.5517
  405MPD2    H7 6057   2.689   3.673  14.866 -0.7066 -2.2763 -0.3658
  406TMC3    C1 6058   2.035   4.258  14.459 -0.4739 -0.6247  0.4197
  406TMC3    C2 6059   1.997   4.149  14.387  0.0141  0.1254  0.4405
  406TMC3    C3 6060   2.093   4.068  14.339  0.2162  0.0649  0.5104
  406TMC3    C4 6061   2.161   4.291  14.498  0.0177  0.4609 -0.8340
  406TMC3    C5 6062   2.253   4.195  14.467 -0.5504  0.1500  0.1717
  406TMC3    C6 6063   2.217   4.086  14.388  0.1474  0.2540  0.8240
  406TMC3     C 6064   1.920   4.336  14.501 -0.1728  0.1292 -0.1032
  406TMC3     O 6065   1.944   4.450  14.536  0.1107  0.0445  0.6502
  406TMC3     H 6066   1.899   4.155  14.341 -0.3015  0.3363  1.1356
  406TMC3    H1 6067   2.176   4.369  14.572  2.7392 -0.8290 -0.0245
  406TMC3    H2 6068   2.300   4.036  14.339 -0.3103 -1.5274  1.8616
  406TMC3    C7 6069   2.371   4.203  14.546  0.2284  0.6996 -0.6128
  406TMC3    C8 6070   2.050   3.933  14.308 -0.3408 -0.6001  0.0633
  406TMC3    O1 6071   2.374   4.296  14.624  0.2439 -0.1437 -0.0058
  406TMC3    O2 6072   1.929   3.927  14.284  0.8363 -0.0286  0.4775
  407MPD2     C 6073   4.706   0.320   9.892  0.1002  0.1305  1.1404
  407MPD2    C1 6074   0.121   0.329   9.894  0.4458  0.8006  0.6862
  407MPD2    C2 6075   0.172   0.394  10.003 -0.3077 -0.0783  0.6054
  407MPD2    C3 6076   0.095   0.468  10.089 -0.4316  0.4045 -0.6772
  407MPD2    C4 6077   4.681   0.456  10.091  0.4032 -0.0893 -0.0831
  407MPD2    C5 6078   4.627   0.381   9.984 -0.2786 -0.0040 -0.4520
  407MPD2     H 6079   0.280   0.392  10.007 -0.4325 -0.1405  3.9926
  407MPD2    H1 6080   4.612   0.499  10.162  0.5607  0.5943 -0.3412
  407MPD2    H2 6081   4.654   0.279   9.806  0.7856 -0.3216  0.9435
  407MPD2    H3 6082   4.519   0.373   9.980 -0.1670 -2.0629  0.4442
  407MPD2     N 6083   0.154   0.547  10.191 -0.3845 -0.5716 -0.4490
  407MPD2    H5 6084   0.085   0.603  10.240 -1.6755 -1.0560 -1.7042
  407MPD2    N1 6085   0.204   0.284   9.787  0.1391  0.0317  0.7659
  407MPD2    H7 6086   0.304   0.294   9.801  0.5607 -0.6376 -1.6686
  408TMC3    C1 6087   0.264   0.237   9.573 -0.0706 -0.1195  0.6912
  408TMC3    C2 6088   0.373   0.164   9.622  0.0745  0.4188 -0.0179
  408TMC3    C3 6089   0.497   0.177   9.567  0.6910  0.9805 -0.1564
  408TMC3    C4 6090   0.287   0.347   9.498 -0.5628 -0.1007 -0.5604
  408TMC3    C5 6091   0.413   0.361   9.450  0.2658 -0.0469 -0.7784
  408TMC3    C6 6092   0.516   0.276   9.477 -0.5201 -0.0668 -0.6464
  408TMC3     C 6093   0.155   0.247   9.668 -0.4463  0.6440 -0.5495
  408TMC3     O 6094   0.045   0.258   9.625 -0.3729  0.4443  0.2138
  408TMC3     H 6095   0.354   0.078   9.685  0.6433 -1.1328 -1.9465
  408TMC3    H1 6096   0.205   0.408   9.462 -2.5560 -2.6937 -0.3953
  408TMC3    H2 6097   0.618   0.297   9.447  0.0182 -1.5459  0.1496
  408TMC3    C7 6098   0.453   0.500   9.456 -0.4060  0.1071  0.3718
  408TMC3    C8 6099   0.596   0.084   9.618  0.7130  0.0372  0.6386
  408TMC3    O1 6100   0.564   0.523   9.499  0.2981 -0.7584  0.0318
  408TMC3    O2 6101   0.564   4.691   9.627 -0.4283 -0.7409 -0.1673
  409MPD2     C 6102   4.277   0.553  17.275  1.1806  0.4166  0.4291
  409MPD2    C1 6103   4.354   0.619  17.365  0.2411  0.3627  0.0379
  409MPD2    C2 6104   4.439   0.717  17.317  0.6368  0.3395  0.3440
  409MPD2    C3 6105   4.459   0.739  17.181 -0.1083  0.0110  0.3306
  409MPD2    C4 6106   4.379   0.670  17.091  0.0645  0.3362  0.4365
  409MPD2    C5 6107   4.293   0.578  17.141  0.2039  0.3563 -0.2174
  409MPD2     H 6108   4.503   0.764  17.391  2.0746  1.6830 -1.7405
  409MPD2    H1 6109   4.387   0.693  16.985  1.6841 -2.6336 -0.0945
  409MPD2    H2 6110   4.206   0.475  17.301 -0.3322  2.4454  2.3630
  409MPD2    H3 6111   4.227   0.530  17.069  0.3469  0.3168 -0.3220
  409MPD2     N 6112   4.550   0.831  17.129  0.7655  0.0332 -0.3873
  409MPD2    H5 6113   4.558   0.848  17.029 -0.5221 -1.9821 -0.8485
  409MPD2    N1 6114   4.350   0.607  17.508 -0.4468  0.1842 -0.2248
  409MPD2    H7 6115   4.411   0.666  17.564 -0.0766 -1.1292  0.7519
  410TMC3    C1 6116   0.026   0.946  17.117 -0.2177 -0.3929  0.0805
  410TMC3    C2 6117   0.160   0.942  17.149 -0.3545 -0.0267  0.5860
  410TMC3    C3 6118   0.240   1.017  17.064 -0.9614 -0.3929 -0.2307
  410TMC3    C4 6119   4.704   1.016  17.008  0.3275  0.9942  0.6366
  410TMC3    C5 6120   0.061   1.078  16.931 -0.4214 -0.6565 -0.1094
  410TMC3    C6 6121   0.195   1.085  16.956  0.3094  0.0766  0.6233
  410TMC3     C 6122   4.658   0.869  17.198  0.8815 -0.3030 -0.9387
  410TMC3     O 6123   4.705   0.829  17.303  0.6816  0.2282 -0.3116
  410TMC3     H 6124   0.196   0.895  17.240 -0.4403 -0.4459  0.4047
  410TMC3    H1 6125   4.598   1.013  16.987  0.5221 -1.1278  0.0082
  410TMC3    H2 6126   0.264   1.122  16.882  0.7729  2.0569  2.0595
  410TMC3    C7 6127   4.725   1.147  16.822 -0.0964  0.3365 -0.3456
  410TMC3    C8 6128   0.370   1.046  17.104 -0.3327  0.5770  0.3577
  410TMC3    O1 6129   4.623   1.087  16.779 -0.7505  0.1206 -0.0140
  410TMC3    O2 6130   0.413   0.955  17.171  0.6924  0.3069 -0.6888
  411MPD2     C 6131   4.580   1.668  14.968  0.1790  0.3634 -0.3100
  411MPD2    C1 6132   4.462   1.709  14.919  0.8573 -0.1911  0.0931
  411MPD2    C2 6133   4.353   1.622  14.927 -0.5527  0.6581 -0.0572
  411MPD2    C3 6134   4.376   1.491  14.968  0.3832  0.1893 -0.2273
  411MPD2    C4 6135   4.502   1.444  14.999  0.3335 -0.0396 -0.1017
  411MPD2    C5 6136   4.596   1.538  15.005 -0.3458  0.4659  0.2166
  411MPD2     H 6137   4.254   1.661  14.907  0.2127  1.9084 -1.3994
  411MPD2    H1 6138   4.516   1.343  15.035  2.3540  1.0512  2.0669
  411MPD2    H2 6139   4.661   1.741  14.968 -0.0900  0.6734 -2.1070
  411MPD2    H3 6140   4.698   1.509  15.028 -0.7441  0.1324  1.5291
  411MPD2     N 6141   4.277   1.389  14.965 -0.1561 -0.4535  0.1452
  411MPD2    H5 6142   4.309   1.292  14.966  2.4169  0.4000  0.2145
  411MPD2    N1 6143   4.461   1.846  14.874 -0.1326  0.5639  0.1573
  411MPD2    H7 6144   4.535   1.908  14.906  1.3340 -0.8034 -0.5938
  412TMC3    C1 6145   4.073   1.284  14.908 -0.1463 -0.5504 -0.0100
  412TMC3    C2 6146   3.944   1.281  14.932 -0.0576 -0.8743 -0.1486
  412TMC3    C3 6147   3.866   1.193  14.856  0.2108  0.6965 -0.6795
  412TMC3    C4 6148   4.132   1.220  14.808  0.1309 -0.0141  0.6682
  412TMC3    C5 6149   4.057   1.150  14.716 -0.0320 -0.9977 -0.2808
  412TMC3    C6 6150   3.923   1.141  14.739  0.0284  0.2423  0.0766
  412TMC3     C 6151   4.139   1.406  14.949 -0.0906  0.0162 -0.5366
  412TMC3     O 6152   4.072   1.503  14.965  0.8747  0.2539 -0.1897
  412TMC3     H 6153   3.899   1.340  15.011 -0.9744 -0.7737 -0.7407
  412TMC3    H1 6154   4.239   1.227  14.790  0.2177 -1.5791  0.5971
  412TMC3    H2 6155   3.859   1.110  14.656  1.2434 -0.5583 -0.5643
  412TMC3    C7 6156   4.074   1.205  14.584  0.3264 -0.1666  0.1279
  412TMC3    C8 6157   3.731   1.233  14.817 -0.8225 -0.5969  0.5159
  412TMC3    O1 6158   4.134   1.310  14.569 -0.3331 -0.5652  0.3029
  412TMC3    O2 6159   3.638   1.155  14.841 -0.3753  0.8654 -0.0335
  413MPD2     C 6160   1.454   0.174  15.588  0.1226 -0.5120 -0.4567
  413MPD2    C1 6161   1.392   0.065  15.540 -0.2314  0.3701  0.4638
  413MPD2    C2 6162   1.467   4.692  15.477  0.6970 -0.2944  0.0552
  413MPD2    C3 6163   1.603   4.698  15.472  0.6025  0.4507  0.2204
  413MPD2    C4 6164   1.662   0.092  15.512  0.1127  0.1431  0.3557
  413MPD2    C5 6165   1.589   0.190  15.581  0.4052 -0.2443 -0.5917
  413MPD2     H 6166   1.414   4.610  15.431  0.2188  0.7739 -1.2959
  413MPD2    H1 6167   1.768   0.114  15.506  0.1495 -0.0157  0.4118
  413MPD2    H2 6168   1.397   0.247  15.644 -0.6535 -1.3585 -0.1409
  413MPD2    H3 6169   1.644   0.264  15.638 -1.0339  0.6495 -0.3617
  413MPD2     N 6170   1.674   4.593  15.408  0.3333 -0.1115  0.1540
  413MPD2    H5 6171   1.626   4.510  15.374  2.0236 -1.2369  0.4933
  413MPD2    N1 6172   1.252   0.069  15.561 -0.6418 -0.0726 -0.1470
  413MPD2    H7 6173   1.213   0.144  15.618  0.8957  0.9163 -0.3959
  414TMC3    C1 6174   1.856   4.457  15.330 -0.3608  0.0811  0.9234
  414TMC3    C2 6175   1.979   4.403  15.366  0.1833 -0.9715  0.0073
  414TMC3    C3 6176   2.012   4.290  15.308  0.0483  0.0140  0.6275
  414TMC3    C4 6177   1.787   4.403  15.227 -0.5586  0.4003 -0.4468
  414TMC3    C5 6178   1.838   4.290  15.163  0.1029  0.1737  0.7907
  414TMC3    C6 6179   1.943   4.225  15.213  0.3454  0.7458 -0.1798
  414TMC3     C 6180   1.811   4.585  15.391  0.3599 -0.4943  0.3415
  414TMC3     O 6181   1.896   4.660  15.439  0.1102  0.5306  0.0182
  414TMC3     H 6182   2.041   4.464  15.430  0.3889 -1.1860  0.0094
  414TMC3    H1 6183   1.689   4.441  15.200 -0.9658 -1.0767 -1.0122
  414TMC3    H2 6184   1.981   4.142  15.153 -2.1157 -1.0022  0.6573
  414TMC3    C7 6185   1.753   4.241  15.056  0.6341  0.1115 -0.1750
  414TMC3    C8 6186   2.145   4.229  15.340  0.1907 -0.4043 -0.9191
  414TMC3    O1 6187   1.636   4.243  15.085 -0.1911  0.4845  0.1035
  414TMC3    O2 6188   2.173   4.122  15.285 -0.0528  0.5133  0.2211
  415TMC3    C1 6189   2.432   2.575   9.753  0.0308  0.7044 -0.4987
  415TMC3    C2 6190   2.517   2.677   9.717  0.1159 -0.0713 -0.2164
  415TMC3    C3 6191   2.646   2.642   9.667 -0.6195  0.3770 -0.5486
  415TMC3    C4 6192   2.470   2.446   9.751 -0.1748 -0.3556  0.0166
  415TMC3    C5 6193   2.601   2.414   9.719 -0.1173 -0.4439 -0.2512
  415TMC3    C6 6194   2.688   2.509   9.666 -0.5453  0.2276  0.2271
  415TMC3     C 6195   2.297   2.603   9.775  0.1462 -1.3547  0.7553
  415TMC3     O 6196   2.221   2.506   9.753 -0.1086 -0.8137 -0.1496
  415TMC3     H 6197   2.472   2.774   9.697 -0.6883 -0.5884 -0.9312
  415TMC3    H1 6198   2.389   2.375   9.764 -1.5142  1.2571  0.6269
  415TMC3    H2 6199   2.787   2.478   9.635 -0.3850  0.0068  0.9629
  415TMC3    C7 6200   2.620   2.278   9.672 -0.1068  0.1323 -0.3458
  415TMC3    C8 6201   2.685   2.709   9.545  0.6886 -0.4727 -0.5124
  415TMC3    O1 6202   2.726   2.252   9.620 -0.2317 -0.3725 -0.0264
  415TMC3    O2 6203   2.726   2.648   9.446 -0.5230 -0.1570 -0.2708
  416MPD2     C 6204   3.729   1.972  11.709  0.0266 -0.3605 -0.0993
  416MPD2    C1 6205   3.617   1.895  11.714  0.4210 -0.0000 -0.3830
  416MPD2    C2 6206   3.621   1.775  11.649 -0.0497 -0.0829  0.7725
  416MPD2    C3 6207   3.741   1.729  11.592 -0.0343  0.3898  0.0268
  416MPD2    C4 6208   3.853   1.805  11.603  0.5962 -0.4523 -0.0060
  416MPD2    C5 6209   3.841   1.932  11.651  0.4879 -0.3431 -0.3925
  416MPD2     H 6210   3.534   1.710  11.655  1.1709 -1.8209 -0.0369
  416MPD2    H1 6211   3.947   1.782  11.553 -0.6947 -2.6366 -1.4447
  416MPD2    H2 6212   3.727   2.075  11.743 -1.9150 -0.4270 -0.0033
  416MPD2    H3 6213   3.922   2.004  11.650 -0.3960  0.6180 -1.8176
  416MPD2     N 6214   3.759   1.595  11.537  0.0571 -0.2627 -0.4260
  416MPD2    H5 6215   3.855   1.566  11.516  0.4434  0.8862 -0.2692
  416MPD2    N1 6216   3.507   1.928  11.794  0.2180 -0.2259  0.2607
  416MPD2    H7 6217   3.513   2.017  11.843  3.1520 -0.3041  0.0246
  417TMC3    C1 6218   3.291   1.956  11.866 -0.3249 -0.3169 -0.2415
  417TMC3    C2 6219   3.230   1.913  11.985 -0.4083  0.0466  0.2016
  417TMC3    C3 6220   3.146   2.005  12.041 -0.8216 -0.0576 -0.0574
  417TMC3    C4 6221   3.296   2.084  11.827 -0.2730  0.0484  0.3946
  417TMC3    C5 6222   3.215   2.171  11.892  0.0826  0.2975 -0.1146
  417TMC3    C6 6223   3.141   2.136  12.001  0.4780  0.6413 -0.0979
  417TMC3     C 6224   3.385   1.861  11.817 -0.2143  0.2019 -0.2048
  417TMC3     O 6225   3.346   1.752  11.790  0.5319  0.4445  0.1330
  417TMC3     H 6226   3.244   1.816  12.030  0.0640  0.6229  1.2928
  417TMC3    H1 6227   3.327   2.116  11.728  0.7990  0.4762  0.8667
  417TMC3    H2 6228   3.070   2.202  12.049  0.8326 -0.0704  1.3943
  417TMC3    C7 6229   3.216   2.304  11.842 -0.1909  0.6747  0.7530
  417TMC3    C8 6230   3.063   1.975  12.154  0.2587  0.1267 -0.2361
  417TMC3    O1 6231   3.323   2.345  11.803  0.1719 -0.0198  0.1758
  417TMC3    O2 6232   3.015   2.067  12.216 -0.1399 -0.1489  0.0754
  418TMC3    C1 6233   2.800   2.872   0.416  0.2818 -0.1671 -0.3881
  418TMC3    C2 6234   2.687   2.943   0.417 -0.5363 -0.0288 -0.6447
  418TMC3    C3 6235   2.614   2.936   0.530  0.2861 -0.8397 -0.4730
  418TMC3    C4 6236   2.834   2.798   0.528  0.8222  0.9047  0.0665
  418TMC3    C5 6237   2.756   2.796   0.640  0.6638  0.3939 -0.4846
  418TMC3    C6 6238   2.641   2.867   0.641  0.2182  0.2939  1.0521
  418TMC3     C 6239   2.869   2.845   0.286  0.0034  0.6208 -0.5613
  418TMC3     O 6240   2.861   2.935   0.205  0.0254  0.0948  0.0515
  418TMC3     H 6241   2.649   2.989   0.327  0.3952  1.3009 -0.3562
  418TMC3    H1 6242   2.924   2.738   0.534 -0.8919 -1.8093 -1.1091
  418TMC3    H2 6243   2.572   2.866   0.725 -0.3905 -2.4087  0.5162
  418TMC3    C7 6244   2.776   2.688   0.740  0.6289  0.2434 -0.2137
  418TMC3    C8 6245   2.480   3.001   0.521  0.0370 -0.2986  0.4990
  418TMC3    O1 6246   2.796   2.578   0.689 -0.1707  0.2498 -0.0850
  418TMC3    O2 6247   2.466   3.111   0.465  0.8298  0.0456  0.1804
  419MPD2     C 6248   0.942   1.342  13.082 -0.5084  0.1259  0.0282
  419MPD2    C1 6249   0.851   1.417  13.011  0.2312  0.2840 -0.4066
  419MPD2    C2 6250   0.813   1.539  13.063 -0.9403 -0.0171 -0.3430
  419MPD2    C3 6251   0.875   1.601  13.171 -0.3399  0.3434  0.0830
  419MPD2    C4 6252   0.975   1.526  13.228 -0.0970  0.8694 -0.1999
  419MPD2    C5 6253   1.012   1.402  13.187  0.5277  0.0076  0.1297
  419MPD2     H 6254   0.720   1.575  13.022  0.2412  1.7244 -1.4773
  419MPD2    H1 6255   1.022   1.563  13.318 -0.0945 -1.5296  0.7964
  419MPD2    H2 6256   0.978   1.244  13.055  0.8690  0.8227 -0.6395
  419MPD2    H3 6257   1.092   1.355  13.242 -0.8432 -0.3877  1.7653
  419MPD2     N 6258   0.826   1.722  13.231  0.1708 -0.3562 -0.0914
  419MPD2    H5 6259   0.847   1.742  13.328 -0.2350 -1.1468  0.1552
  419MPD2    N1 6260   0.781   1.358  12.908 -0.0223 -0.2637  0.4205
  419MPD2    H7 6261   0.697   1.406  12.878  1.2544  0.1365 -2.4897
  420TMC3    C1 6262   0.656   1.884  13.257  0.7602 -0.1777 -0.3585
  420TMC3    C2 6263   0.576   1.970  13.181 -0.4356 -0.2353 -0.1685
  420TMC3    C3 6264   0.449   1.989  13.218  0.2380 -0.9259  0.1360
  420TMC3    C4 6265   0.604   1.807  13.361  0.1528 -0.1169 -0.1893
  420TMC3    C5 6266   0.471   1.827  13.385 -0.1269  0.2781 -0.9722
  420TMC3    C6 6267   0.393   1.919  13.317  0.6396  0.0265  0.1232
  420TMC3     C 6268   0.730   1.797  13.171  0.6400 -0.4107  0.4718
  420TMC3     O 6269   0.723   1.815  13.052  0.8775  0.2914 -0.2031
  420TMC3     H 6270   0.617   2.031  13.100 -0.4684  0.3664  0.2659
  420TMC3    H1 6271   0.656   1.724  13.407 -1.2636  0.1296  1.8501
  420TMC3    H2 6272   0.294   1.945  13.353  0.7727  1.4851 -0.5406
  420TMC3    C7 6273   0.414   1.746  13.489  0.2485 -0.0228 -0.2631
  420TMC3    C8 6274   0.367   2.071  13.136 -0.0639  0.2152  0.2364
  420TMC3    O1 6275   0.494   1.695  13.562 -0.2944 -0.0044 -0.3573
  420TMC3    O2 6276   0.421   2.167  13.079 -0.0235 -0.5099  0.0956
  421TMC3    C1 6277   1.971   3.621  13.944  0.6712  0.6342  0.5058
  421TMC3    C2 6278   2.011   3.753  13.959  0.5039  0.6951  0.4919
  421TMC3    C3 6279   2.142   3.768  13.999 -0.3233 -0.1261  0.2086
  421TMC3    C4 6280   2.048   3.512  13.966 -0.2861  0.0428  1.0797
  421TMC3    C5 6281   2.173   3.539  14.000 -0.2992 -0.3653  0.2565
  421TMC3    C6 6282   2.225   3.660  14.020 -0.4254  0.3372  0.5858
  421TMC3     C 6283   1.829   3.610  13.908  0.7868 -0.2620  0.0245
  421TMC3     O 6284   1.754   3.707  13.922  0.1149  0.7697  0.3075
  421TMC3     H 6285   1.947   3.838  13.942 -0.7300  0.0848  2.0314
  421TMC3    H1 6286   2.022   3.411  13.935 -2.6423  1.2905 -0.9958
  421TMC3    H2 6287   2.315   3.658  14.081  0.2241  1.5389 -0.3384
  421TMC3    C7 6288   2.258   3.422  14.048  0.2671  0.5753 -0.2520
  421TMC3    C8 6289   2.201   3.894  14.019 -0.1252 -0.2043  0.2548
  421TMC3    O1 6290   2.372   3.452  14.072  0.3058  0.1875  0.2404
  421TMC3    O2 6291   2.310   3.897  14.075 -0.5641  0.6290 -0.0156
  422TMC3    C1 6292   0.069   4.478  12.895 -0.3973  0.1808  0.1876
  422TMC3    C2 6293   0.010   4.597  12.926  0.3380 -0.3488  0.2587
  422TMC3    C3 6294   4.604   4.601  12.968 -0.1607  0.2559  0.3263
  422TMC3    C4 6295   4.720   4.366  12.905  1.0663 -0.0923  0.1295
  422TMC3    C5 6296   4.588   4.377  12.943 -0.0401 -0.2750  0.1338
  422TMC3    C6 6297   4.527   4.498  12.971  0.0775 -0.2023  0.0073
  422TMC3     C 6298   0.188   4.490  12.814  0.1302 -0.5905  0.5601
  422TMC3     O 6299   0.217   4.604  12.775  0.2240 -0.2647  0.5399
  422TMC3     H 6300   0.066   4.690  12.932  1.1855 -0.6926 -2.0159
  422TMC3    H1 6301   0.041   4.271  12.882  2.3687  1.0981 -2.1790
  422TMC3    H2 6302   4.419   4.505  12.961 -0.1192  0.0199  2.2486
  422TMC3    C7 6303   4.510   4.256  12.932 -0.7172  0.0764  0.1611
  422TMC3    C8 6304   4.551   0.009  13.006 -0.6628 -0.3265 -0.2206
  422TMC3    O1 6305   4.552   4.169  12.856  0.2113  0.2242 -0.3879
  422TMC3    O2 6306   4.631   0.101  13.020 -0.5875 -0.0455  0.1347
  423MPD2     C 6307   1.993   0.511   1.207 -0.3399  0.8125  0.4299
  423MPD2    C1 6308   1.914   0.399   1.208  0.1700 -0.3916 -0.4105
  423MPD2    C2 6309   1.897   0.328   1.095  0.0671 -0.1934 -0.2275
  423MPD2    C3 6310   1.949   0.370   0.975 -0.0602  0.0995 -0.6301
  423MPD2    C4 6311   2.019   0.489   0.965  0.0354  0.1181 -0.1837
  423MPD2    C5 6312   2.051   0.549   1.088  0.2727  0.3372  0.5774
  423MPD2     H 6313   1.832   0.242   1.098  0.1316 -0.2210  0.2912
  423MPD2    H1 6314   2.056   0.524   0.870  2.1790  0.8942  0.9314
  423MPD2    H2 6315   2.007   0.581   1.288 -1.2404  1.4486  0.0397
  423MPD2    H3 6316   2.113   0.637   1.086  1.5226 -0.5562 -0.0606
  423MPD2     N 6317   1.927   0.304   0.851 -0.0211 -0.3570  0.1296
  423MPD2    H5 6318   1.957   0.347   0.764  0.3346  0.2822  0.5690
  423MPD2    N1 6319   1.858   0.347   1.324  0.0557 -0.0537  0.1181
  423MPD2    H7 6320   1.824   0.251   1.322 -0.1491  0.0293 -0.7531
  424TMC3    C1 6321   1.770   0.332   1.537  0.1993 -0.2392 -0.4145
  424TMC3    C2 6322   1.796   0.199   1.548  0.0575  0.4961  0.4273
  424TMC3    C3 6323   1.746   0.131   1.655  0.1462 -0.1460  0.2601
  424TMC3    C4 6324   1.710   0.399   1.637 -0.1984 -0.0138 -0.4699
  424TMC3    C5 6325   1.643   0.325   1.733  0.0575 -1.0155  0.1265
  424TMC3    C6 6326   1.671   0.190   1.750  0.1629  0.0632 -0.1107
  424TMC3     C 6327   1.841   0.418   1.435 -0.0908  0.3030  0.1626
  424TMC3     O 6328   1.836   0.538   1.454  0.2030 -0.1121  0.8105
  424TMC3     H 6329   1.852   0.147   1.471 -0.7659  1.1942 -0.6431
  424TMC3    H1 6330   1.719   0.507   1.642 -0.0809 -0.0603  0.4655
  424TMC3    H2 6331   1.654   0.140   1.845 -1.8434 -1.0125 -1.0429
  424TMC3    C7 6332   1.572   0.400   1.835 -0.1890  0.6749 -0.1371
  424TMC3    C8 6333   1.817   0.014   1.704  0.4456  0.4078  0.0458
  424TMC3    O1 6334   1.607   0.513   1.858 -0.7958 -0.1501 -0.8059
  424TMC3    O2 6335   1.753   4.655   1.761 -0.2730 -0.0668 -0.3413
  425MPD2     C 6336   0.872   4.608  17.694  0.4484 -0.7417  0.8887
  425MPD2    C1 6337   0.769   4.562  17.612  0.5136  0.0914  0.4112
  425MPD2    C2 6338   0.640   4.611  17.644  0.0235  0.5032 -0.5666
  425MPD2    C3 6339   0.624   4.695   0.053 -0.3263  0.2290  1.1588
  425MPD2    C4 6340   0.730   0.014   0.125 -0.1248 -0.4593  0.7806
  425MPD2    C5 6341   0.860   4.702   0.092  0.2380 -0.6540  0.6778
  425MPD2     H 6342   0.551   4.606  17.583  0.2632 -1.7363 -0.7441
  425MPD2    H1 6343   0.719   0.069   0.219 -0.6077  0.1407  0.3756
  425MPD2    H2 6344   0.971   4.576  17.665  0.5287  1.2367 -1.0738
  425MPD2    H3 6345   0.941   0.025   0.146  1.1849 -1.2569 -0.2060
  425MPD2     N 6346   0.499   0.020   0.081 -0.6607  0.4920 -0.4065
  425MPD2    H5 6347   0.426   4.711   0.019  0.8310 -0.7531 -1.4995
  425MPD2    N1 6348   0.794   4.459  17.515 -0.6705  0.5236  0.4775
  425MPD2    H7 6349   0.888   4.421  17.506 -0.1112  2.0154  0.0829
  426TMC3    C1 6350   0.740   4.301  17.353 -0.5362 -0.3027 -0.2639
  426TMC3    C2 6351   0.707   4.283  17.218 -0.6716 -0.2703  0.5313
  426TMC3    C3 6352   0.745   4.170  17.158  0.2105 -0.0542  0.6034
  426TMC3    C4 6353   0.821   4.211  17.410  0.0522 -0.5329 -0.1243
  426TMC3    C5 6354   0.889   4.110  17.341 -0.5648  0.5479 -1.1907
  426TMC3    C6 6355   0.840   4.089  17.217 -0.4083 -0.0183 -0.2647
  426TMC3     C 6356   0.706   4.420  17.421  0.8913  0.0262 -0.7481
  426TMC3     O 6357   0.596   4.468  17.390  0.0964 -0.0622  0.3433
  426TMC3     H 6358   0.637   4.350  17.169  0.6741  0.3673 -0.5016
  426TMC3    H1 6359   0.836   4.217  17.517 -1.9901  1.2523  0.0617
  426TMC3    H2 6360   0.872   4.011  17.149  0.6624  0.6081 -0.4885
  426TMC3    C7 6361   0.940   3.996  17.419 -0.4200  0.1317  0.0262
  426TMC3    C8 6362   0.717   4.141  17.020 -0.1942  0.7542  0.8869
  426TMC3    O1 6363   1.012   4.031  17.510 -0.0587 -0.1359  0.1355
  426TMC3    O2 6364   0.804   4.090  16.955 -0.2898 -0.1260 -0.1608
  427MPD2     C 6365   3.714   1.848  15.009 -0.0846 -0.2827  0.0856
  427MPD2    C1 6366   3.662   1.797  15.120  0.0207 -0.0865  0.5044
  427MPD2    C2 6367   3.537   1.836  15.165 -0.2786 -0.1782  0.2359
  427MPD2    C3 6368   3.480   1.955  15.110  0.1343  0.3682  0.3007
  427MPD2    C4 6369   3.548   2.014  15.012  0.0181  0.2041 -0.3066
  427MPD2    C5 6370   3.665   1.962  14.963  0.0039 -0.2546  0.3642
  427MPD2     H 6371   3.484   1.786  15.246  2.4536 -2.6036  0.5373
  427MPD2    H1 6372   3.514   2.106  14.966 -1.5363 -0.5135 -0.5790
  427MPD2    H2 6373   3.812   1.814  14.976 -1.8430 -2.5262 -2.8311
  427MPD2    H3 6374   3.711   2.016  14.880  0.7827 -1.0452  0.2810
  427MPD2     N 6375   3.353   2.007  15.142  0.7467  0.3269 -0.3025
  427MPD2    H5 6376   3.326   2.083  15.080  0.6247  0.2014 -0.4057
  427MPD2    N1 6377   3.738   1.695  15.187 -0.1523 -0.5672 -0.3804
  427MPD2    H7 6378   3.837   1.684  15.168 -0.3861 -1.3091 -1.1553
  428TMC3    C1 6379   3.787   1.517  15.327  0.3896 -0.3820 -0.0337
  428TMC3    C2 6380   3.759   1.382  15.326  0.6759  0.0406 -0.4340
  428TMC3    C3 6381   3.868   1.299  15.348 -0.0924 -0.0222  0.2713
  428TMC3    C4 6382   3.912   1.571  15.344 -0.2454  0.4448  0.7505
  428TMC3    C5 6383   4.009   1.484  15.372 -0.1098 -0.0626  0.2748
  428TMC3    C6 6384   3.996   1.348  15.365 -0.0130 -0.0501  0.6311
  428TMC3     C 6385   3.683   1.597  15.273  0.0661  0.8614  1.0389
  428TMC3     O 6386   3.568   1.560  15.285 -0.4130  0.4269 -0.3466
  428TMC3     H 6387   3.659   1.342  15.317  1.3849 -1.6318 -0.8341
  428TMC3    H1 6388   3.923   1.679  15.351  1.1409  0.4717 -1.6403
  428TMC3    H2 6389   4.075   1.275  15.374  1.1754  1.0244 -1.1646
  428TMC3    C7 6390   4.135   1.532  15.408  0.0163  0.1863 -0.6197
  428TMC3    C8 6391   3.871   1.161  15.287  0.0437 -0.2389 -0.5169
  428TMC3    O1 6392   4.199   1.459  15.483  0.0428 -0.4315 -0.9808
  428TMC3    O2 6393   3.977   1.127  15.240 -0.7148  0.4849  0.6033
  429MPD2     C 6394   0.549   1.630  17.668  0.3275  0.2793  0.1806
  429MPD2    C1 6395   0.515   1.643  17.536  0.5075  0.6583 -0.5361
  429MPD2    C2 6396   0.598   1.704  17.451 -0.0251 -0.2560  0.1249
  429MPD2    C3 6397   0.729   1.737  17.484  0.3200  0.1831  0.3643
  429MPD2    C4 6398   0.769   1.707  17.611 -0.0741  0.6268 -0.4416
  429MPD2    C5 6399   0.681   1.665   0.004 -0.3414  0.5749  0.5910
  429MPD2     H 6400   0.569   1.713  17.347  1.1463 -2.8338 -0.4526
  429MPD2    H1 6401   0.867   1.740  17.646 -1.5590  2.2084  2.1873
  429MPD2    H2 6402   0.476   1.602   0.043 -1.2081  2.3853 -0.5102
  429MPD2    H3 6403   0.723   1.626   0.096  0.8853  1.4574  0.4060
  429MPD2     N 6404   0.813   1.798  17.386 -0.2910 -0.1736  0.1439
  429MPD2    H5 6405   0.775   1.822  17.295 -2.3209 -0.8535  0.8203
  429MPD2    N1 6406   0.389   1.605  17.486  0.6322  0.3995  0.3106
  429MPD2    H7 6407   0.367   1.644  17.395 -0.1247 -1.2614 -0.2329
  430TMC3    C1 6408   1.010   1.877  17.285 -0.7044 -0.6362  0.5692
  430TMC3    C2 6409   0.936   1.906  17.171 -0.1641 -0.5660 -0.6773
  430TMC3    C3 6410   0.986   1.891  17.052 -0.4258 -0.3507 -0.2691
  430TMC3    C4 6411   1.143   1.844  17.270 -0.2741 -0.0726 -0.0891
  430TMC3    C5 6412   1.190   1.834  17.138  0.0965  0.6962 -0.4398
  430TMC3    C6 6413   1.110   1.852  17.029  0.3771  0.6858 -0.2667
  430TMC3     C 6414   0.948   1.825  17.405  0.3469  0.0732 -0.0846
  430TMC3     O 6415   1.015   1.820  17.506 -0.2041  0.1963 -0.0394
  430TMC3     H 6416   0.836   1.945  17.182 -0.9148 -2.6808 -0.0622
  430TMC3    H1 6417   1.196   1.802  17.355 -2.5688 -0.1054  1.3209
  430TMC3    H2 6418   1.139   1.839  16.925 -2.4851 -0.0185 -0.9818
  430TMC3    C7 6419   1.298   1.748  17.110  0.0280  0.4716  0.3679
  430TMC3    C8 6420   0.905   1.918  16.940  1.1484 -0.1416 -0.1414
  430TMC3    O1 6421   1.318   1.717  16.991 -0.0514  0.3265  0.3273
  430TMC3    O2 6422   0.784   1.896  16.947 -0.2935 -0.2308  0.3429
  431MPD2     C 6423   0.521   1.935  12.833  0.2685 -0.6191  0.0754
  431MPD2    C1 6424   0.628   1.891  12.760  0.0585 -0.1562 -0.0570
  431MPD2    C2 6425   0.619   1.761  12.703  0.3787 -0.1766  0.5026
  431MPD2    C3 6426   0.517   1.671  12.733 -0.7980 -0.4324 -0.2070
  431MPD2    C4 6427   0.412   1.720  12.806  0.1665 -0.3133  1.1640
  431MPD2    C5 6428   0.412   1.853  12.853 -0.0432 -0.2214 -0.1455
  431MPD2     H 6429   0.689   1.725  12.628  0.8178  0.7811  0.4493
  431MPD2    H1 6430   0.321   1.664  12.827 -0.1393 -0.3815 -0.3026
  431MPD2    H2 6431   0.514   2.038  12.868  0.2329 -0.6017  0.0174
  431MPD2    H3 6432   0.321   1.881  12.906 -0.0727 -0.4884 -0.0568
  431MPD2     N 6433   0.519   1.537  12.688 -0.0990 -0.7343  0.1528
  431MPD2    H5 6434   0.600   1.505  12.637 -0.2101 -0.5691 -0.1279
  431MPD2    N1 6435   0.741   1.965  12.727 -0.3622 -0.0796  0.6607
  431MPD2    H7 6436   0.808   1.929  12.659 -0.3692 -1.5067  1.4166
  432TMC3    C1 6437   0.491   1.316  12.675  0.5052 -0.5122 -0.2682
  432TMC3    C2 6438   0.523   1.291  12.547  1.1883  0.7099  0.3388
  432TMC3    C3 6439   0.637   1.219  12.519 -0.4711  0.1429 -0.0792
  432TMC3    C4 6440   0.583   1.281  12.774  0.2746  0.7651  0.2703
  432TMC3    C5 6441   0.698   1.214  12.753 -0.2112  0.1644  0.3670
  432TMC3    C6 6442   0.733   1.184  12.624 -0.3859  0.9232 -0.1975
  432TMC3     C 6443   0.433   1.440  12.718 -0.7382  0.3434 -0.3522
  432TMC3     O 6444   0.319   1.439  12.758  0.9012  0.0850 -0.1289
  432TMC3     H 6445   0.457   1.324  12.467  2.2130 -0.1681 -0.8704
  432TMC3    H1 6446   0.540   1.295  12.872  0.6869  2.9254  0.1478
  432TMC3    H2 6447   0.821   1.126  12.600  0.4026  1.4853  1.3261
  432TMC3    C7 6448   0.806   1.233  12.856 -0.1138  0.2961  0.5376
  432TMC3    C8 6449   0.666   1.212  12.379 -0.5842  0.6280  0.3821
  432TMC3    O1 6450   0.890   1.146  12.874  0.2754  0.1257 -0.1746
  432TMC3    O2 6451   0.574   1.222  12.293 -0.2256 -0.5315 -0.0512
  433MPD2     C 6452   0.183   1.008  11.337  0.2457  0.2183 -0.4321
  433MPD2    C1 6453   0.064   0.961  11.400  0.0647  0.5479 -0.2719
  433MPD2    C2 6454   0.044   0.984  11.538  0.3119 -0.1811  0.0228
  433MPD2    C3 6455   0.146   1.032  11.612  0.2096  0.1116  0.2098
  433MPD2    C4 6456   0.264   1.065  11.552 -0.2178 -0.2743 -0.0633
  433MPD2    C5 6457   0.283   1.062  11.415 -0.8425  0.3712  0.0889
  433MPD2     H 6458   4.681   0.952  11.593  0.3369 -1.6754 -0.8176
  433MPD2    H1 6459   0.341   1.118  11.606  1.5105  1.1313 -3.9315
  433MPD2    H2 6460   0.195   0.999  11.230  1.9109 -0.5151 -0.1813
  433MPD2    H3 6461   0.372   1.108  11.374 -0.3655  0.5062  1.2739
  433MPD2     N 6462   0.118   1.048  11.751 -0.2586 -0.4402  0.0029
  433MPD2    H5 6463   0.022   1.034  11.780 -0.8470 -0.1143 -1.8436
  433MPD2    N1 6464   4.688   0.898  11.320  0.1390  0.0449  0.1501
  433MPD2    H7 6465   4.712   0.887  11.222 -0.5540 -1.3058  0.1354
  434TMC3    C1 6466   4.517   0.745  11.287  0.7074  0.0427  0.2873
  434TMC3    C2 6467   4.491   0.628  11.354  0.2786  0.3045 -0.3246
  434TMC3    C3 6468   4.493   0.516  11.281  0.3695 -0.2245  0.2930
  434TMC3    C4 6469   4.544   0.754  11.155  0.5022  0.1306 -0.2525
  434TMC3    C5 6470   4.525   0.637  11.084  0.0635  0.1462 -0.4136
  434TMC3    C6 6471   4.498   0.517  11.150 -0.3730 -0.7441  0.0705
  434TMC3     C 6472   4.574   0.839  11.375 -0.4953  0.2902 -0.6123
  434TMC3     O 6473   4.533   0.835  11.492  0.0933 -0.4590 -0.2006
  434TMC3     H 6474   4.494   0.627  11.463  1.5826 -0.5217 -0.3650
  434TMC3    H1 6475   4.566   0.850  11.110  1.5499 -0.5956 -1.3214
  434TMC3    H2 6476   4.514   0.424  11.097 -1.7931 -1.3401  0.6926
  434TMC3    C7 6477   4.525   0.648  10.936  0.0586  0.0130  0.5525
  434TMC3    C8 6478   4.543   0.408  11.359 -0.8483 -0.2268  0.9008
  434TMC3    O1 6479   4.535   0.760  10.892 -0.0771  0.4714  0.0793
  434TMC3    O2 6480   4.629   0.429  11.445  0.7944 -0.3912 -0.0501
  435MPD2     C 6481   1.984   0.630  15.536 -0.3115 -0.6139 -0.2647
  435MPD2    C1 6482   1.944   0.579  15.655  0.6571  1.0278  0.3981
  435MPD2    C2 6483   2.035   0.540  15.752 -0.4141  0.9841 -0.2898
  435MPD2    C3 6484   2.176   0.549  15.724  0.0257  0.1223 -0.2214
  435MPD2    C4 6485   2.219   0.596  15.595 -0.9560 -0.7477 -0.1131
  435MPD2    C5 6486   2.122   0.639  15.508  0.6416  0.1678  0.1085
  435MPD2     H 6487   2.003   0.479  15.836  1.9345 -0.8878 -0.7457
  435MPD2    H1 6488   2.324   0.616  15.574 -0.6472  0.6662  2.7004
  435MPD2    H2 6489   1.910   0.666  15.465 -0.4873  0.8628  0.6641
  435MPD2    H3 6490   2.151   0.674  15.410 -0.2943  0.2701 -0.1358
  435MPD2     N 6491   2.265   0.495  15.822 -0.1612  0.5946 -0.6748
  435MPD2    H5 6492   2.214   0.466  15.905  0.0991 -1.0915 -1.0835
  435MPD2    N1 6493   1.808   0.566  15.698 -0.2480 -0.1932 -0.1865
  435MPD2    H7 6494   1.789   0.511  15.781 -2.3169  0.2238 -0.3753
  436TMC3    C1 6495   1.446   0.573  15.909  0.4401  0.1052 -0.1470
  436TMC3    C2 6496   1.567   0.553  15.842 -0.1536 -0.1487  0.0694
  436TMC3    C3 6497   1.571   0.591  15.709  0.3200 -0.0079  0.5267
  436TMC3    C4 6498   1.333   0.608  15.847  0.5333  0.5951 -0.6234
  436TMC3    C5 6499   1.338   0.634  15.710 -0.3641  0.4055 -0.9785
  436TMC3    C6 6500   1.457   0.635  15.642 -0.0735  0.3603 -0.5172
  436TMC3     C 6501   1.447   0.563  16.055 -0.0398 -0.2478 -0.5103
  436TMC3     O 6502   1.543   0.515  16.113  0.1897  0.2568  0.5561
  436TMC3     H 6503   1.655   0.537  15.903  0.9808 -1.2891 -1.9090
  436TMC3    H1 6504   1.236   0.589  15.891  2.4053 -1.4360  2.6002
  436TMC3    H2 6505   1.465   0.671  15.540  1.1836  1.5012 -0.0105
  436TMC3    C7 6506   1.213   0.675  15.651 -0.4000 -0.3533 -0.8651
  436TMC3    C8 6507   1.696   0.614  15.630  0.4871 -0.4459  0.4063
  436TMC3    O1 6508   1.113   0.611  15.686 -0.1612 -0.1020  0.4704
  436TMC3    O2 6509   1.696   0.656  15.517  0.3185  0.3606 -0.3285
  437TMC3    C1 6510   0.675   3.089  12.082 -0.5317  0.4393 -0.6591
  437TMC3    C2 6511   0.662   3.070  11.943  0.7366 -0.0635  0.1318
  437TMC3    C3 6512   0.604   2.961  11.887 -0.3885 -0.2843  0.4343
  437TMC3    C4 6513   0.642   2.985  12.161 -0.0345 -0.0802  0.1594
  437TMC3    C5 6514   0.582   2.875  12.105 -0.8148 -0.2073  0.4126
  437TMC3    C6 6515   0.561   2.858  11.972 -0.1662 -0.2378  0.9084
  437TMC3     C 6516   0.786   3.173  12.112 -0.7418  0.4591  0.1506
  437TMC3     O 6517   0.846   3.221  12.020 -0.5676  0.2898 -0.1037
  437TMC3     H 6518   0.692   3.158  11.888  1.0218 -1.2169 -1.5321
  437TMC3    H1 6519   0.665   2.997  12.267  1.5309 -0.1355 -0.1757
  437TMC3    H2 6520   0.523   2.765  11.930  0.0732  0.5699 -1.0715
  437TMC3    C7 6521   0.602   2.745  12.181  0.3841  0.5588 -0.2986
  437TMC3    C8 6522   0.587   2.945  11.743  0.1172 -0.2710 -0.3640
  437TMC3    O1 6523   0.522   2.654  12.174  0.0895  0.6604  0.4778
  437TMC3    O2 6524   0.500   2.872  11.702  0.1876 -0.1370 -0.0205
  438MPD2     C 6525   3.009   2.447  16.872 -0.1077 -0.6774  0.2220
  438MPD2    C1 6526   2.992   2.573  16.936 -0.6221 -0.5250  0.3118
  438MPD2    C2 6527   2.990   2.567  17.072 -0.0107 -0.0595 -0.0855
  438MPD2    C3 6528   3.001   2.450  17.143  0.4872  0.7177  0.6091
  438MPD2    C4 6529   3.037   2.328  17.081 -0.1148 -0.0843 -0.2733
  438MPD2    C5 6530   3.043   2.332  16.946 -0.2662 -0.1468 -0.3193
  438MPD2     H 6531   2.979   2.663  17.122  3.7228 -0.1003  0.8280
  438MPD2    H1 6532   3.037   2.231  17.129 -0.7295  0.4898  0.8991
  438MPD2    H2 6533   3.010   2.432  16.765  1.1263  1.6128 -0.0723
  438MPD2    H3 6534   3.060   2.244  16.884 -2.9746 -0.8814 -0.0102
  438MPD2     N 6535   2.988   2.441  17.282  0.5412 -0.4934  0.1833
  438MPD2    H5 6536   3.000   2.350  17.324  4.6477 -0.2895 -0.4880
  438MPD2    N1 6537   2.996   2.700  16.870  0.0648 -0.1631 -0.0970
  438MPD2    H7 6538   2.992   2.780  16.932 -1.6124  0.2483 -0.7232
  439TMC3    C1 6539   2.999   2.861  16.704  0.1728  0.4181 -0.6198
  439TMC3    C2 6540   2.945   2.899  16.586  0.6634  0.4135 -0.2632
  439TMC3    C3 6541   2.953   3.031  16.545 -0.2327  0.2399 -0.1837
  439TMC3    C4 6542   3.052   2.951  16.788  0.0396  0.5631  0.2167
  439TMC3    C5 6543   3.075   3.083  16.743  0.4085  0.1267 -0.0885
  439TMC3    C6 6544   3.029   3.120  16.625  0.6780  0.0769  0.1645
  439TMC3     C 6545   2.990   2.715  16.734 -0.4529  0.1693  0.2698
  439TMC3     O 6546   2.955   2.634  16.646  0.3767  1.2164 -0.2319
  439TMC3     H 6547   2.881   2.834  16.527  0.5706  1.0764 -0.8989
  439TMC3    H1 6548   3.107   2.923  16.877  0.6698 -1.4663 -0.8208
  439TMC3    H2 6549   3.039   3.224  16.595  0.4755  0.1587  0.3767
  439TMC3    C7 6550   3.214   3.129  16.788 -0.5535  0.1574 -0.3495
  439TMC3    C8 6551   2.988   3.034  16.408  0.9964  0.5316 -0.1241
  439TMC3    O1 6552   3.307   3.051  16.775  0.5338  0.0340 -0.1526
  439TMC3    O2 6553   2.988   2.929  16.343  0.3065 -0.4527 -0.0926
  440MPD2     C 6554   2.105   3.814  15.025 -0.3057  0.2618  0.1330
  440MPD2    C1 6555   2.099   3.825  15.164 -0.0874 -0.7247 -0.6176
  440MPD2    C2 6556   2.221   3.798  15.228 -0.2379  0.6850  1.0495
  440MPD2    C3 6557   2.336   3.772  15.156 -0.0605 -0.1938 -0.1617
  440MPD2    C4 6558   2.340   3.788  15.024 -0.3182 -0.0487 -0.5260
  440MPD2    C5 6559   2.222   3.811  14.958 -0.2774  0.0626 -0.2614
  440MPD2     H 6560   2.225   3.789  15.336  0.6050 -0.3111  0.9300
  440MPD2    H1 6561   2.430   3.781  14.964 -0.2618  0.3523 -0.4919
  440MPD2    H2 6562   2.017   3.842  14.968 -0.2689  1.3297  0.5979
  440MPD2    H3 6563   2.223   3.811  14.850  0.4506  3.1235 -0.2442
  440MPD2     N 6564   2.451   3.744  15.237 -0.0524 -0.2683 -0.6607
  440MPD2    H5 6565   2.436   3.726  15.336  1.4574 -1.3239 -0.6166
  440MPD2    N1 6566   1.989   3.858  15.247 -0.2988  0.0741 -0.1426
  440MPD2    H7 6567   2.011   3.869  15.345 -1.6448 -0.0606  0.1704
  441TMC3    C1 6568   2.659   3.741  15.321  0.0069 -0.1824  0.0644
  441TMC3    C2 6569   2.727   3.853  15.359 -0.2004 -0.0023  0.0941
  441TMC3    C3 6570   2.770   3.854  15.490  0.2890 -0.1834 -0.1229
  441TMC3    C4 6571   2.647   3.633  15.392  0.1383 -0.4494 -0.0513
  441TMC3    C5 6572   2.703   3.636  15.514  0.6160  0.9975 -0.2863
  441TMC3    C6 6573   2.773   3.745  15.568  0.0080 -1.0281  0.0140
  441TMC3     C 6574   2.582   3.755  15.203 -0.4283  0.9313 -0.6334
  441TMC3     O 6575   2.631   3.809  15.107 -0.0122 -0.3939  0.6742
  441TMC3     H 6576   2.722   3.948  15.306 -0.6553 -0.4198 -0.6110
  441TMC3    H1 6577   2.585   3.548  15.366  0.7489 -0.6173 -0.9338
  441TMC3    H2 6578   2.778   3.752  15.676  0.1087  0.1052 -0.0718
  441TMC3    C7 6579   2.636   3.542  15.610 -0.0206 -0.3497  0.2602
  441TMC3    C8 6580   2.734   3.975  15.557  0.4981  0.4042 -0.2513
  441TMC3    O1 6581   2.549   3.468  15.566 -0.3693  0.4192 -0.2045
  441TMC3    O2 6582   2.807   4.022  15.646 -0.3981 -0.0616 -0.3817
  442MPD2     C 6583   4.528   4.148  17.007 -0.4774 -0.3206  0.0517
  442MPD2    C1 6584   4.590   4.180  16.887  0.1037  0.2640 -0.3545
  442MPD2    C2 6585   4.590   4.077  16.789  0.3958  0.3057 -0.1413
  442MPD2    C3 6586   4.533   3.949  16.819  0.0062 -0.6421  0.1828
  442MPD2    C4 6587   4.476   3.925  16.941 -0.0832 -0.8295 -0.1914
  442MPD2    C5 6588   4.466   4.025  17.034 -0.0839  0.0063 -0.7501
  442MPD2     H 6589   4.623   4.101  16.689  0.8231  0.3542  0.0135
  442MPD2    H1 6590   4.432   3.829  16.967 -1.2507  0.0695  1.1235
  442MPD2    H2 6591   4.528   4.229  17.079 -0.1585 -0.0490 -0.2563
  442MPD2    H3 6592   4.400   4.019  17.121  0.0587  1.5600 -0.5340
  442MPD2     N 6593   4.527   3.841  16.727  0.1453 -0.0439  0.1478
  442MPD2    H5 6594   4.460   3.767  16.748  0.7298  0.3224  3.3953
  442MPD2    N1 6595   4.643   4.309  16.853  0.1019 -0.3893  0.9349
  442MPD2    H7 6596   4.660   4.333  16.756 -1.7538  1.8676  1.1583
  443TMC3    C1 6597   4.651   4.543  16.890  0.4870 -0.3078 -0.5229
  443TMC3    C2 6598   4.634   4.543  16.750 -0.3532 -0.4336 -0.5690
  443TMC3    C3 6599   4.545   4.625  16.695  0.5982  0.3070  0.0963
  443TMC3    C4 6600   4.575   4.631  16.962  0.5273  0.3723  0.1073
  443TMC3    C5 6601   4.478   4.702  16.909 -0.1745 -0.1194 -0.2748
  443TMC3    C6 6602   4.465   4.708  16.771 -0.8329  0.2890  0.2007
  443TMC3     C 6603   4.665   4.410  16.944  0.2208  0.1027 -0.0872
  443TMC3     O 6604   4.675   4.405  17.066 -0.6140  0.5151  0.3230
  443TMC3     H 6605   4.704   4.495  16.683  1.1976 -0.2874  0.9302
  443TMC3    H1 6606   4.604   4.637  17.066  0.5156 -0.7188  0.1673
  443TMC3    H2 6607   4.404   0.059  16.723  0.3373  1.3183  0.3370
  443TMC3    C7 6608   4.357   4.684  16.980 -0.5246  0.2264 -0.5702
  443TMC3    C8 6609   4.466   4.555  16.598 -0.0891 -0.1475  0.2402
  443TMC3    O1 6610   4.363   4.626  17.089  0.7956  0.2791 -0.0485
  443TMC3    O2 6611   4.458   4.437  16.626  1.0757 -0.3250 -0.3470
  444MPD2     C 6612   0.577   3.793  17.082 -0.4328 -0.2615 -1.2867
  444MPD2    C1 6613   0.495   3.691  17.120 -1.1767 -0.0231 -0.2290
  444MPD2    C2 6614   0.539   3.558  17.122  0.0903  0.1756  0.4092
  444MPD2    C3 6615   0.666   3.527  17.075 -0.4492  0.2222 -0.8839
  444MPD2    C4 6616   0.746   3.637  17.034 -0.1547  0.1726 -0.2450
  444MPD2    C5 6617   0.703   3.764  17.041  0.2182  0.5052  0.2913
  444MPD2     H 6618   0.469   3.482  17.151  0.7261 -1.4596 -2.3368
  444MPD2    H1 6619   0.847   3.623  16.998 -0.3905 -3.1712  0.3537
  444MPD2    H2 6620   0.542   3.895  17.078  1.0270  0.2932  0.1042
  444MPD2    H3 6621   0.778   3.840  17.019 -0.0211  0.6191 -0.1269
  444MPD2     N 6622   0.709   3.395  17.088  0.5764  0.1892  0.3398
  444MPD2    H5 6623   0.641   3.333  17.130  0.4275 -0.7478 -1.2828
  444MPD2    N1 6624   0.359   3.715  17.152 -0.4129 -0.7430  0.3858
  444MPD2    H7 6625   0.300   3.636  17.179  0.6750 -2.0059 -0.9822
  445TMC3    C1 6626   0.837   3.195  17.056  0.0062 -0.0516 -0.3298
  445TMC3    C2 6627   0.771   3.126  17.154 -0.2908  0.4992 -0.7917
  445TMC3    C3 6628   0.801   2.993  17.162  0.1400  0.4580  0.1255
  445TMC3    C4 6629   0.923   3.134  16.962  0.3297  0.3321 -0.3809
  445TMC3    C5 6630   0.938   3.000  16.970  0.2770 -0.0265  0.7607
  445TMC3    C6 6631   0.880   2.927  17.070  0.1045 -0.4844  0.1419
  445TMC3     C 6632   0.824   3.341  17.041 -0.6829 -0.0510  0.4509
  445TMC3     O 6633   0.906   3.408  16.976 -0.2598  0.8654 -0.4970
  445TMC3     H 6634   0.693   3.177  17.210 -1.9722 -0.1253 -2.5702
  445TMC3    H1 6635   0.977   3.191  16.888  0.9415  1.8158  1.1915
  445TMC3    H2 6636   0.890   2.820  17.079  0.9195 -0.4862 -0.7598
  445TMC3    C7 6637   1.007   2.929  16.867 -0.6694  0.3761  0.2674
  445TMC3    C8 6638   0.694   2.917  17.212  0.6036 -0.6384 -0.5040
  445TMC3    O1 6639   1.098   2.996  16.822  0.1280  0.0587  0.3772
  445TMC3    O2 6640   0.657   2.816  17.148 -0.0884 -0.0490 -0.2330
  446MPD2     C 6641   4.483   0.269  11.970  0.5602  0.5562 -0.1096
  446MPD2    C1 6642   4.456   0.277  11.833 -0.0033  0.1511  0.9258
  446MPD2    C2 6643   4.527   0.369  11.760 -0.3777  0.1522 -0.1237
  446MPD2    C3 6644   4.613   0.458  11.823  0.0169 -0.1056 -0.0936
  446MPD2    C4 6645   4.634   0.454  11.958  0.1290 -0.2357 -0.1374
  446MPD2    C5 6646   4.579   0.347  12.023  0.3080 -0.5552 -0.3283
  446MPD2     H 6647   4.527   0.389  11.653  2.4520 -2.1664 -0.5732
  446MPD2    H1 6648   4.702   0.516  12.015 -0.9931 -0.6077  1.6090
  446MPD2    H2 6649   4.451   0.185  12.030  2.3137  0.8598  1.2502
  446MPD2    H3 6650   4.599   0.339  12.129 -0.0885 -0.6032 -0.2565
  446MPD2     N 6651   4.682   0.552  11.735  0.1497  0.0795  0.5117
  446MPD2    H5 6652   4.681   0.533  11.636 -0.7895 -1.0115  0.7270
  446MPD2    N1 6653   4.355   0.207  11.764 -0.3888 -0.6554 -0.2197
  446MPD2    H7 6654   4.325   0.248  11.677 -0.3765  1.4080  0.7295
  447TMC3    C1 6655   0.140   0.680  11.673 -0.2145 -0.6369  0.4798
  447TMC3    C2 6656   0.117   0.647  11.540 -0.3455 -0.1517  0.3715
  447TMC3    C3 6657   0.219   0.679  11.455 -1.0129 -0.7396  0.5037
  447TMC3    C4 6658   0.252   0.741  11.716  0.0418  1.1203  0.6912
  447TMC3    C5 6659   0.349   0.776  11.621  0.4860 -0.2288 -0.1948
  447TMC3    C6 6660   0.336   0.746  11.490  0.4522 -0.2976  0.2584
  447TMC3     C 6661   0.046   0.651  11.782 -0.3418  0.1874 -0.2809
  447TMC3     O 6662   0.064   0.701  11.892 -0.0814 -0.0150 -0.0166
  447TMC3     H 6663   0.016   0.624  11.506 -1.0459  2.2290  0.8494
  447TMC3    H1 6664   0.268   0.746  11.824 -0.7768 -0.0995  0.8650
  447TMC3    H2 6665   0.416   0.760  11.418 -0.0293  1.9642  0.1732
  447TMC3    C7 6666   0.487   0.768  11.669 -0.1369 -0.0324 -0.2858
  447TMC3    C8 6667   0.217   0.652  11.315 -0.0523 -0.7759 -0.1223
  447TMC3    O1 6668   0.553   0.692  11.599  0.2219 -0.0737 -0.1533
  447TMC3    O2 6669   0.291   0.705  11.238 -0.1408 -0.0858  0.7492
  448TMC3    C1 6670   3.475   0.468  17.265 -0.4748  0.2610 -0.6710
  448TMC3    C2 6671   3.366   0.404  17.204  0.5328 -0.0983  0.1976
  448TMC3    C3 6672   3.402   0.301  17.118  0.7577 -0.0173 -0.1490
  448TMC3    C4 6673   3.608   0.431  17.253  1.0290 -0.6120  0.1620
  448TMC3    C5 6674   3.631   0.329  17.168  0.0576  0.3970 -1.0416
  448TMC3    C6 6675   3.532   0.259  17.102 -0.0561  0.1097  0.7270
  448TMC3     C 6676   3.450   0.571  17.361  0.1509  0.1182 -0.1458
  448TMC3     O 6677   3.336   0.582  17.397 -0.2273  0.2534  0.3083
  448TMC3     H 6678   3.260   0.426  17.217  0.9784  0.5853  2.5880
  448TMC3    H1 6679   3.681   0.469  17.323  0.8026  3.7878 -2.0003
  448TMC3    H2 6680   3.560   0.171  17.046 -1.3379 -0.3133  0.7546
  448TMC3    C7 6681   3.733   0.230  17.211 -1.0971  0.3861  0.2626
  448TMC3    C8 6682   3.312   0.191  17.086 -0.3859  0.3011 -0.6061
  448TMC3    O1 6683   3.854   0.250  17.191 -0.1406 -0.6909 -0.4437
  448TMC3    O2 6684   3.357   0.078  17.114  0.0651  0.2491 -0.0566
  449MPD2     C 6685   4.374   2.982  13.988 -0.6869 -0.9882 -0.1898
  449MPD2    C1 6686   4.294   3.077  13.927 -0.4785  0.1189 -0.3095
  449MPD2    C2 6687   4.158   3.057  13.942 -0.0599  0.1117 -0.2477
  449MPD2    C3 6688   4.098   2.946  13.995 -0.5774 -0.2421 -0.4703
  449MPD2    C4 6689   4.186   2.859  14.063  0.2421 -0.7067  0.3354
  449MPD2    C5 6690   4.317   2.882  14.070 -0.1834  0.1136 -0.2857
  449MPD2     H 6691   4.094   3.122  13.884  0.8350  0.1866 -1.1549
  449MPD2    H1 6692   4.141   2.780  14.122 -2.4498 -0.2337 -1.0741
  449MPD2    H2 6693   4.480   2.989  13.967 -0.7835  2.8692  0.5243
  449MPD2    H3 6694   4.377   2.810  14.123  0.0643  0.6883  0.2160
  449MPD2     N 6695   3.960   2.926  13.991 -0.5154 -1.2829  0.2678
  449MPD2    H5 6696   3.908   2.993  13.936  1.4519 -0.7348 -0.9145
  449MPD2    N1 6697   4.337   3.179  13.835 -0.4132  0.1175 -0.5753
  449MPD2    H7 6698   4.261   3.235  13.798 -1.2272 -0.9197 -0.4528
  450TMC3    C1 6699   4.469   3.284  13.673  1.2734 -0.8610  0.4964
  450TMC3    C2 6700   4.538   3.209  13.574 -0.5726 -0.2683 -0.5066
  450TMC3    C3 6701   4.468   3.176  13.459  0.2548 -0.3161 -0.4564
  450TMC3    C4 6702   4.357   3.341  13.636  0.1311  0.3270  0.0807
  450TMC3    C5 6703   4.287   3.313  13.524  0.7054  0.0716 -0.2470
  450TMC3    C6 6704   4.347   3.230  13.431  1.3356  0.1484 -0.1454
  450TMC3     C 6705   4.466   3.193  13.786  0.3683  0.2433  0.4666
  450TMC3     O 6706   4.570   3.154  13.843  0.6177 -0.1031  0.3473
  450TMC3     H 6707   4.634   3.165  13.601  0.6238  3.7131  1.7499
  450TMC3    H1 6708   4.307   3.401  13.712  2.2022  3.2532 -0.8653
  450TMC3    H2 6709   4.290   3.184  13.351 -0.0558  0.2472  0.7812
  450TMC3    C7 6710   4.147   3.296  13.549  0.2088 -0.2647  0.4406
  450TMC3    C8 6711   4.498   3.049  13.401  0.1486  0.0476 -0.5973
  450TMC3    O1 6712   4.119   3.278  13.667 -0.2442 -0.2539  0.2558
  450TMC3    O2 6713   4.414   2.959  13.390 -0.3034 -0.0885  0.2732
  451MPD2     C 6714   0.606   2.378   1.668 -0.3817  0.0486  0.1255
  451MPD2    C1 6715   0.670   2.379   1.544  0.6660  0.7160 -0.0925
  451MPD2    C2 6716   0.647   2.270   1.455 -0.4503 -0.0923  0.4549
  451MPD2    C3 6717   0.561   2.166   1.494 -0.0479 -0.9653  0.0482
  451MPD2    C4 6718   0.509   2.163   1.621  0.2225 -0.7298 -0.4059
  451MPD2    C5 6719   0.531   2.268   1.701 -0.1139 -0.6035 -0.8827
  451MPD2     H 6720   0.690   2.263   1.356  1.0761  1.3606  1.0311
  451MPD2    H1 6721   0.458   2.081   1.670  0.3228 -0.8410 -0.4873
  451MPD2    H2 6722   0.615   2.468   1.727 -0.3748 -0.5840  1.0783
  451MPD2    H3 6723   0.478   2.270   1.795  0.2106 -0.5116 -0.7005
  451MPD2     N 6724   0.531   2.054   1.414  0.2475 -0.1700  0.1372
  451MPD2    H5 6725   0.467   1.983   1.448  0.1650  0.1060  0.5569
  451MPD2    N1 6726   0.750   2.490   1.510  0.2197 -0.4893  0.7496
  451MPD2    H7 6727   0.751   2.568   1.575 -0.1932  1.0923 -1.1252
  452TMC3    C1 6728   0.489   1.922   1.235  0.4923 -0.2272 -0.4487
  452TMC3    C2 6729   0.394   1.855   1.304 -0.0032 -0.0284 -0.0260
  452TMC3    C3 6730   0.346   1.732   1.259  0.0943 -0.9127 -0.0768
  452TMC3    C4 6731   0.537   1.870   1.118  0.0875  0.2307 -0.0547
  452TMC3    C5 6732   0.482   1.755   1.078  0.1166 -0.1847 -0.0410
  452TMC3    C6 6733   0.384   1.683   1.141  0.0344 -0.7671 -0.2770
  452TMC3     C 6734   0.561   2.038   1.282 -0.7091 -0.4928  0.1676
  452TMC3     O 6735   0.611   2.110   1.201  0.2500 -0.0252 -0.7617
  452TMC3     H 6736   0.333   1.887   1.388  0.5709  0.3085  0.2594
  452TMC3    H1 6737   0.616   1.918   1.060 -1.1055 -1.0177 -2.7410
  452TMC3    H2 6738   0.349   1.587   1.104 -3.0148 -0.5579  2.0900
  452TMC3    C7 6739   0.547   1.696   0.959 -0.3214 -0.0830  0.3283
  452TMC3    C8 6740   0.223   1.679   1.322  0.1380 -0.2755 -0.6619
  452TMC3    O1 6741   0.608   1.770   0.883  0.1449 -0.2349  0.0767
  452TMC3    O2 6742   0.145   1.755   1.376  0.2686  0.5482  0.3036
  453TMC3    C1 6743   2.282   3.953  11.993 -0.6577 -0.8023 -0.0122
  453TMC3    C2 6744   2.219   3.867  12.085 -0.1948  0.5673 -0.3266
  453TMC3    C3 6745   2.084   3.880  12.095 -0.4622 -0.5949  0.1402
  453TMC3    C4 6746   2.211   4.048  11.929  0.1574 -0.6544 -0.2178
  453TMC3    C5 6747   2.073   4.050  11.941 -0.3606 -0.9458 -0.9741
  453TMC3    C6 6748   2.005   3.968  12.027 -0.2526 -0.1196 -0.3445
  453TMC3     C 6749   2.420   3.984  12.013 -0.5287  0.2914  0.0255
  453TMC3     O 6750   2.458   4.091  11.981 -0.2545  0.6429  0.0711
  453TMC3     H 6751   2.275   3.800  12.150  0.0266  2.0688  1.0301
  453TMC3    H1 6752   2.261   4.095  11.845  1.6667 -2.0510 -0.1012
  453TMC3    H2 6753   1.902   3.984  12.057  0.2066  2.7132 -0.2947
  453TMC3    C7 6754   2.008   4.140  11.846  0.0205  0.2579  1.0143
  453TMC3    C8 6755   2.013   3.784  12.172  0.1536 -0.8580  0.0039
  453TMC3    O1 6756   2.066   4.171  11.743  0.0388  0.0842  0.4774
  453TMC3    O2 6757   1.901   3.802  12.219  0.0804 -0.1791 -0.5968
  454MPD2     C 6758   1.187   3.184  16.515 -0.1887 -0.3149 -1.4555
  454MPD2    C1 6759   1.106   3.288  16.466  0.9632 -0.6052 -0.2923
  454MPD2    C2 6760   1.078   3.391  16.549 -0.5900  0.4433 -0.4282
  454MPD2    C3 6761   1.120   3.398  16.678 -0.8813 -0.6429 -0.5726
  454MPD2    C4 6762   1.206   3.299  16.724  0.0036  0.0509  0.0346
  454MPD2    C5 6763   1.236   3.194  16.643  0.0508  0.2329  0.3230
  454MPD2     H 6764   1.019   3.469  16.503 -1.0794  0.3493  0.0299
  454MPD2    H1 6765   1.249   3.308  16.823  0.8582  1.0069 -0.4272
  454MPD2    H2 6766   1.204   3.093  16.460  0.8263 -0.9988  0.0044
  454MPD2    H3 6767   1.305   3.117  16.677  1.2386  1.5038  0.7812
  454MPD2     N 6768   1.089   3.499  16.767  0.3418 -0.3024  0.1548
  454MPD2    H5 6769   1.134   3.493  16.858 -0.9636 -2.9978  0.6200
  454MPD2    N1 6770   1.038   3.294  16.338  0.4333 -0.7446  0.2788
  454MPD2    H7 6771   0.989   3.380  16.316 -2.6464 -2.4304  0.5444
  455TMC3    C1 6772   0.892   3.593  16.663  0.8823  0.1357 -0.1653
  455TMC3    C2 6773   0.855   3.707  16.599  0.7255 -0.3537  0.0504
  455TMC3    C3 6774   0.719   3.719  16.566 -0.6330 -0.4987 -0.1371
  455TMC3    C4 6775   0.807   3.489  16.680  0.2965  0.2593  0.2093
  455TMC3    C5 6776   0.681   3.500  16.623 -0.3252  0.9981  0.0075
  455TMC3    C6 6777   0.636   3.615  16.563 -0.0969  0.1384 -0.3717
  455TMC3     C 6778   1.012   3.609  16.745 -0.0395 -0.6975  0.6264
  455TMC3     O 6779   1.008   3.708  16.817  0.3253  0.3579  0.0852
  455TMC3     H 6780   0.921   3.793  16.596  0.8651 -0.4458  0.5520
  455TMC3    H1 6781   0.833   3.411  16.751  0.9452  0.8548  0.6279
  455TMC3    H2 6782   0.537   3.629  16.521 -0.2202  0.5897  0.0623
  455TMC3    C7 6783   0.633   3.381  16.557  0.3381 -0.0563 -0.1472
  455TMC3    C8 6784   0.664   3.846  16.596  0.5891  0.2950  0.4261
  455TMC3    O1 6785   0.530   3.382  16.486 -0.1468  0.3579 -0.7796
  455TMC3    O2 6786   0.739   3.944  16.582 -0.3499 -0.0160 -0.2425
  456MPD2     C 6787   3.002   3.768  16.337  0.3354 -0.7316  0.2818
  456MPD2    C1 6788   3.103   3.729  16.422  0.0906  0.2851 -0.4860
  456MPD2    C2 6789   3.107   3.795  16.546  0.1602  0.1544  0.0569
  456MPD2    C3 6790   3.015   3.885  16.585 -0.5336  0.0028  1.0004
  456MPD2    C4 6791   2.914   3.914  16.502 -0.1902  0.2573  0.3140
  456MPD2    C5 6792   2.907   3.855  16.378  0.1926 -0.3892 -0.4021
  456MPD2     H 6793   3.191   3.797  16.615 -0.8396 -2.1513  1.3421
  456MPD2    H1 6794   2.839   3.986  16.534  2.4779  2.5951  1.3080
  456MPD2    H2 6795   2.992   3.720  16.241 -0.7695  2.2916 -1.0932
  456MPD2    H3 6796   2.822   3.866  16.311  0.9303  2.1243 -0.9266
  456MPD2     N 6797   3.034   3.959  16.699  0.2009  0.5318 -0.2312
  456MPD2    H5 6798   3.123   3.945  16.746 -0.9794 -3.0103  0.9993
  456MPD2    N1 6799   3.200   3.638  16.387 -0.0559 -0.7468  0.2448
  456MPD2    H7 6800   3.187   3.589  16.299  1.0361  0.3662 -0.5399
  457TMC3    C1 6801   2.993   4.095  16.873 -0.1655  0.1837 -0.0593
  457TMC3    C2 6802   3.016   4.227  16.872 -0.3302 -0.0300  0.1655
  457TMC3    C3 6803   3.101   4.275  16.972  0.2540 -0.3422 -0.3155
  457TMC3    C4 6804   3.047   4.007  16.966 -0.1607  0.1319 -0.4701
  457TMC3    C5 6805   3.139   4.059  17.055  0.0591 -0.6333 -0.1029
  457TMC3    C6 6806   3.172   4.191  17.059  0.2500  0.2060  0.0512
  457TMC3     C 6807   2.936   4.030  16.763 -0.5377 -0.9125  0.3598
  457TMC3     O 6808   2.813   4.033  16.745  0.1054  0.2346  0.7348
  457TMC3     H 6809   2.975   4.288  16.792  0.1024  0.9322  0.6878
  457TMC3    H1 6810   3.035   3.901  16.951 -0.7299  0.5162 -2.7261
  457TMC3    H2 6811   3.228   4.236  17.140  0.9185  0.3536 -0.4925
  457TMC3    C7 6812   3.235   3.963  17.102 -0.6151  0.1905 -0.7867
  457TMC3    C8 6813   3.104   4.427  16.993 -0.1492 -0.4497  0.5650
  457TMC3    O1 6814   3.206   3.848  17.103  0.1704  0.1233  0.5096
  457TMC3    O2 6815   3.187   4.464  17.072  0.2407  0.3143 -0.0660
  458MPD2     C 6816   0.801   2.566  12.629  0.3582 -0.0530  0.6707
  458MPD2    C1 6817   0.848   2.694  12.598 -0.7837  0.1141 -0.8477
  458MPD2    C2 6818   0.817   2.753  12.476  0.0453 -0.0632  1.0685
  458MPD2    C3 6819   0.735   2.688  12.388  0.4727 -0.5852  0.3533
  458MPD2    C4 6820   0.690   2.564  12.415 -0.3651  0.8001 -0.1688
  458MPD2    C5 6821   0.728   2.500  12.535 -0.3566 -0.2835 -0.0459
  458MPD2     H 6822   0.844   2.857  12.458  0.9982 -0.8291 -1.8768
  458MPD2    H1 6823   0.622   2.515  12.346  1.2914  1.1009 -2.0189
  458MPD2    H2 6824   0.832   2.522  12.723  1.5837 -1.7603 -0.5428
  458MPD2    H3 6825   0.702   2.395  12.541  0.0324 -0.4612 -1.5384
  458MPD2     N 6826   0.698   2.766  12.274 -0.2516  0.4134 -0.6078
  458MPD2    H5 6827   0.767   2.836  12.245 -0.3407  0.5353 -0.5249
  458MPD2    N1 6828   0.932   2.760  12.695 -0.3927 -0.3759  0.1033
  458MPD2    H7 6829   0.941   2.721  12.788 -1.5064 -1.1554 -0.1208
  459TMC3    C1 6830   1.084   2.918  12.787 -0.4317 -0.7323  0.4455
  459TMC3    C2 6831   1.175   3.005  12.748  0.5349  0.2024 -0.2028
  459TMC3    C3 6832   1.244   3.070  12.849  0.5822  0.3131 -0.7016
  459TMC3    C4 6833   1.050   2.891  12.912  0.6082  0.3814 -0.3639
  459TMC3    C5 6834   1.118   2.964  13.007  0.2396  0.3645  0.2419
  459TMC3    C6 6835   1.218   3.056  12.981  0.9311  0.2511 -0.3194
  459TMC3     C 6836   1.007   2.869  12.667  0.3450  0.8823  0.8984
  459TMC3     O 6837   1.025   2.928  12.560 -0.0758  0.2489  1.0295
  459TMC3     H 6838   1.216   3.015  12.648  0.3883  1.6048 -0.1275
  459TMC3    H1 6839   0.988   2.809  12.947 -0.3124  0.2941 -2.2210
  459TMC3    H2 6840   1.285   3.094  13.057  0.4121  0.4241  0.0492
  459TMC3    C7 6841   1.118   2.912  13.144 -0.5785 -0.5312  0.0064
  459TMC3    C8 6842   1.364   3.126  12.817  0.5341  0.6179  0.9119
  459TMC3    O1 6843   1.058   2.805  13.173 -0.4600  0.6913 -0.4291
  459TMC3    O2 6844   1.431   3.082  12.726 -0.0182  0.0421 -0.2244
  460MPD2     C 6845   0.071   0.357  11.151 -0.3239  0.0671 -0.4607
  460MPD2    C1 6846   0.125   0.483  11.163 -0.3734  0.4122  0.0424
  460MPD2    C2 6847   0.170   0.542  11.047 -0.1225 -0.5831 -0.0443
  460MPD2    C3 6848   0.160   0.478  10.925 -0.3298  0.4241 -0.0722
  460MPD2    C4 6849   0.109   0.354  10.920  0.0974 -0.5697  0.6442
  460MPD2    C5 6850   0.067   0.289  11.028  0.4501  0.0967  0.8473
  460MPD2     H 6851   0.213   0.641  11.033  0.0609 -0.5226  0.9384
  460MPD2    H1 6852   0.103   0.299  10.827 -0.1467  0.4602  0.0551
  460MPD2    H2 6853   0.048   0.288  11.232  0.4766 -0.2701 -0.5154
  460MPD2    H3 6854   0.031   0.188  11.012  1.2231  0.0723 -0.7254
  460MPD2     N 6855   0.209   0.541  10.810  0.1401 -0.0938 -0.2888
  460MPD2    H5 6856   0.244   0.634  10.831 -2.3785  0.9578 -0.6502
  460MPD2    N1 6857   0.135   0.547  11.288  0.5315 -0.3724  0.1911
  460MPD2    H7 6858   0.096   0.497  11.368 -1.1688  0.1577 -0.2959
  461TMC3    C1 6859   0.258   0.588  10.580  0.2613 -0.6383 -0.2944
  461TMC3    C2 6860   0.312   0.539  10.465  0.3879 -0.7613 -0.9558
  461TMC3    C3 6861   0.308   0.618  10.354 -0.0922 -0.8038 -0.0455
  461TMC3    C4 6862   0.202   0.716  10.590  0.4585 -0.3432 -0.1289
  461TMC3    C5 6863   0.214   0.797  10.482 -0.1692 -0.4229 -0.4300
  461TMC3    C6 6864   0.261   0.744  10.363  0.1167  0.1070  0.6381
  461TMC3     C 6865   0.227   0.488  10.686 -0.1455 -0.4958 -0.2543
  461TMC3     O 6866   0.220   0.371  10.649  0.3853 -0.3815  0.0556
  461TMC3     H 6867   0.346   0.436  10.458  0.6961 -0.6827 -0.5478
  461TMC3    H1 6868   0.143   0.745  10.676  2.6591  2.1603  0.5425
  461TMC3    H2 6869   0.262   0.798  10.269 -2.0826 -0.1798  0.4478
  461TMC3    C7 6870   0.172   0.938  10.476 -0.0498 -0.9291 -0.8004
  461TMC3    C8 6871   0.284   0.538  10.232 -0.2950  0.5607  0.1923
  461TMC3    O1 6872   0.108   0.971  10.375 -0.8280  0.1111 -0.3230
  461TMC3    O2 6873   0.364   0.453  10.210 -0.0128 -0.7641  0.1905
  462TMC3    C1 6874   0.485   1.086  17.542  1.1231 -1.2201 -0.2103
  462TMC3    C2 6875   0.456   0.962  17.495  0.0211 -0.3324 -0.6398
  462TMC3    C3 6876   0.327   0.923  17.478  0.1810  0.3467 -0.0606
  462TMC3    C4 6877   0.382   1.167  17.594  0.3647  0.5694  0.3630
  462TMC3    C5 6878   0.257   1.117  17.591  0.0116 -1.7676  0.5797
  462TMC3    C6 6879   0.224   1.002  17.514  0.2840  0.0146 -0.3467
  462TMC3     C 6880   0.616   1.096  17.601 -0.3759  0.1403  0.8836
  462TMC3     O 6881   0.672   0.994  17.643  0.1965  0.2209  0.1327
  462TMC3     H 6882   0.535   0.915  17.437  0.5023  2.3108 -2.1341
  462TMC3    H1 6883   0.406   1.242  17.668 -0.1722 -0.5514  1.6843
  462TMC3    H2 6884   0.123   0.962  17.522  0.7734 -1.3887 -1.3478
  462TMC3    C7 6885   0.179   1.122   0.011  0.5720  0.2022  0.2305
  462TMC3    C8 6886   0.306   0.782  17.531 -0.4009  0.2175  0.6364
  462TMC3    O1 6887   0.138   1.012   0.047  0.1026 -0.0839 -0.1993
  462TMC3    O2 6888   0.193   0.732  17.551 -0.2351 -0.0225 -0.2230
  463MPD2     C 6889   1.575   3.972   2.228  0.8873 -0.2560  0.1711
  463MPD2    C1 6890   1.545   4.073   2.134 -0.2283 -0.1586  0.4986
  463MPD2    C2 6891   1.620   4.187   2.131  0.1683  0.6405 -0.1444
  463MPD2    C3 6892   1.725   4.209   2.215 -0.2620  0.4052  0.3162
  463MPD2    C4 6893   1.761   4.100   2.299 -0.3757 -0.5525 -0.5846
  463MPD2    C5 6894   1.683   3.986   2.313  0.5960  0.0342  0.1522
  463MPD2     H 6895   1.581   4.261   2.061  0.1443  0.4565 -0.3245
  463MPD2    H1 6896   1.848   4.098   2.364 -0.7386  1.3074 -0.0566
  463MPD2    H2 6897   1.517   3.882   2.243  0.1834  0.2748  0.6310
  463MPD2    H3 6898   1.711   3.919   2.393 -1.0845  1.1922  1.6928
  463MPD2     N 6899   1.809   4.323   2.222  0.3327 -0.3580  0.4398
  463MPD2    H5 6900   1.883   4.322   2.291  0.3163 -0.9319  0.4520
  463MPD2    N1 6901   1.441   4.056   2.037  0.5653 -0.1851  0.1977
  463MPD2    H7 6902   1.440   4.122   1.959 -2.3493 -0.2459  0.1918
  464TMC3    C1 6903   1.253   3.966   1.936  0.3991 -0.1698  0.7027
  464TMC3    C2 6904   1.239   4.083   1.864  0.8683  0.0953 -0.1506
  464TMC3    C3 6905   1.108   4.109   1.819  0.2930 -0.2249 -0.0200
  464TMC3    C4 6906   1.164   3.863   1.936 -0.4756 -0.3183 -0.3976
  464TMC3    C5 6907   1.042   3.887   1.871  0.3434 -0.1712 -0.4873
  464TMC3    C6 6908   1.013   4.008   1.814  0.5401 -0.2129 -0.5599
  464TMC3     C 6909   1.340   3.966   2.053 -0.2146 -0.2952 -0.0508
  464TMC3     O 6910   1.312   3.884   2.144 -0.2274  0.3701  0.2976
  464TMC3     H 6911   1.300   4.172   1.877 -0.9939  1.1396  1.6007
  464TMC3    H1 6912   1.189   3.768   1.980 -0.5598 -0.5851 -0.9232
  464TMC3    H2 6913   0.910   4.035   1.794  0.1305 -1.7180 -0.5177
  464TMC3    C7 6914   0.938   3.786   1.896 -0.4566  0.1633  0.1619
  464TMC3    C8 6915   1.083   4.249   1.776  0.9756  0.4051  0.5251
  464TMC3    O1 6916   0.955   3.718   1.995  0.5842 -0.0279 -0.0109
  464TMC3    O2 6917   1.184   4.304   1.736 -0.0307  0.4561  0.1900
  465MPD2     C 6918   2.302   2.887  16.676  0.4619 -0.5510  0.3888
  465MPD2    C1 6919   2.233   2.943  16.783  0.6177  0.9273  0.3432
  465MPD2    C2 6920   2.157   3.057  16.755 -0.1320  0.7307 -0.1755
  465MPD2    C3 6921   2.141   3.113  16.628  0.0158  0.0614 -0.1648
  465MPD2    C4 6922   2.202   3.047  16.523 -0.4605 -0.4283 -0.1548
  465MPD2    C5 6923   2.291   2.943  16.550 -0.2032  0.1872 -0.9105
  465MPD2     H 6924   2.099   3.105  16.832 -0.5484  0.9149 -0.6017
  465MPD2    H1 6925   2.195   3.081  16.420 -0.3023 -0.4759 -0.1819
  465MPD2    H2 6926   2.353   2.791  16.685  0.8103 -0.6821 -2.8565
  465MPD2    H3 6927   2.340   2.884  16.473 -0.5543 -0.3510 -0.7253
  465MPD2     N 6928   2.057   3.223  16.613 -0.2874 -0.2425  0.1334
  465MPD2    H5 6929   2.012   3.252  16.700 -0.6565 -0.4634  0.0171
  465MPD2    N1 6930   2.245   2.907  16.919 -0.0777  0.4161 -0.1315
  465MPD2    H7 6931   2.193   2.967  16.981  1.1531 -0.4319  1.7254
  466TMC3    C1 6932   1.732   3.437  16.601  0.2923  0.2322  1.2926
  466TMC3    C2 6933   1.741   3.569  16.579 -0.2504 -0.5285  0.0332
  466TMC3    C3 6934   1.858   3.608  16.517 -0.1540  0.2241 -0.2526
  466TMC3    C4 6935   1.829   3.350  16.567  0.7806  0.2395 -0.8458
  466TMC3    C5 6936   1.940   3.399  16.513 -0.6803  0.3515 -0.0202
  466TMC3    C6 6937   1.958   3.525  16.486  0.7918 -0.4169 -0.7117
  466TMC3     C 6938   1.652   3.398  16.715 -0.9102  0.2609 -0.2678
  466TMC3     O 6939   1.624   3.488  16.787  0.2862 -0.0417  0.3991
  466TMC3     H 6940   1.665   3.640  16.610  0.3704 -0.8293  2.2654
  466TMC3    H1 6941   1.815   3.243  16.577  1.5496  0.4430  2.3975
  466TMC3    H2 6942   2.057   3.554  16.452  0.9393  0.6783  0.6360
  466TMC3    C7 6943   2.053   3.306  16.499 -0.5330  0.1551  1.6359
  466TMC3    C8 6944   1.897   3.741  16.496 -0.3575 -0.6491  0.1388
  466TMC3    O1 6945   2.134   3.310  16.406  0.5029  0.3234  0.5792
  466TMC3    O2 6946   1.967   3.759  16.396 -0.8221 -0.7852  0.0087
  467TMC3    C1 6947   3.137   2.040  13.505 -0.0057  0.1681 -0.3323
  467TMC3    C2 6948   3.208   2.142  13.436  0.2954 -0.5343 -0.3529
  467TMC3    C3 6949   3.126   2.224  13.356  0.1996 -1.2509 -0.3664
  467TMC3    C4 6950   3.007   2.012  13.506  0.4841 -1.1966 -0.4833
  467TMC3    C5 6951   2.934   2.095  13.420 -0.9241  0.5436  0.0119
  467TMC3    C6 6952   2.995   2.188  13.345 -0.1054  0.2944  0.1373
  467TMC3     C 6953   3.207   1.973  13.618  0.0285 -0.6256 -0.3490
  467TMC3     O 6954   3.139   1.930  13.715 -0.1294  0.0677 -0.0880
  467TMC3     H 6955   3.312   2.172  13.434 -0.2208  1.2215 -0.2660
  467TMC3    H1 6956   2.966   1.932  13.565  1.3521 -0.3403  1.2830
  467TMC3    H2 6957   2.932   2.259  13.291 -1.9118 -2.0289 -0.8251
  467TMC3    C7 6958   2.793   2.087  13.409  0.2230  0.5229  0.3581
  467TMC3    C8 6959   3.149   2.369  13.355 -0.1161  0.1326  0.4958
  467TMC3    O1 6960   2.739   2.118  13.304  0.0767 -0.2829 -1.0118
  467TMC3    O2 6961   3.055   2.447  13.357  0.2451  0.2953 -0.0157
  468MPD2     C 6962   2.694   0.607  10.653  0.0256  0.0211 -0.0618
  468MPD2    C1 6963   2.627   0.603  10.769 -0.0474  0.5820  0.3769
  468MPD2    C2 6964   2.527   0.508  10.793  0.6564 -0.5452 -0.3802
  468MPD2    C3 6965   2.503   0.410  10.700  0.2060 -0.1451  0.0430
  468MPD2    C4 6966   2.579   0.408  10.588 -0.1856  0.0288 -0.0131
  468MPD2    C5 6967   2.665   0.513  10.561 -0.3612  0.3457 -0.4909
  468MPD2     H 6968   2.477   0.504  10.889 -0.1023 -3.4104 -0.8913
  468MPD2    H1 6969   2.575   0.333  10.510 -0.3729 -0.4760  0.4831
  468MPD2    H2 6970   2.788   0.660  10.650  0.1576 -0.1899  0.3977
  468MPD2    H3 6971   2.725   0.497  10.472 -1.3834  1.2156 -1.3459
  468MPD2     N 6972   2.420   0.294  10.714 -0.6709  0.0475  0.3758
  468MPD2    H5 6973   2.416   0.232  10.633 -0.4191  0.6972 -0.1382
  468MPD2    N1 6974   2.651   0.694  10.876  0.2363 -1.0610  0.2154
  468MPD2    H7 6975   2.600   0.685  10.963 -2.0874 -1.2570 -1.1583
  469TMC3    C1 6976   2.734   0.856  11.009  0.2815  0.1941 -0.2694
  469TMC3    C2 6977   2.846   0.909  11.060 -0.2588  0.0810  0.3247
  469TMC3    C3 6978   2.834   1.002  11.155  0.6522  0.7517 -0.1382
  469TMC3    C4 6979   2.616   0.905  11.048 -1.0480 -0.1361 -0.6690
  469TMC3    C5 6980   2.607   1.002  11.143 -0.0186  0.0853 -0.0283
  469TMC3    C6 6981   2.715   1.057  11.195  0.7216 -0.1871  0.2914
  469TMC3     C 6982   2.753   0.790  10.886  0.4950  1.0516  0.4198
  469TMC3     O 6983   2.840   0.824  10.803 -0.2654  0.5969 -0.0368
  469TMC3     H 6984   2.944   0.885  11.021 -0.2683 -0.3542  0.5692
  469TMC3    H1 6985   2.521   0.856  11.026  0.3516 -1.8034 -2.8955
  469TMC3    H2 6986   2.712   1.145  11.258  0.9033  0.5344 -0.7054
  469TMC3    C7 6987   2.480   1.068  11.160  0.1600 -0.2461 -0.5339
  469TMC3    C8 6988   2.948   1.070  11.203 -0.6052 -0.6770  0.5011
  469TMC3    O1 6989   2.386   1.034  11.086 -0.7941  0.0065 -0.5038
  469TMC3    O2 6990   3.041   1.090  11.125  0.4420  0.0929 -0.1001
  470TMC3    C1 6991   0.216   1.426   0.789  0.4858 -1.1873  0.1482
  470TMC3    C2 6992   0.224   1.556   0.828  0.4981 -0.1008  0.1871
  470TMC3    C3 6993   0.120   1.602   0.899  0.1375 -0.3288 -0.6250
  470TMC3    C4 6994   0.116   1.343   0.824 -0.0463 -0.1160  0.0635
  470TMC3    C5 6995   0.021   1.396   0.913 -0.0019 -0.5895  0.6013
  470TMC3    C6 6996   0.020   1.523   0.949  0.2893 -0.2975 -0.0219
  470TMC3     C 6997   0.296   1.378   0.676 -0.9927  0.1594 -0.2076
  470TMC3     O 6998   0.301   1.255   0.671  0.5091 -0.6473  0.3297
  470TMC3     H 6999   0.307   1.621   0.803  0.2631  0.8830  1.9896
  470TMC3    H1 7000   0.091   1.249   0.776 -1.6617 -0.7201  2.0946
  470TMC3    H2 7001   4.666   1.551   1.018  0.4749  0.3120 -0.0518
  470TMC3    C7 7002   4.645   1.293   0.955 -0.0114  0.2515 -0.5891
  470TMC3    C8 7003   0.125   1.740   0.949  0.1826 -0.5739  0.1905
  470TMC3    O1 7004   4.538   1.340   0.994 -0.3644 -0.5431  0.1170
  470TMC3    O2 7005   0.082   1.766   1.060  0.2533 -0.0859  0.2798
  471MPD2     C 7006   0.789   2.094  16.469  0.0356  0.0536  0.0708
  471MPD2    C1 7007   0.713   2.017  16.560 -0.1450  0.3750 -0.2334
  471MPD2    C2 7008   0.771   1.984  16.679 -0.0091  0.4013 -0.4533
  471MPD2    C3 7009   0.900   2.028  16.718 -0.5912 -0.0401 -0.4955
  471MPD2    C4 7010   0.979   2.085  16.621 -0.0205 -0.5069 -0.5282
  471MPD2    C5 7011   0.918   2.124  16.500 -0.4852 -0.4299 -0.9671
  471MPD2     H 7012   0.697   1.947  16.749 -2.5429  1.4170 -2.5643
  471MPD2    H1 7013   1.079   2.122  16.641 -0.5161  0.5165 -0.0017
  471MPD2    H2 7014   0.738   2.135  16.382 -0.9448 -2.0766 -0.3631
  471MPD2    H3 7015   0.971   2.173  16.419  1.2455 -0.3370  0.2295
  471MPD2     N 7016   0.962   1.994  16.842  0.0219 -0.4070  0.7481
  471MPD2    H5 7017   1.057   2.021  16.865 -0.3647 -1.2980  3.3299
  471MPD2    N1 7018   0.580   1.981  16.538 -0.4116  0.1360 -0.7574
  471MPD2    H7 7019   0.520   1.941  16.609  2.5372  0.1864  1.7420
  472TMC3    C1 7020   0.360   2.002  16.468  0.6037 -0.3294  0.5032
  472TMC3    C2 7021   0.269   2.095  16.420 -0.2604 -0.4375 -0.0831
  472TMC3    C3 7022   0.138   2.071  16.449  0.5058  1.1740 -0.1617
  472TMC3    C4 7023   0.322   1.904  16.558  0.2933  0.8567  0.3988
  472TMC3    C5 7024   0.188   1.896  16.600  0.0855 -0.5346 -0.9137
  472TMC3    C6 7025   0.095   1.977  16.542 -0.3753  0.3291  0.4469
  472TMC3     C 7026   0.500   2.034  16.442 -0.0383 -0.0884 -0.3936
  472TMC3     O 7027   0.529   2.111  16.348  0.4248 -0.1540 -0.0574
  472TMC3     H 7028   0.285   2.178  16.352 -1.4099 -0.9273 -0.9413
  472TMC3    H1 7029   0.387   1.824  16.591  2.7838  2.5400 -0.3924
  472TMC3    H2 7030   4.716   1.955  16.565 -0.1006 -1.2911  0.1618
  472TMC3    C7 7031   0.147   1.775  16.662  1.1178 -0.3586  0.2037
  472TMC3    C8 7032   0.034   2.134  16.361  0.4606  0.6983  0.5034
  472TMC3    O1 7033   0.220   1.734  16.753  0.2551  0.3243  0.3251
  472TMC3    O2 7034   0.080   2.203  16.271  0.3413 -0.4733 -0.1880
  473MPD2     C 7035   4.637   4.582  14.382 -0.2597  0.1822  0.4262
  473MPD2    C1 7036   4.601   4.707  14.345  1.0131  0.2324 -0.1208
  473MPD2    C2 7037   4.637   0.087  14.427 -0.4937 -0.1625 -0.3194
  473MPD2    C3 7038   4.709   0.071  14.547  0.1891 -0.7524 -0.2260
  473MPD2    C4 7039   0.001   4.667  14.586  0.9298  0.1583  0.0953
  473MPD2    C5 7040   4.692   4.561  14.504  0.3945  0.6373 -0.3921
  473MPD2     H 7041   4.628   0.184  14.380  1.4895  0.0036 -0.3349
  473MPD2    H1 7042   0.068   4.642  14.667  1.1699  1.5651  0.3135
  473MPD2    H2 7043   4.640   4.498  14.313 -0.7744  1.0526 -0.6695
  473MPD2    H3 7044   0.004   4.464  14.535  0.2867  0.5854 -0.4262
  473MPD2     N 7045   0.056   0.176  14.613  0.5142 -0.3024  0.3221
  473MPD2    H5 7046   0.114   0.146  14.691  0.8565 -0.3612  0.0476
  473MPD2    N1 7047   4.549   0.014  14.215  0.6160 -0.0403 -0.2328
  473MPD2    H7 7048   4.519   0.108  14.192  0.0092 -0.3858 -0.8399
  474TMC3    C1 7049   0.136   0.390  14.675 -0.5398  0.1030  0.4840
  474TMC3    C2 7050   0.093   0.514  14.698  0.0616  0.0918 -0.1033
  474TMC3    C3 7051   0.161   0.602  14.779  0.3391 -0.6776  0.0722
  474TMC3    C4 7052   0.245   0.343  14.741  0.0342 -0.2020  0.3785
  474TMC3    C5 7053   0.307   0.423  14.834 -0.2577 -0.2133  0.8550
  474TMC3    C6 7054   0.265   0.556  14.845  0.4602 -0.3724 -0.1033
  474TMC3     C 7055   0.047   0.307  14.594 -0.1170 -0.7686  0.2531
  474TMC3     O 7056   4.703   0.367  14.509  0.3401  0.0389 -0.4029
  474TMC3     H 7057   0.005   0.549  14.645 -0.4522 -2.6251 -1.0418
  474TMC3    H1 7058   0.276   0.242  14.719 -1.7441 -1.0905  1.8797
  474TMC3    H2 7059   0.336   0.619  14.896  0.2748 -1.1482  1.1092
  474TMC3    C7 7060   0.447   0.391  14.864  0.5435  0.1342  0.2881
  474TMC3    C8 7061   0.088   0.705  14.839 -0.2550 -0.5499  0.0972
  474TMC3    O1 7062   0.528   0.353  14.783 -0.1057  0.2022  0.4669
  474TMC3    O2 7063   0.113   0.738  14.955 -0.1224 -0.1741  0.1867
  475MPD2     C 7064   3.899   2.874  10.321 -0.4012  0.0466 -0.5011
  475MPD2    C1 7065   3.924   2.999  10.375  0.8995  0.1601  0.1051
  475MPD2    C2 7066   3.819   3.067  10.437  0.2423 -0.2491  0.2075
  475MPD2    C3 7067   3.698   3.006  10.453 -0.2863 -0.6545 -0.1122
  475MPD2    C4 7068   3.687   2.875  10.417  0.0312 -0.0373  0.1602
  475MPD2    C5 7069   3.785   2.809  10.357  0.1869  0.4393 -0.2495
  475MPD2     H 7070   3.833   3.169  10.471  2.2906  0.0671 -1.5961
  475MPD2    H1 7071   3.596   2.817  10.429 -1.2579  2.1064  0.7006
  475MPD2    H2 7072   3.980   2.821  10.273 -0.2296  1.3017 -1.5809
  475MPD2    H3 7073   3.761   2.709  10.321 -0.8054  0.3460  0.6471
  475MPD2     N 7074   3.596   3.090  10.495  0.0355 -0.4589  0.5816
  475MPD2    H5 7075   3.610   3.189  10.515 -2.1374  0.7948 -4.1361
  475MPD2    N1 7076   4.049   3.060  10.354  0.3062  0.1003  0.3383
  475MPD2    H7 7077   4.114   3.019  10.287  1.5161  1.9196  0.3752
  476TMC3    C1 7078   4.177   3.255  10.335  0.1605 -0.0294  0.8572
  476TMC3    C2 7079   4.134   3.279  10.202 -0.2225 -0.1912  0.0217
  476TMC3    C3 7080   4.140   3.407  10.141 -0.3130 -0.2432 -0.1447
  476TMC3    C4 7081   4.235   3.362  10.397  0.1209 -0.7565  0.3835
  476TMC3    C5 7082   4.251   3.487  10.334  0.0768 -0.0924  0.3662
  476TMC3    C6 7083   4.206   3.508  10.209 -0.0808 -0.0999  0.2586
  476TMC3     C 7084   4.079   3.182  10.410 -0.4991 -0.1676 -0.6957
  476TMC3     O 7085   4.055   3.228  10.520 -0.0236  0.1922 -0.2776
  476TMC3     H 7086   4.076   3.203  10.150  1.9072 -1.9183  0.1805
  476TMC3    H1 7087   4.274   3.341  10.496 -0.7162 -0.3380  0.7975
  476TMC3    H2 7088   4.199   3.610  10.173  1.2523 -0.0039  0.2712
  476TMC3    C7 7089   4.290   3.609  10.405  0.3252  0.4810 -0.2560
  476TMC3    C8 7090   4.005   3.462  10.111 -0.5921  0.0126 -0.1452
  476TMC3    O1 7091   4.305   3.714  10.342 -0.0696 -0.5458 -0.4004
  476TMC3    O2 7092   3.991   3.571  10.067  0.0348  0.0892 -0.1006
  477MPD2     C 7093   0.334   4.094  11.918 -0.1451  0.2129  0.1888
  477MPD2    C1 7094   0.353   4.199  12.010 -0.2806 -0.8943  0.3562
  477MPD2    C2 7095   0.464   4.201  12.089 -0.4540 -0.2845  0.2032
  477MPD2    C3 7096   0.562   4.095  12.077 -0.2820 -0.7186 -0.4622
  477MPD2    C4 7097   0.531   3.994  11.993 -0.0945 -0.1167  0.2311
  477MPD2    C5 7098   0.421   3.994  11.919 -0.0717  0.1125 -0.1432
  477MPD2     H 7099   0.481   4.289  12.149  0.6172 -0.1201 -0.3452
  477MPD2    H1 7100   0.596   3.908  11.980  1.4308  1.1220 -0.4843
  477MPD2    H2 7101   0.248   4.102  11.851 -0.2030  0.6098  0.3078
  477MPD2    H3 7102   0.402   3.906  11.860 -1.8319 -0.0380  0.6465
  477MPD2     N 7103   0.676   4.104  12.158  0.7822 -0.5686  0.4686
  477MPD2    H5 7104   0.675   4.180  12.225 -1.7551  0.2086 -0.4355
  477MPD2    N1 7105   0.268   4.314  12.006  0.1356  0.5555  0.6455
  477MPD2    H7 7106   0.176   4.305  11.965  0.0984  0.6952  0.7014
  478TMC3    C1 7107   0.212   4.544  12.015 -0.4242  0.5707 -0.4471
  478TMC3    C2 7108   0.235   4.661  12.089 -0.1700  0.7583  0.0069
  478TMC3    C3 7109   0.176   0.047  12.038  0.4833 -0.0171 -0.0647
  478TMC3    C4 7110   0.151   4.541  11.892 -0.2087  0.3665 -0.2703
  478TMC3    C5 7111   0.093   4.651  11.849  0.1464 -0.3673  0.4051
  478TMC3    C6 7112   0.097   0.042  11.928  0.1629 -0.6708 -0.4962
  478TMC3     C 7113   0.304   4.440  12.050 -0.0859 -0.2606 -0.2842
  478TMC3     O 7114   0.413   4.480  12.088  0.0113  0.5514 -0.4343
  478TMC3     H 7115   0.282   4.657  12.186 -1.2037 -0.2324  0.4700
  478TMC3    H1 7116   0.166   4.457  11.825 -2.0239  0.2055 -0.4648
  478TMC3    H2 7117   0.025   0.119  11.903  1.2672  0.0860 -1.3338
  478TMC3    C7 7118   4.714   4.631  11.751  0.1057 -0.3147 -1.1171
  478TMC3    C8 7119   0.124   0.115  12.153  0.2777  0.0146 -0.8072
  478TMC3    O1 7120   4.672   4.516  11.736 -0.0314  0.1151 -0.2487
  478TMC3    O2 7121   0.080   0.044  12.242 -0.3524 -0.0740  0.1804
  479MPD2     C 7122   4.341   1.787  15.271 -0.2108  0.1536  0.7759
  479MPD2    C1 7123   4.297   1.710  15.374  0.1621 -0.8845  0.0581
  479MPD2    C2 7124   4.372   1.694  15.488  0.4316 -0.2473  0.6668
  479MPD2    C3 7125   4.496   1.759  15.498 -0.6889 -0.2425  0.1273
  479MPD2    C4 7126   4.551   1.810  15.385  0.8479  0.0509  0.5907
  479MPD2    C5 7127   4.476   1.822  15.275 -0.0936  0.4594  0.1540
  479MPD2     H 7128   4.325   1.643  15.571  0.2484 -1.8244 -0.4088
  479MPD2    H1 7129   4.655   1.838  15.378  0.5299  0.5467 -2.3698
  479MPD2    H2 7130   4.288   1.801  15.177  0.1127 -2.3906  0.2249
  479MPD2    H3 7131   4.520   1.847  15.179  1.8990 -4.1886 -0.1410
  479MPD2     N 7132   4.583   1.770  15.612  0.1166 -0.2198  0.9953
  479MPD2    H5 7133   4.679   1.796  15.592 -0.3494 -0.7248 -1.9580
  479MPD2    N1 7134   4.175   1.650  15.349 -0.0013  0.8013  0.5205
  479MPD2    H7 7135   4.116   1.684  15.274 -2.5015 -0.0985  2.0751
  480TMC3    C1 7136   4.287   1.741  15.981 -0.6261 -0.1138  0.0741
  480TMC3    C2 7137   4.219   1.853  15.949 -0.1954  0.5318 -0.1049
  480TMC3    C3 7138   4.257   1.921  15.844 -0.5041 -0.3160  0.0584
  480TMC3    C4 7139   4.388   1.685  15.905  0.1968 -0.1410 -0.0126
  480TMC3    C5 7140   4.419   1.760  15.796 -0.3840  0.1585  0.2283
  480TMC3    C6 7141   4.366   1.885  15.773 -0.7784  0.9239 -0.8768
  480TMC3     C 7142   4.238   1.674  16.101 -0.9596 -0.1297  0.0128
  480TMC3     O 7143   4.148   1.733  16.158  0.6225  0.0293  0.2558
  480TMC3     H 7144   4.138   1.880  16.017  0.3272  0.5485  0.5040
  480TMC3    H1 7145   4.425   1.584  15.920 -1.9721 -0.9844 -0.2242
  480TMC3    H2 7146   4.406   1.933  15.685  1.2191  0.5064 -0.1903
  480TMC3    C7 7147   4.559   1.744  15.745 -0.1361 -0.2067 -0.1010
  480TMC3    C8 7148   4.147   1.973  15.768  0.3664  0.1482  0.2844
  480TMC3    O1 7149   4.640   1.745  15.833 -0.0388  0.5016 -0.5662
  480TMC3    O2 7150   4.040   1.977  15.823  0.4410  0.2390 -0.0475
  481MPD2     C 7151   0.718   1.507  14.160  0.5646 -0.1852  0.6262
  481MPD2    C1 7152   0.642   1.412  14.232 -0.7098 -0.3462  0.1412
  481MPD2    C2 7153   0.666   1.402  14.366  0.3167 -0.0473 -0.4095
  481MPD2    C3 7154   0.756   1.487  14.431  0.9534  0.2768  0.2037
  481MPD2    C4 7155   0.823   1.584  14.363  0.3077  1.1151  0.9257
  481MPD2    C5 7156   0.799   1.594  14.234 -0.4380  0.7282  0.0988
  481MPD2     H 7157   0.611   1.335  14.430  0.9691 -1.8536 -1.7409
  481MPD2    H1 7158   0.897   1.648  14.409 -0.2791  0.0742  3.2801
  481MPD2    H2 7159   0.703   1.514  14.053  0.1837  1.8414  0.8088
  481MPD2    H3 7160   0.858   1.664  14.175  1.7304 -0.1096  1.3022
  481MPD2     N 7161   0.790   1.488  14.568  0.1115 -0.0425  0.2925
  481MPD2    H5 7162   0.854   1.559  14.602  0.4940 -0.0131 -0.4778
  481MPD2    N1 7163   0.549   1.331  14.164 -0.4575 -0.2240  0.5100
  481MPD2    H7 7164   0.535   1.348  14.064  1.3813 -1.0333  0.1044
  482TMC3    C1 7165   0.379   1.178  14.143 -0.4183  0.0284 -0.0723
  482TMC3    C2 7166   0.348   1.043  14.152 -0.2345  0.0838 -0.0368
  482TMC3    C3 7167   0.243   0.989  14.083 -0.6619 -0.8078 -0.0760
  482TMC3    C4 7168   0.310   1.264  14.059 -0.1925 -0.1351  0.8229
  482TMC3    C5 7169   0.209   1.204  13.979 -0.1763  0.3363  0.0002
  482TMC3    C6 7170   0.178   1.072  13.991 -0.3686 -0.1453  0.2291
  482TMC3     C 7171   0.487   1.223  14.220 -0.7746  0.3298 -0.3394
  482TMC3     O 7172   0.521   1.156  14.313  0.6188 -0.0939 -0.0562
  482TMC3     H 7173   0.403   0.982  14.223  0.5027 -0.5767 -1.1854
  482TMC3    H1 7174   0.338   1.369  14.053  1.7700 -0.7795 -1.0766
  482TMC3    H2 7175   0.106   1.030  13.923 -0.9538  1.1367  0.0600
  482TMC3    C7 7176   0.159   1.272  13.863  0.8416  0.4029 -0.2989
  482TMC3    C8 7177   0.234   0.843  14.068  0.1835  0.5413  0.1556
  482TMC3    O1 7178   0.076   1.213  13.795 -0.3009 -0.5407  0.1355
  482TMC3    O2 7179   0.321   0.783  14.126  0.1992  0.0502 -1.0196
  483TMC3    C1 7180   3.734   0.115   0.157 -0.3925  0.3450  0.1070
  483TMC3    C2 7181   3.771   0.244   0.165  0.7277  0.2618 -1.0362
  483TMC3    C3 7182   3.903   0.272   0.141  0.0031  0.4733  0.1453
  483TMC3    C4 7183   3.819   0.019   0.115 -0.4030  0.0379 -0.3637
  483TMC3    C5 7184   3.948   0.054   0.087  0.2466  0.1930  0.1147
  483TMC3    C6 7185   3.999   0.179   0.103 -0.1096 -0.3936  0.2574
  483TMC3     C 7186   3.605   0.081   0.214 -0.1660  0.1514  0.1776
  483TMC3     O 7187   3.528   0.174   0.245  0.8275 -0.3410 -0.3165
  483TMC3     H 7188   3.703   0.315   0.212 -0.4779 -1.6782  0.1493
  483TMC3    H1 7189   3.791   4.641   0.098  1.3539 -0.2799 -1.3383
  483TMC3    H2 7190   4.104   0.201   0.099 -0.3941  0.7466 -0.7960
  483TMC3    C7 7191   4.031   4.665   0.114 -0.2314 -0.8187  0.1948
  483TMC3    C8 7192   3.962   0.384   0.214  0.8824  0.4565 -0.4613
  483TMC3    O1 7193   3.972   4.594   0.200  0.7982  0.0500  0.6811
  483TMC3    O2 7194   4.081   0.372   0.239  0.2181  0.0142 -0.4268
  484MPD2     C 7195   1.508   3.452  12.940 -0.2268  0.1677 -0.1741
  484MPD2    C1 7196   1.502   3.320  12.896 -0.6817  0.2655  0.9714
  484MPD2    C2 7197   1.625   3.251  12.875  0.3151 -0.6914 -0.3708
  484MPD2    C3 7198   1.748   3.322  12.904  0.5861 -0.1735  0.3630
  484MPD2    C4 7199   1.747   3.452  12.948 -0.2813 -0.4197  0.0924
  484MPD2    C5 7200   1.625   3.509  12.961  0.1422  0.4636 -0.5763
  484MPD2     H 7201   1.615   3.151  12.834 -1.7173 -1.8424  2.8529
  484MPD2    H1 7202   1.838   3.502  12.979 -0.5605  0.0006  0.2226
  484MPD2    H2 7203   1.420   3.512  12.961  0.5294  0.7962  1.1834
  484MPD2    H3 7204   1.624   3.610  13.000 -0.9152 -0.1680  1.0277
  484MPD2     N 7205   1.878   3.261  12.897 -0.1009  0.6188  0.1847
  484MPD2    H5 7206   1.951   3.303  12.954 -0.8908  2.6939 -0.3488
  484MPD2    N1 7207   1.377   3.251  12.878 -0.1991  0.1002  0.2562
  484MPD2    H7 7208   1.288   3.290  12.909  0.0313 -0.0584  1.1007
  485TMC3    C1 7209   2.029   3.080  12.890  0.7454 -0.0469  0.3311
  485TMC3    C2 7210   2.060   2.952  12.864  0.2659  0.2486  0.6443
  485TMC3    C3 7211   2.184   2.896  12.911 -1.0167  0.2916 -0.5653
  485TMC3    C4 7212   2.131   3.161  12.956 -0.1881  0.2744  0.6652
  485TMC3    C5 7213   2.247   3.106  12.996 -0.8768 -0.3229 -0.0414
  485TMC3    C6 7214   2.270   2.970  12.984  0.3788 -0.2527  0.3714
  485TMC3     C 7215   1.901   3.139  12.841  0.2932 -0.4367 -0.0219
  485TMC3     O 7216   1.818   3.072  12.780  0.8018  0.1825 -0.1574
  485TMC3     H 7217   1.979   2.887  12.834  0.2195  1.3612 -1.6695
  485TMC3    H1 7218   2.118   3.269  12.951  0.7031  0.3791  0.6404
  485TMC3    H2 7219   2.360   2.926  13.023  1.4323  2.1806  0.6651
  485TMC3    C7 7220   2.362   3.180  12.953 -0.8658  0.1576  0.1057
  485TMC3    C8 7221   2.252   2.817  12.811 -1.1010  0.2756  0.7541
  485TMC3    O1 7222   2.372   3.299  12.979  0.1160  0.1590 -0.4300
  485TMC3    O2 7223   2.375   2.819  12.806  0.4609 -0.1479 -0.2122
  486MPD2     C 7224   4.162   2.279  12.866 -0.1594  0.6291  0.3603
  486MPD2    C1 7225   4.033   2.233  12.890 -0.2514 -0.2368 -0.1334
  486MPD2    C2 7226   3.922   2.318  12.861 -0.3899 -1.4085 -0.8779
  486MPD2    C3 7227   3.943   2.438  12.793  0.3930  0.2994  0.0130
  486MPD2    C4 7228   4.069   2.482  12.767 -0.1428  0.0376 -0.0434
  486MPD2    C5 7229   4.173   2.400  12.796 -0.1653  0.0099  0.3707
  486MPD2     H 7230   3.821   2.292  12.891 -0.2286 -1.4963 -0.4091
  486MPD2    H1 7231   4.085   2.580  12.725  2.3996  0.5877  2.2322
  486MPD2    H2 7232   4.246   2.218  12.896  0.4190  0.9699 -0.5557
  486MPD2    H3 7233   4.276   2.426  12.772 -0.3745  0.1869 -0.3294
  486MPD2     N 7234   3.827   2.522  12.776  0.5186 -0.3790  0.3162
  486MPD2    H5 7235   3.739   2.471  12.784  0.1446  0.2878  0.4861
  486MPD2    N1 7236   4.024   2.104  12.939  0.1354 -0.3454  0.9491
  486MPD2    H7 7237   4.113   2.056  12.950  0.2933 -1.3103 -4.2806
  487TMC3    C1 7238   3.932   1.896  12.972  0.3904 -0.1310 -0.4310
  487TMC3    C2 7239   3.861   1.798  12.900  0.1137 -0.8843 -0.1332
  487TMC3    C3 7240   3.879   1.674  12.931 -0.2283 -0.2015 -0.0127
  487TMC3    C4 7241   4.002   1.865  13.086  0.3714  0.1610 -0.3223
  487TMC3    C5 7242   4.011   1.728  13.113 -0.2428  1.0826  0.2829
  487TMC3    C6 7243   3.972   1.631  13.018  0.0241  0.8280  0.4874
  487TMC3     C 7244   3.908   2.031  12.948  0.8109 -1.0312 -0.1036
  487TMC3     O 7245   3.790   2.047  12.905  0.5457  0.1843 -0.4631
  487TMC3     H 7246   3.807   1.818  12.808 -0.6181 -1.2848  0.2085
  487TMC3    H1 7247   4.032   1.943  13.156  1.0331 -0.4298  0.0619
  487TMC3    H2 7248   3.983   1.525  13.039 -1.3161  0.5769 -0.0616
  487TMC3    C7 7249   3.972   1.704  13.249  0.1271  0.1077 -0.1254
  487TMC3    C8 7250   3.765   1.590  12.915  0.4877 -0.0934  0.3708
  487TMC3    O1 7251   3.928   1.798  13.312 -1.2377  0.2832 -0.6859
  487TMC3    O2 7252   3.661   1.648  12.894  0.4437  0.2414  0.4814
  488MPD2     C 7253   4.192   3.746  16.867  0.4706  0.0443  0.1964
  488MPD2    C1 7254   4.136   3.862  16.829  0.6055 -0.1952 -0.4826
  488MPD2    C2 7255   4.073   3.940  16.927  0.1732  0.4079  0.2333
  488MPD2    C3 7256   4.078   3.901  17.057  0.6572  0.2100  0.4366
  488MPD2    C4 7257   4.126   3.779  17.097  0.1505 -0.0345  0.4107
  488MPD2    C5 7258   4.190   3.704  17.000 -0.2995 -0.3275 -0.2253
  488MPD2     H 7259   4.007   4.018  16.891  0.1253 -0.6348 -1.9622
  488MPD2    H1 7260   4.128   3.753  17.202 -2.7987 -0.8791  0.2483
  488MPD2    H2 7261   4.240   3.677  16.798 -0.6512 -0.1223 -0.4053
  488MPD2    H3 7262   4.243   3.615  17.033 -2.1898 -1.5413 -0.4731
  488MPD2     N 7263   4.018   3.994  17.147  0.8943 -0.1983  0.3545
  488MPD2    H5 7264   3.992   4.085  17.110  2.1179 -0.4959 -1.1892
  488MPD2    N1 7265   4.117   3.903  16.696 -0.5860 -0.4628  0.2306
  488MPD2    H7 7266   4.077   3.996  16.683 -0.2541 -0.6085 -1.7800
  489TMC3    C1 7267   3.925   4.091  17.341  0.0050 -0.6438 -0.1534
  489TMC3    C2 7268   3.928   4.206  17.270  0.2784 -0.4453  0.0546
  489TMC3    C3 7269   3.816   4.288  17.277  0.0402 -0.1440  0.0770
  489TMC3    C4 7270   3.823   4.060  17.426 -0.2833 -0.1608 -0.6689
  489TMC3    C5 7271   3.716   4.153  17.437 -0.5071  0.3071  0.0569
  489TMC3    C6 7272   3.708   4.268  17.359  0.0761  0.0227  0.6798
  489TMC3     C 7273   3.987   3.973  17.281  0.3869  0.2725 -0.4328
  489TMC3     O 7274   4.014   3.879  17.354 -1.0256 -0.0475 -0.6646
  489TMC3     H 7275   4.003   4.226  17.194 -0.0796  0.5115 -0.0371
  489TMC3    H1 7276   3.827   3.967  17.481 -1.1705  0.8583  1.1264
  489TMC3    H2 7277   3.628   4.341  17.360  0.0722  0.0206 -1.0374
  489TMC3    C7 7278   3.592   4.085  17.474  0.1941 -0.2193  0.3791
  489TMC3    C8 7279   3.810   4.418  17.203  0.3685  0.8146 -0.3292
  489TMC3    O1 7280   3.607   3.984  17.544 -0.4496 -0.2176  0.2510
  489TMC3    O2 7281   3.696   4.446  17.161  0.1297 -0.0060 -0.2870
  490MPD2     C 7282   1.067   2.474  16.992 -0.4147  0.0751 -0.0481
  490MPD2    C1 7283   0.964   2.477  17.081 -0.3512  0.0934  0.0349
  490MPD2    C2 7284   0.962   2.578  17.183 -0.0187 -0.1302  0.1096
  490MPD2    C3 7285   1.076   2.654  17.195 -0.6996  0.7102 -0.2129
  490MPD2    C4 7286   1.182   2.643  17.101 -0.4561 -0.5929 -0.3728
  490MPD2    C5 7287   1.171   2.551  17.005 -0.5875  0.4750 -0.3182
  490MPD2     H 7288   0.876   2.578  17.249  1.2040  2.7153  1.7255
  490MPD2    H1 7289   1.279   2.690  17.106 -0.5382 -0.2553 -1.9808
  490MPD2    H2 7290   1.070   2.419  16.899  0.2157  1.3860 -0.8041
  490MPD2    H3 7291   1.248   2.542  16.930 -1.0389  1.2311 -0.8746
  490MPD2     N 7292   1.091   2.746  17.301  0.6681 -0.2762 -0.4509
  490MPD2    H5 7293   1.174   2.804  17.309 -1.5125  2.9512 -1.3358
  490MPD2    N1 7294   0.856   2.387  17.073 -0.3920  0.1885 -0.6380
  490MPD2    H7 7295   0.793   2.385  17.152  1.5215 -0.8884  0.8455
  491TMC3    C1 7296   0.698   2.232  16.996  0.5295 -0.3142  0.0214
  491TMC3    C2 7297   0.680   2.187  17.122  0.1066  0.0965  0.5331
  491TMC3    C3 7298   0.570   2.114  17.137 -0.7870  0.4603  0.9808
  491TMC3    C4 7299   0.609   2.208  16.895 -0.3181 -0.6277 -0.0574
  491TMC3    C5 7300   0.491   2.148  16.925  0.5602  0.6174 -0.1045
  491TMC3    C6 7301   0.471   2.103  17.051  0.2679  0.1132  0.2657
  491TMC3     C 7302   0.815   2.312  16.964 -0.7328  0.2294  0.1335
  491TMC3     O 7303   0.846   2.329  16.848  0.2002 -0.3794 -0.2044
  491TMC3     H 7304   0.749   2.187  17.205 -0.1698 -0.3984  0.7616
  491TMC3    H1 7305   0.626   2.246  16.795 -0.1774  0.6420  0.4516
  491TMC3    H2 7306   0.382   2.052  17.083 -0.0549  0.8196  0.4974
  491TMC3    C7 7307   0.374   2.156  16.841  0.0984 -0.7561 -0.8941
  491TMC3    C8 7308   0.536   2.066  17.272 -0.1366  0.1724  0.9725
  491TMC3    O1 7309   0.298   2.065  16.865 -0.3529 -0.4520 -0.5372
  491TMC3    O2 7310   0.614   1.988  17.322 -0.1488  0.3963  0.1078
  492MPD2     C 7311   0.529   3.482  11.664  0.8031 -0.1959 -0.4374
  492MPD2    C1 7312   0.474   3.367  11.620 -0.2914  0.0678  0.5753
  492MPD2    C2 7313   0.411   3.279  11.703  0.2613 -0.2538 -0.3299
  492MPD2    C3 7314   0.411   3.299  11.838  0.3448 -0.4892 -0.3367
  492MPD2    C4 7315   0.477   3.417  11.885 -0.1180  0.1448  0.5269
  492MPD2    C5 7316   0.526   3.514  11.799 -0.5205 -0.0281  0.6000
  492MPD2     H 7317   0.368   3.190  11.658  0.2463  0.5899 -1.9733
  492MPD2    H1 7318   0.488   3.441  11.990 -0.1620 -0.6657  0.7157
  492MPD2    H2 7319   0.598   3.538  11.602  0.1740  1.4478  0.3534
  492MPD2    H3 7320   0.588   3.596  11.836  2.5890 -2.2537  0.3567
  492MPD2     N 7321   0.345   3.211  11.933 -0.2257 -0.0534  0.2086
  492MPD2    H5 7322   0.351   3.229  12.032 -0.5787 -2.8620  0.7645
  492MPD2    N1 7323   0.491   3.350  11.482 -0.5237 -0.1868  0.3057
  492MPD2    H7 7324   0.552   3.416  11.434  2.3878 -2.3215  1.0602
  493TMC3    C1 7325   0.485   3.261  11.266  0.4897 -0.6210  0.2437
  493TMC3    C2 7326   0.597   3.333  11.236  0.0857  0.1313  0.3812
  493TMC3    C3 7327   0.636   3.327  11.102 -0.2126 -0.4485 -0.4808
  493TMC3    C4 7328   0.415   3.193  11.176  0.7177 -0.2345 -0.1005
  493TMC3    C5 7329   0.456   3.197  11.049 -0.3220  0.2232  0.6390
  493TMC3    C6 7330   0.562   3.268  11.004  1.0414  0.6122  0.5002
  493TMC3     C 7331   0.436   3.253  11.404  0.9172  0.0905 -0.0325
  493TMC3     O 7332   0.357   3.162  11.423 -0.0925  0.5430  0.4100
  493TMC3     H 7333   0.661   3.376  11.312 -0.0863  0.5668  0.2819
  493TMC3    H1 7334   0.326   3.137  11.201 -1.0068  2.9974  0.9418
  493TMC3    H2 7335   0.606   3.247  10.908  0.9892  0.8069  0.4328
  493TMC3    C7 7336   0.385   3.108  10.956  0.4537 -0.2888 -0.1688
  493TMC3    C8 7337   0.767   3.389  11.079 -0.0251 -0.3664 -0.5648
  493TMC3    O1 7338   0.378   3.131  10.837 -0.5756 -0.0353  0.3316
  493TMC3    O2 7339   0.843   3.402  11.178  0.6061 -0.5871 -0.4653
  494TMC3    C1 7340   1.455   0.144   0.839  0.4639 -0.0120  0.8625
  494TMC3    C2 7341   1.452   0.010   0.836 -0.4730  0.6690 -0.4313
  494TMC3    C3 7342   1.435   4.677   0.708  0.4794  0.2269 -0.1298
  494TMC3    C4 7343   1.466   0.224   0.736  0.2839 -0.7311 -0.4030
  494TMC3    C5 7344   1.465   0.162   0.612  0.0880  0.4108  0.7167
  494TMC3    C6 7345   1.445   0.028   0.593 -0.5306  0.3397  0.5983
  494TMC3     C 7346   1.455   0.197   0.978  0.1722 -0.1308 -0.4496
  494TMC3     O 7347   1.429   0.125   1.076  0.0333 -0.1959  0.1158
  494TMC3     H 7348   1.448   4.677   0.928  2.4680 -2.1441 -2.0585
  494TMC3    H1 7349   1.455   0.331   0.749  1.5074 -0.3627 -2.4407
  494TMC3    H2 7350   1.441   4.701   0.498 -0.3243 -1.2382  1.4617
  494TMC3    C7 7351   1.501   0.233   0.490  0.2400 -0.4574  0.2326
  494TMC3    C8 7352   1.422   4.531   0.703 -0.8694 -0.6564 -0.2417
  494TMC3    O1 7353   1.516   0.159   0.395  0.1695  0.7654 -0.6077
  494TMC3    O2 7354   1.479   4.466   0.792 -0.5239 -0.6300 -0.1506
  495TMC3    C1 7355   4.355   2.048  14.829 -0.0442  0.2510  0.3384
  495TMC3    C2 7356   4.266   2.092  14.741 -0.1286  0.1078 -0.8295
  495TMC3    C3 7357   4.157   2.161  14.798 -0.1147 -0.5623  0.6327
  495TMC3    C4 7358   4.357   2.077  14.958  0.8083 -0.6071  0.0460
  495TMC3    C5 7359   4.242   2.135  15.008  0.9176  0.4499 -0.1281
  495TMC3    C6 7360   4.139   2.179  14.926  0.6853  0.0138 -0.6400
  495TMC3     C 7361   4.364   1.906  14.802  0.5487 -0.2293 -0.6393
  495TMC3     O 7362   4.273   1.850  14.741  0.4169 -0.0937 -0.1358
  495TMC3     H 7363   4.281   2.071  14.636 -1.4607  2.6985 -1.5319
  495TMC3    H1 7364   4.434   2.039  15.025  2.0971  0.8328 -0.6256
  495TMC3    H2 7365   4.053   2.240  14.952  0.5930  0.8206 -2.8045
  495TMC3    C7 7366   4.217   2.110  15.148  0.3139 -0.3817  0.7484
  495TMC3    C8 7367   4.038   2.153  14.720 -0.1444  0.5049 -0.1316
  495TMC3    O1 7368   4.317   2.134  15.218  0.0922 -0.1075  0.0363
  495TMC3    O2 7369   3.942   2.109  14.785 -0.0704  0.0081  0.1689
  496MPD2     C 7370   2.099   2.289  15.654  0.0256  0.2613  0.4501
  496MPD2    C1 7371   2.072   2.298  15.520  0.1413  0.6824 -0.0642
  496MPD2    C2 7372   1.983   2.204  15.467 -0.1967  0.1920  0.1743
  496MPD2    C3 7373   1.910   2.121  15.555  0.2889  0.3515 -0.4276
  496MPD2    C4 7374   1.929   2.127  15.686 -0.8858 -0.3252  0.4742
  496MPD2    C5 7375   2.022   2.213  15.733  0.3073 -0.2413  0.2712
  496MPD2     H 7376   1.968   2.196  15.360  0.1158  0.1450  0.1351
  496MPD2    H1 7377   1.882   2.053  15.751 -2.0948 -1.8402 -2.1271
  496MPD2    H2 7378   2.170   2.358  15.698 -1.2575 -0.5733  3.8252
  496MPD2    H3 7379   2.057   2.209  15.836  3.0669 -1.1465 -0.6907
  496MPD2     N 7380   1.820   2.019  15.524 -0.6903 -0.7121 -0.0867
  496MPD2    H5 7381   1.769   1.973  15.599 -2.3581  0.9325 -0.2190
  496MPD2    N1 7382   2.153   2.385  15.445  0.1558  0.2594 -0.3107
  496MPD2    H7 7383   2.222   2.437  15.500 -1.4308 -0.2245  2.0996
  497TMC3    C1 7384   1.675   1.889  15.402  0.8917 -0.0957 -0.0502
  497TMC3    C2 7385   1.671   1.808  15.289  0.3862 -0.2811  0.1866
  497TMC3    C3 7386   1.561   1.718  15.290  0.1211  0.1405 -0.0001
  497TMC3    C4 7387   1.603   1.855  15.513  0.6200  0.3836  0.0319
  497TMC3    C5 7388   1.500   1.760  15.505  0.6848  0.2044  0.2731
  497TMC3    C6 7389   1.482   1.688  15.390 -0.1740 -0.5953 -0.6142
  497TMC3     C 7390   1.786   1.979  15.402 -0.1658  0.6356  0.2299
  497TMC3     O 7391   1.841   2.008  15.296  0.0011  0.2116 -0.0709
  497TMC3     H 7392   1.737   1.824  15.204 -0.4301 -0.0844 -0.4070
  497TMC3    H1 7393   1.617   1.921  15.597  1.0016  4.0581 -2.8994
  497TMC3    H2 7394   1.399   1.620  15.374  1.2010 -2.1582 -1.0405
  497TMC3    C7 7395   1.421   1.722  15.619  0.4708 -0.0202  0.2129
  497TMC3    C8 7396   1.567   1.617  15.188  0.3693  0.0904 -0.2634
  497TMC3    O1 7397   1.335   1.636  15.603 -0.1334 -0.4340 -0.0981
  497TMC3    O2 7398   1.677   1.584  15.152  0.2897 -0.1019 -0.3660
  498MPD2     C 7399   2.853   3.112   9.281 -0.4246  0.1437 -0.7187
  498MPD2    C1 7400   2.869   3.134   9.422  0.2479  0.0689 -0.1985
  498MPD2    C2 7401   2.794   3.058   9.507 -0.5837 -0.5763  0.5378
  498MPD2    C3 7402   2.744   2.938   9.472 -0.2860  0.4172 -0.3887
  498MPD2    C4 7403   2.736   2.916   9.334 -0.3955  1.1458 -0.0075
  498MPD2    C5 7404   2.787   3.000   9.240  0.0093  0.4823 -0.4852
  498MPD2     H 7405   2.801   3.077   9.614  0.7214  0.3912  0.2795
  498MPD2    H1 7406   2.701   2.817   9.306 -1.0887  0.9485  1.6037
  498MPD2    H2 7407   2.884   3.189   9.210 -1.3687  0.9042 -0.3103
  498MPD2    H3 7408   2.791   2.969   9.136 -0.7876  1.6977 -0.8747
  498MPD2     N 7409   2.693   2.840   9.568 -0.7241 -0.4811 -0.0005
  498MPD2    H5 7410   2.699   2.859   9.667  0.4574  3.1560 -0.7607
  498MPD2    N1 7411   2.933   3.254   9.463 -0.6355  0.0283 -0.1929
  498MPD2    H7 7412   2.911   3.285   9.557 -0.7897 -0.6735 -0.0014
  499TMC3    C1 7413   3.105   3.426   9.461 -0.6813 -0.2578  0.6189
  499TMC3    C2 7414   3.233   3.454   9.416 -1.0954 -0.3452 -0.0180
  499TMC3    C3 7415   3.294   3.574   9.463  0.9499  0.1080  0.5258
  499TMC3    C4 7416   3.029   3.515   9.527  0.5407 -0.6722 -0.0335
  499TMC3    C5 7417   3.090   3.635   9.561  0.3735 -0.2808  0.2813
  499TMC3    C6 7418   3.225   3.659   9.542 -0.0143 -0.6513 -0.6054
  499TMC3     C 7419   3.033   3.318   9.395  0.1802  0.6737 -0.1715
  499TMC3     O 7420   3.085   3.285   9.288 -0.1321  0.0452  0.2776
  499TMC3     H 7421   3.283   3.374   9.363  0.5644  1.8800 -1.8046
  499TMC3    H1 7422   2.924   3.489   9.535 -0.0142  1.4848 -0.2255
  499TMC3    H2 7423   3.275   3.749   9.579 -0.3257  0.4539 -2.8450
  499TMC3    C7 7424   3.007   3.742   9.617 -0.1643 -0.3659 -0.1063
  499TMC3    C8 7425   3.447   3.574   9.475  0.2517  0.5946  0.5904
  499TMC3    O1 7426   3.021   3.856   9.581 -0.1013 -0.4007 -0.1266
  499TMC3    O2 7427   3.494   3.664   9.538  0.6749  0.2651 -0.4511
  500MPD2     C 7428   4.449   4.454  10.071 -0.7503 -0.2505 -0.4412
  500MPD2    C1 7429   4.397   4.482  10.192  0.3391 -0.0334 -0.2921
  500MPD2    C2 7430   4.259   4.495  10.210 -0.2904 -0.3544 -0.5233
  500MPD2    C3 7431   4.170   4.456  10.110 -0.1724 -0.6909  1.3534
  500MPD2    C4 7432   4.226   4.422   9.983  0.3139  0.2380  0.1655
  500MPD2    C5 7433   4.365   4.432   9.968 -0.2858 -0.1455  0.2762
  500MPD2     H 7434   4.230   4.522  10.311  0.3952 -1.3634 -0.0523
  500MPD2    H1 7435   4.155   4.403   9.903  1.5660  0.1633 -0.9351
  500MPD2    H2 7436   4.554   4.458  10.046 -0.2161 -0.1728  1.8346
  500MPD2    H3 7437   4.408   4.424   9.869 -0.6041  0.6827  0.0690
  500MPD2     N 7438   4.033   4.439  10.130 -0.1116  0.1035 -0.0866
  500MPD2    H5 7439   3.977   4.400  10.055  0.0118  0.6417 -0.4606
  500MPD2    N1 7440   4.477   4.515  10.300  0.2156  0.2520  0.0247
  500MPD2    H7 7441   4.433   4.562  10.379 -0.9482 -0.3954 -0.2418
  501TMC3    C1 7442   4.655   4.525  10.443  0.1420 -0.2887 -0.6416
  501TMC3    C2 7443   4.621   4.657  10.468  0.6356  0.3234 -0.1419
  501TMC3    C3 7444   4.683   4.707  10.585 -1.1676 -0.7683 -0.4640
  501TMC3    C4 7445   0.030   4.454  10.506  0.0500 -0.0866 -0.1454
  501TMC3    C5 7446   0.093   4.521  10.607 -0.4790  0.3268  0.1439
  501TMC3    C6 7447   0.049   4.642  10.653 -0.3709 -0.0275  0.5631
  501TMC3     C 7448   4.611   4.475  10.313 -0.4806 -1.6615 -0.3322
  501TMC3     O 7449   4.673   4.390  10.250  0.6391 -0.1813 -0.5702
  501TMC3     H 7450   4.546   4.712  10.413 -0.3579 -0.5098  0.3802
  501TMC3    H1 7451   0.059   4.355  10.471  0.3649 -0.7084  1.9168
  501TMC3    H2 7452   0.096   4.690  10.738  2.5764  1.9727 -2.1645
  501TMC3    C7 7453   0.198   4.455  10.682 -0.2587 -0.3853  0.3652
  501TMC3    C8 7454   4.640   0.098  10.647 -0.1818  0.4153  0.6231
  501TMC3    O1 7455   0.178   4.341  10.715 -0.7704  0.2021  0.0943
  501TMC3    O2 7456   4.650   0.099  10.767 -0.1720 -0.1489  0.1757
  502TMC3    C1 7457   3.678   2.278  15.158 -0.6462 -0.4401  0.3072
  502TMC3    C2 7458   3.656   2.336  15.038 -0.5895 -0.7595 -0.0195
  502TMC3    C3 7459   3.539   2.401  15.021  0.0990 -0.4032  0.2477
  502TMC3    C4 7460   3.580   2.258  15.252  0.4165  0.0510  0.4148
  502TMC3    C5 7461   3.453   2.299  15.220 -0.7933 -0.5929  0.5186
  502TMC3    C6 7462   3.436   2.364  15.100 -0.0925  0.5855  0.0448
  502TMC3     C 7463   3.785   2.354  15.220 -0.5725 -0.4599 -0.2644
  502TMC3     O 7464   3.884   2.382  15.156  0.0276 -0.2737 -0.2096
  502TMC3     H 7465   3.744   2.377  14.990 -0.5400 -2.0144 -0.9882
  502TMC3    H1 7466   3.602   2.218  15.350  0.2355  0.6244  0.6897
  502TMC3    H2 7467   3.342   2.406  15.066 -1.2117 -0.5996  1.6674
  502TMC3    C7 7468   3.370   2.340  15.335  0.0384 -0.0600 -0.4227
  502TMC3    C8 7469   3.564   2.546  15.012  0.1050 -0.6321 -1.2947
  502TMC3    O1 7470   3.421   2.304  15.438  0.1477  0.2272 -0.2585
  502TMC3    O2 7471   3.663   2.581  14.952  0.7088 -0.2249 -0.0584
  503MPD2     C 7472   1.140   3.802  17.177 -0.2748 -0.5695 -0.4952
  503MPD2    C1 7473   1.227   3.807  17.281 -0.5807  0.9673 -0.2302
  503MPD2    C2 7474   1.244   3.704  17.361 -0.0095 -0.1236  0.7098
  503MPD2    C3 7475   1.177   3.583  17.353 -0.0357  0.8853  0.2361
  503MPD2    C4 7476   1.086   3.571  17.252 -0.2222 -0.1710 -0.8891
  503MPD2    C5 7477   1.075   3.679  17.163 -0.7612  0.0361  0.1579
  503MPD2     H 7478   1.316   3.713  17.442  1.7109  0.8917 -0.9261
  503MPD2    H1 7479   1.020   3.486  17.243  1.5807 -1.7745  1.0146
  503MPD2    H2 7480   1.122   3.884  17.108 -1.6828 -1.1554 -0.8363
  503MPD2    H3 7481   1.025   3.658  17.069  0.9254  3.1486 -1.4624
  503MPD2     N 7482   1.206   3.481  17.440  0.6812 -0.5405 -0.5494
  503MPD2    H5 7483   1.286   3.506  17.497  1.4384 -0.2140 -1.7666
  503MPD2    N1 7484   1.287   3.928  17.323  0.0608  0.2873  0.3845
  503MPD2    H7 7485   1.334   3.928  17.413  0.3892 -0.8596  0.2090
  504TMC3    C1 7486   1.213   3.287  17.550  0.0703  0.3147 -0.3823
  504TMC3    C2 7487   1.211   3.337  17.678  0.8409 -0.1080  0.2520
  504TMC3    C3 7488   1.310   3.292   0.062  0.4487  0.0829  0.5740
  504TMC3    C4 7489   1.316   3.212  17.503  0.4518  0.7817  0.6184
  504TMC3    C5 7490   1.419   3.190  17.586 -0.4892  0.0793 -0.1122
  504TMC3    C6 7491   1.425   3.215   0.023 -0.1932 -0.0993  0.3594
  504TMC3     C 7492   1.147   3.356  17.444  0.4182  0.5684  0.3002
  504TMC3     O 7493   1.067   3.296  17.371  0.1039  0.2477  0.0201
  504TMC3     H 7494   1.117   3.379   0.012  1.8259  0.4110  2.3670
  504TMC3    H1 7495   1.316   3.189  17.397  3.1610  0.3969  0.7132
  504TMC3    H2 7496   1.488   3.151   0.083 -0.7088  1.2711  2.3750
  504TMC3    C7 7497   1.533   3.115  17.530 -0.2828 -0.3066  0.1032
  504TMC3    C8 7498   1.284   3.286   0.201 -0.7940 -0.2971 -0.0726
  504TMC3    O1 7499   1.505   3.067  17.423  0.1257 -0.4313  0.2070
  504TMC3    O2 7500   1.180   3.341   0.226 -0.2446  0.1287 -0.7281
  505MPD2     C 7501   1.861   1.889   9.410 -0.3871  0.7485  0.1382
  505MPD2    C1 7502   1.805   1.864   9.534 -0.0975 -0.1282  0.2049
  505MPD2    C2 7503   1.713   1.956   9.580  0.6346 -0.2713 -0.4719
  505MPD2    C3 7504   1.684   2.076   9.508  0.4892  0.0570 -0.7144
  505MPD2    C4 7505   1.740   2.090   9.381 -0.2076 -0.4307 -0.3101
  505MPD2    C5 7506   1.826   1.994   9.334 -1.1500 -0.3262  0.1502
  505MPD2     H 7507   1.670   1.943   9.679  2.8037  0.0878  0.5133
  505MPD2    H1 7508   1.719   2.185   9.334 -0.9630  0.5741  2.0496
  505MPD2    H2 7509   1.923   1.809   9.371 -2.9569 -0.7135 -0.9292
  505MPD2    H3 7510   1.868   2.009   9.235 -1.2284  1.3148  0.3702
  505MPD2     N 7511   1.614   2.194   9.556  0.1268  0.2120 -0.4568
  505MPD2    H5 7512   1.596   2.261   9.481 -1.4395  1.6649  1.2264
  505MPD2    N1 7513   1.846   1.748   9.603  0.1787  0.5053 -0.4529
  505MPD2    H7 7514   1.907   1.682   9.556 -0.4327  0.0779 -0.6340
  506TMC3    C1 7515   1.900   1.619   9.799  0.4049  0.2761  0.0280
  506TMC3    C2 7516   2.025   1.597   9.742  0.0452 -0.2378 -0.0491
  506TMC3    C3 7517   2.138   1.608   9.824 -0.7791  0.5588 -0.1829
  506TMC3    C4 7518   1.878   1.632   9.930  0.5482  0.3619  0.4808
  506TMC3    C5 7519   1.991   1.650  10.008 -0.0064 -0.1783  0.0314
  506TMC3    C6 7520   2.119   1.635   9.958  0.6362 -0.1327  0.1499
  506TMC3     C 7521   1.812   1.720   9.735 -0.0305 -0.0162 -0.1962
  506TMC3     O 7522   1.742   1.781   9.812  0.0992  0.0568  0.0407
  506TMC3     H 7523   2.039   1.590   9.635  2.9900 -1.2326  0.4110
  506TMC3    H1 7524   1.778   1.624   9.970  0.1027  0.0464 -0.7021
  506TMC3    H2 7525   2.202   1.663  10.022 -0.4659 -0.5022  1.7306
  506TMC3    C7 7526   1.975   1.759  10.098  0.0658  0.3708  0.1573
  506TMC3    C8 7527   2.264   1.644   9.772  1.1305  0.7530 -0.4832
  506TMC3    O1 7528   2.054   1.763  10.193  0.2181  0.8246 -0.4039
  506TMC3    O2 7529   2.307   1.568   9.687  0.2078  0.2243  0.3716
  507TMC3    C1 7530   2.410   3.407  14.942  1.0036  0.8158  0.4875
  507TMC3    C2 7531   2.327   3.339  14.859 -0.6501 -0.0956 -0.0759
  507TMC3    C3 7532   2.368   3.323  14.729 -0.0579  0.0885  0.1831
  507TMC3    C4 7533   2.520   3.481  14.906  0.1204  0.6650  0.0193
  507TMC3    C5 7534   2.547   3.483  14.776  0.3676  0.4951 -0.1250
  507TMC3    C6 7535   2.474   3.402  14.693  0.2160  0.0665  0.4951
  507TMC3     C 7536   2.382   3.422  15.079 -0.2288 -0.0521 -0.1360
  507TMC3     O 7537   2.474   3.409  15.159 -0.5637  0.8052  0.3206
  507TMC3     H 7538   2.224   3.310  14.879 -0.4093 -1.0082 -0.1628
  507TMC3    H1 7539   2.582   3.538  14.974  1.7384  1.6933 -2.3226
  507TMC3    H2 7540   2.505   3.397  14.590 -1.1264  1.7962  0.0187
  507TMC3    C7 7541   2.556   3.617  14.722  0.0348  0.2325  0.2647
  507TMC3    C8 7542   2.253   3.329  14.647 -0.3649 -0.5728 -0.4406
  507TMC3    O1 7543   2.494   3.626  14.620  0.7647  0.2845 -0.0757
  507TMC3    O2 7544   2.158   3.251  14.652 -0.4615 -0.0905 -0.4206
  508MPD2     C 7545   3.260   0.436  15.762 -0.1026  0.7469  0.3582
  508MPD2    C1 7546   3.271   0.554  15.828  0.5616  0.1749  0.2252
  508MPD2    C2 7547   3.253   0.677  15.760 -0.1495  0.7739 -0.4346
  508MPD2    C3 7548   3.220   0.675  15.626  0.1125  0.1131 -0.4090
  508MPD2    C4 7549   3.200   0.557  15.562 -0.8783  0.2364 -0.3216
  508MPD2    C5 7550   3.226   0.439  15.630 -0.4216  0.2745  0.3169
  508MPD2     H 7551   3.291   0.770  15.801 -1.2174  0.2643  1.6906
  508MPD2    H1 7552   3.146   0.543  15.469  0.8121 -0.1226 -1.2561
  508MPD2    H2 7553   3.277   0.341  15.812  1.5526 -0.3388 -2.2727
  508MPD2    H3 7554   3.194   0.350  15.577  1.5544 -1.4294  1.9654
  508MPD2     N 7555   3.200   0.803  15.570 -0.1614 -0.4626  0.4720
  508MPD2    H5 7556   3.200   0.881  15.634 -2.4891 -0.3590  0.3628
  508MPD2    N1 7557   3.307   0.562  15.968  0.4751  0.0456 -0.4108
  508MPD2    H7 7558   3.300   0.650  16.017 -0.0236 -1.1819  1.7260
  509TMC3    C1 7559   3.038   1.161  15.440  0.2928  0.6686 -0.4223
  509TMC3    C2 7560   3.155   1.236  15.436 -0.1799 -0.2494 -0.0588
  509TMC3    C3 7561   3.274   1.166  15.445 -0.4408  0.1429  0.3142
  509TMC3    C4 7562   3.044   1.028  15.405  0.0825  0.0975 -0.1301
  509TMC3    C5 7563   3.162   0.963  15.406 -0.0729 -0.5145 -0.7536
  509TMC3    C6 7564   3.276   1.032  15.424 -0.4242  0.1589  0.7880
  509TMC3     C 7565   2.906   1.220  15.419  0.0034 -0.0426 -0.3278
  509TMC3     O 7566   2.808   1.150  15.397  0.3791  0.4966  0.2450
  509TMC3     H 7567   3.148   1.344  15.437 -0.0897 -0.2452  0.0817
  509TMC3    H1 7568   2.950   0.981  15.432  0.6103 -0.8917  0.0033
  509TMC3    H2 7569   3.367   0.975  15.434 -1.4294 -1.8690 -1.7790
  509TMC3    C7 7570   3.157   0.822  15.439  0.2679  0.1747 -0.2607
  509TMC3    C8 7571   3.400   1.225  15.477 -0.1243  0.6164 -0.0860
  509TMC3    O1 7572   3.137   0.742  15.351 -0.0300 -0.2959 -0.4044
  509TMC3    O2 7573   3.500   1.170  15.423 -0.1492 -0.2501 -0.0296
  510MPD2     C 7574   1.043   2.402  14.504 -0.2252  0.2873 -0.5405
  510MPD2    C1 7575   1.112   2.385  14.624 -1.0054 -0.0777  0.5504
  510MPD2    C2 7576   1.250   2.407  14.614 -0.1262 -0.0272 -0.4445
  510MPD2    C3 7577   1.315   2.439  14.497  0.1192 -0.4120 -0.0282
  510MPD2    C4 7578   1.242   2.453  14.380  0.2596  0.1385  0.4210
  510MPD2    C5 7579   1.106   2.425  14.386  0.6010 -0.5320 -0.0878
  510MPD2     H 7580   1.314   2.384  14.698  0.1295 -2.3905 -1.2889
  510MPD2    H1 7581   1.277   2.466  14.278 -0.5988  1.0195  0.2390
  510MPD2    H2 7582   0.940   2.371  14.503  0.0618 -0.6379 -0.8297
  510MPD2    H3 7583   1.047   2.425  14.295  0.3072 -0.0206  0.1025
  510MPD2     N 7584   1.457   2.450  14.499 -0.9464 -0.0930 -0.3677
  510MPD2    H5 7585   1.495   2.431  14.592  1.1161 -1.1496 -1.4119
  510MPD2    N1 7586   1.055   2.319  14.742 -0.2143 -0.2118 -0.2072
  510MPD2    H7 7587   0.965   2.274  14.727 -0.3456  0.6550 -2.1222
  511TMC3    C1 7588   1.044   2.224  14.966 -0.0979  0.5803 -0.3185
  511TMC3    C2 7589   1.015   2.269  15.088  0.6518 -0.7595  0.1147
  511TMC3    C3 7590   0.921   2.202  15.162  0.1019 -0.5265  0.4338
  511TMC3    C4 7591   0.989   2.107  14.914 -0.1058  0.3309 -0.1167
  511TMC3    C5 7592   0.903   2.037  14.993 -0.5030 -0.4816  0.3315
  511TMC3    C6 7593   0.878   2.075  15.127 -0.3159 -0.0645  0.1616
  511TMC3     C 7594   1.120   2.310  14.872 -0.0400  0.1787 -0.3900
  511TMC3     O 7595   1.181   2.404  14.915  0.0170  1.2247  0.1077
  511TMC3     H 7596   1.052   2.368  15.115 -1.6487 -0.3782  1.8172
  511TMC3    H1 7597   1.010   2.077  14.812 -3.2025 -0.9056 -0.3845
  511TMC3    H2 7598   0.798   2.034  15.187  1.4420 -3.3845  0.2535
  511TMC3    C7 7599   0.818   1.943  14.926 -0.3025  0.7403  0.2898
  511TMC3    C8 7600   0.884   2.260  15.296 -0.2470 -0.1266 -0.1410
  511TMC3    O1 7601   0.814   1.940  14.803  0.0988 -0.5471  0.2120
  511TMC3    O2 7602   0.896   2.380  15.311 -0.5254 -0.0555 -0.1344
  512TMC3    C1 7603   4.269   2.009  13.542  0.3475  0.4675 -0.1245
  512TMC3    C2 7604   4.308   1.947  13.657  1.0981 -0.8749  0.7066
  512TMC3    C3 7605   4.337   1.815  13.654 -0.3684 -0.0164 -0.2672
  512TMC3    C4 7606   4.250   1.937  13.427 -0.2630 -0.3797  0.2340
  512TMC3    C5 7607   4.279   1.803  13.429 -0.6276  0.2125 -0.6834
  512TMC3    C6 7608   4.316   1.736  13.543 -0.6635  0.3078 -0.0734
  512TMC3     C 7609   4.278   2.152  13.528  0.3858  0.2947 -0.9210
  512TMC3     O 7610   4.341   2.191  13.626  0.4129  0.6333 -0.2349
  512TMC3     H 7611   4.308   1.998  13.752  0.7949 -0.8442  0.6883
  512TMC3    H1 7612   4.223   1.983  13.332 -0.3492  2.1144  1.4668
  512TMC3    H2 7613   4.337   1.630  13.550 -0.2888  0.3878  0.0051
  512TMC3    C7 7614   4.298   1.742  13.301 -0.1260 -0.3538 -0.1247
  512TMC3    C8 7615   4.441   1.772  13.740  0.5064 -0.1430 -0.2427
  512TMC3    O1 7616   4.289   1.814  13.204 -0.6233 -0.8496 -0.2230
  512TMC3    O2 7617   4.480   1.655  13.721 -0.6261  0.1652 -0.4088
  513MPD2     C 7618   1.755   2.102  13.482 -0.3539 -0.2546 -0.6137
  513MPD2    C1 7619   1.756   1.966  13.454  0.0226 -0.0273 -0.6266
  513MPD2    C2 7620   1.834   1.885  13.530  0.2669  0.0916 -0.1301
  513MPD2    C3 7621   1.908   1.933  13.634 -0.2471  0.3250 -0.4823
  513MPD2    C4 7622   1.911   2.069  13.663 -0.3315 -1.1944  0.1805
  513MPD2    C5 7623   1.846   2.150  13.577  0.7988  0.9745  0.2018
  513MPD2     H 7624   1.832   1.776  13.530  1.3820  0.0758  2.1616
  513MPD2    H1 7625   1.951   2.111  13.754 -1.5169 -3.9139  1.9508
  513MPD2    H2 7626   1.706   2.180  13.425 -2.6143 -0.8741  0.5031
  513MPD2    H3 7627   1.840   2.256  13.597 -2.5543  0.7204  0.4540
  513MPD2     N 7628   1.975   1.837  13.705  0.4265  0.2922 -0.1011
  513MPD2    H5 7629   1.970   1.744  13.663  0.6266  0.0911  0.3147
  513MPD2    N1 7630   1.690   1.922  13.335  0.6021 -0.1141  0.0872
  513MPD2    H7 7631   1.633   1.985  13.280  1.2350 -1.1760 -1.8132
  514TMC3    C1 7632   1.634   1.758  13.167 -0.0755  0.3489  1.0886
  514TMC3    C2 7633   1.662   1.857  13.072 -0.3873 -0.7708 -0.3523
  514TMC3    C3 7634   1.695   1.803  12.954  0.9427  0.5020 -0.7410
  514TMC3    C4 7635   1.613   1.626  13.135 -0.3654  0.3037 -0.1598
  514TMC3    C5 7636   1.671   1.581  13.019  0.5813  0.6978 -0.1148
  514TMC3    C6 7637   1.704   1.669  12.921  0.8695 -0.1631 -0.0796
  514TMC3     C 7638   1.672   1.785  13.301  0.0790 -0.0576 -1.4245
  514TMC3     O 7639   1.688   1.684  13.372  0.0925 -0.1344 -0.5850
  514TMC3     H 7640   1.677   1.964  13.084 -0.7153 -1.0272  2.3131
  514TMC3    H1 7641   1.581   1.558  13.212 -0.4665  0.0788 -0.4016
  514TMC3    H2 7642   1.735   1.625  12.827  1.2242 -1.2785  0.5635
  514TMC3    C7 7643   1.771   1.480  13.036 -0.1896 -0.3322 -0.1952
  514TMC3    C8 7644   1.729   1.888  12.841 -0.0840 -0.8291  0.2518
  514TMC3    O1 7645   1.840   1.446  12.940 -0.0565 -0.6912  0.2976
  514TMC3    O2 7646   1.807   1.980  12.864  0.4309 -0.2902  0.5163
  515MPD2     C 7647   4.548   3.803  14.719 -0.0862 -0.3706 -0.1826
  515MPD2    C1 7648   4.573   3.673  14.763 -0.1848  0.5753  0.6021
  515MPD2    C2 7649   4.693   3.648  14.835  0.1921 -0.1789  0.2827
  515MPD2    C3 7650   0.054   3.750  14.866  0.7487 -0.2634 -0.4494
  515MPD2    C4 7651   0.016   3.876  14.845 -0.8339 -0.5260  0.2601
  515MPD2    C5 7652   4.628   3.898  14.770 -0.6159 -0.0951 -0.0280
  515MPD2     H 7653   4.714   3.542  14.851 -1.0015 -0.5248 -0.4514
  515MPD2    H1 7654   0.078   3.955  14.886 -0.1127 -1.1514  0.3755
  515MPD2    H2 7655   4.468   3.831  14.651 -1.2705 -2.9488  0.1728
  515MPD2    H3 7656   4.611   4.004  14.756  0.7387  0.2817  1.1747
  515MPD2     N 7657   0.168   3.718  14.943 -0.0080  0.2407 -0.6687
  515MPD2    H5 7658   0.211   3.796  14.991 -0.9254 -0.1111  0.7130
  515MPD2    N1 7659   4.487   3.572  14.718  0.1299 -0.3859  0.5907
  515MPD2    H7 7660   4.421   3.601  14.646  2.3986  0.2332 -1.2518
  516TMC3    C1 7661   4.379   3.354  14.699  0.0971 -0.2112  0.5153
  516TMC3    C2 7662   4.359   3.362  14.563  0.1022 -0.0148  0.6548
  516TMC3    C3 7663   4.298   3.253  14.506 -0.2083 -0.5042  0.2143
  516TMC3    C4 7664   4.369   3.229  14.760 -0.4691 -0.4826 -0.1925
  516TMC3    C5 7665   4.301   3.126  14.695  0.3968 -1.0038  0.3394
  516TMC3    C6 7666   4.261   3.137  14.565 -0.1620 -0.7302 -0.0783
  516TMC3     C 7667   4.472   3.447  14.772 -0.4448 -0.0525  0.5832
  516TMC3     O 7668   4.526   3.404  14.874 -0.1418  0.3624 -0.1441
  516TMC3     H 7669   4.381   3.459  14.519 -0.5692  1.4663  3.4998
  516TMC3    H1 7670   4.391   3.231  14.866  0.5734  0.9533 -0.4266
  516TMC3    H2 7671   4.216   3.051  14.518  1.2544 -0.9055 -1.0983
  516TMC3    C7 7672   4.316   2.997  14.750  0.0047 -0.5308 -0.3191
  516TMC3    C8 7673   4.254   3.272  14.372 -0.1667  0.6679  0.0090
  516TMC3    O1 7674   4.410   2.980  14.828  0.2850  0.3108  0.0614
  516TMC3    O2 7675   4.167   3.192  14.330  0.4470  0.1064 -0.5612
  517MPD2     C 7676   4.658   0.118   0.716  0.0091 -0.7117 -0.2455
  517MPD2    C1 7677   4.697   0.194   0.610  0.4973  0.0682  0.0003
  517MPD2    C2 7678   4.682   0.327   0.607 -0.6335 -0.0725 -0.6152
  517MPD2    C3 7679   4.624   0.389   0.714  0.6555 -0.1537 -0.3210
  517MPD2    C4 7680   4.576   0.320   0.822  0.1540  0.4943 -0.5622
  517MPD2    C5 7681   4.596   0.181   0.820  0.4764 -0.4035  1.0202
  517MPD2     H 7682   0.009   0.375   0.524  3.2777  0.4679  2.1143
  517MPD2    H1 7683   4.520   0.357   0.907 -0.2284 -1.1766 -0.0947
  517MPD2    H2 7684   4.686   0.015   0.731 -1.1785 -0.8776  0.8744
  517MPD2    H3 7685   4.575   0.130   0.913 -0.2048 -1.1851  0.4423
  517MPD2     N 7686   4.595   0.524   0.731  0.0110 -0.1461 -0.2914
  517MPD2    H5 7687   4.539   0.547   0.813 -0.8540  0.0029 -0.9316
  517MPD2    N1 7688   0.052   0.140   0.506  0.4241  0.3283  0.0788
  517MPD2    H7 7689   0.092   0.207   0.441  1.2436 -0.6444 -0.4238
  518TMC3    C1 7690   0.137   4.696   0.361 -0.7155  0.5997 -0.1826
  518TMC3    C2 7691   0.101   4.587   0.289  0.8597  0.2992  0.0554
  518TMC3    C3 7692   0.169   4.557   0.173  0.4376  0.4680 -0.2474
  518TMC3    C4 7693   0.245   0.049   0.327 -0.1649  0.9155 -0.0070
  518TMC3    C5 7694   0.317   0.006   0.215  0.2451  0.5264 -1.1071
  518TMC3    C6 7695   0.277   4.625   0.136 -0.5823 -0.2980 -0.2421
  518TMC3     C 7696   0.055   0.009   0.478  0.3641  0.8507 -0.0328
  518TMC3     O 7697   0.009   4.635   0.536 -0.5405  0.0760  0.5925
  518TMC3     H 7698   0.012   4.533   0.318  0.8179 -0.1600 -0.9557
  518TMC3    H1 7699   0.268   0.136   0.387 -0.6115  0.8344  0.2877
  518TMC3    H2 7700   0.331   4.583   0.051  0.5418 -2.1967  1.4102
  518TMC3    C7 7701   0.447   0.056   0.199 -0.3769 -0.3704 -0.6309
  518TMC3    C8 7702   0.139   4.438   0.099 -0.7361  0.2276  0.0632
  518TMC3    O1 7703   0.504   0.106   0.296  0.3823  0.0171 -0.1482
  518TMC3    O2 7704   0.198   4.420  17.693 -0.2522 -0.4771 -0.4528
  519MPD2     C 7705   0.916   3.639  14.596  0.3151 -0.3230 -0.2352
  519MPD2    C1 7706   0.926   3.638  14.462 -0.7319 -0.1354 -0.0434
  519MPD2    C2 7707   1.012   3.550  14.396 -0.0506 -0.1587 -0.6897
  519MPD2    C3 7708   1.081   3.458  14.466 -0.1102  0.2611 -0.3749
  519MPD2    C4 7709   1.064   3.453  14.604  0.1624  0.2167  0.3398
  519MPD2    C5 7710   0.991   3.547  14.670  0.4594 -0.5240  0.3017
  519MPD2     H 7711   1.046   3.576  14.297 -1.6989  1.4743 -0.8329
  519MPD2    H1 7712   1.114   3.381  14.667 -0.4422 -1.6209 -1.2828
  519MPD2    H2 7713   0.839   3.696  14.648  0.0145  0.3989 -1.4840
  519MPD2    H3 7714   0.980   3.542  14.778 -1.9312 -0.0492  0.0938
  519MPD2     N 7715   1.163   3.368  14.389  0.3274 -0.1502 -0.1681
  519MPD2    H5 7716   1.162   3.375  14.288 -1.5023  0.3359 -0.1250
  519MPD2    N1 7717   0.845   3.736  14.391  0.2616 -0.7272 -0.7896
  519MPD2    H7 7718   0.794   3.796  14.455 -0.3945 -2.2145  0.0903
  520TMC3    C1 7719   1.295   3.175  14.340  1.4917  0.4116  0.4380
  520TMC3    C2 7720   1.228   3.162  14.225 -0.0006  0.0086  0.3883
  520TMC3    C3 7721   1.275   3.079  14.128  0.3370 -0.4809  0.0494
  520TMC3    C4 7722   1.402   3.099  14.365  0.3224  0.1207 -0.1793
  520TMC3    C5 7723   1.446   3.005  14.273 -0.4953 -0.7704  0.0045
  520TMC3    C6 7724   1.391   3.007  14.144 -0.6636 -0.5515 -0.1690
  520TMC3     C 7725   1.254   3.279  14.440 -0.1512  0.2830  0.2464
  520TMC3     O 7726   1.274   3.248  14.560  0.4407 -0.3222  0.1446
  520TMC3     H 7727   1.137   3.216  14.201  0.0994  0.5975  1.3685
  520TMC3    H1 7728   1.465   3.114  14.451 -0.9818  0.8496  0.6490
  520TMC3    H2 7729   1.431   2.952  14.059 -0.0466  0.1647 -0.3445
  520TMC3    C7 7730   1.577   2.951  14.294 -0.3906 -0.3504  0.0544
  520TMC3    C8 7731   1.230   3.109  13.991  0.5063  0.0780 -0.5532
  520TMC3    O1 7732   1.621   2.956  14.405  0.3214 -0.5480 -0.3675
  520TMC3    O2 7733   1.309   3.142  13.902 -0.0903  0.6409  0.1914
  521MPD2     C 7734   2.331   1.655  17.172  0.5383  0.1448  0.0060
  521MPD2    C1 7735   2.378   1.531  17.208  0.1430 -0.4261  0.5051
  521MPD2    C2 7736   2.466   1.465  17.128  0.0108 -0.2609  0.1830
  521MPD2    C3 7737   2.500   1.521  17.006 -0.0793  0.1757 -0.0043
  521MPD2    C4 7738   2.455   1.649  16.973  0.7365  0.1785  0.7000
  521MPD2    C5 7739   2.376   1.716  17.063 -0.4191  0.2022 -0.7617
  521MPD2     H 7740   2.502   1.366  17.154 -0.0097 -0.1410  0.6567
  521MPD2    H1 7741   2.500   1.699  16.889  1.1762  0.2208  0.9611
  521MPD2    H2 7742   2.249   1.704  17.224  1.8519  2.4895 -0.1267
  521MPD2    H3 7743   2.353   1.819  17.036 -1.6493 -0.3458 -1.8121
  521MPD2     N 7744   2.596   1.458  16.926  0.1782 -0.0829  0.0844
  521MPD2    H5 7745   2.638   1.376  16.969 -1.6460 -1.5152 -0.8859
  521MPD2    N1 7746   2.323   1.469  17.315  0.0888 -0.5188  0.2026
  521MPD2    H7 7747   2.244   1.515  17.359 -2.5774 -3.8192 -1.1177
  522TMC3    C1 7748   2.696   1.375  16.735 -0.1890 -0.4996 -0.1086
  522TMC3    C2 7749   2.805   1.332  16.805  0.0944  0.4154 -0.1071
  522TMC3    C3 7750   2.867   1.226  16.741  0.7904  0.1815 -0.6778
  522TMC3    C4 7751   2.669   1.352  16.601  0.1482 -0.2624  0.4557
  522TMC3    C5 7752   2.736   1.251  16.540  0.1932 -1.2847 -0.0889
  522TMC3    C6 7753   2.826   1.180  16.613 -0.3860 -0.8384  0.1645
  522TMC3     C 7754   2.629   1.487  16.798  0.8830  0.3881  0.1006
  522TMC3     O 7755   2.590   1.578  16.721 -0.2757  0.4410 -0.3554
  522TMC3     H 7756   2.839   1.377  16.898 -0.4390  0.9942 -0.1932
  522TMC3    H1 7757   2.599   1.421  16.554 -1.3425 -0.9492  1.6416
  522TMC3    H2 7758   2.850   1.086  16.565 -1.4407 -0.2605 -1.5084
  522TMC3    C7 7759   2.698   1.201  16.407  0.3801  0.3944  0.2757
  522TMC3    C8 7760   2.994   1.186  16.792  0.0309  0.0765  0.1397
  522TMC3    O1 7761   2.777   1.147  16.333  0.1537  0.0895  0.3635
  522TMC3    O2 7762   3.032   1.225  16.901  0.2386  0.1142 -0.1054
  523MPD2     C 7763   0.167   1.188  10.750 -0.1239 -0.4522 -0.2373
  523MPD2    C1 7764   0.145   1.135  10.625 -0.6877 -0.5834  0.4965
  523MPD2    C2 7765   0.077   1.213  10.530 -0.6483  0.3526 -0.4476
  523MPD2    C3 7766   0.030   1.343  10.554 -0.0961  0.2985 -0.5146
  523MPD2    C4 7767   0.057   1.395  10.680  0.0633  0.1266 -0.2033
  523MPD2    C5 7768   0.120   1.319  10.775  0.6170  0.2107 -0.9942
  523MPD2     H 7769   0.062   1.167  10.433 -0.1207 -2.0516  0.6029
  523MPD2    H1 7770   0.027   1.497  10.703  0.7853  0.7689 -2.1281
  523MPD2    H2 7771   0.219   1.136  10.830  1.7028  1.8673  0.0926
  523MPD2    H3 7772   0.143   1.349  10.877  0.1675 -2.2739 -0.1476
  523MPD2     N 7773   4.689   1.436  10.466  0.4812 -0.2118 -0.3419
  523MPD2    H5 7774   4.661   1.531  10.488  1.2312  0.3547 -1.8229
  523MPD2    N1 7775   0.196   1.006  10.591  0.6064 -0.3598  0.1997
  523MPD2    H7 7776   0.254   0.960  10.660 -1.6471  1.4017  3.2640
  524TMC3    C1 7777   4.557   1.477  10.275 -1.0672 -0.5742  0.2650
  524TMC3    C2 7778   4.585   1.492  10.141  0.8330  0.1419  0.4254
  524TMC3    C3 7779   4.532   1.600  10.083  0.1302  0.3355  0.8881
  524TMC3    C4 7780   4.484   1.565  10.346 -0.4698  0.5338  0.0293
  524TMC3    C5 7781   4.425   1.672  10.283 -0.3645 -0.4775  0.3908
  524TMC3    C6 7782   4.449   1.692  10.147  0.6405 -0.7710 -0.1338
  524TMC3     C 7783   4.653   1.392  10.339 -0.4120  0.3220  0.2220
  524TMC3     O 7784   4.700   1.300  10.278 -0.0601  0.2673 -0.4588
  524TMC3     H 7785   4.674   1.450  10.097  0.3679 -2.3781  1.8573
  524TMC3    H1 7786   4.444   1.534  10.442  0.1767 -0.1599  0.0831
  524TMC3    H2 7787   4.396   1.773  10.098 -0.1396 -0.8407  0.6067
  524TMC3    C7 7788   4.336   1.767  10.358  0.3928 -0.1554 -0.7461
  524TMC3    C8 7789   4.570   1.642   9.948 -0.6518 -0.1452 -0.2510
  524TMC3    O1 7790   4.303   1.723  10.468 -0.0041 -0.4380  0.2079
  524TMC3    O2 7791   4.530   1.752   9.917  0.7642  0.0935 -0.0361
  525MPD2     C 7792   2.618   3.003  14.622 -0.3708  0.0961  0.4729
  525MPD2    C1 7793   2.750   2.988  14.662 -0.4877  0.1407 -0.2026
  525MPD2    C2 7794   2.843   3.081  14.623 -0.8529  0.1230  0.2918
  525MPD2    C3 7795   2.802   3.194  14.550 -0.4254  0.0045 -0.2610
  525MPD2    C4 7796   2.674   3.206  14.508  0.3346 -0.4571  0.1214
  525MPD2    C5 7797   2.582   3.118  14.543 -0.0448 -0.2401  0.0001
  525MPD2     H 7798   2.943   3.080  14.664 -1.4809  0.3866  1.8520
  525MPD2    H1 7799   2.628   3.286  14.451 -0.8134 -2.1503 -1.3548
  525MPD2    H2 7800   2.538   2.933  14.642 -2.2071  2.2006  0.4712
  525MPD2    H3 7801   2.478   3.127  14.512 -0.0004 -0.8426 -0.3388
  525MPD2     N 7802   2.877   3.303  14.511 -1.0371  0.8346  0.0301
  525MPD2    H5 7803   2.831   3.378  14.459  3.1173  1.6304 -2.5712
  525MPD2    N1 7804   2.787   2.883  14.753 -0.3851  0.0789  0.1161
  525MPD2    H7 7805   2.886   2.886  14.777 -0.2336  0.2537 -0.5378
  526TMC3    C1 7806   2.764   2.683  14.889  0.2050 -0.1366 -0.0492
  526TMC3    C2 7807   2.684   2.644  14.999 -0.1830  0.4456  0.0318
  526TMC3    C3 7808   2.754   2.583  15.100  0.2138 -0.1236 -0.1168
  526TMC3    C4 7809   2.898   2.662  14.875  0.1231 -0.2500  0.1160
  526TMC3    C5 7810   2.954   2.598  14.972 -0.2808  0.0335  0.3907
  526TMC3    C6 7811   2.888   2.553  15.089  0.7107  0.1313  0.3884
  526TMC3     C 7812   2.705   2.780  14.791  0.5699  0.0514  0.8201
  526TMC3     O 7813   2.582   2.769  14.781  0.5531  0.0574 -0.1007
  526TMC3     H 7814   2.582   2.680  14.999 -0.1638  0.4988  0.2826
  526TMC3    H1 7815   2.943   2.687  14.779 -0.5645  2.0308  0.3970
  526TMC3    H2 7816   2.950   2.507  15.165  1.1612 -0.9496 -0.6180
  526TMC3    C7 7817   3.091   2.560  14.966  0.0789  0.5054  0.1970
  526TMC3    C8 7818   2.714   2.610  15.232  0.8466  0.1920 -0.2762
  526TMC3    O1 7819   3.144   2.494  15.054 -0.6496 -0.5900  0.2341
  526TMC3    O2 7820   2.777   2.550  15.323 -0.7451  0.0031 -0.5563
  527MPD2     C 7821   1.171   0.447   2.147 -0.2171  0.0006 -0.5147
  527MPD2    C1 7822   1.148   0.330   2.072  0.2916  0.7574  0.2121
  527MPD2    C2 7823   1.251   0.292   1.995 -0.2936  0.1875 -0.0583
  527MPD2    C3 7824   1.363   0.366   1.974 -0.3892 -0.1228 -0.5479
  527MPD2    C4 7825   1.382   0.480   2.051 -0.6528  0.5157 -0.0401
  527MPD2    C5 7826   1.279   0.525   2.128 -0.7983  0.1175 -0.1568
  527MPD2     H 7827   1.247   0.203   1.934 -0.6600  0.3867 -0.3289
  527MPD2    H1 7828   1.447   0.556   2.008 -2.2557  0.0537 -3.3207
  527MPD2    H2 7829   1.094   0.490   2.210 -0.3263  0.5385 -1.0187
  527MPD2    H3 7830   1.307   0.617   2.178  0.4474 -0.2085 -0.2599
  527MPD2     N 7831   1.459   0.328   1.878  0.5107  0.4040 -0.0015
  527MPD2    H5 7832   1.449   0.237   1.834 -0.6450  0.6204 -0.1797
  527MPD2    N1 7833   1.027   0.252   2.076  0.3531 -0.1845 -0.3283
  527MPD2    H7 7834   1.026   0.159   2.035 -1.9185  0.7767 -2.3685
  528TMC3    C1 7835   0.803   0.213   2.115 -0.1639  0.7516  0.2917
  528TMC3    C2 7836   0.682   0.264   2.071  0.3456 -0.5539  0.7764
  528TMC3    C3 7837   0.609   0.178   1.994 -0.2829  0.8526 -0.1400
  528TMC3    C4 7838   0.841   0.081   2.101 -0.5984 -0.3864 -0.0561
  528TMC3    C5 7839   0.766   0.001   2.021  0.0252  0.0108 -0.3590
  528TMC3    C6 7840   0.645   0.045   1.968 -0.6221  0.1006 -0.4131
  528TMC3     C 7841   0.909   0.309   2.116 -0.3071 -1.1518 -0.0340
  528TMC3     O 7842   0.879   0.427   2.121 -0.0814  0.4197  0.1658
  528TMC3     H 7843   0.665   0.370   2.088  0.1772 -0.4341 -0.1565
  528TMC3    H1 7844   0.932   0.045   2.147 -1.8067  0.7920  3.2202
  528TMC3    H2 7845   0.585   4.708   1.902 -2.6952 -0.5396  2.0341
  528TMC3    C7 7846   0.777   4.581   2.030 -0.0536  0.5483 -0.3890
  528TMC3    C8 7847   0.516   0.241   1.897 -0.0573 -0.4799 -0.2413
  528TMC3    O1 7848   0.671   4.523   2.015  0.5203  0.9277 -0.2421
  528TMC3    O2 7849   0.458   0.337   1.942  0.0457  0.1492 -0.2127
  529MPD2     C 7850   3.578   3.521   0.156 -0.0191 -0.7235 -0.3685
  529MPD2    C1 7851   3.474   3.564   0.227  0.1351  0.5306  0.3749
  529MPD2    C2 7852   3.436   3.698   0.209  0.0472  0.3027 -0.1443
  529MPD2    C3 7853   3.499   3.779   0.111 -0.4945  0.3573  0.2637
  529MPD2    C4 7854   3.599   3.722   0.035  0.4169  0.5881 -0.6309
  529MPD2    C5 7855   3.639   3.592   0.058 -0.5856 -0.4912 -0.0854
  529MPD2     H 7856   3.355   3.737   0.270  2.5560  3.5057  1.1329
  529MPD2    H1 7857   3.648   3.776  17.655 -0.9206  0.3828 -1.5990
  529MPD2    H2 7858   3.607   3.416   0.160 -0.1485 -0.8037 -1.4731
  529MPD2    H3 7859   3.717   3.545  17.699 -0.7847 -0.9695  0.0381
  529MPD2     N 7860   3.468   3.918   0.081 -0.6776 -0.3538 -0.3164
  529MPD2    H5 7861   3.532   3.956   0.011  0.2171 -0.3765  0.4929
  529MPD2    N1 7862   3.412   3.473   0.321 -0.2469  0.2498  0.1670
  529MPD2    H7 7863   3.441   3.376   0.318  0.7070  0.5930 -1.7932
  530TMC3    C1 7864   3.308   3.407   0.513  0.2089  0.4227  0.3151
  530TMC3    C2 7865   3.328   3.426   0.652  0.5712  0.7772 -0.3834
  530TMC3    C3 7866   3.336   3.317   0.727  0.1312 -0.3661  0.0775
  530TMC3    C4 7867   3.289   3.280   0.464 -0.0719  0.4941  0.5409
  530TMC3    C5 7868   3.282   3.172   0.551 -0.1636 -0.2156 -0.1449
  530TMC3    C6 7869   3.310   3.191   0.688  0.0429  0.6559  0.2689
  530TMC3     C 7870   3.339   3.512   0.424 -0.6520  0.4206  0.5662
  530TMC3     O 7871   3.337   3.625   0.469  0.4382 -0.2453 -0.1802
  530TMC3     H 7872   3.363   3.524   0.683  0.9621  0.6907 -0.5561
  530TMC3    H1 7873   3.271   3.267   0.358  0.5532 -0.5129  0.5565
  530TMC3    H2 7874   3.324   3.118   0.768  0.2613  0.4046 -0.0007
  530TMC3    C7 7875   3.250   3.041   0.501  0.9064  0.0568  0.3788
  530TMC3    C8 7876   3.360   3.356   0.867 -0.4006  0.0697  0.1659
  530TMC3    O1 7877   3.210   3.030   0.383 -0.1171  0.1579  0.5997
  530TMC3    O2 7878   3.314   3.462   0.911  0.3329 -0.1062 -0.0420
  531MPD2     C 7879   2.107   1.251  13.346 -0.5389  0.2310  0.2486
  531MPD2    C1 7880   2.053   1.357  13.414  0.7083 -0.4959 -0.2398
  531MPD2    C2 7881   1.943   1.418  13.359 -0.1954  0.0191  1.2124
  531MPD2    C3 7882   1.900   1.388  13.230 -0.8592  0.5728 -0.7268
  531MPD2    C4 7883   1.974   1.299  13.153  0.1956 -0.5556 -0.5592
  531MPD2    C5 7884   2.066   1.220  13.216 -0.5729  0.2825  0.1516
  531MPD2     H 7885   1.903   1.511  13.398 -1.7555  0.8518 -2.3729
  531MPD2    H1 7886   1.959   1.281  13.047 -2.6843  2.0729 -0.5982
  531MPD2    H2 7887   2.187   1.201  13.399 -1.6749 -0.2291  1.5117
  531MPD2    H3 7888   2.123   1.151  13.155 -0.7916 -0.7881  1.1460
  531MPD2     N 7889   1.797   1.471  13.171  0.1785  0.1807  0.6054
  531MPD2    H5 7890   1.738   1.530  13.228  1.3060 -0.3092  2.2800
  531MPD2    N1 7891   2.107   1.408  13.539 -0.1562  0.5083 -0.5425
  531MPD2    H7 7892   2.191   1.359  13.570 -0.8835  1.1426  2.4167
  532TMC3    C1 7893   2.132   1.537  13.740 -0.2962 -0.5464 -0.2905
  532TMC3    C2 7894   2.062   1.623  13.816  0.0448  0.7150  0.3377
  532TMC3    C3 7895   2.124   1.736  13.862  0.4683  0.2548 -0.2762
  532TMC3    C4 7896   2.272   1.538  13.742 -0.1281 -0.0121 -0.0367
  532TMC3    C5 7897   2.331   1.637  13.820 -0.7552  0.2460  0.1422
  532TMC3    C6 7898   2.258   1.740  13.880  0.4778 -0.1831  0.0607
  532TMC3     C 7899   2.066   1.514  13.610  0.4017  0.4890 -0.0252
  532TMC3     O 7900   1.965   1.585  13.591 -0.1337 -0.3469 -0.0163
  532TMC3     H 7901   1.955   1.613  13.827  0.0784 -0.4684 -0.4583
  532TMC3    H1 7902   2.325   1.482  13.667 -0.2362  0.3332 -0.3710
  532TMC3    H2 7903   2.302   1.811  13.949  1.6436  0.9216 -1.8174
  532TMC3    C7 7904   2.462   1.620  13.856 -0.9241 -0.4159  0.1113
  532TMC3    C8 7905   2.074   1.857  13.801  0.3841  0.9598 -0.5518
  532TMC3    O1 7906   2.521   1.712  13.911  0.2995 -0.6158  0.5245
  532TMC3    O2 7907   2.120   1.963  13.842  0.1327 -0.1971  0.3500
  533TMC3    C1 7908   3.059   3.450  14.533 -0.0671 -0.1202 -0.0304
  533TMC3    C2 7909   3.193   3.456  14.530 -0.0881 -0.3111  0.3141
  533TMC3    C3 7910   3.253   3.530  14.630  0.2292 -0.0262 -0.5435
  533TMC3    C4 7911   2.977   3.524  14.623 -0.2781  0.6945  0.0013
  533TMC3    C5 7912   3.048   3.600  14.715 -0.0812 -0.1129 -0.5405
  533TMC3    C6 7913   3.184   3.597  14.726 -0.6983 -0.1406  0.2141
  533TMC3     C 7914   3.014   3.308  14.532 -0.0955  0.9981 -1.0477
  533TMC3     O 7915   3.092   3.218  14.567 -0.5257 -0.1879 -0.2508
  533TMC3     H 7916   3.246   3.377  14.478 -2.1466 -0.3720 -1.6904
  533TMC3    H1 7917   2.870   3.510  14.617 -0.6405  2.1617  2.7105
  533TMC3    H2 7918   3.237   3.654  14.802  0.1689 -0.8297  0.1307
  533TMC3    C7 7919   2.969   3.618  14.833  0.0485  0.3529 -0.4238
  533TMC3    C8 7920   3.390   3.521  14.646 -0.8751  0.5942 -0.0550
  533TMC3    O1 7921   2.869   3.556  14.848 -0.2727  0.5349 -0.1751
  533TMC3    O2 7922   3.440   3.548  14.755  0.4587 -0.2085 -0.1645
  534MPD2     C 7923   0.672   3.638   1.930  0.4211 -0.4662 -0.9862
  534MPD2    C1 7924   0.716   3.710   1.814 -0.2170 -0.5527 -0.4116
  534MPD2    C2 7925   0.618   3.710   1.709 -0.6193 -0.2048 -0.3221
  534MPD2    C3 7926   0.498   3.642   1.719 -0.5623  0.4699  0.3750
  534MPD2    C4 7927   0.466   3.577   1.837  0.5609 -0.2650 -0.1800
  534MPD2    C5 7928   0.551   3.585   1.945 -0.0169 -0.1957 -0.3595
  534MPD2     H 7929   0.644   3.766   1.619 -2.0665  0.3347 -0.4043
  534MPD2    H1 7930   0.378   3.515   1.841 -1.0400  1.9658 -1.0777
  534MPD2    H2 7931   0.737   3.625   2.016  0.3037 -1.7828 -1.1039
  534MPD2    H3 7932   0.522   3.535   2.037  0.0122  1.6935  0.6754
  534MPD2     N 7933   0.402   3.641   1.617 -0.3665 -0.3346  0.1768
  534MPD2    H5 7934   0.314   3.608   1.655 -0.7366  0.8674  0.3663
  534MPD2    N1 7935   0.842   3.776   1.803  0.6105  0.4001  0.0050
  534MPD2    H7 7936   0.860   3.826   1.717  0.3307 -0.2049 -0.4010
  535TMC3    C1 7937   0.297   3.673   1.405  0.0288 -0.1335  0.0655
  535TMC3    C2 7938   0.175   3.646   1.471  0.1121  1.6021  0.1471
  535TMC3    C3 7939   0.067   3.608   1.388 -0.5576 -0.3651  0.0337
  535TMC3    C4 7940   0.309   3.683   1.272 -0.2296 -0.2407  0.5141
  535TMC3    C5 7941   0.193   3.652   1.196  0.6242 -0.0636 -0.1517
  535TMC3    C6 7942   0.075   3.617   1.250 -0.1789  0.5018  0.0239
  535TMC3     C 7943   0.421   3.680   1.482  0.4144  0.3185  0.3990
  535TMC3     O 7944   0.522   3.706   1.429  0.0393  0.2004  0.1963
  535TMC3     H 7945   0.170   3.653   1.579  0.0613 -0.0546  0.2569
  535TMC3    H1 7946   0.400   3.703   1.216  0.4760 -0.7386  1.4930
  535TMC3    H2 7947   4.724   3.574   1.185  0.0302  0.8561 -0.4588
  535TMC3    C7 7948   0.211   3.656   1.054  0.1271 -0.8725  0.3111
  535TMC3    C8 7949   4.655   3.606   1.435 -0.2252  0.2015  0.2146
  535TMC3    O1 7950   0.326   3.654   1.003 -0.2670 -0.1090  0.4447
  535TMC3    O2 7951   4.569   3.590   1.352 -0.0707  0.1547 -0.3552
  536MPD2     C 7952   3.777   2.418  16.775  0.1441  0.5086  0.0007
  536MPD2    C1 7953   3.878   2.401  16.680  0.1756  0.2455 -0.1462
  536MPD2    C2 7954   3.862   2.453  16.550  0.1734 -0.1509  0.1898
  536MPD2    C3 7955   3.751   2.520  16.522  0.1327  0.0494  0.2321
  536MPD2    C4 7956   3.657   2.542  16.618 -0.0819  0.7423  0.3334
  536MPD2    C5 7957   3.668   2.488  16.743  0.4194  0.2958 -0.2732
  536MPD2     H 7958   3.938   2.446  16.473 -1.3907 -0.2786 -1.3538
  536MPD2    H1 7959   3.573   2.607  16.596  0.4017  1.7487  1.4797
  536MPD2    H2 7960   3.785   2.380  16.876 -0.5688 -3.5902 -1.4904
  536MPD2    H3 7961   3.594   2.514  16.817  0.5368 -0.7043  0.2026
  536MPD2     N 7962   3.723   2.580  16.396 -0.2502 -0.0658  0.3145
  536MPD2    H5 7963   3.636   2.631  16.382  0.2432  0.6287 -0.2058
  536MPD2    N1 7964   3.988   2.324  16.708 -0.0032 -0.1131 -0.1509
  536MPD2    H7 7965   3.990   2.276  16.797  0.5409  0.6686  0.2628
  537TMC3    C1 7966   4.184   2.198  16.693 -0.2987 -0.2397 -0.0089
  537TMC3    C2 7967   4.318   2.222  16.687  0.0444 -0.2670  0.4185
  537TMC3    C3 7968   4.402   2.152  16.771 -0.1678  0.1609  0.0669
  537TMC3    C4 7969   4.128   2.120  16.793  0.2804 -0.2309  0.2143
  537TMC3    C5 7970   4.220   2.057  16.874  0.5724 -0.5218 -0.0872
  537TMC3    C6 7971   4.356   2.067  16.860 -0.7038 -0.3925 -0.8266
  537TMC3     C 7972   4.093   2.284  16.625 -0.9589  0.6687  0.4158
  537TMC3     O 7973   4.132   2.328  16.520  0.4688  0.1460  0.1270
  537TMC3     H 7974   4.361   2.295  16.619  1.7269 -3.3364 -1.8149
  537TMC3    H1 7975   4.022   2.102  16.808  0.2369  0.8028  1.1521
  537TMC3    H2 7976   4.425   2.029  16.935 -0.8528  0.1206 -0.4294
  537TMC3    C7 7977   4.159   1.997  16.990 -0.0400  0.2382 -0.4143
  537TMC3    C8 7978   4.549   2.172  16.763 -0.6427  0.8336 -0.1305
  537TMC3    O1 7979   4.039   2.024  17.012  0.0212  0.4780  0.1665
  537TMC3    O2 7980   4.615   2.096  16.831  0.2140  1.1848 -0.3483
  538TMC3    C1 7981   0.706   0.966  11.286 -0.1148  0.6084 -0.1070
  538TMC3    C2 7982   0.750   0.868  11.205  0.7274  0.2543 -0.3080
  538TMC3    C3 7983   0.712   0.881  11.072  0.1493 -0.2826 -0.0969
  538TMC3    C4 7984   0.612   1.055  11.250 -0.1865  1.0593  0.6680
  538TMC3    C5 7985   0.584   1.067  11.116 -0.0694 -0.1724  0.4982
  538TMC3    C6 7986   0.633   0.978  11.021 -0.5290  0.2938  0.4068
  538TMC3     C 7987   0.734   0.948  11.432 -1.2048  0.7471 -0.4481
  538TMC3     O 7988   0.640   0.961  11.511 -0.1642  0.4547  0.0853
  538TMC3     H 7989   0.822   0.796  11.242  2.4374  1.6008 -1.0203
  538TMC3    H1 7990   0.565   1.118  11.324 -1.2456  0.5594  0.4241
  538TMC3    H2 7991   0.592   0.976  10.920  0.4988  1.0629 -0.0225
  538TMC3    C7 7992   0.467   1.141  11.082  0.3613  0.3511 -0.2707
  538TMC3    C8 7993   0.787   0.799  10.976  0.7924 -0.1156 -0.6275
  538TMC3    O1 7994   0.386   1.093  11.005 -0.8147 -0.2333  0.0893
  538TMC3    O2 7995   0.840   0.696  11.018  0.5854 -0.2056  0.1433
  539MPD2     C 7996   0.074   0.315  12.365  0.8267 -0.7361 -0.1247
  539MPD2    C1 7997   0.117   0.350  12.238  0.1149  0.9717 -0.1556
  539MPD2    C2 7998   0.139   0.484  12.220  0.4471 -0.2508 -0.9573
  539MPD2    C3 7999   0.111   0.581  12.312 -0.4948 -0.3307 -0.7966
  539MPD2    C4 8000   0.058   0.545  12.431  0.1768 -0.2838  0.2689
  539MPD2    C5 8001   0.044   0.413  12.457  0.3364 -0.1484  0.7039
  539MPD2     H 8002   0.171   0.515  12.121  0.6406 -1.8206 -1.3824
  539MPD2    H1 8003   0.027   0.623  12.500 -2.4685  0.5343 -1.8778
  539MPD2    H2 8004   0.055   0.211  12.389 -0.7976 -0.7142 -1.3509
  539MPD2    H3 8005   4.720   0.383  12.549 -1.8607 -0.7324 -0.6495
  539MPD2     N 8006   0.121   0.715  12.280 -0.5145 -0.0819 -0.0199
  539MPD2    H5 8007   0.067   0.777  12.340  0.2807  0.8284 -0.2416
  539MPD2    N1 8008   0.141   0.250  12.141 -0.4326 -0.7367 -0.0705
  539MPD2    H7 8009   0.174   0.290  12.053  0.5149 -0.6001  0.3470
  540TMC3    C1 8010   0.148   0.903  12.133 -0.0596  0.2070  0.4962
  540TMC3    C2 8011   0.224   0.964  12.039  0.5884 -0.5030 -0.0651
  540TMC3    C3 8012   0.178   1.070  11.974 -0.0727  0.3012 -0.1197
  540TMC3    C4 8013   0.025   0.948  12.172 -0.5929 -0.3089 -0.4456
  540TMC3    C5 8014   4.700   1.055  12.101 -0.1851 -0.5340 -0.1521
  540TMC3    C6 8015   0.053   1.118  12.005 -0.6498 -0.0001  0.3655
  540TMC3     C 8016   0.185   0.770  12.171  0.4475 -0.6629 -0.0831
  540TMC3     O 8017   0.284   0.723  12.117  0.1267  0.9553 -0.2841
  540TMC3     H 8018   0.321   0.924  12.013  0.7975  0.0841 -0.1837
  540TMC3    H1 8019   4.689   0.901  12.248  1.6421  0.4646  1.8043
  540TMC3    H2 8020   0.008   1.202  11.953  0.5814  0.9828  0.9026
  540TMC3    C7 8021   4.585   1.119  12.148  0.6056  1.0172  0.2037
  540TMC3    C8 8022   0.223   1.080  11.839 -0.2356 -0.4663 -0.3010
  540TMC3    O1 8023   4.504   1.045  12.200  0.0842  0.1447 -0.0234
  540TMC3    O2 8024   0.340   1.047  11.827  0.7229 -0.4949 -0.4827
  541MPD2     C 8025   2.705   1.650  13.567  0.6071 -0.2470 -0.3473
  541MPD2    C1 8026   2.823   1.674  13.495 -0.0484 -0.1593 -0.1954
  541MPD2    C2 8027   2.804   1.738  13.377  0.6164  0.5213 -0.1462
  541MPD2    C3 8028   2.682   1.752  13.316  0.4133  0.5913 -0.2594
  541MPD2    C4 8029   2.564   1.731  13.389 -0.0666  0.0316 -0.3305
  541MPD2    C5 8030   2.581   1.679  13.515  0.1978  0.0414 -0.4384
  541MPD2     H 8031   2.882   1.781  13.316  1.3474  0.2659  0.6069
  541MPD2    H1 8032   2.463   1.756  13.357 -0.3535  0.3960  0.8454
  541MPD2    H2 8033   2.708   1.594  13.660 -1.1363  3.6659  2.1106
  541MPD2    H3 8034   2.493   1.659  13.575  0.1114  1.0602 -0.2183
  541MPD2     N 8035   2.658   1.806  13.187  0.1866  0.2017  0.1073
  541MPD2    H5 8036   2.563   1.836  13.168  0.6320  0.4857 -1.6658
  541MPD2    N1 8037   2.943   1.626  13.545  0.1843 -0.1290 -0.8633
  541MPD2    H7 8038   2.937   1.548  13.610 -0.2484  0.2547 -0.4478
  542TMC3    C1 8039   2.688   1.899  12.979  0.9990 -0.5703 -0.4145
  542TMC3    C2 8040   2.734   1.879  12.856  0.0548 -0.3808 -0.8835
  542TMC3    C3 8041   2.727   1.973  12.760 -0.7804 -0.0445 -0.2712
  542TMC3    C4 8042   2.637   2.025  13.008  0.2779 -0.2763  0.2558
  542TMC3    C5 8043   2.605   2.109  12.909  0.4302  0.3085  0.0733
  542TMC3    C6 8044   2.657   2.089  12.782 -0.1613 -1.1546 -0.5062
  542TMC3     C 8045   2.754   1.819  13.084  0.0381 -0.0198 -0.8193
  542TMC3     O 8046   2.877   1.798  13.076  0.3266  0.1005 -0.6598
  542TMC3     H 8047   2.820   1.814  12.855  0.8370  0.6369  1.9518
  542TMC3    H1 8048   2.614   2.054  13.109 -0.3771  1.1393 -0.3027
  542TMC3    H2 8049   2.642   2.165  12.706  0.0878 -1.6854 -1.0872
  542TMC3    C7 8050   2.561   2.243  12.936  0.5025 -0.4273 -0.2963
  542TMC3    C8 8051   2.807   1.958  12.640 -0.0279 -0.3049  1.2505
  542TMC3    O1 8052   2.507   2.306  12.847  0.2209 -0.0730  0.3595
  542TMC3    O2 8053   2.881   2.046  12.594 -0.3842 -0.1716  0.1125
  543TMC3    C1 8054   2.919   2.492  17.497 -0.5270 -0.3351 -0.2638
  543TMC3    C2 8055   2.967   2.369  17.536 -0.2222 -0.4666  0.3523
  543TMC3    C3 8056   2.916   2.321  17.651  0.2578  0.0452  0.5016
  543TMC3    C4 8057   2.837   2.568  17.577 -0.8091 -0.2346  0.1855
  543TMC3    C5 8058   2.781   2.507  17.685 -0.4143 -0.3666  0.7196
  543TMC3    C6 8059   2.811   2.380   0.023  0.5713  0.1972 -0.1809
  543TMC3     C 8060   2.941   2.540  17.366 -0.2644 -0.4672  0.3220
  543TMC3     O 8061   2.919   2.657  17.342 -0.2593 -0.0878  0.3382
  543TMC3     H 8062   3.039   2.312  17.479  0.6466  0.5280  0.4612
  543TMC3    H1 8063   2.804   2.668  17.550 -1.6061 -0.3425  0.7456
  543TMC3    H2 8064   2.778   2.354   0.123  0.5822  0.7197 -0.0407
  543TMC3    C7 8065   2.670   2.568   0.054  0.7806 -0.4244  0.9305
  543TMC3    C8 8066   2.953   2.179  17.683  0.3057  0.9144 -0.2341
  543TMC3    O1 8067   2.598   2.497   0.123 -0.4710 -0.0811  0.0027
  543TMC3    O2 8068   3.050   2.130  17.628 -0.0571  0.3407  0.2155
  544MPD2     C 8069   2.926   1.729   0.240  0.2009 -0.3773  0.2097
  544MPD2    C1 8070   2.980   1.761   0.113  0.0756  0.2135  0.7938
  544MPD2    C2 8071   2.976   1.894   0.069 -0.4472  0.1625  0.0332
  544MPD2    C3 8072   2.914   1.995   0.139 -0.6859 -0.2314  0.8881
  544MPD2    C4 8073   2.847   1.953   0.256 -0.2060  0.8644  0.2165
  544MPD2    C5 8074   2.854   1.825   0.302  0.3096 -0.0961  0.5626
  544MPD2     H 8075   3.032   1.923  17.681  2.2014 -1.2268  1.2560
  544MPD2    H1 8076   2.784   2.019   0.315 -0.7612 -0.5087  1.1662
  544MPD2    H2 8077   2.918   1.626   0.275  1.4293 -0.3094  0.6987
  544MPD2    H3 8078   2.799   1.809   0.394  0.0296  1.4958  0.6654
  544MPD2     N 8079   2.888   2.124   0.085  0.1028  1.0580 -0.3979
  544MPD2    H5 8080   2.807   2.170   0.124  0.7456  0.2452  1.9030
  544MPD2    N1 8081   3.031   1.659   0.036 -0.4176 -0.2163  0.0887
  544MPD2    H7 8082   3.012   1.565   0.069  0.4435 -0.6049 -0.5378
  545TMC3    C1 8083   3.136   1.549  17.560  0.2864  0.9650 -0.3073
  545TMC3    C2 8084   3.034   1.463  17.557 -0.2779 -0.1072  0.0499
  545TMC3    C3 8085   3.064   1.343  17.500 -0.1281  0.2355  0.0762
  545TMC3    C4 8086   3.264   1.526  17.515 -0.1055 -0.3150 -0.2024
  545TMC3    C5 8087   3.287   1.406  17.464 -0.8446  0.5485  0.4818
  545TMC3    C6 8088   3.186   1.310  17.442 -0.6789 -0.2467 -0.4209
  545TMC3     C 8089   3.100   1.675  17.617  0.0603 -0.4570 -0.2007
  545TMC3     O 8090   3.141   1.773  17.561 -0.0662 -0.3028  0.9674
  545TMC3     H 8091   2.935   1.490  17.592 -0.2882  0.3294 -0.3249
  545TMC3    H1 8092   3.335   1.607  17.506  0.6271 -1.0033 -0.6842
  545TMC3    H2 8093   3.215   1.216  17.397  1.4126  0.6799 -0.9920
  545TMC3    C7 8094   3.414   1.360  17.422  0.0009 -0.2923 -0.8006
  545TMC3    C8 8095   2.943   1.274  17.465  0.0229  0.2007  0.2304
  545TMC3    O1 8096   3.413   1.278  17.336 -0.1149 -0.7463  0.3004
  545TMC3    O2 8097   2.831   1.315  17.495  0.3489  0.3024 -0.4505
  546MPD2     C 8098   4.514   3.215  16.831  0.2913  0.5510  0.4696
  546MPD2    C1 8099   4.428   3.286  16.907  0.5615  0.5575  0.1469
  546MPD2    C2 8100   4.462   3.407  16.955 -0.2209 -0.5397  0.7074
  546MPD2    C3 8101   4.591   3.454  16.930  0.3491  0.3593  0.1358
  546MPD2    C4 8102   4.669   3.393  16.837  0.4172 -0.0756  0.1778
  546MPD2    C5 8103   4.637   3.263  16.788  0.5222  0.4089  0.2491
  546MPD2     H 8104   4.387   3.459  17.013  2.4443  2.7778  1.1883
  546MPD2    H1 8105   0.044   3.430  16.819  0.5525 -0.8821 -0.7440
  546MPD2    H2 8106   4.485   3.119  16.790 -0.5792  0.6642  0.8317
  546MPD2    H3 8107   4.704   3.216  16.717 -0.4140  1.4521 -1.3099
  546MPD2     N 8108   4.634   3.569  16.994 -0.3669 -0.2742  0.3423
  546MPD2    H5 8109   4.719   3.612  16.958  0.5153 -1.1405  1.4107
  546MPD2    N1 8110   4.304   3.216  16.932 -0.3299 -0.8765 -0.7147
  546MPD2    H7 8111   4.294   3.120  16.900 -2.7199 -1.5045  1.9401
  547TMC3    C1 8112   4.084   3.184  17.009  0.0775 -0.3013  0.0528
  547TMC3    C2 8113   3.958   3.223  16.970 -0.4492  0.1823  0.5160
  547TMC3    C3 8114   3.856   3.130  16.992 -0.3077 -0.2727  0.4060
  547TMC3    C4 8115   4.105   3.062  17.065 -0.4758 -0.0892  0.1869
  547TMC3    C5 8116   4.003   2.979  17.083  0.0200  0.2771  0.1634
  547TMC3    C6 8117   3.874   3.005  17.049  0.3774 -0.1801  0.6272
  547TMC3     C 8118   4.189   3.275  16.979 -1.1626  0.1635 -1.2053
  547TMC3     O 8119   4.167   3.385  17.020 -0.4101 -0.1045  0.1490
  547TMC3     H 8120   3.951   3.311  16.908  1.5500  1.5132  2.2086
  547TMC3    H1 8121   4.207   3.034  17.090  0.7978  3.7998 -0.6597
  547TMC3    H2 8122   3.795   2.936  17.073  0.7658 -1.1455 -0.8704
  547TMC3    C7 8123   4.012   2.860  17.170 -0.0973  0.6450  0.3086
  547TMC3    C8 8124   3.718   3.159  16.988 -0.3761 -0.5059 -0.1372
  547TMC3    O1 8125   3.910   2.797  17.183  0.6230 -0.0589  0.5881
  547TMC3    O2 8126   3.639   3.067  17.000 -0.3932  0.4120 -0.7532
  548MPD2     C 8127   4.270   4.038  12.650  0.7280  0.8722  0.3901
  548MPD2    C1 8128   4.219   3.912  12.666 -0.3764  0.3611  0.0736
  548MPD2    C2 8129   4.282   3.810  12.589  0.3401 -0.5768 -0.0890
  548MPD2    C3 8130   4.398   3.843  12.518  0.0029  0.1535 -0.6650
  548MPD2    C4 8131   4.435   3.974  12.499 -0.0941  0.2790 -0.1490
  548MPD2    C5 8132   4.375   4.068  12.575 -0.3032  0.4433 -0.2807
  548MPD2     H 8133   4.246   3.708  12.594 -1.8244  0.1407 -1.4837
  548MPD2    H1 8134   4.520   4.009  12.442  0.4254 -0.1102  0.3983
  548MPD2    H2 8135   4.217   4.120  12.698  0.6169  1.0749 -0.0697
  548MPD2    H3 8136   4.397   4.171  12.549 -1.3951  0.7871  0.1121
  548MPD2     N 8137   4.460   3.739  12.450  0.0565 -0.3559  0.6090
  548MPD2    H5 8138   4.441   3.642  12.474  3.7312 -1.5122 -1.0997
  548MPD2    N1 8139   4.099   3.907  12.744  0.0248 -0.1740 -0.1476
  548MPD2    H7 8140   4.070   3.999  12.776  1.6254  0.0502  0.6532
  549TMC3    C1 8141   3.900   3.805  12.814 -0.3903 -0.9255  0.7763
  549TMC3    C2 8142   3.869   3.934  12.866  0.4686 -0.1653  0.2287
  549TMC3    C3 8143   3.735   3.964  12.865  0.3069 -0.2642 -0.2411
  549TMC3    C4 8144   3.805   3.726  12.765  0.3222  0.1490  0.0368
  549TMC3    C5 8145   3.675   3.761  12.768  0.0878  0.0777  0.1447
  549TMC3    C6 8146   3.633   3.884  12.809  0.3545 -0.4474 -0.1570
  549TMC3     C 8147   4.039   3.792  12.778 -0.1531 -0.4581  0.0106
  549TMC3     O 8148   4.074   3.678  12.746  0.2843  0.3130 -0.0557
  549TMC3     H 8149   3.942   3.999  12.913  1.2825  0.9388 -2.5868
  549TMC3    H1 8150   3.829   3.635  12.711  0.4520  0.7396 -0.8878
  549TMC3    H2 8151   3.526   3.902  12.817 -0.0967 -3.1891  0.1098
  549TMC3    C7 8152   3.574   3.687  12.698  0.9264 -0.0095 -0.0725
  549TMC3    C8 8153   3.701   4.110  12.884  0.4920 -0.3204  0.3833
  549TMC3    O1 8154   3.483   3.753  12.640  0.3364 -0.3490 -0.4478
  549TMC3    O2 8155   3.789   4.182  12.931  0.5942 -0.9642  0.4897
  550TMC3    C1 8156   2.684   1.844  11.952  0.5416 -0.1874  0.1339
  550TMC3    C2 8157   2.702   1.878  12.084 -0.2438  0.7260  0.0666
  550TMC3    C3 8158   2.610   1.830  12.173 -0.0549  0.4724  0.5362
  550TMC3    C4 8159   2.565   1.806  11.899  0.7504  0.5359  0.9478
  550TMC3    C5 8160   2.468   1.778  11.994 -0.3893  0.2434  0.5427
  550TMC3    C6 8161   2.493   1.776  12.126 -0.0036  0.3090  0.2953
  550TMC3     C 8162   2.780   1.902  11.867 -0.0805  0.1085 -0.0168
  550TMC3     O 8163   2.858   1.978  11.919  0.0936  0.3648 -0.2446
  550TMC3     H 8164   2.798   1.905  12.128 -1.1544  0.1598  2.3945
  550TMC3    H1 8165   2.548   1.820  11.793  2.4803 -1.2000  0.4363
  550TMC3    H2 8166   2.417   1.750  12.199  0.9942 -2.6799  0.2719
  550TMC3    C7 8167   2.328   1.781  11.957 -0.2072  0.1680  0.6742
  550TMC3    C8 8168   2.601   1.911  12.291 -0.3097  0.4867 -0.3328
  550TMC3    O1 8169   2.253   1.814  12.048  0.3908 -0.0345  0.4995
  550TMC3    O2 8170   2.510   1.892  12.372 -0.4874  0.0583 -0.1429
  551TMC3    C1 8171   0.206   4.288  13.644 -0.5761  0.1142 -0.8200
  551TMC3    C2 8172   0.326   4.347  13.598  0.3725  0.0646  0.0865
  551TMC3    C3 8173   0.358   4.470  13.639 -0.0305 -0.2375  0.4422
  551TMC3    C4 8174   0.116   4.361  13.721 -0.0023 -0.1111 -0.4037
  551TMC3    C5 8175   0.147   4.488  13.748  0.0376 -0.6931  0.2859
  551TMC3    C6 8176   0.261   4.544  13.701 -0.1228  0.1844  0.0884
  551TMC3     C 8177   0.146   4.197  13.547  1.1406  0.1474  0.3093
  551TMC3     O 8178   0.204   4.194  13.437  0.2184  0.0013  0.1509
  551TMC3     H 8179   0.404   4.297  13.542 -1.3715 -2.2024 -0.3386
  551TMC3    H1 8180   0.027   4.315  13.763 -0.0128  1.9536  1.7705
  551TMC3    H2 8181   0.282   4.647  13.727  0.4043 -0.2800  1.4962
  551TMC3    C7 8182   0.117   4.521  13.891 -0.7131  0.1035 -0.5880
  551TMC3    C8 8183   0.466   4.537  13.570 -0.7940 -0.5436  0.0166
  551TMC3    O1 8184   0.082   4.433  13.966 -0.3319 -0.4760  0.2315
  551TMC3    O2 8185   0.562   4.464  13.558  0.2644 -0.2487 -0.3086
  552MPD2     C 8186   2.554   1.267  14.213  0.1685  0.4647  0.1040
  552MPD2    C1 8187   2.454   1.234  14.304 -0.9190  0.1282 -0.0575
  552MPD2    C2 8188   2.495   1.191  14.429  0.3604 -0.1882 -0.4635
  552MPD2    C3 8189   2.620   1.221  14.478  0.1537  0.2560 -0.0281
  552MPD2    C4 8190   2.712   1.281  14.390 -0.3371  0.0941 -0.1336
  552MPD2    C5 8191   2.679   1.286  14.256 -0.2469 -0.8743  0.1424
  552MPD2     H 8192   2.419   1.142  14.487  1.6723 -0.2716  1.1783
  552MPD2    H1 8193   2.814   1.303  14.417  0.1797 -2.6980  0.1717
  552MPD2    H2 8194   2.539   1.283  14.107 -1.9433 -0.5640  0.2444
  552MPD2    H3 8195   2.759   1.305  14.185 -1.0167  0.6698 -0.2960
  552MPD2     N 8196   2.656   1.215  14.617  0.6659  0.3144 -0.1067
  552MPD2    H5 8197   2.746   1.257  14.638 -0.0661  0.6019  2.4465
  552MPD2    N1 8198   2.324   1.207  14.255  0.1688  0.2031 -0.5306
  552MPD2    H7 8199   2.261   1.151  14.312  1.1859 -0.3528  0.0499
  553TMC3    C1 8200   2.132   1.233  14.117  0.2302  0.4139  0.3633
  553TMC3    C2 8201   2.123   1.267  13.988  0.1192  0.4324  0.1267
  553TMC3    C3 8202   2.061   1.185  13.905 -0.2122  0.1691 -0.2148
  553TMC3    C4 8203   2.088   1.109  14.161 -0.1854 -0.4277  0.9751
  553TMC3    C5 8204   2.024   1.026  14.071  0.2363  0.0390  0.5396
  553TMC3    C6 8205   1.999   1.072  13.944  0.1751 -0.0376  0.0230
  553TMC3     C 8206   2.265   1.280  14.156 -1.3078  0.1209  0.3375
  553TMC3     O 8207   2.316   1.390  14.124 -0.0901  0.7497  0.2958
  553TMC3     H 8208   2.159   1.363  13.954 -0.5818  0.0559 -1.6844
  553TMC3    H1 8209   2.097   1.065  14.259  0.6036 -0.6323  0.8140
  553TMC3    H2 8210   1.960   1.000  13.873  1.2874  0.7074 -1.3306
  553TMC3    C7 8211   2.026   0.884  14.107 -0.6835 -0.0615 -0.5963
  553TMC3    C8 8212   2.137   1.179  13.781 -0.3851  0.6441 -0.0049
  553TMC3    O1 8213   1.923   0.824  14.098 -0.9205 -0.3940 -0.0906
  553TMC3    O2 8214   2.250   1.228  13.782 -0.3087 -0.4120 -0.2200
  554TMC3    C1 8215   3.731   0.529  12.015  0.2672 -0.2152  0.6478
  554TMC3    C2 8216   3.663   0.535  11.893 -0.5485  0.0523  0.5402
  554TMC3    C3 8217   3.691   0.635  11.802 -0.4561 -0.3379  0.2045
  554TMC3    C4 8218   3.824   0.628  12.049 -0.0906  0.1152 -1.0071
  554TMC3    C5 8219   3.835   0.733  11.960  0.4648 -0.6361  0.0150
  554TMC3    C6 8220   3.781   0.731  11.834  0.3994  0.1258 -0.0211
  554TMC3     C 8221   3.716   0.414  12.101  0.7472  0.3595 -0.0284
  554TMC3     O 8222   3.642   0.324  12.069  0.7049 -0.3576  0.0485
  554TMC3     H 8223   3.600   0.451  11.869  1.1881 -1.6372  1.9591
  554TMC3    H1 8224   3.873   0.640  12.145  1.1911 -1.7911 -1.4244
  554TMC3    H2 8225   3.789   0.813  11.764  1.4300  0.3450  0.3549
  554TMC3    C7 8226   3.941   0.820  11.987  0.1613  1.0282  0.3033
  554TMC3    C8 8227   3.657   0.610  11.658  0.2990 -0.0455  0.3259
  554TMC3    O1 8228   3.953   0.862  12.102 -0.7100  0.2419 -0.1225
  554TMC3    O2 8229   3.723   0.659  11.569 -0.4347 -0.8199 -0.1575
  555TMC3    C1 8230   2.952   0.078  15.132 -0.0759  0.1302  0.1149
  555TMC3    C2 8231   2.878   0.147  15.221 -0.7005  0.1948  0.0436
  555TMC3    C3 8232   2.855   0.098  15.346 -0.1516  0.0846  0.8310
  555TMC3    C4 8233   3.022   4.692  15.165  0.4015 -0.8296 -0.2950
  555TMC3    C5 8234   3.003   4.640  15.293 -0.3758 -0.3008  0.1394
  555TMC3    C6 8235   2.915   4.702  15.379 -0.0430 -0.9262 -0.6374
  555TMC3     C 8236   2.966   0.136  14.998 -0.3935 -0.3948 -0.2036
  555TMC3     O 8237   3.080   0.141  14.957 -0.1854  0.6891 -0.8396
  555TMC3     H 8238   2.852   0.251  15.204  0.5444  0.7959  1.8735
  555TMC3    H1 8239   3.088   4.649  15.090  1.5500 -0.8157  0.7092
  555TMC3    H2 8240   2.900   4.646  15.471  0.3519 -0.6474 -0.4014
  555TMC3    C7 8241   3.079   4.529  15.348  0.7043 -0.2861 -0.1240
  555TMC3    C8 8242   2.836   0.188  15.457  0.1163 -0.1493 -0.1452
  555TMC3    O1 8243   3.044   4.472  15.447 -0.0546  0.2294 -0.3564
  555TMC3    O2 8244   2.753   0.277  15.438 -0.6489 -0.1398 -0.0480
  556MPD2     C 8245   1.287   1.947  10.682 -0.0012 -0.0750  0.2376
  556MPD2    C1 8246   1.313   1.830  10.748  0.4122  0.7513  0.2326
  556MPD2    C2 8247   1.295   1.715  10.675  0.9372  0.6459 -0.0807
  556MPD2    C3 8248   1.236   1.717  10.554 -0.1772  0.2421 -0.3218
  556MPD2    C4 8249   1.193   1.837  10.507 -0.4476 -0.8867  0.0740
  556MPD2    C5 8250   1.222   1.949  10.562  0.2388 -0.5262  0.3146
  556MPD2     H 8251   1.334   1.623  10.717 -0.5758  1.2840  2.7208
  556MPD2    H1 8252   1.147   1.852  10.410 -1.6772 -1.8522  0.5224
  556MPD2    H2 8253   1.317   2.044  10.720  2.3488 -2.4367  4.3981
  556MPD2    H3 8254   1.199   2.040  10.508  0.4539  0.1313  1.3357
  556MPD2     N 8255   1.218   1.599  10.483  0.0842 -0.3771 -0.1125
  556MPD2    H5 8256   1.254   1.514  10.525  0.6169  0.2705  0.7494
  556MPD2    N1 8257   1.384   1.821  10.869  0.5022  0.2897  0.3330
  556MPD2    H7 8258   1.410   1.727  10.894  2.8379  0.9490  0.3947
  557TMC3    C1 8259   1.160   1.442  10.326  0.5997  0.1607  0.3387
  557TMC3    C2 8260   1.181   1.414  10.195 -0.2053  0.2008  0.6962
  557TMC3    C3 8261   1.157   1.287  10.158 -0.2160 -0.1127  0.8112
  557TMC3    C4 8262   1.116   1.356  10.419  0.0617  0.1602  0.5875
  557TMC3    C5 8263   1.097   1.228  10.378  0.0286  0.3704 -0.7174
  557TMC3    C6 8264   1.118   1.189  10.245  0.1862 -0.0194 -0.1310
  557TMC3     C 8265   1.163   1.584  10.355 -0.5812 -0.0969 -0.4655
  557TMC3     O 8266   1.146   1.675  10.275  0.5999 -0.7686  0.4664
  557TMC3     H 8267   1.199   1.485  10.115  2.4518 -0.9999  0.2223
  557TMC3    H1 8268   1.086   1.394  10.516  0.4915 -1.3039  1.2985
  557TMC3    H2 8269   1.100   1.088  10.212  0.2514  0.6331 -2.1547
  557TMC3    C7 8270   1.057   1.139  10.483  0.4008 -0.2368 -0.3942
  557TMC3    C8 8271   1.129   1.265  10.021 -0.2800  0.1378 -0.3331
  557TMC3    O1 8272   1.060   1.187  10.601 -0.5725  0.1998 -0.0571
  557TMC3    O2 8273   1.113   1.365   9.953 -0.2784  0.1458 -0.6110
  558TMC3    C1 8274   3.821   4.424  10.227  0.4797  0.5597 -0.2708
  558TMC3    C2 8275   3.754   4.381  10.336 -0.3401  0.1878  0.4563
  558TMC3    C3 8276   3.617   4.381  10.330  0.4539  0.0224  0.8157
  558TMC3    C4 8277   3.755   4.462  10.111 -0.3462  0.6638 -0.5213
  558TMC3    C5 8278   3.616   4.463  10.107  0.4596  0.1364  0.0604
  558TMC3    C6 8279   3.547   4.430  10.223 -0.2950 -0.3038  0.8278
  558TMC3     C 8280   3.966   4.460  10.249 -0.2355  0.4792  0.1085
  558TMC3     O 8281   4.009   4.492  10.361 -0.2977 -0.1958 -0.1341
  558TMC3     H 8282   3.806   4.366  10.430  1.1340  2.7521  0.0435
  558TMC3    H1 8283   3.808   4.487  10.020  0.4643  1.3007  0.1149
  558TMC3    H2 8284   3.439   4.436  10.230 -0.3492  1.7444 -2.2524
  558TMC3    C7 8285   3.549   4.510   9.994  0.3561  0.6812  0.1122
  558TMC3    C8 8286   3.548   4.343  10.459  0.2773  0.3625  0.0609
  558TMC3    O1 8287   3.622   4.564   9.911  0.0668  0.1774  0.1027
  558TMC3    O2 8288   3.439   4.398  10.475 -0.2673 -0.0320  0.1738
  559MPD2     C 8289   3.799   0.135  10.946  0.1134 -1.2956 -0.4325
  559MPD2    C1 8290   3.709   0.091  11.043 -0.0157  0.0782 -0.1284
  559MPD2    C2 8291   3.750   0.067  11.174  0.1206  0.8763  0.1844
  559MPD2    C3 8292   3.883   0.098  11.209  0.4877 -0.5951  0.5486
  559MPD2    C4 8293   3.970   0.152  11.114  0.1225  0.3984  0.7066
  559MPD2    C5 8294   3.933   0.165  10.985 -0.3530  0.6384  0.2105
  559MPD2     H 8295   3.687   0.023  11.251 -0.7083  1.4160 -0.1796
  559MPD2    H1 8296   4.068   0.186  11.144 -0.1997  0.5356  1.5901
  559MPD2    H2 8297   3.777   0.136  10.840  0.4451  0.5406 -0.4830
  559MPD2    H3 8298   3.997   0.213  10.912  2.5186  0.7728  2.8226
  559MPD2     N 8299   3.920   0.071  11.341  0.2569 -0.1926  0.1778
  559MPD2    H5 8300   3.852   0.036  11.407 -0.0014 -1.5111 -0.7823
  559MPD2    N1 8301   3.594   0.034  10.989 -0.2211  0.1969  0.0990
  559MPD2    H7 8302   3.583   0.058  10.891  1.6917  1.6616  0.2502
  560TMC3    C1 8303   4.068   0.055  11.519 -0.2356 -0.1365 -0.4262
  560TMC3    C2 8304   4.000   4.665  11.551  0.3590 -0.0351 -0.5680
  560TMC3    C3 8305   4.046   4.605  11.669 -0.3739  0.3992  0.3715
  560TMC3    C4 8306   4.157   0.114  11.609  0.0958  0.3579  0.5226
  560TMC3    C5 8307   4.197   0.042  11.713  0.1506  0.3126  0.8099
  560TMC3    C6 8308   4.144   4.646  11.748  0.3843 -0.0864  0.0886
  560TMC3     C 8309   4.039   0.115  11.390 -0.3430 -0.4088 -0.4542
  560TMC3     O 8310   4.119   0.200  11.360 -0.3201  0.7033 -0.4043
  560TMC3     H 8311   3.938   4.604  11.487  0.3976 -1.1142  0.4270
  560TMC3    H1 8312   4.198   0.207  11.569 -2.9129  1.2747 -0.4486
  560TMC3    H2 8313   4.190   4.579  11.819 -2.0392 -1.1939  0.6285
  560TMC3    C7 8314   4.301   0.086  11.805 -0.1622  0.3771  0.0078
  560TMC3    C8 8315   3.991   4.467  11.676  0.0848  0.2646  0.3815
  560TMC3    O1 8316   4.335   0.024  11.905  0.1330 -0.1440  0.2493
  560TMC3    O2 8317   4.070   4.374  11.672  0.2585  0.0961 -0.8905
  561TMC3    C1 8318   1.572   4.047  11.341  0.3785  0.2748  0.0106
  561TMC3    C2 8319   1.531   4.019  11.468 -0.0138 -0.1113 -0.3384
  561TMC3    C3 8320   1.482   4.123  11.550  0.0700 -1.0091 -0.6141
  561TMC3    C4 8321   1.585   4.176  11.293  0.2610  0.0167 -0.3932
  561TMC3    C5 8322   1.538   4.273  11.374  0.1479 -0.2231  0.2457
  561TMC3    C6 8323   1.472   4.250  11.492  0.0900 -0.0648  0.7309
  561TMC3     C 8324   1.552   3.935  11.247  0.4986  0.1153 -0.7388
  561TMC3     O 8325   1.526   3.826  11.291 -0.3050  0.3891  0.2126
  561TMC3     H 8326   1.523   3.914  11.494 -0.9973  0.2572  0.8761
  561TMC3    H1 8327   1.619   4.201  11.193  1.4757 -1.6459 -0.3932
  561TMC3    H2 8328   1.417   4.327  11.545 -0.3054 -1.0266  1.7210
  561TMC3    C7 8329   1.521   4.402  11.318  0.0745  0.0528 -0.1118
  561TMC3    C8 8330   1.425   4.104  11.682  0.4558  0.1073  0.4289
  561TMC3    O1 8331   1.416   4.460  11.348  0.1052 -0.1662 -0.4633
  561TMC3    O2 8332   1.330   4.177  11.711  0.0086  0.2344  0.8220
  562TMC3    C1 8333   3.246   0.408  16.699  0.0146 -0.3570 -0.4853
  562TMC3    C2 8334   3.157   0.507  16.699 -0.1725  0.5082  0.0900
  562TMC3    C3 8335   3.048   0.475  16.626 -0.3631 -0.3147 -0.3948
  562TMC3    C4 8336   3.246   0.288  16.629  0.4188 -0.2291 -0.1768
  562TMC3    C5 8337   3.132   0.257  16.566  0.5386 -0.0584  0.0207
  562TMC3    C6 8338   3.031   0.347  16.576 -0.1120  0.2565  0.4765
  562TMC3     C 8339   3.380   0.437  16.746 -0.2532 -1.0051  0.1215
  562TMC3     O 8340   3.474   0.402  16.686 -0.0950  0.2551 -0.0716
  562TMC3     H 8341   3.171   0.603  16.746  4.6357 -0.2356  0.2034
  562TMC3    H1 8342   3.324   0.214  16.635  0.1427 -0.4849  0.2435
  562TMC3    H2 8343   2.934   0.305  16.550  1.2309 -3.0058  0.6968
  562TMC3    C7 8344   3.093   0.119  16.538 -0.3550  0.1655  0.1347
  562TMC3    C8 8345   2.942   0.568  16.640 -0.3545 -0.3102 -0.0337
  562TMC3    O1 8346   3.001   0.099  16.453 -0.5479  0.0208 -0.0062
  562TMC3    O2 8347   2.940   0.627  16.745  0.3065 -0.4531  0.1855
  563MPD2     C 8348   0.479   1.871  15.611 -0.1729 -0.8687 -0.5513
  563MPD2    C1 8349   0.513   1.795  15.719  0.3688  0.4105 -0.0109
  563MPD2    C2 8350   0.607   1.696  15.705 -0.8955 -0.3208  0.6153
  563MPD2    C3 8351   0.664   1.674  15.584 -0.4597 -0.7285 -0.3837
  563MPD2    C4 8352   0.655   1.766  15.480 -0.0638 -0.4254 -1.0276
  563MPD2    C5 8353   0.545   1.853  15.497 -0.0601  0.4752  0.4361
  563MPD2     H 8354   0.625   1.626  15.785 -0.4985 -1.4739 -0.4803
  563MPD2    H1 8355   0.699   1.758  15.381 -0.1507 -1.2869 -0.9950
  563MPD2    H2 8356   0.407   1.950  15.627 -1.4180 -2.2139  0.5685
  563MPD2    H3 8357   0.527   1.924  15.417 -1.0447  0.2302  0.4531
  563MPD2     N 8358   0.740   1.551  15.577 -0.0183 -0.4798  0.7158
  563MPD2    H5 8359   0.749   1.505  15.667 -4.1000 -0.0669  1.3141
  563MPD2    N1 8360   0.454   1.810  15.844  0.3594 -0.3918 -0.1450
  563MPD2    H7 8361   0.486   1.738  15.908  1.9319  1.1187  0.7596
  564TMC3    C1 8362   0.305   1.848  16.008 -0.3338 -0.0291 -0.9848
  564TMC3    C2 8363   0.167   1.853  16.036 -0.6021 -0.4823 -0.0601
  564TMC3    C3 8364   0.129   1.819  16.162  0.0169  0.2090  0.3640
  564TMC3    C4 8365   0.399   1.818  16.105  0.6271  0.8054  0.3099
  564TMC3    C5 8366   0.362   1.781  16.228 -0.6470 -0.2809  0.0414
  564TMC3    C6 8367   0.225   1.780  16.253  0.3036 -0.8485  0.5187
  564TMC3     C 8368   0.347   1.891  15.874  0.3525  0.5439 -0.1393
  564TMC3     O 8369   0.274   1.967  15.812 -0.6700  0.5660  0.1199
  564TMC3     H 8370   0.097   1.867  15.955 -1.5580  0.1134  0.8695
  564TMC3    H1 8371   0.505   1.822  16.080  0.5527 -1.2639 -0.3725
  564TMC3    H2 8372   0.196   1.731  16.345 -0.9732 -1.8748 -0.4192
  564TMC3    C7 8373   0.424   1.651  16.264 -0.0764  0.3909 -0.1886
  564TMC3    C8 8374   4.718   1.779  16.189  0.1125  0.6150  0.1898
  564TMC3    O1 8375   0.543   1.649  16.283 -0.3974 -0.5345  0.4621
  564TMC3    O2 8376   4.693   1.775  16.311  0.5793  0.1308  0.4146
  565TMC3    C1 8377   1.159   3.139  10.302  0.0260 -0.2892 -0.0241
  565TMC3    C2 8378   1.223   3.143  10.427  0.1553  0.3582 -0.6859
  565TMC3    C3 8379   1.169   3.076  10.528  0.1321 -1.0858 -0.3298
  565TMC3    C4 8380   1.067   3.035  10.277 -0.1292  0.3187  0.2946
  565TMC3    C5 8381   1.004   2.993  10.391  0.0809  0.3612 -0.5504
  565TMC3    C6 8382   1.052   3.007  10.516 -0.4603  0.6790  0.9226
  565TMC3     C 8383   1.240   3.177  10.194  0.5546 -0.3542  0.5470
  565TMC3     O 8384   1.238   3.114  10.094 -0.1383  0.8799 -0.0950
  565TMC3     H 8385   1.312   3.203  10.437 -0.3668  0.9597  0.2479
  565TMC3    H1 8386   1.039   3.011  10.176 -1.5913  1.2038  0.4877
  565TMC3    H2 8387   1.015   2.945  10.596 -1.9755 -0.4492 -0.6371
  565TMC3    C7 8388   0.914   2.873  10.381 -0.5810 -0.5166 -0.1048
  565TMC3    C8 8389   1.234   3.095  10.653 -0.4966  0.6002 -0.3907
  565TMC3    O1 8390   0.914   2.780  10.461  0.1268  0.2804  0.2027
  565TMC3    O2 8391   1.353   3.108  10.641  0.4111  0.3903 -0.0583
  566MPD2     C 8392   2.454   0.064  14.439 -0.3006  0.2624 -0.0803
  566MPD2    C1 8393   2.533   0.096  14.332  0.3805 -0.0838  0.2959
  566MPD2    C2 8394   2.486   0.100  14.204  0.4161 -0.1862  0.6994
  566MPD2    C3 8395   2.352   0.081  14.182 -0.2971 -0.2891  0.1825
  566MPD2    C4 8396   2.267   0.058  14.290 -0.6758  0.3336 -0.3175
  566MPD2    C5 8397   2.324   0.037  14.410  0.1192 -0.1773  0.1540
  566MPD2     H 8398   2.542   0.123  14.114  0.3715  0.7237  0.9058
  566MPD2    H1 8399   2.160   0.048  14.278 -0.7295 -0.6856  0.9807
  566MPD2    H2 8400   2.494   0.050  14.539 -1.9853 -1.5064  0.3440
  566MPD2    H3 8401   2.260   0.017  14.495 -1.9170  0.1535 -1.3002
  566MPD2     N 8402   2.305   0.085  14.049 -0.8356  0.7570  0.1566
  566MPD2    H5 8403   2.378   0.116  13.985  0.1374  0.0902  0.9266
  566MPD2    N1 8404   2.668   0.127  14.357  0.1884  0.0653 -0.1830
  566MPD2    H7 8405   2.705   0.102  14.448 -0.4511  0.2173  0.1142
  567TMC3    C1 8406   2.895   0.182  14.315 -0.3461  0.4433  0.2135
  567TMC3    C2 8407   2.976   0.265  14.243 -0.0367  0.3508  0.3508
  567TMC3    C3 8408   3.110   0.240  14.251 -1.1945  0.2904 -0.3182
  567TMC3    C4 8409   2.951   0.083  14.397  0.1378 -0.1716  0.0948
  567TMC3    C5 8410   3.093   0.070  14.413 -0.0132  0.1973  0.0282
  567TMC3    C6 8411   3.171   0.151  14.339 -0.2414  0.1071  0.4840
  567TMC3     C 8412   2.759   0.176  14.260 -0.0279  0.2908 -0.4724
  567TMC3     O 8413   2.754   0.215  14.144 -0.4323  0.7668  0.3317
  567TMC3     H 8414   2.938   0.342  14.176  0.0944 -0.6062 -0.8171
  567TMC3    H1 8415   2.875   0.016  14.434 -0.4710  1.7741  2.3573
  567TMC3    H2 8416   3.279   0.141  14.334 -0.2506 -0.7074  1.8187
  567TMC3    C7 8417   3.156   0.019  14.530 -0.3466  0.3432  0.5427
  567TMC3    C8 8418   3.164   0.240  14.114  0.5365 -0.7588  0.2097
  567TMC3    O1 8419   3.276   0.042  14.550  0.1237  0.5021  0.4061
  567TMC3    O2 8420   3.084   0.255  14.026 -0.1568  0.2699  0.0649
  568MPD2     C 8421   0.080   0.515  17.105 -0.4776  0.8566  0.1889
  568MPD2    C1 8422   0.213   0.546  17.086 -0.2007 -0.8744 -0.0956
  568MPD2    C2 8423   0.251   0.621  16.979  0.1868  0.2363 -0.6862
  568MPD2    C3 8424   0.159   0.661  16.891  0.2008 -0.0011  0.0177
  568MPD2    C4 8425   0.030   0.617  16.905 -0.0014  0.1908 -0.1580
  568MPD2    C5 8426   4.714   0.551  17.012  0.2400 -0.7232 -0.1845
  568MPD2     H 8427   0.354   0.652  16.970 -0.1408  1.3881 -0.4635
  568MPD2    H1 8428   4.671   0.640  16.840  0.2631 -0.7859 -0.8441
  568MPD2    H2 8429   0.048   0.451  17.186  0.4018  1.8257  1.2958
  568MPD2    H3 8430   4.611   0.519  17.030 -0.3833  1.9258  0.9526
  568MPD2     N 8431   0.199   0.744  16.778 -0.2896 -0.2463  0.0137
  568MPD2    H5 8432   0.293   0.782  16.774  0.3510 -1.7551  0.8373
  568MPD2    N1 8433   0.301   0.486  17.183  0.7446  0.0726 -0.1836
  568MPD2    H7 8434   0.248   0.431  17.249  0.6525 -2.7858 -2.6381
  569TMC3    C1 8435   0.166   0.893  16.598  0.8571  0.6564  0.1940
  569TMC3    C2 8436   0.270   0.967  16.643  0.2043  0.1562 -0.6640
  569TMC3    C3 8437   0.279   1.098  16.605 -0.3916  1.0298  0.4939
  569TMC3    C4 8438   0.077   0.960  16.513  0.1056 -0.6848  0.3806
  569TMC3    C5 8439   0.088   1.091  16.487 -0.0203  0.4643  0.1958
  569TMC3    C6 8440   0.199   1.162  16.522  0.8165 -0.1167  0.0867
  569TMC3     C 8441   0.116   0.781  16.670 -0.9362  0.2067  0.1306
  569TMC3     O 8442   0.007   0.739  16.637 -0.9679  0.4224  0.6253
  569TMC3     H 8443   0.338   0.923  16.716 -1.0258 -1.7086 -0.6236
  569TMC3    H1 8444   4.719   0.903  16.474  1.9675 -1.4948 -2.3290
  569TMC3    H2 8445   0.217   1.263  16.489 -0.7151  0.2777  0.4674
  569TMC3    C7 8446   4.721   1.137  16.383  0.5946  0.0539 -0.6806
  569TMC3    C8 8447   0.385   1.184  16.663  0.3117  0.8709 -0.7011
  569TMC3    O1 8448   4.658   1.054  16.321  0.6270 -0.3093 -0.1625
  569TMC3    O2 8449   0.350   1.296  16.655 -0.3420 -0.2703  0.1106
  570TMC3    C1 8450   4.111   3.887  16.467  0.3404 -0.6075 -0.1106
  570TMC3    C2 8451   4.183   3.842  16.359  0.5737 -0.2066  0.1417
  570TMC3    C3 8452   4.210   3.931  16.263  0.1314 -0.1429 -0.1112
  570TMC3    C4 8453   4.042   4.013  16.467  0.5156  0.3278  0.5345
  570TMC3    C5 8454   4.069   4.095  16.357 -0.4639 -0.4972 -0.3722
  570TMC3    C6 8455   4.157   4.060  16.257 -0.3084  0.1272  0.5544
  570TMC3     C 8456   4.162   3.828  16.588 -0.0915  0.4195 -0.0284
  570TMC3     O 8457   4.223   3.728  16.582 -0.1977  0.1029 -0.0403
  570TMC3     H 8458   4.241   3.751  16.361  1.6820  0.5246  1.4994
  570TMC3    H1 8459   3.976   4.047  16.546 -2.8843 -2.1465 -1.2122
  570TMC3    H2 8460   4.175   4.123  16.172  1.2402  0.2070  0.9438
  570TMC3    C7 8461   4.074   4.228  16.409  0.1894 -0.1931 -0.3048
  570TMC3    C8 8462   4.354   3.944  16.227 -0.2526 -0.3720 -0.1672
  570TMC3    O1 8463   4.060   4.238  16.531  0.1282  0.0174 -0.1593
  570TMC3    O2 8464   4.395   4.059  16.206 -0.0766 -0.2033  0.7188
  571MPD2     C 8465   3.123   0.620   0.511 -0.0772 -0.0395 -0.0475
  571MPD2    C1 8466   3.089   0.666   0.382  0.2254  0.3531  0.2613
  571MPD2    C2 8467   3.009   0.778   0.375 -0.1192 -0.1238  0.3069
  571MPD2    C3 8468   2.940   0.816   0.484  0.3837 -0.3515 -0.2184
  571MPD2    C4 8469   2.958   0.762   0.607  0.0802  0.1657 -0.1356
  571MPD2    C5 8470   3.059   0.672   0.621 -0.5576  0.3783  0.1597
  571MPD2     H 8471   3.000   0.823   0.276 -0.0911  0.1175  0.4147
  571MPD2    H1 8472   2.905   0.808   0.690 -1.3724 -0.0464 -0.9369
  571MPD2    H2 8473   3.191   0.535   0.518 -1.5288 -1.2094 -0.0423
  571MPD2    H3 8474   3.073   0.619   0.715  0.8777 -1.4269 -1.0565
  571MPD2     N 8475   2.835   0.909   0.481  0.0898 -0.0466 -0.0221
  571MPD2    H5 8476   2.779   0.931   0.563  2.5052  1.0717  1.3228
  571MPD2    N1 8477   3.152   0.601   0.275  1.1129 -0.3794  0.0565
  571MPD2    H7 8478   3.228   0.537   0.292 -0.1511 -2.2436 -1.2707
  572TMC3    C1 8479   2.661   1.009   0.378  0.0961 -0.2315  0.1255
  572TMC3    C2 8480   2.581   0.926   0.450  0.3421 -0.1207 -0.1159
  572TMC3    C3 8481   2.451   0.920   0.410 -1.1356  0.4011 -0.6122
  572TMC3    C4 8482   2.620   1.108   0.289 -0.3884 -0.5069 -0.2078
  572TMC3    C5 8483   2.485   1.100   0.258 -0.2800 -0.4067  0.4982
  572TMC3    C6 8484   2.401   1.002   0.309 -0.4509 -0.3037  0.4931
  572TMC3     C 8485   2.791   0.960   0.366 -0.3123 -0.9766  0.3550
  572TMC3     O 8486   2.857   0.995   0.269  0.0716  0.1411  0.0622
  572TMC3     H 8487   2.608   0.843   0.514 -1.9041 -1.3142 -0.7046
  572TMC3    H1 8488   2.691   1.173   0.239 -2.1599  0.3777 -1.5671
  572TMC3    H2 8489   2.293   1.007   0.297 -0.3813  1.7286  0.6544
  572TMC3    C7 8490   2.421   1.218   0.193  0.4806 -0.1200 -0.6645
  572TMC3    C8 8491   2.363   0.811   0.460  0.0890 -0.0743 -0.0294
  572TMC3    O1 8492   2.302   1.231   0.213 -0.0494  0.4823 -0.1750
  572TMC3    O2 8493   2.280   0.768   0.384 -0.1116 -0.1343  0.2227
  573MPD2     C 8494   4.115   1.889   0.836  0.4729  0.5656 -0.0024
  573MPD2    C1 8495   4.075   1.759   0.811 -1.1155  0.1187 -0.4185
  573MPD2    C2 8496   4.087   1.702   0.683  0.2860  0.3170 -0.0528
  573MPD2    C3 8497   4.139   1.791   0.576 -0.7212  0.3010  0.1770
  573MPD2    C4 8498   4.185   1.917   0.610 -0.0589  0.2948 -0.4766
  573MPD2    C5 8499   4.173   1.968   0.737  0.2523 -0.4789 -0.5775
  573MPD2     H 8500   4.064   1.597   0.669 -1.7903  0.9519 -1.4352
  573MPD2    H1 8501   4.233   1.982   0.537  1.9573 -0.0724  0.5292
  573MPD2    H2 8502   4.105   1.928   0.937 -1.3496 -2.1626  0.8738
  573MPD2    H3 8503   4.219   2.065   0.754  3.0884 -2.0642  0.9032
  573MPD2     N 8504   4.151   1.759   0.444 -0.0217 -0.3531  0.4266
  573MPD2    H5 8505   4.211   1.828   0.399  0.1095 -1.4897 -1.1365
  573MPD2    N1 8506   4.023   1.686   0.917 -0.2626 -0.1116 -0.3368
  573MPD2    H7 8507   4.016   1.738   1.005 -0.9535  1.5258 -1.3651
  574TMC3    C1 8508   4.178   1.601   0.277  0.0424  0.0645  0.5256
  574TMC3    C2 8509   4.110   1.529   0.182 -0.4461 -0.9044  0.7571
  574TMC3    C3 8510   4.177   1.498   0.068  0.1717  0.4022 -0.7256
  574TMC3    C4 8511   4.305   1.649   0.254 -0.6115  0.2263 -0.1900
  574TMC3    C5 8512   4.367   1.599   0.144 -0.9185 -0.1869  0.3686
  574TMC3    C6 8513   4.305   1.524   0.043  0.0555  0.0863 -0.1829
  574TMC3     C 8514   4.107   1.635   0.393 -0.5718  0.2567 -0.4851
  574TMC3     O 8515   4.018   1.557   0.432  0.3212 -0.4980  0.1465
  574TMC3     H 8516   4.005   1.514   0.204 -1.1388  0.1889 -1.8802
  574TMC3    H1 8517   4.360   1.697   0.334  2.4042 -0.7083 -1.6844
  574TMC3    H2 8518   4.350   1.518  17.645 -0.2650 -0.2327 -0.3113
  574TMC3    C7 8519   4.505   1.643   0.108 -0.8634 -0.0146 -0.2126
  574TMC3    C8 8520   4.103   1.450  17.655  0.2790 -0.9901 -0.0661
  574TMC3    O1 8521   4.570   1.593   0.021 -0.2721 -0.2546  0.0901
  574TMC3    O2 8522   4.177   1.403  17.569  0.7225 -0.2646  0.4354
  575TMC3    C1 8523   1.939   3.330  11.041 -0.7387  0.0846  0.7183
  575TMC3    C2 8524   1.969   3.325  11.178 -0.1268  0.4174  0.1085
  575TMC3    C3 8525   1.869   3.276  11.259 -0.3729  0.2505 -0.5397
  575TMC3    C4 8526   1.825   3.287  10.980 -0.2717 -0.5856 -0.3804
  575TMC3    C5 8527   1.725   3.249  11.063  0.0070 -0.1468  0.1624
  575TMC3    C6 8528   1.742   3.238  11.208  0.0485 -0.2742  0.1031
  575TMC3     C 8529   2.058   3.348  10.957 -0.4663  0.1181 -0.1538
  575TMC3     O 8530   2.144   3.426  10.992 -0.1975  0.1443 -0.1078
  575TMC3     H 8531   2.069   3.347  11.213 -0.2918  0.8795  0.2950
  575TMC3    H1 8532   1.799   3.307  10.877 -2.6389  0.5148  0.4129
  575TMC3    H2 8533   1.660   3.206  11.271  0.5293  0.5607  1.1483
  575TMC3    C7 8534   1.595   3.232  11.006 -0.3239  0.7444  0.5193
  575TMC3    C8 8535   1.877   3.316  11.395 -0.0199 -0.3686 -0.3870
  575TMC3    O1 8536   1.590   3.245  10.886  0.1778 -0.0747  0.0822
  575TMC3    O2 8537   1.966   3.398  11.422  0.1302  0.0769  0.0292
  576MPD2     C 8538   0.762   4.021  12.884 -0.2153  0.2414  0.4359
  576MPD2    C1 8539   0.752   4.131  12.797  0.4623  0.2464  0.0854
  576MPD2    C2 8540   0.688   4.249  12.833  0.0620 -0.4273 -0.1409
  576MPD2    C3 8541   0.622   4.250  12.952  0.6288  0.5106 -0.3600
  576MPD2    C4 8542   0.635   4.144  13.034 -0.3249  0.2997 -0.5683
  576MPD2    C5 8543   0.707   4.031  13.006  0.1741 -0.4905  0.0448
  576MPD2     H 8544   0.674   4.326  12.758  0.2873 -0.3757 -0.1322
  576MPD2    H1 8545   0.594   4.150  13.134  1.5900  3.1173  0.0607
  576MPD2    H2 8546   0.800   3.923  12.860 -0.6593  0.0886  0.3546
  576MPD2    H3 8547   0.697   3.956  13.083  0.4603 -0.9681 -0.3876
  576MPD2     N 8548   0.554   4.367  12.997 -0.3818  0.3198 -0.3843
  576MPD2    H5 8549   0.571   4.450  12.942 -1.1316  0.8715  0.2255
  576MPD2    N1 8550   0.807   4.135  12.665  0.6384 -0.4740  0.2879
  576MPD2    H7 8551   0.793   4.219  12.611 -1.2265 -0.7721  0.3365
  577TMC3    C1 8552   0.933   4.066  12.481  0.8190  0.2746  0.5303
  577TMC3    C2 8553   1.064   4.036  12.458 -0.3525  0.1563  0.0182
  577TMC3    C3 8554   1.101   4.023  12.330 -0.5166  0.2594  0.2598
  577TMC3    C4 8555   0.838   4.073  12.381  0.3340 -0.1580 -0.5398
  577TMC3    C5 8556   0.878   4.050  12.255 -0.5587 -0.4116  0.7847
  577TMC3    C6 8557   1.009   4.032  12.228 -0.2655  0.3954 -0.9904
  577TMC3     C 8558   0.891   4.035  12.613 -0.0042  0.1880  0.0320
  577TMC3     O 8559   0.940   3.936  12.668 -0.4615 -0.2680 -0.2199
  577TMC3     H 8560   1.138   4.007  12.531  0.7572  1.6961 -0.5043
  577TMC3    H1 8561   0.733   4.072  12.410  0.5503  2.2613  0.2851
  577TMC3    H2 8562   1.033   4.005  12.126 -0.0892  2.0684 -1.3945
  577TMC3    C7 8563   0.784   4.024  12.151  0.3737 -0.2607  0.4060
  577TMC3    C8 8564   1.246   4.018  12.303 -0.2328  0.5531 -0.1077
  577TMC3    O1 8565   0.811   3.950  12.060  0.4980  0.4354 -0.6612
  577TMC3    O2 8566   1.334   4.019  12.391  0.6232 -0.5785  0.4146
  578MPD2     C 8567   3.332   3.739   1.049  0.1821  0.1833 -0.0475
  578MPD2    C1 8568   3.459   3.746   0.996  0.3287  0.3294 -0.1156
  578MPD2    C2 8569   3.568   3.711   1.077  0.2637 -0.3584 -0.7931
  578MPD2    C3 8570   3.552   3.665   1.204  0.2094  0.8559  0.3044
  578MPD2    C4 8571   3.416   3.657   1.249  1.0391 -0.5678  0.4325
  578MPD2    C5 8572   3.310   3.682   1.168 -0.3820  0.4804 -0.1177
  578MPD2     H 8573   3.670   3.712   1.041  0.6138 -0.3661  0.2231
  578MPD2    H1 8574   3.385   3.622   1.347  0.5280 -0.6193  0.2528
  578MPD2    H2 8575   3.249   3.753   0.980 -0.8922  0.9129  1.4137
  578MPD2    H3 8576   3.208   3.671   1.203  0.0777  0.9902  1.3887
  578MPD2     N 8577   3.664   3.617   1.266 -0.3908 -0.3445  0.2384
  578MPD2    H5 8578   3.751   3.612   1.214 -0.3751 -1.7198  0.3928
  578MPD2    N1 8579   3.465   3.800   0.862 -0.1053 -0.2063  0.1628
  578MPD2    H7 8580   3.379   3.838   0.824 -0.5011 -0.6752  0.5789
  579TMC3    C1 8581   3.791   3.482   1.408  0.4278  0.0771 -0.2225
  579TMC3    C2 8582   3.845   3.490   1.535  0.3806 -0.2762  0.6915
  579TMC3    C3 8583   3.965   3.423   1.549 -0.2517  0.0515 -0.3332
  579TMC3    C4 8584   3.835   3.400   1.309  0.0945  0.1261  0.0231
  579TMC3    C5 8585   3.959   3.343   1.323  0.1104 -0.3222 -0.0557
  579TMC3    C6 8586   4.026   3.356   1.447 -0.7032 -0.2347 -0.1862
  579TMC3     C 8587   3.669   3.555   1.387 -0.3867 -0.2718  0.7892
  579TMC3     O 8588   3.599   3.568   1.483 -0.0029  0.7229 -0.7459
  579TMC3     H 8589   3.803   3.543   1.621  0.0198  4.2611 -2.2824
  579TMC3    H1 8590   3.773   3.377   1.223  0.4692 -1.4308  0.1745
  579TMC3    H2 8591   4.120   3.305   1.466  0.8865  2.2498 -1.4449
  579TMC3    C7 8592   4.009   3.261   1.219 -0.0186 -0.0934  0.1896
  579TMC3    C8 8593   4.057   3.474   1.652 -1.0798  0.3790  0.2131
  579TMC3    O1 8594   4.106   3.192   1.242 -0.0278  0.0091 -0.1704
  579TMC3    O2 8595   4.003   3.530   1.745  0.1980  0.0471 -0.2961
  580TMC3    C1 8596   3.126   3.212  11.801 -0.1276  0.4077 -0.7949
  580TMC3    C2 8597   3.166   3.143  11.687 -0.0166  0.8122  0.0833
  580TMC3    C3 8598   3.205   3.016  11.692  0.0462  0.2782 -0.6084
  580TMC3    C4 8599   3.104   3.141  11.917  0.4206 -0.3637 -0.0854
  580TMC3    C5 8600   3.128   3.003  11.916  0.2716  0.1557  0.8395
  580TMC3    C6 8601   3.178   2.941  11.803  0.4387 -0.1153  0.4983
  580TMC3     C 8602   3.168   3.348  11.804 -0.2441 -0.6011 -0.3151
  580TMC3     O 8603   3.216   3.389  11.701  0.2300  0.3168 -0.2131
  580TMC3     H 8604   3.192   3.200  11.599  0.5990  1.7109  0.8425
  580TMC3    H1 8605   3.075   3.184  12.012 -1.9597 -0.8741 -0.5722
  580TMC3    H2 8606   3.204   2.836  11.805 -1.1953 -0.5215  0.6830
  580TMC3    C7 8607   3.129   2.942  12.052 -0.0260  0.2670  1.1560
  580TMC3    C8 8608   3.320   2.969  11.622  0.2615  0.8835 -0.3260
  580TMC3    O1 8609   3.157   3.014  12.145 -0.6374  0.2666  0.5010
  580TMC3    O2 8610   3.399   2.896  11.679 -0.0318 -0.7841  0.3797
  581MPD2     C 8611   1.290   2.786  14.478  0.2331 -0.3675  0.1545
  581MPD2    C1 8612   1.268   2.820  14.611  0.0261 -0.2412 -0.2892
  581MPD2    C2 8613   1.144   2.871  14.654  0.2335 -0.6740 -0.3263
  581MPD2    C3 8614   1.041   2.863  14.565  0.9257  0.7042 -0.6090
  581MPD2    C4 8615   1.055   2.824  14.433 -0.5440 -0.4520  0.2467
  581MPD2    C5 8616   1.179   2.787  14.395 -1.2886  0.3314 -0.1816
  581MPD2     H 8617   1.112   2.885  14.756  0.9921 -2.4184  0.1374
  581MPD2    H1 8618   0.977   2.834  14.359 -1.5972  1.7508  1.6542
  581MPD2    H2 8619   1.388   2.745  14.455  0.9374  0.6063  1.4628
  581MPD2    H3 8620   1.185   2.746  14.294  0.8750  0.9065 -0.3001
  581MPD2     N 8621   0.920   2.909  14.616  0.1647  0.2923 -0.2672
  581MPD2    H5 8622   0.923   2.971  14.697 -1.4106  0.3777 -0.2834
  581MPD2    N1 8623   1.362   2.784  14.708 -0.1572 -0.5804  0.0169
  581MPD2    H7 8624   1.444   2.736  14.670 -0.6260 -1.3893  0.0285
  582TMC3    C1 8625   1.460   2.727  14.912 -1.0259  0.9301 -0.0079
  582TMC3    C2 8626   1.488   2.757  15.043 -0.4957  0.1620 -0.1561
  582TMC3    C3 8627   1.570   2.678  15.113 -0.5641 -0.0645 -1.0028
  582TMC3    C4 8628   1.498   2.601  14.864  1.1131 -0.6324  0.2476
  582TMC3    C5 8629   1.587   2.525  14.938  0.5056  0.5868 -0.7126
  582TMC3    C6 8630   1.631   2.571  15.067  0.0840 -0.1414  0.5595
  582TMC3     C 8631   1.358   2.802  14.841  0.1748 -0.3797 -0.0328
  582TMC3     O 8632   1.284   2.868  14.915 -0.4018  0.0531  0.5472
  582TMC3     H 8633   1.449   2.850  15.081 -2.9078 -1.4316  1.2849
  582TMC3    H1 8634   1.459   2.570  14.768 -1.5267 -3.1962  2.1715
  582TMC3    H2 8635   1.717   2.521  15.112  1.2440 -1.3494 -2.9874
  582TMC3    C7 8636   1.580   2.386  14.911 -0.2898 -0.3229  0.1707
  582TMC3    C8 8637   1.571   2.695  15.253  0.0745  0.0776 -0.7032
  582TMC3    O1 8638   1.574   2.356  14.793 -0.3124 -0.3600  0.0679
  582TMC3    O2 8639   1.535   2.804  15.297  0.0697  0.1447  0.1597
  583MPD2     C 8640   1.471   4.441  16.956 -0.3252 -0.4521  0.9729
  583MPD2    C1 8641   1.540   4.543  16.886  0.7533  0.4050  0.2477
  583MPD2    C2 8642   1.548   4.664  16.948  0.4261 -0.1775 -0.1966
  583MPD2    C3 8643   1.494   4.682  17.078 -0.7022 -0.3616 -0.1641
  583MPD2    C4 8644   1.425   4.577  17.137  0.9716  0.0825 -0.2535
  583MPD2    C5 8645   1.425   4.451  17.083 -0.1605  0.9209 -0.2123
  583MPD2     H 8646   1.590   0.024  16.894  2.2305  0.3580  2.0782
  583MPD2    H1 8647   1.363   4.589  17.225 -0.9305 -0.0331 -1.5923
  583MPD2    H2 8648   1.467   4.342  16.913  0.7605  0.6777 -1.7101
  583MPD2    H3 8649   1.377   4.370  17.136 -1.6167  0.4650 -2.2434
  583MPD2     N 8650   1.509   0.077  17.149  0.2051  0.4761  0.4307
  583MPD2    H5 8651   1.558   0.152  17.102  1.0051  0.7324  1.6758
  583MPD2    N1 8652   1.599   4.528  16.761 -0.3235 -0.6167  0.2210
  583MPD2    H7 8653   1.648   4.605  16.716 -0.8514 -1.2127 -1.3745
  584TMC3    C1 8654   1.544   0.210  17.339 -0.0998 -0.0519 -0.0708
  584TMC3    C2 8655   1.541   0.322  17.261 -0.4580  0.4430  0.0912
  584TMC3    C3 8656   1.572   0.442  17.313  0.3772  0.4479 -0.3019
  584TMC3    C4 8657   1.578   0.214  17.472  0.3522 -0.6616  0.1672
  584TMC3    C5 8658   1.606   0.337  17.526 -0.1586  0.1294  0.1547
  584TMC3    C6 8659   1.604   0.451  17.449  0.4942  0.2290  0.0124
  584TMC3     C 8660   1.510   0.081  17.287 -0.3350  0.3829 -0.2521
  584TMC3     O 8661   1.500   4.719  17.370 -0.3745  0.0606  0.6555
  584TMC3     H 8662   1.528   0.319  17.153 -1.0677 -0.0069  0.1781
  584TMC3    H1 8663   1.589   0.127  17.536 -1.5189 -0.1487  1.1814
  584TMC3    H2 8664   1.598   0.547  17.500 -0.7382 -0.2204  0.7057
  584TMC3    C7 8665   1.588   0.348  17.673  0.2865 -0.1259 -0.7528
  584TMC3    C8 8666   1.589   0.557  17.222  0.1241  0.5069  0.2636
  584TMC3    O1 8667   1.533   0.251   0.022  0.1063 -0.0893 -0.3492
  584TMC3    O2 8668   1.560   0.534  17.106  0.3540  0.7007  0.2950
  585MPD2     C 8669   0.374   2.995   0.244 -0.6913  0.1474 -0.3432
  585MPD2    C1 8670   0.474   3.078   0.275 -0.9688  0.0041 -0.6788
  585MPD2    C2 8671   0.598   3.063   0.216 -0.3135 -0.8615 -0.1328
  585MPD2    C3 8672   0.626   2.957   0.131 -0.5120 -1.2266  0.9551
  585MPD2    C4 8673   0.533   2.860   0.116  0.4831  0.9110 -0.0455
  585MPD2    C5 8674   0.406   2.884   0.166 -0.2351  0.0984 -0.1447
  585MPD2     H 8675   0.665   3.149   0.213 -2.3867  0.7060 -1.2174
  585MPD2    H1 8676   0.544   2.768   0.061 -1.7533  1.4705 -1.4518
  585MPD2    H2 8677   0.269   3.006   0.269 -1.0601 -2.4986 -0.6406
  585MPD2    H3 8678   0.332   2.807   0.150 -1.1187  0.8245  0.4842
  585MPD2     N 8679   0.742   2.947   0.059 -0.0865 -0.6965  0.7561
  585MPD2    H5 8680   0.745   2.871  17.693  0.9752  0.2101 -0.2316
  585MPD2    N1 8681   0.448   3.193   0.347 -0.2024  0.1255 -0.5421
  585MPD2    H7 8682   0.348   3.212   0.347 -0.0231  1.1191 -1.2277
  586TMC3    C1 8683   0.952   2.999  17.678  0.0040  0.8830  0.0543
  586TMC3    C2 8684   1.084   3.008   0.021 -0.1177  0.0088 -0.3054
  586TMC3    C3 8685   1.181   2.946  17.645  0.2735  0.8968  0.1484
  586TMC3    C4 8686   0.920   2.940  17.558 -0.0868  0.3662 -0.6764
  586TMC3    C5 8687   1.021   2.890  17.483 -0.3881 -0.1721  0.7411
  586TMC3    C6 8688   1.148   2.875  17.538 -0.5125 -0.1346  0.2091
  586TMC3     C 8689   0.848   3.032   0.073  0.5023 -0.3629  0.8163
  586TMC3     O 8690   0.881   3.101   0.166  0.7654 -0.4870  0.0461
  586TMC3     H 8691   1.108   3.046   0.120  0.7757  1.8319 -1.2176
  586TMC3    H1 8692   0.821   2.928  17.516 -0.0508 -2.3282 -0.0186
  586TMC3    H2 8693   1.231   2.830  17.484  1.6659  1.2214  2.4314
  586TMC3    C7 8694   0.986   2.786  17.382 -0.5128  0.3179  0.3529
  586TMC3    C8 8695   1.279   2.882   0.029  0.7108  0.2584  0.0365
  586TMC3    O1 8696   0.870   2.753  17.372  0.5136  0.0037 -0.2146
  586TMC3    O2 8697   1.321   2.946   0.126 -0.0714  0.5636  0.2218
  587TMC3    C1 8698   2.642   2.283  16.451 -0.3903  0.0036 -0.4086
  587TMC3    C2 8699   2.595   2.275  16.580  0.8192  0.0367 -0.0678
  587TMC3    C3 8700   2.678   2.236  16.681 -0.1570  0.0318 -0.5892
  587TMC3    C4 8701   2.778   2.274  16.429 -0.6512  0.4299  0.2176
  587TMC3    C5 8702   2.861   2.237  16.535 -0.0358  0.2389  0.5813
  587TMC3    C6 8703   2.815   2.215  16.661  0.4586 -0.7013  0.3532
  587TMC3     C 8704   2.550   2.308  16.338 -0.0471  0.5301  0.1229
  587TMC3     O 8705   2.597   2.366  16.234  0.4433  0.2628 -0.7938
  587TMC3     H 8706   2.491   2.298  16.603  0.5186 -0.6694 -0.7392
  587TMC3    H1 8707   2.821   2.297  16.332  0.4396  1.5816  0.9778
  587TMC3    H2 8708   2.875   2.180  16.744  0.3196 -1.1738  0.2514
  587TMC3    C7 8709   3.001   2.256  16.532  0.7076  0.7931 -0.2532
  587TMC3    C8 8710   2.629   2.226  16.819 -0.0026  0.2599 -0.4391
  587TMC3    O1 8711   3.068   2.196  16.618  0.2639  0.2035  0.1643
  587TMC3    O2 8712   2.688   2.147  16.892  0.0277 -0.1200  0.0019
  588TMC3    C1 8713   0.614   0.224  10.029  0.1666 -0.2602 -0.2318
  588TMC3    C2 8714   0.601   0.094   9.987  0.0325 -0.4537 -0.2837
  588TMC3    C3 8715   0.609   4.725  10.083  0.1779 -0.5285  0.3336
  588TMC3    C4 8716   0.609   0.252  10.157 -0.3042  0.2933  0.0956
  588TMC3    C5 8717   0.626   0.155  10.251 -0.2056  0.3673 -0.4190
  588TMC3    C6 8718   0.631   0.026  10.217  0.6553 -0.1799 -0.2975
  588TMC3     C 8719   0.572   0.332   9.934 -0.1648 -0.1434 -0.1360
  588TMC3     O 8720   0.495   0.299   9.846  0.4923  0.6005 -0.0211
  588TMC3     H 8721   0.565   0.084   9.885 -4.5258  3.2177  0.9500
  588TMC3    H1 8722   0.588   0.352  10.194 -1.5771 -2.4199  6.5716
  588TMC3    H2 8723   0.638   4.675  10.294  1.9299  0.6235  0.3746
  588TMC3    C7 8724   0.642   0.198  10.395 -0.1908 -0.0230  0.4294
  588TMC3    C8 8725   0.568   4.594  10.050 -0.2256 -0.0204  0.2778
  588TMC3    O1 8726   0.593   0.121  10.476  0.7253 -0.3320  0.5265
  588TMC3    O2 8727   0.483   4.575   9.965 -0.3896 -0.2238  0.3218
  589TMC3    C1 8728   4.383   2.417   1.159  0.6250  0.4053  0.0136
  589TMC3    C2 8729   4.441   2.514   1.240  0.3473 -0.5561 -0.5688
  589TMC3    C3 8730   4.571   2.534   1.227  0.2979 -0.0578  0.1154
  589TMC3    C4 8731   4.447   2.353   1.055 -0.0762 -0.8391  0.1830
  589TMC3    C5 8732   4.582   2.368   1.056  0.2953 -0.2837 -0.6162
  589TMC3    C6 8733   4.642   2.459   1.139 -0.1836  0.5409  0.5105
  589TMC3     C 8734   4.249   2.394   1.156  0.2595  0.2767 -0.2282
  589TMC3     O 8735   4.203   2.313   1.077 -0.3116  0.1214  0.1240
  589TMC3     H 8736   4.376   2.583   1.293  0.0482 -0.8769 -0.5228
  589TMC3    H1 8737   4.405   2.264   1.010 -0.8036 -0.6800  0.5516
  589TMC3    H2 8738   0.026   2.461   1.141 -0.1776  1.0709 -0.4993
  589TMC3    C7 8739   4.661   2.251   1.005  0.7059 -0.0106 -0.0547
  589TMC3    C8 8740   4.627   2.646   1.304  0.0858 -0.3898 -0.6801
  589TMC3    O1 8741   4.585   2.153   0.974  0.0845  0.2329 -0.1971
  589TMC3    O2 8742   4.553   2.697   1.387 -0.0253  0.2117 -0.0078
  590MPD2     C 8743   3.824   0.342  16.700  0.5540  0.3921 -0.1781
  590MPD2    C1 8744   3.817   0.404  16.580  0.0610 -0.1203  0.0839
  590MPD2    C2 8745   3.926   0.477  16.536 -0.7714 -0.8668 -0.1079
  590MPD2    C3 8746   4.041   0.494  16.618 -0.0741  0.0313 -0.5208
  590MPD2    C4 8747   4.052   0.423  16.737  0.2308 -0.2405  0.3370
  590MPD2    C5 8748   3.936   0.354  16.775 -0.1337 -0.1046  0.2399
  590MPD2     H 8749   3.906   0.553  16.462  2.3445  1.4335  1.3661
  590MPD2    H1 8750   4.131   0.425  16.812  0.9291 -1.3365 -0.3691
  590MPD2    H2 8751   3.738   0.300  16.750 -1.5698  2.4775 -2.0438
  590MPD2    H3 8752   3.933   0.309  16.874  0.4131 -0.3105  0.1637
  590MPD2     N 8753   4.139   0.578  16.577  0.1004 -0.6221  0.0114
  590MPD2    H5 8754   4.119   0.635  16.496  2.1775 -0.0424 -0.1062
  590MPD2    N1 8755   3.696   0.399  16.512  0.1823  0.9197  0.5851
  590MPD2    H7 8756   3.610   0.373  16.559  0.1237 -1.2327 -0.7164
  591TMC3    C1 8757   4.334   0.697  16.564 -0.3727  0.2430  1.0949
  591TMC3    C2 8758   4.440   0.669  16.488 -0.6382 -0.6173 -0.2405
  591TMC3    C3 8759   4.482   0.752  16.393  0.1192  0.2400  0.5072
  591TMC3    C4 8760   4.260   0.810  16.537 -0.4848  0.0589  1.0653
  591TMC3    C5 8761   4.307   0.897  16.441  0.0819 -0.2871 -0.0297
  591TMC3    C6 8762   4.418   0.874  16.366  0.2412  0.1027 -0.5469
  591TMC3     C 8763   4.267   0.585  16.624  0.0525  0.3238  0.2076
  591TMC3     O 8764   4.331   0.510  16.697  0.1497 -0.1015  0.6912
  591TMC3     H 8765   4.494   0.578  16.513  2.1600  1.1013 -0.0413
  591TMC3    H1 8766   4.176   0.835  16.600 -2.5294 -0.2812 -1.4969
  591TMC3    H2 8767   4.451   0.946  16.292 -1.1107  1.6690  0.3608
  591TMC3    C7 8768   4.219   1.017  16.420 -0.3522  0.1183  0.2710
  591TMC3    C8 8769   4.593   0.707  16.317 -0.1540  0.1367 -0.4295
  591TMC3    O1 8770   4.118   1.026  16.489  0.0268  0.2810 -0.2166
  591TMC3    O2 8771   4.617   0.589  16.330  0.0664 -0.2653 -0.0271
  592MPD2     C 8772   4.409   3.004  11.512  0.6518 -0.0587 -0.2843
  592MPD2    C1 8773   4.475   3.031  11.633  0.1392  0.6887 -0.0437
  592MPD2    C2 8774   4.449   2.950  11.737 -0.2466 -0.7305  0.3840
  592MPD2    C3 8775   4.358   2.843  11.718  0.5334  0.1451 -0.4602
  592MPD2    C4 8776   4.281   2.829  11.602 -0.1533  0.2796 -0.1589
  592MPD2    C5 8777   4.319   2.906  11.497  0.0453 -0.4781  0.1358
  592MPD2     H 8778   4.510   2.953  11.826 -1.0343  0.1040  0.9030
  592MPD2    H1 8779   4.217   2.746  11.575 -0.5637  0.4129  0.4044
  592MPD2    H2 8780   4.422   3.058  11.418  0.4223 -1.0518 -0.8808
  592MPD2    H3 8781   4.279   2.900  11.397 -1.3920 -1.6292  0.7852
  592MPD2     N 8782   4.344   2.753  11.829 -0.4032 -0.2922 -0.5326
  592MPD2    H5 8783   4.411   2.758  11.904 -0.4010  0.8772 -0.6117
  592MPD2    N1 8784   4.567   3.140  11.643  1.0483  0.6158 -0.0201
  592MPD2    H7 8785   4.584   3.192  11.557  1.6084  0.0436 -0.2612
  593TMC3    C1 8786   4.709   3.320  11.724  0.0901 -0.4659  0.0838
  593TMC3    C2 8787   0.011   3.400  11.829 -0.2957 -0.4264 -0.7241
  593TMC3    C3 8788   0.103   3.499  11.824 -0.1741  0.1176 -0.0824
  593TMC3    C4 8789   0.060   3.319  11.610 -0.1202  0.3385 -0.3658
  593TMC3    C5 8790   0.140   3.440  11.595 -0.7412  0.7441  0.4627
  593TMC3    C6 8791   0.154   3.528  11.700  0.5288 -0.3648  0.1841
  593TMC3     C 8792   4.622   3.202  11.755  0.4317 -0.6334 -0.0172
  593TMC3     O 8793   4.589   3.188  11.867  1.0322  0.0295  0.4417
  593TMC3     H 8794   4.707   3.374  11.931  0.8826 -0.5067 -0.4104
  593TMC3    H1 8795   0.039   3.257  11.524  0.8050  1.6061 -1.5088
  593TMC3    H2 8796   0.215   3.617  11.691  2.4152 -1.3204  3.5656
  593TMC3    C7 8797   0.186   3.491  11.465 -0.4273 -1.4183  0.2010
  593TMC3    C8 8798   0.102   3.599  11.929  0.3857 -0.3275  0.5318
  593TMC3    O1 8799   0.259   3.589  11.466  0.6254 -0.6617  1.1969
  593TMC3    O2 8800   0.000   3.614  11.991 -0.1988  0.6332 -0.1012
  594MPD2     C 8801   3.295   1.220  15.092 -0.6657  0.2626  0.0244
  594MPD2    C1 8802   3.193   1.287  15.026 -0.0414 -0.1445  0.4604
  594MPD2    C2 8803   3.231   1.399  14.958  0.4315  0.4611  0.2998
  594MPD2    C3 8804   3.361   1.446  14.951  0.0310  0.3175 -0.3332
  594MPD2    C4 8805   3.463   1.366  15.010  0.7929 -0.5311 -0.2753
  594MPD2    C5 8806   3.425   1.251  15.077  0.2847  0.2731 -0.3603
  594MPD2     H 8807   3.150   1.459  14.919  1.3829  1.3526 -0.2964
  594MPD2    H1 8808   3.567   1.395  15.009  0.5541  0.3579  0.5772
  594MPD2    H2 8809   3.267   1.130  15.146 -0.9167 -0.4723 -1.3503
  594MPD2    H3 8810   3.495   1.184  15.127 -2.9372 -0.2197  3.4473
  594MPD2     N 8811   3.403   1.570  14.900  0.3644  0.6909  0.2812
  594MPD2    H5 8812   3.502   1.589  14.894  0.7531 -1.6577 -0.9326
  594MPD2    N1 8813   3.058   1.239  15.033 -0.2765  0.0172  0.1961
  594MPD2    H7 8814   3.035   1.153  15.082  0.7189 -1.5427 -2.0865
  595TMC3    C1 8815   3.485   1.853  14.607  0.5319  0.2686  0.5265
  595TMC3    C2 8816   3.465   1.758  14.706  0.5153  0.7154  0.8958
  595TMC3    C3 8817   3.381   1.784  14.806  0.2706 -0.2996 -0.0712
  595TMC3    C4 8818   3.423   1.977  14.617  0.3528 -0.6248 -0.2659
  595TMC3    C5 8819   3.339   1.994  14.721  0.1073 -0.2336 -0.1802
  595TMC3    C6 8820   3.304   1.898  14.814  0.2664 -0.9619 -0.1834
  595TMC3     C 8821   3.627   1.874  14.575 -0.3470  0.1337  0.2698
  595TMC3     O 8822   3.707   1.814  14.652  0.2269  0.1062 -0.5301
  595TMC3     H 8823   3.517   1.664  14.713  0.0784  0.3886 -0.2702
  595TMC3    H1 8824   3.457   2.056  14.551  0.7077 -0.4459  0.1324
  595TMC3    H2 8825   3.215   1.907  14.876  0.2568  1.6114 -0.5758
  595TMC3    C7 8826   3.313   2.129  14.765  0.0940 -0.1192  0.6872
  595TMC3    C8 8827   3.316   1.666  14.864  0.6728 -0.3816  0.3894
  595TMC3    O1 8828   3.250   2.143  14.868  0.4820  0.1756  0.2150
  595TMC3    O2 8829   3.193   1.671  14.886 -0.2500 -0.1679 -0.0911
  596MPD2     C 8830   2.248   4.176  17.053  0.3565  0.3858 -0.2132
  596MPD2    C1 8831   2.290   4.298  16.999 -0.2762 -0.2921  0.7710
  596MPD2    C2 8832   2.329   4.294  16.871  0.0196  0.2356  0.1991
  596MPD2    C3 8833   2.320   4.178  16.790  0.2996 -0.5805 -0.5140
  596MPD2    C4 8834   2.267   4.064  16.845 -0.0013 -1.1811 -0.1441
  596MPD2    C5 8835   2.234   4.061  16.980 -0.0510 -0.2548 -0.2915
  596MPD2     H 8836   2.352   4.392  16.831 -1.1775  0.8669  1.0295
  596MPD2    H1 8837   2.245   3.975  16.786  0.7607  0.1716 -2.4322
  596MPD2    H2 8838   2.203   4.176  17.152 -0.3179  0.7985 -0.5158
  596MPD2    H3 8839   2.198   3.972  17.029 -0.3070 -0.1538 -0.2972
  596MPD2     N 8840   2.358   4.172  16.652  0.0256 -0.3931  0.2695
  596MPD2    H5 8841   2.380   4.078  16.619 -0.0532  0.0944 -1.1590
  596MPD2    N1 8842   2.287   4.420  17.071  0.4343  0.3423  0.6001
  596MPD2    H7 8843   2.350   4.488  17.029  1.7482 -0.6281  0.9890
  597TMC3    C1 8844   2.210   4.603  17.198 -0.2447 -0.1517  0.8063
  597TMC3    C2 8845   2.259   4.692  17.104  0.6781  0.4019 -0.3673
  597TMC3    C3 8846   2.261   0.099  17.133 -0.0360  0.1784  0.2395
  597TMC3    C4 8847   2.188   4.641  17.329 -0.4209 -0.0236  0.5500
  597TMC3    C5 8848   2.209   0.049  17.358 -0.0453 -0.0767  0.0189
  597TMC3    C6 8849   2.232   0.144  17.260 -0.2108  0.0818 -0.1011
  597TMC3     C 8850   2.197   4.460  17.167 -0.0527  0.5670 -0.3883
  597TMC3     O 8851   2.103   4.400  17.215 -0.5918  0.2614 -0.0277
  597TMC3     H 8852   2.266   4.644  17.007  0.1914 -1.3747  0.4709
  597TMC3    H1 8853   2.158   4.570  17.405  1.4652 -1.0050  0.3931
  597TMC3    H2 8854   2.263   0.247  17.270 -1.2807  0.4440 -0.6210
  597TMC3    C7 8855   2.163   0.090  17.484  0.7746  0.1154  0.5298
  597TMC3    C8 8856   2.317   0.197  17.045  0.0125 -0.0912  0.7983
  597TMC3    O1 8857   2.090   0.005  17.535 -0.4343 -0.2894 -0.1901
  597TMC3    O2 8858   2.286   0.313  17.057  0.1139 -0.1980 -0.1465
  598TMC3    C1 8859   0.421   1.292  15.523 -0.8585  0.6273  0.3856
  598TMC3    C2 8860   0.307   1.220  15.532 -0.1299  0.0418  0.7230
  598TMC3    C3 8861   0.214   1.220  15.434  0.7427  0.5269  0.1394
  598TMC3    C4 8862   0.433   1.388  15.432  0.0071  0.1210  0.1661
  598TMC3    C5 8863   0.345   1.381  15.324  0.5379 -0.1468  0.1069
  598TMC3    C6 8864   0.232   1.297  15.319  1.3047  0.1217 -0.3154
  598TMC3     C 8865   0.481   1.317  15.654  0.5396 -0.4512  0.0615
  598TMC3     O 8866   0.496   1.431  15.686  0.1759  0.0865 -0.2125
  598TMC3     H 8867   0.291   1.149  15.612  0.9939 -2.3525 -1.1658
  598TMC3    H1 8868   0.518   1.455  15.441 -0.2322  0.5509 -0.7679
  598TMC3    H2 8869   0.165   1.301  15.234  1.0786  0.8162 -0.1005
  598TMC3    C7 8870   0.362   1.468  15.211  1.1187  0.3803  0.1022
  598TMC3    C8 8871   0.099   1.134  15.432 -0.0479 -0.2990  0.2672
  598TMC3    O1 8872   0.270   1.476  15.126  0.4678 -0.1657 -0.1690
  598TMC3    O2 8873   0.036   1.129  15.324  0.3182  0.3124  0.0691
  599MPD2     C 8874   0.615   3.690  16.222  0.7140  0.0657 -0.0987
  599MPD2    C1 8875   0.554   3.569  16.202 -0.0973  0.3486 -0.4407
  599MPD2    C2 8876   0.419   3.555  16.224  0.8202 -0.4721 -0.4886
  599MPD2    C3 8877   0.344   3.661  16.274 -0.1876  0.2427  0.3596
  599MPD2    C4 8878   0.403   3.784  16.293 -0.9934  0.5586  0.0239
  599MPD2    C5 8879   0.536   3.794  16.268 -0.0336 -0.4894 -0.0279
  599MPD2     H 8880   0.373   3.458  16.213 -2.3788  0.9919 -0.2185
  599MPD2    H1 8881   0.350   3.865  16.342  1.8688  1.4743  1.5707
  599MPD2    H2 8882   0.715   3.723  16.196  1.5092 -3.0173 -0.9863
  599MPD2    H3 8883   0.582   3.892  16.275 -0.8865 -0.1055  0.0994
  599MPD2     N 8884   0.212   3.652  16.321 -0.3280  0.0489  0.0347
  599MPD2    H5 8885   0.177   3.739  16.359 -0.2919  0.1137 -0.0818
  599MPD2    N1 8886   0.640   3.465  16.156 -0.3484 -0.3078 -0.5501
  599MPD2    H7 8887   0.737   3.492  16.146  0.1808 -1.1000  2.3107
  600TMC3    C1 8888   4.722   3.570  16.398 -0.1106 -0.6882  0.2018
  600TMC3    C2 8889   4.641   3.470  16.432 -0.3918  0.5955 -0.0529
  600TMC3    C3 8890   4.527   3.486  16.511 -0.3343 -0.0915 -0.2946
  600TMC3    C4 8891   4.690   3.697  16.445  0.0234 -0.6709  0.4898
  600TMC3    C5 8892   4.585   3.714  16.529 -0.1590 -0.2343  0.3099
  600TMC3    C6 8893   4.500   3.611  16.566 -0.0723 -0.0248  0.9586
  600TMC3     C 8894   0.125   3.538  16.331 -0.1333 -0.1172  0.2704
  600TMC3     O 8895   0.151   3.424  16.293 -0.0723 -0.2660 -0.0529
  600TMC3     H 8896   4.650   3.378  16.374  0.3600 -0.0687  1.1278
  600TMC3    H1 8897   0.027   3.781  16.417 -0.9169 -0.6237 -1.4164
  600TMC3    H2 8898   4.414   3.622  16.631 -2.3900 -0.9117 -1.9703
  600TMC3    C7 8899   4.603   3.835  16.614 -0.4386 -0.8231  0.6766
  600TMC3    C8 8900   4.429   3.373  16.518  0.2530 -0.3490  0.3480
  600TMC3    O1 8901   4.701   3.904  16.602 -0.2270  0.0749 -0.6905
  600TMC3    O2 8902   4.465   3.255  16.502 -0.1361  0.3240  0.1620
  601MPD2     C 8903   2.497   1.699   0.035  0.0259 -0.5311 -0.3469
  601MPD2    C1 8904   2.386   1.643   0.093  0.0343 -0.7524  0.3371
  601MPD2    C2 8905   2.387   1.508   0.123  0.3291  0.1041  0.2007
  601MPD2    C3 8906   2.500   1.429   0.097  0.4087  0.0736 -0.1827
  601MPD2    C4 8907   2.600   1.488   0.027  0.2217 -0.4538 -0.4830
  601MPD2    C5 8908   2.605   1.620  17.693 -0.2311  0.1844 -0.3643
  601MPD2     H 8909   2.302   1.461   0.171 -2.1291  0.8470 -3.4064
  601MPD2    H1 8910   2.692   1.432   0.016  1.0208  0.7106  0.3859
  601MPD2    H2 8911   2.506   1.802   0.003 -0.1305 -0.1964  0.6850
  601MPD2    H3 8912   2.693   1.659  17.643 -0.0950  0.2865 -0.0449
  601MPD2     N 8913   2.513   1.292   0.128  0.1157  0.4578 -1.1207
  601MPD2    H5 8914   2.600   1.244   0.109  1.5520  3.5859 -2.4461
  601MPD2    N1 8915   2.272   1.722   0.134  0.1554 -0.8105 -0.3500
  601MPD2    H7 8916   2.197   1.669   0.177  0.0170 -0.0647  0.3213
  602TMC3    C1 8917   2.112   1.895   0.118 -0.1177  0.4568 -0.2129
  602TMC3    C2 8918   2.111   2.023   0.129  0.1738 -0.3049  0.5544
  602TMC3    C3 8919   1.991   2.089   0.103 -0.1479 -0.8763  0.5619
  602TMC3    C4 8920   2.009   1.821   0.065  0.1925 -0.2073  0.1692
  602TMC3    C5 8921   1.895   1.885   0.040  0.1611 -0.0969  0.3962
  602TMC3    C6 8922   1.878   2.017   0.071 -0.4554  0.7470 -0.2374
  602TMC3     C 8923   2.248   1.850   0.098  0.2056  0.2659  0.4716
  602TMC3     O 8924   2.328   1.932   0.061  0.0180  0.1618  0.1814
  602TMC3     H 8925   2.201   2.076   0.156 -0.8523  1.3710  0.6346
  602TMC3    H1 8926   2.018   1.717   0.034 -1.3595  0.1988 -1.7090
  602TMC3    H2 8927   1.777   2.051   0.091  0.1781  0.7338  2.9846
  602TMC3    C7 8928   1.834   1.834  17.617 -0.3132  0.0987 -0.0961
  602TMC3    C8 8929   2.006   2.230   0.073  0.4923 -0.3171  0.8010
  602TMC3    O1 8930   1.890   1.734  17.567 -0.5840 -0.1852 -0.0664
  602TMC3    O2 8931   2.082   2.291   0.144  0.1353 -0.0905 -0.6352
  603TMC3    C1 8932   1.332   2.412  11.019  0.0400 -0.1254 -0.0930
  603TMC3    C2 8933   1.355   2.361  11.143  0.1417 -0.1757 -0.0552
  603TMC3    C3 8934   1.275   2.409  11.241  0.0998  0.3500 -0.3415
  603TMC3    C4 8935   1.226   2.489  10.989  0.0312 -0.4160  0.7319
  603TMC3    C5 8936   1.143   2.517  11.093 -0.2191 -0.2131 -1.0272
  603TMC3    C6 8937   1.173   2.491  11.222 -0.3833 -0.6489 -0.2390
  603TMC3     C 8938   1.412   2.371  10.906  0.1819 -0.6066 -0.4137
  603TMC3     O 8939   1.529   2.347  10.925 -0.3473  0.4347  0.8747
  603TMC3     H 8940   1.429   2.287  11.168  1.7701  2.1942  2.1171
  603TMC3    H1 8941   1.207   2.525  10.888  3.4685  2.0304  0.9309
  603TMC3    H2 8942   1.094   2.514  11.292  0.0256  2.0363 -0.6473
  603TMC3    C7 8943   1.021   2.597  11.070  0.6100  0.0311 -0.1742
  603TMC3    C8 8944   1.304   2.376  11.380 -0.1101 -0.3856 -0.1841
  603TMC3    O1 8945   0.991   2.664  11.169  0.0086 -1.0100  0.5035
  603TMC3    O2 8946   1.335   2.258  11.400 -0.2637 -0.4859  0.2945
  604MPD2     C 8947   1.268   0.622  16.527  0.0349 -0.1929 -0.0387
  604MPD2    C1 8948   1.198   0.705  16.441  0.0735  0.3015 -0.4134
  604MPD2    C2 8949   1.224   0.708  16.298 -0.6950 -0.1104  0.5171
  604MPD2    C3 8950   1.300   0.610  16.249  0.4053  0.1653 -0.7092
  604MPD2    C4 8951   1.365   0.522  16.335 -0.2542 -0.2438  0.3764
  604MPD2    C5 8952   1.351   0.528  16.471  0.1534  0.4554 -0.2884
  604MPD2     H 8953   1.176   0.773  16.226 -0.6053  1.2736  1.6958
  604MPD2    H1 8954   1.425   0.435  16.309  1.5023  0.4886  2.0086
  604MPD2    H2 8955   1.265   0.643  16.634 -1.8141  1.7469 -0.4642
  604MPD2    H3 8956   1.415   0.461  16.526 -1.0619 -0.1259  0.4261
  604MPD2     N 8957   1.334   0.623  16.109  0.1321 -0.1436  0.1784
  604MPD2    H5 8958   1.266   0.675  16.055 -0.3966 -0.7505  0.2566
  604MPD2    N1 8959   1.116   0.809  16.498  0.0939  0.2189 -0.4901
  604MPD2    H7 8960   1.116   0.817  16.599  0.4082 -1.0790 -0.3869
  605TMC3    C1 8961   0.996   1.007  16.504  0.1797 -0.7432  0.2154
  605TMC3    C2 8962   1.098   1.077  16.559 -0.0941 -0.0979 -0.4592
  605TMC3    C3 8963   1.076   1.211  16.599  0.1298 -0.6664  0.7136
  605TMC3    C4 8964   0.879   1.063  16.465 -0.6762  0.2576 -0.2767
  605TMC3    C5 8965   0.857   1.188  16.511 -0.6515 -0.1245  0.3135
  605TMC3    C6 8966   0.947   1.264  16.577  0.9004  0.4584 -0.0075
  605TMC3     C 8967   1.037   0.898  16.420  0.0393  0.0168 -0.8580
  605TMC3     O 8968   0.992   0.883  16.314  0.0137 -0.2293 -0.5435
  605TMC3     H 8969   1.193   1.031  16.582  1.1443  1.2162 -3.0046
  605TMC3    H1 8970   0.818   1.009  16.394 -0.0796  1.4765 -1.7150
  605TMC3    H2 8971   0.928   1.365  16.612 -0.3786 -0.7064  2.6573
  605TMC3    C7 8972   0.747   1.267  16.455  0.8569  0.0986 -0.3167
  605TMC3    C8 8973   1.198   1.288  16.564  0.0522  0.1809 -0.6548
  605TMC3    O1 8974   0.767   1.387  16.438 -0.2286  0.5573 -0.9893
  605TMC3    O2 8975   1.267   1.237  16.476 -0.2168  0.2649 -0.2824
  606TMC3    C1 8976   2.682   4.245  16.991  0.4346 -0.0833  0.0102
  606TMC3    C2 8977   2.698   4.304  17.112 -0.0156 -0.2326 -0.3556
  606TMC3    C3 8978   2.680   4.237  17.223 -0.2243  0.6794 -0.4898
  606TMC3    C4 8979   2.623   4.123  16.979  0.0162  0.6879  0.7170
  606TMC3    C5 8980   2.588   4.065  17.103  0.3162  0.0102  0.2835
  606TMC3    C6 8981   2.624   4.115  17.227  0.5947  0.1077 -0.4922
  606TMC3     C 8982   2.694   4.337  16.881  0.0361  0.2400  0.0341
  606TMC3     O 8983   2.722   4.454  16.902  0.3439  0.3214 -0.7250
  606TMC3     H 8984   2.733   4.406  17.122  1.4467 -1.0882  3.4357
  606TMC3    H1 8985   2.582   4.088  16.885  1.3016  0.3416  0.2880
  606TMC3    H2 8986   2.616   4.053  17.315  0.8891 -0.3072 -0.7558
  606TMC3    C7 8987   2.563   3.919  17.097 -0.3144  0.7544 -0.1929
  606TMC3    C8 8988   2.738   4.300  17.340 -0.2409  0.3531 -0.5823
  606TMC3    O1 8989   2.615   3.862  17.001  0.4507 -0.3133 -0.2975
  606TMC3    O2 8990   2.847   4.360  17.324 -0.3550 -0.1896 -0.2634
  607MPD2     C 8991   4.571   2.488  12.073  0.3878  0.3863 -0.3411
  607MPD2    C1 8992   4.636   2.549  12.182  0.2277 -0.6860  0.8316
  607MPD2    C2 8993   4.685   2.467  12.284 -0.1607  0.3228  0.0897
  607MPD2    C3 8994   4.646   2.336  12.299 -0.4398  0.4501 -0.0537
  607MPD2    C4 8995   4.575   2.280  12.193 -0.3312  0.2214 -0.0083
  607MPD2    C5 8996   4.539   2.352  12.086 -0.0341  0.4183 -0.3951
  607MPD2     H 8997   0.023   2.520  12.355 -0.9513 -0.7374  1.5434
  607MPD2    H1 8998   4.535   2.181  12.208 -1.7469  0.7503 -0.3413
  607MPD2    H2 8999   4.524   2.537  11.988 -0.5100  1.2432  0.6512
  607MPD2    H3 9000   4.489   2.312  11.999  1.3910 -1.3444 -0.4004
  607MPD2     N 9001   4.691   2.264  12.410  0.3750 -0.1383  0.3661
  607MPD2    H5 9002   0.020   2.313  12.480  0.6744  1.1427 -0.7554
  607MPD2    N1 9003   4.690   2.680  12.186 -0.1778 -0.0586  0.4287
  607MPD2    H7 9004   0.041   2.697  12.251  0.9669 -1.5446 -0.5170
  608TMC3    C1 9005   0.054   2.887  12.107  0.4564  0.0971  0.9075
  608TMC3    C2 9006   0.106   2.910  12.228  0.2937 -0.9443 -0.3377
  608TMC3    C3 9007   0.220   2.990  12.240 -0.2496  0.2733  0.4684
  608TMC3    C4 9008   0.101   2.958  12.002  0.6577  0.1406 -0.1786
  608TMC3    C5 9009   0.203   3.043  12.022 -0.3352  0.0315  0.3469
  608TMC3    C6 9010   0.264   3.061  12.135  0.4847 -0.3107 -0.0921
  608TMC3     C 9011   4.686   2.776  12.084  0.3417  0.7082  0.2327
  608TMC3     O 9012   4.619   2.772  11.979  0.2329  0.1603  0.5230
  608TMC3     H 9013   0.061   2.862  12.314 -0.3338  0.6898  0.2370
  608TMC3    H1 9014   0.053   2.954  11.904  2.6551 -0.4458 -1.1260
  608TMC3    H2 9015   0.366   3.100  12.135  0.7515 -1.0223 -0.0987
  608TMC3    C7 9016   0.260   3.112  11.901  0.3292  1.0630 -0.6352
  608TMC3    C8 9017   0.316   2.956  12.347  0.2227 -0.2145 -0.9347
  608TMC3    O1 9018   0.227   3.072  11.789  0.1333  0.5018 -0.5823
  608TMC3    O2 9019   0.382   3.052  12.386  0.7738  0.1611 -0.1931
  609TMC3    C1 9020   3.325   1.259   9.152  0.3144  0.1359  0.2213
  609TMC3    C2 9021   3.266   1.160   9.087 -0.1821 -0.2549  0.6321
  609TMC3    C3 9022   3.316   1.031   9.088  0.4831 -0.5864 -0.5028
  609TMC3    C4 9023   3.445   1.229   9.218 -0.5963  0.0895 -0.1514
  609TMC3    C5 9024   3.501   1.105   9.208 -0.6075 -0.3144  0.2783
  609TMC3    C6 9025   3.435   1.003   9.144 -0.1984  0.2189  0.0064
  609TMC3     C 9026   3.281   1.395   9.145 -0.2871 -0.0580  0.3724
  609TMC3     O 9027   3.260   1.430   9.030 -0.1073  0.2945 -0.1985
  609TMC3     H 9028   3.169   1.184   9.045  0.2529 -0.9417 -0.7752
  609TMC3    H1 9029   3.493   1.309   9.273  1.5563 -1.4789  0.2352
  609TMC3    H2 9030   3.467   0.900   9.157  2.1929  0.9915  0.2365
  609TMC3    C7 9031   3.639   1.092   9.241  0.1975  0.3215  0.1574
  609TMC3    C8 9032   3.227   0.924   9.047  0.1362 -0.3356  0.5456
  609TMC3    O1 9033   3.685   1.196   9.290 -0.5707  0.3095 -0.3432
  609TMC3    O2 9034   3.108   0.952   9.070  0.7481  0.0547  0.0418
  610TMC3    C1 9035   4.631   2.816  12.980 -0.4069  1.1108  0.0634
  610TMC3    C2 9036   4.724   2.919  12.958  0.2745  0.3757  0.8021
  610TMC3    C3 9037   0.129   2.876  12.936  0.4662 -0.3548  0.3495
  610TMC3    C4 9038   4.660   2.683  12.991  0.3089  0.1906 -1.3000
  610TMC3    C5 9039   0.070   2.648  12.969 -0.6259  0.4172  0.2423
  610TMC3    C6 9040   0.165   2.739  12.938 -0.1314 -0.1644 -0.2431
  610TMC3     C 9041   4.484   2.843  12.994 -0.3174 -0.0781 -0.5339
  610TMC3     O 9042   4.406   2.755  12.966  0.0979  0.2226 -0.1167
  610TMC3     H 9043   4.687   3.017  12.933  0.6207  0.5798  1.1032
  610TMC3    H1 9044   4.584   2.606  12.997 -0.5349  1.1593  0.4438
  610TMC3    H2 9045   0.264   2.709  12.905 -0.0096  0.9043 -0.8422
  610TMC3    C7 9046   0.109   2.510  12.978 -0.6086 -0.0003 -0.0003
  610TMC3    C8 9047   0.220   2.982  12.907  1.0342 -0.0946 -0.4098
  610TMC3    O1 9048   0.224   2.481  13.007 -0.8961 -0.1433 -0.2075
  610TMC3    O2 9049   0.179   3.076  12.852 -0.1152  0.2258 -0.2762
  611MPD2     C 9050   4.538   2.311  10.321 -0.0957  0.3990 -0.2220
  611MPD2    C1 9051   4.567   2.386  10.435 -0.4519 -0.2979 -0.6723
  611MPD2    C2 9052   4.691   2.454  10.440 -0.2625  0.4782 -0.1248
  611MPD2    C3 9053   0.050   2.458  10.333 -0.5156  0.5148 -0.6747
  611MPD2    C4 9054   0.014   2.385  10.219 -0.7545 -0.0594 -0.2925
  611MPD2    C5 9055   4.622   2.312  10.214  0.2426  0.2092  0.0497
  611MPD2     H 9056   4.722   2.504  10.531 -1.5695 -0.2730  0.7347
  611MPD2    H1 9057   0.075   2.376  10.130 -2.5773  0.2328 -1.5722
  611MPD2    H2 9058   4.453   2.243  10.323 -0.4011  0.8015  0.6721
  611MPD2    H3 9059   4.603   2.263  10.119  0.4966 -0.9603  0.6053
  611MPD2     N 9060   0.167   2.534  10.333 -0.4812  0.3498  0.0659
  611MPD2    H5 9061   0.211   2.540  10.242 -1.1072 -1.5505 -0.3622
  611MPD2    N1 9062   4.473   2.387  10.544 -0.2620  0.2703 -0.2376
  611MPD2    H7 9063   4.386   2.337  10.533  0.4021 -0.6833 -1.1772
  612TMC3    C1 9064   0.354   2.650  10.400  0.5367  0.4231 -0.0412
  612TMC3    C2 9065   0.429   2.698  10.508  0.3118  0.4441 -0.8679
  612TMC3    C3 9066   0.491   2.819  10.486 -0.0185 -0.3576 -0.7498
  612TMC3    C4 9067   0.329   2.728  10.292 -0.4189 -0.6595  0.3376
  612TMC3    C5 9068   0.370   2.858  10.293 -0.4965  0.5384 -0.4129
  612TMC3    C6 9069   0.454   2.909  10.386  0.4535  0.1087 -0.1811
  612TMC3     C 9070   0.236   2.576  10.440  0.6071 -0.4312  0.8524
  612TMC3     O 9071   0.217   2.548  10.555  0.1325  0.2019 -0.1836
  612TMC3     H 9072   0.449   2.637  10.596 -1.9715 -2.5780 -2.4154
  612TMC3    H1 9073   0.266   2.700  10.208  1.2735 -0.2617 -1.0614
  612TMC3    H2 9074   0.494   3.010  10.384  2.0765 -0.5243  0.2172
  612TMC3    C7 9075   0.323   2.953  10.197 -1.0791  0.5637 -0.9550
  612TMC3    C8 9076   0.566   2.883  10.590 -0.2977 -0.0596 -0.6358
  612TMC3    O1 9077   0.216   2.932  10.143 -0.1148 -0.0498 -0.6301
  612TMC3    O2 9078   0.560   3.001  10.597  0.2475 -0.1272 -0.6166
  613MPD2     C 9079   3.877   0.106  16.376  0.3836 -0.1564 -0.4053
  613MPD2    C1 9080   3.752   0.060  16.407  0.0253 -0.0647 -0.0976
  613MPD2    C2 9081   3.746   4.683  16.505  0.2822 -0.8927 -0.3755
  613MPD2    C3 9082   3.856   4.642  16.574 -0.1116 -0.2145  0.1584
  613MPD2    C4 9083   3.978   4.706  16.551 -0.0814  0.2559 -0.7879
  613MPD2    C5 9084   3.991   0.069  16.452  0.4231  0.2524  0.1128
  613MPD2     H 9085   3.650   4.633  16.514  0.3080 -0.4494  2.2962
  613MPD2    H1 9086   4.064   4.659  16.597 -1.9663 -0.5383  1.8874
  613MPD2    H2 9087   3.891   0.175  16.294 -1.8357  2.0701  1.0826
  613MPD2    H3 9088   4.090   0.103  16.424 -0.0868  1.2647 -0.4743
  613MPD2     N 9089   3.839   4.529  16.660  0.1286  0.3396  0.0815
  613MPD2    H5 9090   3.924   4.475  16.669  0.7093  1.0872 -0.9601
  613MPD2    N1 9091   3.646   0.088  16.317  0.1507  0.2023  0.1963
  613MPD2    H7 9092   3.664   0.110  16.219  1.2366  0.3935  0.4358
  614TMC3    C1 9093   3.429   0.060  16.239 -0.3058 -0.1964  0.0198
  614TMC3    C2 9094   3.449   4.667  16.175 -0.5486  0.1469  0.0231
  614TMC3    C3 9095   3.346   4.595  16.130 -0.6838 -0.3214  0.6206
  614TMC3    C4 9096   3.305   0.113  16.244  0.0875 -0.3843 -0.4899
  614TMC3    C5 9097   3.199   0.051  16.191 -0.3358  0.0436 -0.3778
  614TMC3    C6 9098   3.218   4.649  16.134  0.0143  0.0046  0.2354
  614TMC3     C 9099   3.515   0.085  16.350 -0.3583  0.1650 -0.9349
  614TMC3     O 9100   3.471   0.105  16.466  0.2218 -0.0990  0.1842
  614TMC3     H 9101   3.549   4.627  16.172 -0.3236  0.7337 -0.1628
  614TMC3    H1 9102   3.291   0.211  16.290  1.0529 -1.2294  1.5975
  614TMC3    H2 9103   3.126   4.599  16.107 -2.1149  2.9480  2.0155
  614TMC3    C7 9104   3.112   0.148  16.128 -0.0152  0.3613  0.5427
  614TMC3    C8 9105   3.378   4.456  16.132 -0.4119  0.7064  0.8907
  614TMC3    O1 9106   3.074   0.240  16.201  0.1742  0.0697  0.2350
  614TMC3    O2 9107   3.491   4.426  16.103  0.6048  0.1398  0.3085
  615MPD2     C 9108   2.930   0.911  15.846 -0.4949  0.0505 -0.5752
  615MPD2    C1 9109   2.953   1.021  15.923  0.0778  1.0325 -0.8674
  615MPD2    C2 9110   2.887   1.136  15.893 -0.5047  0.1971  0.4053
  615MPD2    C3 9111   2.796   1.148  15.789  0.1841  0.0959  0.2762
  615MPD2    C4 9112   2.767   1.031  15.718 -0.1719 -0.4811  0.5404
  615MPD2    C5 9113   2.847   0.927  15.738  0.7384  0.6670  0.0827
  615MPD2     H 9114   2.907   1.227  15.949  0.4658 -0.3896  0.9962
  615MPD2    H1 9115   2.702   1.032  15.631 -1.2827  0.5073  1.3755
  615MPD2    H2 9116   2.977   0.814  15.859 -1.9081 -0.6206 -0.4947
  615MPD2    H3 9117   2.837   0.849  15.663  1.2615  1.4272 -0.7763
  615MPD2     N 9118   2.725   1.262  15.751  0.1337  0.3390 -0.0937
  615MPD2    H5 9119   2.655   1.246  15.679 -1.1320 -0.2783  1.2674
  615MPD2    N1 9120   3.048   1.023  16.025 -0.3061 -0.4890 -0.4154
  615MPD2    H7 9121   3.051   1.110  16.078 -2.0257 -0.9739  0.4771
  616TMC3    C1 9122   3.241   1.002  16.143  0.1190 -0.3248 -0.2323
  616TMC3    C2 9123   3.366   1.003  16.092 -0.0345  0.3477 -0.4214
  616TMC3    C3 9124   3.465   1.068  16.165 -0.1244 -0.0482  0.6543
  616TMC3    C4 9125   3.214   1.057  16.264 -0.1599  0.1214 -0.5014
  616TMC3    C5 9126   3.319   1.109  16.339 -0.0840 -0.9772 -0.1938
  616TMC3    C6 9127   3.445   1.107  16.295 -0.0240 -0.4662  0.1647
  616TMC3     C 9128   3.138   0.933  16.069  0.3514 -0.1628  0.4214
  616TMC3     O 9129   3.169   0.825  16.018 -0.1112  1.0180 -0.4308
  616TMC3     H 9130   3.382   0.967  15.991  0.2832  1.7053 -0.8635
  616TMC3    H1 9131   3.115   1.057  16.308  0.3223  0.4805  0.5935
  616TMC3    H2 9132   3.531   1.141  16.352  0.2403  0.0444 -0.5351
  616TMC3    C7 9133   3.294   1.212  16.444 -0.0777  0.4688 -0.5907
  616TMC3    C8 9134   3.579   1.116  16.095 -0.5764  0.2427 -0.5735
  616TMC3    O1 9135   3.387   1.262  16.503  0.0663 -0.4098 -0.0724
  616TMC3    O2 9136   3.634   1.042  16.020 -0.4223  0.8371 -0.2389
  617MPD2     C 9137   0.692   4.216  13.949  0.0285  0.4207  0.2746
  617MPD2    C1 9138   0.684   4.189  14.083 -0.2149  0.5802  0.4200
  617MPD2    C2 9139   0.562   4.154  14.137 -0.4149 -0.1535 -0.3070
  617MPD2    C3 9140   0.447   4.147  14.063  0.0095 -0.4559 -0.0716
  617MPD2    C4 9141   0.457   4.175  13.930 -0.1790  0.3593  0.7306
  617MPD2    C5 9142   0.577   4.210  13.876  0.7094 -0.6951 -0.3972
  617MPD2     H 9143   0.557   4.127  14.242 -3.0740 -3.5582 -1.3259
  617MPD2    H1 9144   0.368   4.159  13.869  0.3352 -0.5282  0.2137
  617MPD2    H2 9145   0.790   4.249  13.915 -0.1786  0.3554 -0.3819
  617MPD2    H3 9146   0.581   4.229  13.769 -0.8296  2.1117  0.0475
  617MPD2     N 9147   0.319   4.105  14.115 -0.5522 -0.4848 -0.4914
  617MPD2    H5 9148   0.233   4.104  14.061 -1.1587 -0.9521  0.4753
  617MPD2    N1 9149   0.804   4.206  14.155  0.1960 -0.0296 -0.3123
  617MPD2    H7 9150   0.883   4.233  14.098 -0.9641 -0.3342 -2.0617
  618TMC3    C1 9151   0.957   4.184  14.339  0.8030 -0.4984  0.6587
  618TMC3    C2 9152   0.989   4.091  14.434 -0.0126 -0.4297  0.3054
  618TMC3    C3 9153   1.108   4.094  14.496 -0.7887 -0.4438 -0.2377
  618TMC3    C4 9154   1.037   4.287  14.309  0.0030 -0.4308  0.1561
  618TMC3    C5 9155   1.161   4.286  14.365  0.6783  0.2348  0.3292
  618TMC3    C6 9156   1.196   4.192  14.462  0.6405  0.3539  0.1175
  618TMC3     C 9157   0.822   4.174  14.287 -0.5324  0.3088  0.1890
  618TMC3     O 9158   0.740   4.138  14.368  0.4155 -0.7678 -0.2757
  618TMC3     H 9159   0.919   4.014  14.465  1.6486 -2.1637 -0.2604
  618TMC3    H1 9160   1.006   4.362  14.237 -0.4359 -1.1452 -0.3955
  618TMC3    H2 9161   1.293   4.185  14.510  1.7139 -0.6529 -2.2015
  618TMC3    C7 9162   1.263   4.347  14.278 -0.7598 -0.7448 -0.7558
  618TMC3    C8 9163   1.169   3.962  14.491 -0.1452  0.6319  0.2798
  618TMC3    O1 9164   1.229   4.415  14.179 -0.2198 -0.3330  0.0150
  618TMC3    O2 9165   1.199   3.891  14.588 -0.2407 -0.2452  0.1598
  619MPD2     C 9166   2.481   0.466  14.097  0.0712  0.4190 -1.0141
  619MPD2    C1 9167   2.442   0.550  13.990  0.0125 -0.1542  0.1347
  619MPD2    C2 9168   2.308   0.574  13.967 -0.5662 -0.6820  0.1481
  619MPD2    C3 9169   2.205   0.514  14.036  0.5910  0.5537  0.0712
  619MPD2    C4 9170   2.241   0.432  14.135  0.4038 -0.5756  0.0405
  619MPD2    C5 9171   2.373   0.413  14.168 -0.8795  0.3231 -0.6726
  619MPD2     H 9172   2.283   0.654  13.899  2.0761 -0.4658 -0.5452
  619MPD2    H1 9173   2.165   0.393  14.203  0.2378 -0.0017  0.1892
  619MPD2    H2 9174   2.584   0.452  14.129 -1.3059 -3.1131  1.8418
  619MPD2    H3 9175   2.404   0.344  14.246  0.2668 -1.0356 -2.3460
  619MPD2     N 9176   2.067   0.524  14.006  0.2774  0.3640 -0.5663
  619MPD2    H5 9177   2.001   0.482  14.070 -1.1582  0.3812 -2.0379
  619MPD2    N1 9178   2.534   0.605  13.898 -0.0802  0.0862  0.4446
  619MPD2    H7 9179   2.494   0.654  13.819  0.5319  0.8579  0.6128
  620TMC3    C1 9180   2.729   0.710  13.807 -0.6248 -0.4979 -0.4514
  620TMC3    C2 9181   2.646   0.748  13.703  0.2547 -0.1645 -0.2573
  620TMC3    C3 9182   2.671   0.860  13.630  0.3345  0.0156  0.5851
  620TMC3    C4 9183   2.836   0.786  13.839  0.2086  0.8082 -0.3894
  620TMC3    C5 9184   2.855   0.902  13.767 -1.1367  0.7257 -0.2506
  620TMC3    C6 9185   2.782   0.935  13.652  0.9995  0.0471 -0.4475
  620TMC3     C 9186   2.666   0.628  13.914  0.0443  0.4699 -0.7444
  620TMC3     O 9187   2.736   0.585  14.004  0.6089 -0.0860  0.1889
  620TMC3     H 9188   2.554   0.693  13.682 -1.3703  2.8561 -1.0680
  620TMC3    H1 9189   2.888   0.768  13.932 -0.0920 -0.0440 -0.3884
  620TMC3    H2 9190   2.807   1.027  13.599 -0.5282 -0.4533 -2.0414
  620TMC3    C7 9191   2.893   1.025  13.844  0.4094  0.1860 -0.6754
  620TMC3    C8 9192   2.555   0.933  13.603  0.0695 -0.7497 -0.2783
  620TMC3    O1 9193   3.012   1.048  13.869  0.0817 -0.1780 -0.3188
  620TMC3    O2 9194   2.554   1.042  13.665 -0.6897  0.4001 -0.0558
  621MPD2     C 9195   2.901   0.855   9.660 -0.1756 -0.4074  0.5652
  621MPD2    C1 9196   2.868   0.981   9.687 -0.4513 -0.3273  0.5173
  621MPD2    C2 9197   2.954   1.052   9.766  0.5551 -0.7307  0.4484
  621MPD2    C3 9198   3.075   0.994   9.792 -0.0248 -0.1926  0.3255
  621MPD2    C4 9199   3.103   0.859   9.776  0.9460 -0.2660  0.5287
  621MPD2    C5 9200   3.011   0.791   9.702 -0.3122  0.2970  0.3864
  621MPD2     H 9201   2.937   1.153   9.802 -0.2873 -0.2673 -1.3007
  621MPD2    H1 9202   3.194   0.811   9.811  0.1490 -0.6089  2.1323
  621MPD2    H2 9203   2.831   0.797   9.601  0.8916  1.3327 -2.3787
  621MPD2    H3 9204   3.034   0.686   9.688 -0.0712  0.6317 -1.7600
  621MPD2     N 9205   3.189   1.072   9.834  0.2031  0.3414  0.6350
  621MPD2    H5 9206   3.265   1.023   9.881 -0.7593 -0.3213  1.4781
  621MPD2    N1 9207   2.740   1.033   9.654  0.3946  1.0721  0.1340
  621MPD2    H7 9208   2.679   0.980   9.592  0.4891 -0.8647  1.6849
  622TMC3    C1 9209   2.542   1.148   9.665 -0.0462 -0.2090  0.1270
  622TMC3    C2 9210   2.436   1.176   9.744 -0.1350 -0.1886 -0.7801
  622TMC3    C3 9211   2.315   1.206   9.680  0.3176  0.1646  0.1549
  622TMC3    C4 9212   2.537   1.154   9.529  0.4113  0.3872  0.3158
  622TMC3    C5 9213   2.420   1.185   9.463 -0.1585 -0.1320  0.1373
  622TMC3    C6 9214   2.308   1.216   9.544  1.1519 -0.2557 -0.2248
  622TMC3     C 9215   2.668   1.127   9.730 -0.1808  0.7381 -0.4163
  622TMC3     O 9216   2.690   1.184   9.838  0.1170 -0.7911  0.3166
  622TMC3     H 9217   2.444   1.144   9.848 -1.9875 -2.2193 -1.2654
  622TMC3    H1 9218   2.621   1.152   9.461  1.1033 -2.7245  1.2491
  622TMC3    H2 9219   2.210   1.232   9.502  0.3417 -0.2613  1.6476
  622TMC3    C7 9220   2.418   1.184   9.318  0.0293 -0.9224 -0.4757
  622TMC3    C8 9221   2.199   1.248   9.755 -0.5222 -0.1882 -0.2967
  622TMC3    O1 9222   2.493   1.118   9.255 -0.8077  0.9725  0.2099
  622TMC3    O2 9223   2.094   1.231   9.694 -0.3348 -0.1702  0.5523
  623MPD2     C 9224   1.524   1.370  15.443 -0.5811  0.1441  0.3013
  623MPD2    C1 9225   1.463   1.349  15.561  0.2508 -0.2870  0.0320
  623MPD2    C2 9226   1.533   1.361  15.678  0.4288 -0.2110  0.0625
  623MPD2    C3 9227   1.658   1.404  15.684  0.3383  0.5632  0.5440
  623MPD2    C4 9228   1.724   1.430  15.568 -0.2252  0.3461 -0.0517
  623MPD2    C5 9229   1.656   1.411  15.448  0.1007  0.3063  0.2182
  623MPD2     H 9230   1.483   1.346  15.773  1.2645  0.4187  0.6052
  623MPD2    H1 9231   1.828   1.461  15.566  0.0918 -0.7128 -0.1079
  623MPD2    H2 9232   1.480   1.340  15.349 -1.6650  1.0890  0.5142
  623MPD2    H3 9233   1.713   1.422  15.356 -0.7955  3.4817  0.0474
  623MPD2     N 9234   1.713   1.428  15.807 -0.4962 -0.2083  0.1560
  623MPD2    H5 9235   1.661   1.400  15.890 -2.2053 -1.0844 -1.2212
  623MPD2    N1 9236   1.325   1.320  15.572  0.1390 -0.3779 -0.3654
  623MPD2    H7 9237   1.297   1.281  15.661  0.9342 -1.0803 -0.4159
  624TMC3    C1 9238   1.987   1.478  16.176  0.6519 -0.2746  0.1934
  624TMC3    C2 9239   1.883   1.474  16.265  0.3232  0.0520  0.1979
  624TMC3    C3 9240   1.756   1.476  16.208  0.4561  0.3220 -0.0338
  624TMC3    C4 9241   1.973   1.499  16.036  0.4889 -0.1496 -0.0110
  624TMC3    C5 9242   1.843   1.508  15.986 -0.0344  0.4512 -1.0759
  624TMC3    C6 9243   1.734   1.503  16.073  0.3553 -0.1120 -0.1220
  624TMC3     C 9244   2.119   1.440  16.234 -0.4016 -0.2931 -0.2658
  624TMC3     O 9245   2.145   1.457  16.353  0.2305  0.4393 -0.1955
  624TMC3     H 9246   1.908   1.469  16.370  2.6122 -4.0391 -0.5370
  624TMC3    H1 9247   2.064   1.492  15.977  0.6310  0.7034  0.0992
  624TMC3    H2 9248   1.631   1.507  16.041 -0.2681  0.0821  1.8765
  624TMC3    C7 9249   1.836   1.471  15.844 -0.5624 -0.2855 -0.2831
  624TMC3    C8 9250   1.637   1.466  16.294 -0.6809  0.3347  0.2361
  624TMC3    O1 9251   1.936   1.473  15.773 -0.2007  0.1087 -0.2023
  624TMC3    O2 9252   1.536   1.409  16.254 -0.0072  0.2082 -0.2848
  625MPD2     C 9253   1.767   2.279   0.734  0.4714  0.0979  0.4416
  625MPD2    C1 9254   1.871   2.357   0.786 -0.5908  0.1192  0.4603
  625MPD2    C2 9255   1.980   2.292   0.843 -0.1044 -0.6558  0.5144
  625MPD2    C3 9256   1.992   2.153   0.844 -0.0811  0.3966 -0.0373
  625MPD2    C4 9257   1.899   2.081   0.775  0.5548  0.3060 -0.5685
  625MPD2    C5 9258   1.789   2.143   0.725 -0.1021  0.4078  0.2359
  625MPD2     H 9259   2.065   2.346   0.883 -0.3749  1.4483 -1.7795
  625MPD2    H1 9260   1.894   1.973   0.783  0.5150 -0.0936 -5.7437
  625MPD2    H2 9261   1.679   2.322   0.688  1.5484  2.3092  0.4578
  625MPD2    H3 9262   1.707   2.079   0.694  0.5970  0.4698 -1.8026
  625MPD2     N 9263   2.114   2.104   0.894  0.4338  0.2611 -0.2117
  625MPD2    H5 9264   2.179   2.167   0.939  1.0902  0.6441 -1.7321
  625MPD2    N1 9265   1.868   2.498   0.793 -0.4453 -0.1593 -0.2471
  625MPD2    H7 9266   1.935   2.541   0.857  0.2321 -2.3511  0.5264
  626TMC3    C1 9267   1.821   2.724   0.743  0.3921 -0.1365 -0.0384
  626TMC3    C2 9268   1.739   2.833   0.707 -0.4003  0.2701  0.1407
  626TMC3    C3 9269   1.783   2.964   0.718 -0.3112  1.0004 -0.0877
  626TMC3    C4 9270   1.947   2.751   0.787  0.4623  0.0083  0.6678
  626TMC3    C5 9271   1.990   2.883   0.776 -0.2587 -0.3411  0.4478
  626TMC3    C6 9272   1.911   2.991   0.751 -0.3187  0.3371  0.6135
  626TMC3     C 9273   1.769   2.585   0.748  0.2137  0.6685  1.2589
  626TMC3     O 9274   1.670   2.566   0.682 -0.4440 -0.5721  0.0383
  626TMC3     H 9275   1.634   2.817   0.686  0.0299 -1.7624 -0.4170
  626TMC3    H1 9276   2.013   2.674   0.825  0.6163 -0.1762  0.0118
  626TMC3    H2 9277   1.951   3.089   0.728  0.6267 -0.5178 -1.3435
  626TMC3    C7 9278   2.121   2.903   0.835  0.4667  0.2216 -0.6302
  626TMC3    C8 9279   1.699   3.057   0.647 -0.8166 -0.1018 -0.3901
  626TMC3    O1 9280   2.206   2.819   0.829 -0.0664  0.1444 -0.0276
  626TMC3    O2 9281   1.751   3.142   0.581  0.1414 -0.1699 -0.0675
  627MPD2     C 9282   0.143   2.909  14.279  0.2418  0.2095  0.2633
  627MPD2    C1 9283   0.208   2.833  14.378  0.1790  0.7523  0.3437
  627MPD2    C2 9284   0.168   2.698  14.392  0.5450  0.2274 -0.1417
  627MPD2    C3 9285   0.072   2.637  14.315  0.4287  0.3282 -0.0921
  627MPD2    C4 9286   0.012   2.712  14.218  0.7287  0.5145 -0.0765
  627MPD2    C5 9287   0.038   2.853  14.209  0.1117  0.2556  0.0085
  627MPD2     H 9288   0.212   2.633  14.467  0.6568  0.2491 -0.1876
  627MPD2    H1 9289   4.659   2.680  14.149  1.9242 -2.8550  0.1148
  627MPD2    H2 9290   0.166   3.014  14.264 -1.9944  0.2894 -2.3818
  627MPD2    H3 9291   4.706   2.914  14.140 -2.8814 -1.4899  0.8714
  627MPD2     N 9292   0.028   2.506  14.351  0.5496  0.4227  0.1898
  627MPD2    H5 9293   0.060   2.469  14.440 -3.7370 -2.8069  0.3581
  627MPD2    N1 9294   0.318   2.886  14.452  0.1461  0.0701  0.2726
  627MPD2    H7 9295   0.365   2.815  14.508 -0.2276  0.8889  1.6372
  628TMC3    C1 9296   0.470   3.033  14.546  0.1770  0.0674  0.0566
  628TMC3    C2 9297   0.567   2.935  14.546  0.2700  0.0468 -0.1890
  628TMC3    C3 9298   0.688   2.963  14.601  0.6559  0.6392  0.0082
  628TMC3    C4 9299   0.489   3.153  14.606 -0.0259  0.4148  0.6149
  628TMC3    C5 9300   0.614   3.180  14.657 -0.4146 -0.4806 -0.2389
  628TMC3    C6 9301   0.714   3.085  14.650  0.1761 -0.3726 -0.4897
  628TMC3     C 9302   0.340   3.014  14.483  0.0648 -0.1454 -0.4415
  628TMC3     O 9303   0.272   3.115  14.465 -0.4939  0.2420  0.0335
  628TMC3     H 9304   0.544   2.837  14.504  0.0016  0.7982 -1.8072
  628TMC3    H1 9305   0.400   3.213  14.617 -0.0773  0.3539  0.5312
  628TMC3    H2 9306   0.815   3.110  14.680 -0.3356  0.0737  0.8441
  628TMC3    C7 9307   0.653   3.320  14.687  0.4260  0.0053  0.2932
  628TMC3    C8 9308   0.795   2.869  14.570  0.3367  0.1686 -0.6002
  628TMC3    O1 9309   0.741   3.341  14.772 -0.0010 -0.2355 -0.6309
  628TMC3    O2 9310   0.762   2.784  14.482  0.1636 -0.0547 -0.1961
  629MPD2     C 9311   3.946   1.453  16.054  1.1133  0.2281 -0.4843
  629MPD2    C1 9312   3.843   1.520  16.114 -0.5298 -0.1731  0.3840
  629MPD2    C2 9313   3.723   1.453  16.128  0.3224  0.6426 -0.4685
  629MPD2    C3 9314   3.718   1.324  16.089  0.1118  0.4251 -0.2706
  629MPD2    C4 9315   3.813   1.263  16.018 -0.1916 -0.7203 -0.6775
  629MPD2    C5 9316   3.928   1.333  15.996 -0.4031 -0.0080 -0.0027
  629MPD2     H 9317   3.637   1.493  16.180 -0.3155  1.5885 -2.2432
  629MPD2    H1 9318   3.810   1.159  15.987  1.0751 -1.0252  0.2367
  629MPD2    H2 9319   4.047   1.492  16.054  1.5256 -0.8241 -1.7119
  629MPD2    H3 9320   4.010   1.283  15.946  0.6450  0.8796  0.8310
  629MPD2     N 9321   3.601   1.248  16.119 -0.9271 -0.7100  0.1318
  629MPD2    H5 9322   3.536   1.293  16.183 -1.8867 -1.4755 -0.3209
  629MPD2    N1 9323   3.878   1.641  16.181 -0.3413 -0.4748 -0.1021
  629MPD2    H7 9324   3.979   1.654  16.186 -0.4251  0.6356 -1.5635
  630TMC3    C1 9325   3.843   1.763  16.380 -1.1531  0.3232 -0.6125
  630TMC3    C2 9326   3.942   1.853  16.370 -0.4667  0.5459  0.7329
  630TMC3    C3 9327   4.014   1.872  16.487  1.1115  0.7218 -0.0098
  630TMC3    C4 9328   3.804   1.702  16.500  0.2411  0.3772  0.1893
  630TMC3    C5 9329   3.895   1.711  16.604  0.1106 -0.2415 -0.4056
  630TMC3    C6 9330   3.999   1.801  16.600  0.5301  0.1826  0.2479
  630TMC3     C 9331   3.788   1.714  16.255  0.0934 -0.4935  0.2758
  630TMC3     O 9332   3.664   1.715  16.253  0.6260 -0.0187  0.9638
  630TMC3     H 9333   3.973   1.899  16.277  3.4803 -3.2738  0.1572
  630TMC3    H1 9334   3.752   1.607  16.492 -1.6913  1.5087 -0.7938
  630TMC3    H2 9335   4.070   1.823  16.678  2.2112 -1.1967 -0.8927
  630TMC3    C7 9336   3.927   1.598  16.690 -0.5730  0.5952 -0.0186
  630TMC3    C8 9337   4.151   1.934  16.468 -0.5053 -0.5193 -0.3529
  630TMC3    O1 9338   4.034   1.606  16.750  0.5857  0.5572 -0.4791
  630TMC3    O2 9339   4.239   1.886  16.539  0.2847  0.2676 -0.4247
  631MPD2     C 9340   2.852   2.287  15.586  0.3174 -0.6878 -0.4374
  631MPD2    C1 9341   2.719   2.265  15.551 -0.2263 -0.0518 -0.6393
  631MPD2    C2 9342   2.663   2.152  15.601  0.2949 -0.1389  0.3487
  631MPD2    C3 9343   2.741   2.062  15.672 -0.6199 -0.2440  0.1945
  631MPD2    C4 9344   2.875   2.083  15.711  0.0054 -0.6645 -0.3938
  631MPD2    C5 9345   2.923   2.206  15.662 -0.2170  0.0374 -0.2328
  631MPD2     H 9346   2.556   2.136  15.588  0.4215 -0.9998  0.3677
  631MPD2    H1 9347   2.930   2.024  15.783 -1.1072 -0.1478  0.8899
  631MPD2    H2 9348   2.903   2.371  15.540 -0.1515 -0.8929 -1.3466
  631MPD2    H3 9349   3.024   2.239  15.681 -0.5446  2.0944 -2.0519
  631MPD2     N 9350   2.668   1.943  15.691  0.1330 -0.3691  0.0391
  631MPD2    H5 9351   2.579   1.932  15.642  0.7190 -0.5671 -0.9833
  631MPD2    N1 9352   2.650   2.343  15.463  0.0452  0.0869  0.3342
  631MPD2    H7 9353   2.705   2.404  15.402  0.2723 -0.5894 -0.1381
  632TMC3    C1 9354   2.468   2.412  15.345  0.5847  0.6385 -0.7594
  632TMC3    C2 9355   2.354   2.485  15.359  0.0369  0.9126 -0.7808
  632TMC3    C3 9356   2.256   2.480  15.262  0.4551 -0.1400 -0.9170
  632TMC3    C4 9357   2.486   2.334  15.237 -0.4099 -0.4493 -0.5957
  632TMC3    C5 9358   2.404   2.351  15.133 -0.4582  0.0890  0.0753
  632TMC3    C6 9359   2.297   2.432  15.140  0.1759  0.1083 -0.6229
  632TMC3     C 9360   2.517   2.343  15.464 -0.2312 -0.8953 -0.3211
  632TMC3     O 9361   2.436   2.338  15.554  0.0496 -0.3885  0.2031
  632TMC3     H 9362   2.337   2.553  15.442  0.3342 -0.9328  0.7712
  632TMC3    H1 9363   2.575   2.272  15.239 -1.2452 -1.6452 -0.5456
  632TMC3    H2 9364   2.228   2.434  15.057  1.7823  0.6971 -1.9301
  632TMC3    C7 9365   2.417   2.286  15.003  0.2302  0.0607  0.2094
  632TMC3    C8 9366   2.144   2.406  15.307  0.8399  0.3238 -0.2239
  632TMC3    O1 9367   2.380   2.345  14.900  0.3306 -0.3507 -0.2066
  632TMC3    O2 9368   2.077   2.350  15.218  0.0618  0.1859  0.0426
  633MPD2     C 9369   1.768   4.307  17.579  0.3203 -0.7175 -0.4868
  633MPD2    C1 9370   1.721   4.249  17.463 -0.2080 -0.5406 -0.3324
  633MPD2    C2 9371   1.703   4.110  17.456 -0.1973  0.6896  0.4394
  633MPD2    C3 9372   1.741   4.026  17.559 -0.8735 -0.4702  0.6268
  633MPD2    C4 9373   1.787   4.087  17.672 -0.0284  0.1621  0.2644
  633MPD2    C5 9374   1.806   4.226  17.682  0.5252  0.2618 -0.1572
  633MPD2     H 9375   1.668   4.070  17.362  0.4716  0.9944  0.0579
  633MPD2    H1 9376   1.802   4.029   0.062 -1.2260  0.6061  0.7525
  633MPD2    H2 9377   1.771   4.412  17.605 -2.1454 -1.0292  1.0658
  633MPD2    H3 9378   1.846   4.274   0.070 -0.2673  1.7455 -0.6170
  633MPD2     N 9379   1.733   3.888  17.555  0.4713 -0.3213 -0.5180
  633MPD2    H5 9380   1.767   3.828  17.630  0.2466  0.2567  0.0426
  633MPD2    N1 9381   1.696   4.327  17.354  0.0541 -0.1474  0.1237
  633MPD2    H7 9382   1.673   4.275  17.270 -0.1287 -1.7519  1.1751
  634TMC3    C1 9383   1.776   4.458  17.194  0.0902  0.1092  0.7113
  634TMC3    C2 9384   1.808   4.340  17.126 -1.1434 -0.0281 -0.7400
  634TMC3    C3 9385   1.877   4.353  17.009 -0.1000  0.1826 -0.8246
  634TMC3    C4 9386   1.801   4.588  17.144  0.6657  0.9200  0.0416
  634TMC3    C5 9387   1.873   4.592  17.029  0.4586  0.2213  0.5732
  634TMC3    C6 9388   1.899   4.477  16.952 -1.2154 -0.5786 -0.2310
  634TMC3     C 9389   1.740   4.453  17.331 -0.6584  0.3190  0.3816
  634TMC3     O 9390   1.777   4.543  17.405 -0.7380  0.3780  0.3022
  634TMC3     H 9391   1.792   4.240  17.165 -1.2414 -0.4395 -1.8259
  634TMC3    H1 9392   1.788   4.675  17.207  2.6704  0.0921  1.5757
  634TMC3    H2 9393   1.952   4.483  16.858 -1.3957  2.5924 -0.1242
  634TMC3    C7 9394   1.870   4.713  16.951 -0.0123 -0.3413 -0.6011
  634TMC3    C8 9395   1.887   4.233  16.931 -0.3113  0.8473  0.2247
  634TMC3    O1 9396   1.881   4.688  16.832 -1.3225  0.0132 -0.1464
  634TMC3    O2 9397   1.820   4.139  16.973 -0.0611 -0.5172  0.1760
  635TMC3    C1 9398   3.178   0.526   0.059 -0.2963  0.1059 -0.3163
  635TMC3    C2 9399   3.302   0.486   0.076 -0.0701  0.4790  0.2848
  635TMC3    C3 9400   3.351   0.391  17.693  0.7094  0.4547  0.1881
  635TMC3    C4 9401   3.092   0.476  17.664 -0.5458  0.8169  0.2452
  635TMC3    C5 9402   3.140   0.374  17.582  0.2594 -0.1393  0.1499
  635TMC3    C6 9403   3.264   0.330  17.601  0.2006  0.3013  0.1518
  635TMC3     C 9404   3.125   0.623   0.143  0.0281  0.2010 -0.4294
  635TMC3     O 9405   3.041   0.701   0.103  0.2816 -0.1468 -0.1541
  635TMC3     H 9406   3.357   0.532   0.157  2.3464  0.3001 -1.2530
  635TMC3    H1 9407   2.990   0.513  17.661 -0.9350 -0.4764 -2.2206
  635TMC3    H2 9408   3.303   0.258  17.529 -0.6039  0.2557 -0.2326
  635TMC3    C7 9409   3.075   0.328  17.458  0.4198  0.9020 -0.4803
  635TMC3    C8 9410   3.492   0.376  17.672  0.1699  0.4667 -0.1379
  635TMC3    O1 9411   3.125   0.245  17.385 -0.0768  0.1458 -0.1265
  635TMC3    O2 9412   3.521   0.283  17.596  0.3537 -0.0697 -0.1694
  636MPD2     C 9413   3.092   4.546  16.515 -0.2229  0.3928 -0.2607
  636MPD2    C1 9414   3.184   4.621  16.585 -0.2252  0.2769  0.4953
  636MPD2    C2 9415   3.271   4.549  16.668  0.1441 -0.0472  0.4307
  636MPD2    C3 9416   3.264   4.418  16.683 -0.2282  0.1745 -0.9757
  636MPD2    C4 9417   3.180   4.340  16.614  0.0442 -0.5974  0.4350
  636MPD2    C5 9418   3.095   4.408  16.528 -0.4132 -0.4018 -0.1064
  636MPD2     H 9419   3.339   4.606  16.730  0.0406 -0.9026  1.3194
  636MPD2    H1 9420   3.189   4.234  16.594  2.2693 -0.1176 -1.1052
  636MPD2    H2 9421   3.019   4.588  16.448  1.0317  0.0452 -1.8347
  636MPD2    H3 9422   3.010   4.354  16.489 -0.5480 -0.7525  0.6548
  636MPD2     N 9423   3.378   4.368  16.754 -0.1556  0.0222  0.1023
  636MPD2    H5 9424   3.455   4.433  16.769 -0.1674 -0.0012  0.2667
  636MPD2    N1 9425   3.177   0.036  16.601 -0.7397 -0.1111  0.4561
  636MPD2    H7 9426   3.254   0.079  16.651 -0.7611 -1.1823  1.4278
  637TMC3    C1 9427   3.541   4.214  16.804 -0.0655  0.4277  0.1644
  637TMC3    C2 9428   3.615   4.327  16.832  0.3803  0.6468  0.5364
  637TMC3    C3 9429   3.729   4.352  16.758  0.7414 -0.7875 -0.8152
  637TMC3    C4 9430   3.594   4.128  16.711 -0.2631 -0.5252  0.0637
  637TMC3    C5 9431   3.705   4.163  16.633 -0.6647  0.4968  0.3536
  637TMC3    C6 9432   3.779   4.267  16.666  0.2292 -0.0843  0.1196
  637TMC3     C 9433   3.403   4.235  16.786 -0.0816 -0.0821 -0.3012
  637TMC3     O 9434   3.339   4.131  16.768  0.2273  0.4504  0.0171
  637TMC3     H 9435   3.582   4.407  16.897 -0.9224  0.4729  0.0840
  637TMC3    H1 9436   3.532   4.042  16.686 -1.8595  1.3089 -2.2694
  637TMC3    H2 9437   3.857   4.301  16.599  0.0882  0.2417  0.1193
  637TMC3    C7 9438   3.671   4.168  16.492  0.5031  0.1900  0.7323
  637TMC3    C8 9439   3.721   4.483  16.712 -0.0513  0.2301 -0.1044
  637TMC3    O1 9440   3.714   4.255  16.417 -0.3913  0.5774  0.0469
  637TMC3    O2 9441   3.612   4.537  16.720  0.1451  0.2893  0.2338
  638MPD2     C 9442   3.072   3.768  15.149 -0.1511 -0.5512  0.3695
  638MPD2    C1 9443   3.015   3.677  15.063 -0.2008  0.1134 -0.5527
  638MPD2    C2 9444   2.944   3.577  15.119 -0.4983  0.4272 -0.3050
  638MPD2    C3 9445   2.940   3.551  15.253  0.0112  0.4637 -0.7714
  638MPD2    C4 9446   3.014   3.632  15.342  0.5933 -0.2751  0.0234
  638MPD2    C5 9447   3.077   3.740  15.285 -0.3300  0.2367  0.0148
  638MPD2     H 9448   2.906   3.500  15.053  0.9299 -0.6171  0.0973
  638MPD2    H1 9449   3.030   3.610  15.447  1.0364  0.3304  0.0838
  638MPD2    H2 9450   3.112   3.860  15.109 -0.0737 -0.9252 -0.4266
  638MPD2    H3 9451   3.124   3.822  15.339 -0.7061  0.5479 -0.1301
  638MPD2     N 9452   2.884   3.428  15.293 -0.0198  0.5078  0.2633
  638MPD2    H5 9453   2.848   3.372  15.217  1.0525  3.2147 -2.2283
  638MPD2    N1 9454   3.032   3.698  14.924 -0.2051 -0.3860  0.2010
  638MPD2    H7 9455   3.095   3.771  14.894  1.6862 -2.4417 -0.8130
  639TMC3    C1 9456   2.808   3.240  15.404  0.5018 -0.4222 -0.1584
  639TMC3    C2 9457   2.749   3.207  15.283  1.0897 -0.4699 -0.5024
  639TMC3    C3 9458   2.774   3.087  15.232  0.4977  0.0688  0.7462
  639TMC3    C4 9459   2.874   3.137  15.477  0.0055  0.4777  0.3868
  639TMC3    C5 9460   2.876   3.009  15.425  0.4976  0.4021  0.4804
  639TMC3    C6 9461   2.824   2.986  15.304  0.1024  0.9325 -0.0697
  639TMC3     C 9462   2.873   3.370  15.412  0.4821  0.2505 -0.2124
  639TMC3     O 9463   2.906   3.421  15.519  0.5577 -0.3314 -0.2520
  639TMC3     H 9464   2.707   3.280  15.216  0.0083 -1.3927 -0.8365
  639TMC3    H1 9465   2.922   3.153  15.573  1.2980  0.4812 -0.2682
  639TMC3    H2 9466   2.817   2.881  15.277 -0.9444  0.4176  2.2370
  639TMC3    C7 9467   2.923   2.899  15.500  0.1724  0.1058  0.6398
  639TMC3    C8 9468   2.674   3.040  15.138  0.1572  0.2809 -1.0357
  639TMC3    O1 9469   2.916   2.915  15.621 -0.8056 -0.3255  0.3194
  639TMC3    O2 9470   2.717   2.951  15.067 -0.2204 -0.1994 -0.3843
  640MPD2     C 9471   3.467   2.203  10.309 -0.5251  0.0969 -0.3212
  640MPD2    C1 9472   3.531   2.297  10.225 -0.6610  0.6875 -0.1685
  640MPD2    C2 9473   3.486   2.422  10.231  0.0427  0.6211 -0.0547
  640MPD2    C3 9474   3.380   2.463  10.308 -0.5999 -0.7188  0.7355
  640MPD2    C4 9475   3.330   2.374  10.400 -0.3753 -1.0060 -0.8308
  640MPD2    C5 9476   3.369   2.242  10.392 -0.2799  0.3483  0.0397
  640MPD2     H 9477   3.525   2.491  10.157  0.2589  1.6236  0.9899
  640MPD2    H1 9478   3.259   2.404  10.477 -0.2391  2.4542 -2.0558
  640MPD2    H2 9479   3.503   2.101  10.307 -1.0159 -0.0546 -1.1356
  640MPD2    H3 9480   3.332   2.165  10.459 -1.1108  0.3262 -0.4399
  640MPD2     N 9481   3.319   2.594  10.296 -0.2384 -0.1341 -0.1452
  640MPD2    H5 9482   3.232   2.612  10.346 -1.2747 -1.1042 -1.5981
  640MPD2    N1 9483   3.641   2.254  10.145  0.3544  0.9015  0.7543
  640MPD2    H7 9484   3.656   2.155  10.129  1.8269  1.4057 -1.0465
  641TMC3    C1 9485   3.828   2.291  10.004 -0.3711  0.1586  0.0213
  641TMC3    C2 9486   3.847   2.155   9.979 -0.6909 -0.1728 -0.0353
  641TMC3    C3 9487   3.942   2.121   9.886 -0.1107 -0.0598 -0.0159
  641TMC3    C4 9488   3.886   2.386   9.920  0.2462 -0.4027 -0.6427
  641TMC3    C5 9489   3.974   2.344   9.820  0.1004 -0.1914  0.2587
  641TMC3    C6 9490   4.005   2.209   9.804 -0.8916 -0.1297 -0.0652
  641TMC3     C 9491   3.730   2.348  10.092  0.2862  0.4981 -0.3790
  641TMC3     O 9492   3.758   2.458  10.130  0.5398 -0.4259  0.4674
  641TMC3     H 9493   3.817   2.076  10.048  0.6029 -1.2951 -0.7507
  641TMC3    H1 9494   3.868   2.492   9.935  0.0023 -0.3686 -1.1978
  641TMC3    H2 9495   4.095   2.178   9.751 -1.2959 -1.4891  0.0440
  641TMC3    C7 9496   4.069   2.435   9.771  0.2762  0.7542  0.0877
  641TMC3    C8 9497   4.014   1.993   9.892 -0.4896  0.1730 -0.3166
  641TMC3    O1 9498   4.180   2.390   9.761  0.1540 -0.9604  0.3827
  641TMC3    O2 9499   4.080   1.968   9.795 -0.0814 -0.2220  0.6656
  642TMC3    C1 9500   4.643   3.636  12.339  0.6521 -0.4954  0.3208
  642TMC3    C2 9501   0.054   3.647  12.361  0.1256  0.4442 -0.1562
  642TMC3    C3 9502   0.118   3.533  12.388  0.1830 -0.3406  0.3316
  642TMC3    C4 9503   4.575   3.518  12.340 -0.1549 -0.2156 -0.9828
  642TMC3    C5 9504   4.655   3.407  12.367 -0.5468  0.0384 -0.7175
  642TMC3    C6 9505   0.061   3.409  12.386 -0.3083  0.2075 -0.2627
  642TMC3     C 9506   4.556   3.751  12.354 -0.3340 -0.0298  0.3008
  642TMC3     O 9507   4.592   3.853  12.296  0.0101  0.1411  0.2850
  642TMC3     H 9508   0.099   3.746  12.368  0.0930  0.5639 -1.5718
  642TMC3    H1 9509   4.472   3.514  12.309 -1.1954  0.2742  2.3363
  642TMC3    H2 9510   0.118   3.321  12.414  0.5007  0.3040 -1.6436
  642TMC3    C7 9511   4.584   3.281  12.379  0.1672  0.5607  0.1179
  642TMC3    C8 9512   0.248   3.544  12.455  0.5633  0.0924  0.3262
  642TMC3    O1 9513   4.475   3.275  12.320 -0.3947 -1.0766  0.5392
  642TMC3    O2 9514   0.331   3.456  12.435 -0.4454  0.3129  0.2794
  643TMC3    C1 9515   3.748   2.229  17.682 -0.2394 -0.0003 -0.0880
  643TMC3    C2 9516   3.619   2.250  17.626  0.3520  0.1141  0.2777
  643TMC3    C3 9517   3.597   2.291  17.494  0.3966  0.0343 -0.0984
  643TMC3    C4 9518   3.856   2.256  17.599  0.1483 -0.7018  0.2691
  643TMC3    C5 9519   3.825   2.296  17.470  0.1221 -0.7089  0.4303
  643TMC3    C6 9520   3.705   2.313  17.417  0.0357 -0.4885  0.0244
  643TMC3     C 9521   3.762   2.187   0.121 -0.4755  0.8274 -0.4089
  643TMC3     O 9522   3.675   2.128   0.180 -1.0560  0.0346  0.2554
  643TMC3     H 9523   3.528   2.245  17.684  1.5427  1.5933  2.2814
  643TMC3    H1 9524   3.956   2.220  17.615  0.7283 -0.1297 -2.0267
  643TMC3    H2 9525   3.692   2.352  17.317 -2.1280  3.4649  1.8031
  643TMC3    C7 9526   3.901   2.417  17.436 -0.7107  0.4878 -0.5133
  643TMC3    C8 9527   3.491   2.388  17.485  0.2483  0.3862  0.0398
  643TMC3    O1 9528   3.827   2.504  17.396  0.6239  0.4413  0.7280
  643TMC3    O2 9529   3.389   2.366  17.541  0.2034 -0.2551  0.0303
  644MPD2     C 9530   4.101   3.163   9.808 -0.2764  0.3658  1.0557
  644MPD2    C1 9531   4.026   3.055   9.838 -0.5342 -0.4742 -0.4032
  644MPD2    C2 9532   3.887   3.068   9.827 -0.4249  0.1193 -0.1647
  644MPD2    C3 9533   3.835   3.192   9.791  0.2602 -0.4224 -0.5478
  644MPD2    C4 9534   3.913   3.299   9.747 -1.3368 -0.1088  0.1958
  644MPD2    C5 9535   4.048   3.283   9.767  0.0862  0.3041  0.5697
  644MPD2     H 9536   3.818   2.986   9.845 -0.0165 -0.1611  0.1430
  644MPD2    H1 9537   3.882   3.401   9.725 -0.6693 -0.3725 -1.9886
  644MPD2    H2 9538   4.208   3.165   9.820 -0.3047 -0.3472  1.3986
  644MPD2    H3 9539   4.122   3.356   9.737  1.3491 -1.0931  0.2504
  644MPD2     N 9540   3.692   3.209   9.788  0.6031 -0.3150  0.0380
  644MPD2    H5 9541   3.636   3.124   9.782 -1.2860  0.9893 -0.9930
  644MPD2    N1 9542   4.088   2.935   9.877 -0.3502 -0.1719 -0.2287
  644MPD2    H7 9543   4.189   2.928   9.864 -0.6079 -2.2461 -1.0253
  645TMC3    C1 9544   3.478   3.318   9.778  0.0701 -0.6007 -0.4918
  645TMC3    C2 9545   3.413   3.430   9.827  0.5176  0.0610  0.3401
  645TMC3    C3 9546   3.269   3.426   9.826 -0.7166 -0.3925  0.6379
  645TMC3    C4 9547   3.405   3.200   9.749 -0.1419 -0.5450  0.2216
  645TMC3    C5 9548   3.267   3.205   9.749 -0.7067 -0.2388 -0.3463
  645TMC3    C6 9549   3.193   3.315   9.789  1.2833 -0.1714 -0.1750
  645TMC3     C 9550   3.620   3.328   9.769  0.7327  0.4239 -0.3508
  645TMC3     O 9551   3.662   3.440   9.761  0.3127  0.7319  0.1012
  645TMC3     H 9552   3.474   3.511   9.864  0.7930 -1.1976  2.5974
  645TMC3    H1 9553   3.457   3.120   9.698 -1.5512 -1.4564  0.2361
  645TMC3    H2 9554   3.085   3.317   9.790  1.2133 -4.0191  2.0409
  645TMC3    C7 9555   3.193   3.078   9.753  0.4096 -0.0064  0.3376
  645TMC3    C8 9556   3.198   3.548   9.891  0.0328  0.3778  0.0755
  645TMC3    O1 9557   3.076   3.089   9.735 -0.0553 -0.2734  0.1860
  645TMC3    O2 9558   3.077   3.534   9.905 -0.1210 -0.0886 -0.4571
  646MPD2     C 9559   2.965   2.272  14.720  0.0104 -0.1774  0.3649
  646MPD2    C1 9560   2.881   2.256  14.830  0.5695 -0.0902  0.8091
  646MPD2    C2 9561   2.750   2.297  14.816  0.4175 -0.3184  0.0111
  646MPD2    C3 9562   2.704   2.353  14.701  0.0812 -0.0734  0.1078
  646MPD2    C4 9563   2.797   2.383  14.600  0.2751  0.0253 -0.5355
  646MPD2    C5 9564   2.928   2.341  14.608  0.0266 -0.4768  0.3562
  646MPD2     H 9565   2.677   2.291  14.896 -0.4594 -0.3129 -0.7875
  646MPD2    H1 9566   2.779   2.425  14.502 -1.9145  0.4698  0.0704
  646MPD2    H2 9567   3.071   2.253  14.732 -0.5495 -2.5998  1.5640
  646MPD2    H3 9568   2.999   2.374  14.533 -1.6498  0.1920 -0.9386
  646MPD2     N 9569   2.566   2.394  14.688  0.6175  0.1760  0.0351
  646MPD2    H5 9570   2.504   2.390  14.768  0.8338 -0.6077  0.1569
  646MPD2    N1 9571   2.932   2.190  14.940 -0.1786 -0.7412  0.3623
  646MPD2    H7 9572   3.018   2.140  14.923  0.3935  0.8129 -1.2663
  647TMC3    C1 9573   2.949   2.099  15.153 -0.4773 -0.5122  0.3413
  647TMC3    C2 9574   2.876   2.057  15.257  0.4017 -0.8747 -0.4949
  647TMC3    C3 9575   2.942   2.009  15.370 -0.4350  0.8289 -0.2214
  647TMC3    C4 9576   3.090   2.101  15.157 -0.3047  0.3045  0.1382
  647TMC3    C5 9577   3.151   2.052  15.271  0.0697  0.4304  0.3365
  647TMC3    C6 9578   3.076   2.024  15.385  0.2400  0.1873 -0.0632
  647TMC3     C 9579   2.872   2.177  15.061 -0.2223  0.3384  0.1510
  647TMC3     O 9580   2.774   2.235  15.096  0.3432 -0.0869 -0.3571
  647TMC3     H 9581   2.769   2.071  15.246  0.5313 -1.0490 -1.9365
  647TMC3    H1 9582   3.142   2.152  15.076 -1.5382  0.3308 -0.6286
  647TMC3    H2 9583   3.125   1.987  15.474 -0.6078  0.2919  0.4488
  647TMC3    C7 9584   3.279   1.976  15.258 -0.5613  0.1361  0.9342
  647TMC3    C8 9585   2.904   1.880  15.419  0.0573 -0.0988 -0.4109
  647TMC3    O1 9586   3.315   1.895  15.342 -0.0145  0.3890  0.5598
  647TMC3    O2 9587   2.979   1.819  15.497 -0.2171 -0.1225 -0.0959
  648TMC3    C1 9588   2.373   4.246  16.425 -0.4889 -0.3851 -0.1499
  648TMC3    C2 9589   2.391   4.115  16.397 -0.6183  0.2742  0.0202
  648TMC3    C3 9590   2.386   4.080  16.260 -0.5051 -0.3774 -0.0941
  648TMC3    C4 9591   2.346   4.341  16.328 -0.6289  0.5320  0.0208
  648TMC3    C5 9592   2.347   4.299  16.194 -0.5527  0.2494 -0.5852
  648TMC3    C6 9593   2.365   4.165  16.158 -0.6866  0.1504  0.2470
  648TMC3     C 9594   2.354   4.280  16.563 -0.3307  0.7408 -0.0754
  648TMC3     O 9595   2.303   4.387  16.580 -0.1377 -0.2628  0.5347
  648TMC3     H 9596   2.438   4.041  16.461 -1.2590 -0.2256 -0.0909
  648TMC3    H1 9597   2.335   4.446  16.354  1.3239  0.8966 -0.6442
  648TMC3    H2 9598   2.337   4.131  16.059  0.3688  0.5213 -0.1842
  648TMC3    C7 9599   2.329   4.405  16.094 -0.0436 -1.1864 -0.3339
  648TMC3    C8 9600   2.440   3.951  16.215  0.3477 -0.2462 -0.0663
  648TMC3    O1 9601   2.400   4.396  15.999 -0.4502 -0.4280 -0.8101
  648TMC3    O2 9602   2.389   3.849  16.256 -0.2992  0.1503  0.0193
  649TMC3    C1 9603   0.749   0.835  12.941  0.2019 -0.3159 -0.4793
  649TMC3    C2 9604   0.869   0.847  12.881  0.8593  0.6853  0.1928
  649TMC3    C3 9605   0.972   0.798  12.943  0.4795 -0.6380  0.3152
  649TMC3    C4 9606   0.729   0.769  13.056 -0.0875 -0.1440  0.2468
  649TMC3    C5 9607   0.836   0.705  13.108 -0.3569 -0.0141  0.1940
  649TMC3    C6 9608   0.956   0.718  13.052 -0.0594  0.2803  0.1156
  649TMC3     C 9609   0.627   0.864  12.867  0.2877  0.8979 -0.2895
  649TMC3     O 9610   0.533   0.895  12.944 -0.2075 -0.2591 -0.6532
  649TMC3     H 9611   0.875   0.917  12.798 -0.9669  1.1821  0.4737
  649TMC3    H1 9612   0.628   0.753  13.094  0.0031 -2.7552 -0.6091
  649TMC3    H2 9613   1.039   0.659  13.088 -1.7838 -0.4877  2.8328
  649TMC3    C7 9614   0.824   0.633  13.228 -0.0109 -0.2097 -0.3857
  649TMC3    C8 9615   1.107   0.805  12.898  0.3459  0.4075 -0.2693
  649TMC3    O1 9616   0.709   0.594  13.254 -0.2484  0.8202 -0.1949
  649TMC3    O2 9617   1.186   0.793  12.993 -0.0324  0.0268  0.6610
  650TMC3    C1 9618   3.691   2.700  12.732  0.0832 -0.4391 -0.2157
  650TMC3    C2 9619   3.662   2.827  12.771  0.5266  0.4696  0.3280
  650TMC3    C3 9620   3.541   2.877  12.742 -0.2921 -0.3387  0.8176
  650TMC3    C4 9621   3.601   2.630  12.658  0.6289 -0.3054  0.2545
  650TMC3    C5 9622   3.484   2.695  12.615 -0.7951  0.5774 -0.0162
  650TMC3    C6 9623   3.447   2.820  12.660 -0.2742 -0.0170  0.0378
  650TMC3     C 9624   3.826   2.657  12.761  0.1615  0.1323 -0.3028
  650TMC3     O 9625   3.919   2.737  12.774  0.1970  0.5442  0.1899
  650TMC3     H 9626   3.737   2.873  12.834 -0.0302  0.9821  0.6175
  650TMC3    H1 9627   3.629   2.535  12.615 -1.6794 -0.7636 -0.2447
  650TMC3    H2 9628   3.345   2.857  12.648 -0.0526  0.7266  0.5310
  650TMC3    C7 9629   3.387   2.617  12.545  0.0217  0.2708 -0.0123
  650TMC3    C8 9630   3.536   3.021  12.766  0.3551 -0.0882 -0.2498
  650TMC3    O1 9631   3.394   2.497  12.559  0.2132  0.0280 -0.7837
  650TMC3    O2 9632   3.599   3.069  12.863 -0.0051  0.3259 -0.2125
  651MPD2     C 9633   2.605   4.349  10.864  0.3990 -0.6223  0.5734
  651MPD2    C1 9634   2.622   4.482  10.858 -0.5908  0.5458  0.4897
  651MPD2    C2 9635   2.743   4.531  10.893 -0.1212 -0.3653 -0.2571
  651MPD2    C3 9636   2.854   4.448  10.921  0.0242 -0.8882  0.2693
  651MPD2    C4 9637   2.828   4.317  10.937  0.0074 -0.8415 -0.3282
  651MPD2    C5 9638   2.703   4.266  10.908  0.9831  0.2033  1.0263
  651MPD2     H 9639   2.767   4.636  10.881 -0.5172 -0.4890 -2.1021
  651MPD2    H1 9640   2.896   4.241  10.972 -0.3826 -0.7878  0.5437
  651MPD2    H2 9641   2.512   4.301  10.834  0.9918 -0.2556 -1.8397
  651MPD2    H3 9642   2.685   4.159  10.913  1.1378  0.0334 -1.7044
  651MPD2     N 9643   2.979   4.505  10.936 -0.1823  0.1350 -0.0744
  651MPD2    H5 9644   2.988   4.605  10.920 -2.3949  0.6525  1.9416
  651MPD2    N1 9645   2.518   4.572  10.821  0.1344 -0.0689 -0.3985
  651MPD2    H7 9646   2.536   4.671  10.835 -1.1113  0.3803 -2.0214
  652TMC3    C1 9647   3.379   4.656  10.971  0.0286  0.8132  0.1070
  652TMC3    C2 9648   3.316   4.531  10.979 -0.0876  0.5631 -0.3351
  652TMC3    C3 9649   3.205   4.516  10.905 -0.2303 -0.1714  0.4995
  652TMC3    C4 9650   3.337   0.037  10.896  0.4655 -0.7079 -0.8149
  652TMC3    C5 9651   3.225   0.014  10.826 -0.3020 -0.4492  0.0564
  652TMC3    C6 9652   3.165   4.619  10.820  0.8643  0.1590 -0.0154
  652TMC3     C 9653   3.500   4.682  11.057  0.6379 -0.3280  0.2017
  652TMC3     O 9654   3.506   4.632  11.169 -0.1204  0.1980  0.4490
  652TMC3     H 9655   3.350   4.455  11.049  1.2259  3.0173  1.6759
  652TMC3    H1 9656   3.380   0.137  10.904 -0.3349 -0.6012  2.1626
  652TMC3    H2 9657   3.083   4.602  10.752  0.1218 -1.0230  1.1798
  652TMC3    C7 9658   3.158   0.118  10.743  0.4915  0.0381  0.3152
  652TMC3    C8 9659   3.097   4.440  10.959 -0.3771  0.4746  0.6771
  652TMC3    O1 9660   3.065   0.091  10.667 -0.7531 -0.2989 -0.1504
  652TMC3    O2 9661   3.125   4.337  11.020  0.1544 -0.0701 -0.5083
  653MPD2     C 9662   1.732   4.325   0.394 -0.5823  0.2543 -0.3570
  653MPD2    C1 9663   1.679   4.443   0.350  0.2367  0.6913 -0.1113
  653MPD2    C2 9664   1.595   4.442   0.240 -0.0146  0.1519 -0.7427
  653MPD2    C3 9665   1.554   4.323   0.182  0.6453 -0.3375 -0.2702
  653MPD2    C4 9666   1.600   4.205   0.241  0.2846 -0.3868  0.0097
  653MPD2    C5 9667   1.691   4.205   0.339 -0.1316 -0.8434 -0.2225
  653MPD2     H 9668   1.566   4.533   0.189  0.0355  0.3066 -0.4949
  653MPD2    H1 9669   1.590   4.103   0.206 -2.4425  0.4102 -1.5737
  653MPD2    H2 9670   1.816   4.321   0.463 -0.8946 -0.1348 -0.0006
  653MPD2    H3 9671   1.724   4.108   0.374 -1.1776 -0.9593  0.4641
  653MPD2     N 9672   1.470   4.317   0.068 -0.0262 -0.1524 -0.5382
  653MPD2    H5 9673   1.448   4.406   0.023 -2.7792  0.0943  1.3094
  653MPD2    N1 9674   1.718   4.573   0.402 -0.3690  0.6576  0.5094
  653MPD2    H7 9675   1.702   4.663   0.357 -2.6796 -0.8866 -1.7210
  654TMC3    C1 9676   1.379   4.240  17.573  0.0511 -0.4230  0.6732
  654TMC3    C2 9677   1.337   4.363  17.545 -0.0677 -0.2603 -0.5798
  654TMC3    C3 9678   1.263   4.374  17.430  0.0754  1.0607  0.5516
  654TMC3    C4 9679   1.360   4.138  17.481 -0.3752 -0.6152 -0.9049
  654TMC3    C5 9680   1.303   4.160  17.361  0.0157  0.0785  0.5894
  654TMC3    C6 9681   1.235   4.279  17.337 -0.4882  0.7776 -0.4109
  654TMC3     C 9682   1.441   4.206  17.698  0.5361 -0.5181  0.1428
  654TMC3     O 9683   1.456   4.086   0.025  1.1231  0.0687 -0.2575
  654TMC3     H 9684   1.338   4.439  17.622  0.4643 -2.1530  1.3011
  654TMC3    H1 9685   1.395   4.039  17.510 -1.7819 -0.2544  2.0418
  654TMC3    H2 9686   1.170   4.292  17.251  0.2993  1.4925 -0.8969
  654TMC3    C7 9687   1.271   4.053  17.268 -0.1386  0.6673  0.3714
  654TMC3    C8 9688   1.174   4.484  17.418 -0.0513  0.5482 -0.5373
  654TMC3    O1 9689   1.203   4.085  17.176  0.0484  0.5550 -0.3625
  654TMC3    O2 9690   1.089   4.479  17.333 -0.1046  0.0746  0.1085
  655MPD2     C 9691   2.806   4.609  15.818 -0.5724  0.6443 -0.0575
  655MPD2    C1 9692   2.705   4.674  15.753  0.0043  0.4924 -0.2036
  655MPD2    C2 9693   2.663   4.635  15.629  1.2142 -0.2604 -0.5507
  655MPD2    C3 9694   2.715   4.525  15.561  0.4850  0.1898  0.4503
  655MPD2    C4 9695   2.824   4.470  15.625  0.1024  0.3130 -0.5511
  655MPD2    C5 9696   2.865   4.503  15.751  0.0040 -0.4724 -0.2014
  655MPD2     H 9697   2.588   4.700  15.584  2.2698  0.9538 -0.5802
  655MPD2    H1 9698   2.879   4.386  15.582  1.8541  1.6929 -1.0082
  655MPD2    H2 9699   2.837   4.634  15.919  1.9939 -1.6175 -0.2980
  655MPD2    H3 9700   2.943   4.450  15.805 -0.5438  0.2689  1.3311
  655MPD2     N 9701   2.677   4.475  15.432  0.0449  0.2487 -0.2724
  655MPD2    H5 9702   2.722   4.387  15.409 -2.5853 -1.2266  0.1663
  655MPD2    N1 9703   2.639   0.063  15.810 -0.0161  0.3087 -0.4938
  655MPD2    H7 9704   2.580   0.119  15.750 -0.2010 -0.0999 -0.6988
  656TMC3    C1 9705   2.569   0.211  15.982 -0.1388 -0.5600 -0.3166
  656TMC3    C2 9706   2.521   0.214  16.109 -0.4282 -0.3821  0.3243
  656TMC3    C3 9707   2.442   0.318  16.136  0.0885  0.2301 -0.4349
  656TMC3    C4 9708   2.547   0.313  15.890 -0.8216 -0.4015 -0.0507
  656TMC3    C5 9709   2.462   0.412  15.918 -0.2461 -0.5181 -0.2607
  656TMC3    C6 9710   2.408   0.418  16.041 -0.2132 -0.2929  0.2908
  656TMC3     C 9711   2.641   0.089  15.945  0.2925 -0.3266 -0.1630
  656TMC3     O 9712   2.666   0.014  16.038  0.4276  0.2889 -0.4471
  656TMC3     H 9713   2.546   0.142  16.186  1.3825  0.2518  0.3290
  656TMC3    H1 9714   2.582   0.305  15.788  2.2431 -0.2191  0.9903
  656TMC3    H2 9715   2.329   0.487  16.064 -0.4206 -0.8647  1.2950
  656TMC3    C7 9716   2.402   0.467  15.805 -0.2730  0.2672  0.3526
  656TMC3    C8 9717   2.371   0.329  16.259  0.4986 -0.3446 -0.3964
  656TMC3    O1 9718   2.468   0.484  15.702  0.2647  1.1107  0.1094
  656TMC3    O2 9719   2.333   0.444  16.288 -0.0376  0.1962 -0.0563
  657TMC3    C1 9720   1.774   3.899  15.325  0.4874 -0.4279  0.3839
  657TMC3    C2 9721   1.836   3.903  15.448 -0.0775  0.0692 -0.3135
  657TMC3    C3 9722   1.807   4.001  15.546  0.4021 -0.1239 -0.2101
  657TMC3    C4 9723   1.670   3.985  15.293 -0.7908  0.4148  0.1753
  657TMC3    C5 9724   1.647   4.085  15.384 -0.5665  0.2036  0.3081
  657TMC3    C6 9725   1.714   4.098  15.506  0.2955 -0.1143 -0.1430
  657TMC3     C 9726   1.862   3.871  15.214 -0.6042 -0.4658 -0.2903
  657TMC3     O 9727   1.813   3.879  15.098  0.1134 -0.0776 -0.1123
  657TMC3     H 9728   1.896   3.818  15.477  2.3342  1.3795 -1.4793
  657TMC3    H1 9729   1.611   3.985  15.202  1.0528 -1.4999 -1.0549
  657TMC3    H2 9730   1.702   4.190  15.563 -0.5924 -0.0234 -0.4684
  657TMC3    C7 9731   1.515   4.146  15.384 -0.1372 -0.7835  0.5969
  657TMC3    C8 9732   1.921   4.043  15.618 -0.1976  0.3895 -0.2581
  657TMC3    O1 9733   1.516   4.259  15.437  0.4466 -0.3855  0.4926
  657TMC3    O2 9734   1.941   4.166  15.617  0.1177  0.8859  0.1211
  658MPD2     C 9735   3.102   4.437  14.939  0.8130 -0.7869 -0.1633
  658MPD2    C1 9736   2.977   4.475  14.893  0.2596  0.2617  0.0776
  658MPD2    C2 9737   2.970   4.553  14.781  0.8400  1.4721  0.0657
  658MPD2    C3 9738   3.088   4.596  14.719 -0.0356 -0.1171 -0.5080
  658MPD2    C4 9739   3.213   4.564  14.774  0.1423 -0.0478 -0.2621
  658MPD2    C5 9740   3.214   4.482  14.881 -0.5943 -0.8460  0.9340
  658MPD2     H 9741   2.870   4.579  14.748  0.9062 -0.0487 -1.3567
  658MPD2    H1 9742   3.300   4.598  14.718 -0.7874  2.1329 -0.3903
  658MPD2    H2 9743   3.108   4.375  15.027  0.4038  0.8594  1.0376
  658MPD2    H3 9744   3.309   4.439  14.912  0.1445 -0.3758 -0.6729
  658MPD2     N 9745   3.062   4.683  14.610  0.0788 -0.6763  0.0623
  658MPD2    H5 9746   2.964   4.700  14.590 -0.4932 -2.0152  1.7193
  658MPD2    N1 9747   2.865   4.422  14.958 -0.0187 -0.4865  0.3201
  658MPD2    H7 9748   2.882   4.368  15.042  1.8556 -1.0962 -0.4491
  659TMC3    C1 9749   2.636   4.376  15.017 -0.0500 -0.1135 -0.1060
  659TMC3    C2 9750   2.660   4.415  15.149 -0.4695 -0.2941  0.2035
  659TMC3    C3 9751   2.549   4.466  15.223 -0.1613  0.5729 -0.6643
  659TMC3    C4 9752   2.512   4.367  14.964 -0.4144 -0.0313 -0.6518
  659TMC3    C5 9753   2.404   4.419  15.040  0.2681  0.0895  0.1705
  659TMC3    C6 9754   2.427   4.475  15.163  0.0987  0.6303  0.1185
  659TMC3     C 9755   2.732   4.422  14.920 -0.1821 -0.4098  0.0128
  659TMC3     O 9756   2.685   4.468  14.820  0.2118 -0.0222  0.0910
  659TMC3     H 9757   2.759   4.441  15.184 -0.6754  1.6625 -0.6599
  659TMC3    H1 9758   2.503   4.350  14.857 -1.1179  0.4767 -0.6738
  659TMC3    H2 9759   2.344   4.506  15.225 -0.2168 -1.4733  0.7526
  659TMC3    C7 9760   2.268   4.378  15.013 -0.3948  0.1037  0.0007
  659TMC3    C8 9761   2.579   4.528  15.346 -0.2355  0.0768  0.7355
  659TMC3    O1 9762   2.182   4.430  15.084  0.7012 -0.1718  0.6712
  659TMC3    O2 9763   2.493   4.605  15.385 -0.4405 -0.3338  0.0727
  660MPD2     C 9764   0.939   3.698  13.045  0.0651  0.0076  1.0014
  660MPD2    C1 9765   0.878   3.610  12.954 -0.5517  0.0177 -0.3493
  660MPD2    C2 9766   0.825   3.487  12.994  0.0521 -0.1394  0.1578
  660MPD2    C3 9767   0.853   3.436  13.119 -0.3618 -0.6128 -0.1700
  660MPD2    C4 9768   0.904   3.522  13.208 -0.4402  0.5730 -0.2484
  660MPD2    C5 9769   0.935   3.657  13.173  0.6000 -0.8570 -0.4844
  660MPD2     H 9770   0.775   3.426  12.919 -0.4527  0.8409 -0.2946
  660MPD2    H1 9771   0.902   3.496  13.314  2.6797 -0.6061 -0.4611
  660MPD2    H2 9772   0.980   3.796  13.025  1.4505 -0.6427  0.7043
  660MPD2    H3 9773   0.979   3.720  13.249 -1.7711 -1.7160  1.5731
  660MPD2     N 9774   0.802   3.313  13.158  0.0938 -0.3187  0.0765
  660MPD2    H5 9775   0.735   3.260  13.103 -0.9634  0.3045  0.7651
  660MPD2    N1 9776   0.864   3.657  12.825 -0.6713  0.5474 -0.0332
  660MPD2    H7 9777   0.885   3.755  12.813  0.3534  0.5783  1.9437
  661TMC3    C1 9778   0.844   3.647  12.602 -0.1508 -0.6614 -0.0192
  661TMC3    C2 9779   0.936   3.592  12.510  0.2497  0.4116  0.3469
  661TMC3    C3 9780   0.925   3.645  12.386  0.2235 -0.1953 -0.3883
  661TMC3    C4 9781   0.742   3.733  12.566  0.4233  0.6369 -0.6617
  661TMC3    C5 9782   0.725   3.756  12.435  0.0726 -0.2517 -0.3879
  661TMC3    C6 9783   0.813   3.714  12.340 -0.3603  0.7956  0.1301
  661TMC3     C 9784   0.840   3.576  12.719  0.1536 -0.1893  0.3106
  661TMC3     O 9785   0.829   3.454  12.704 -0.4173 -0.4997  0.3611
  661TMC3     H 9786   1.017   3.534  12.553  0.1721 -0.8784 -1.2500
  661TMC3    H1 9787   0.674   3.777  12.638 -0.8023 -2.5534  0.1403
  661TMC3    H2 9788   0.826   3.759  12.242 -0.8163 -2.4176 -1.4138
  661TMC3    C7 9789   0.595   3.801  12.395  0.3163  0.6010 -0.1953
  661TMC3    C8 9790   1.051   3.656  12.313  0.3901 -0.1901 -0.8811
  661TMC3    O1 9791   0.554   3.898  12.458  0.3938  0.0749  0.4577
  661TMC3    O2 9792   1.040   3.701  12.202  0.4792  0.0127 -0.4024
  662MPD2     C 9793   1.576   2.469   0.092 -0.9605  1.0808  0.8006
  662MPD2    C1 9794   1.447   2.427   0.054  0.2194  0.1729  0.3176
  662MPD2    C2 9795   1.352   2.531   0.025 -0.6955  0.7717 -0.3897
  662MPD2    C3 9796   1.375   2.656   0.034 -0.8731  0.7644  0.4725
  662MPD2    C4 9797   1.498   2.704   0.076  0.5992  0.3061 -0.6325
  662MPD2    C5 9798   1.599   2.604   0.107  0.1703 -0.3470  0.2711
  662MPD2     H 9799   1.249   2.507   0.002 -0.8302  1.2636 -0.2785
  662MPD2    H1 9800   1.520   2.809   0.090  1.7239 -0.0337  0.1606
  662MPD2    H2 9801   1.657   2.399   0.106 -0.6428  0.5221 -3.8553
  662MPD2    H3 9802   1.701   2.637   0.122 -0.1481  1.0110 -0.5775
  662MPD2     N 9803   1.270   2.749   0.006  0.0797  0.2885  0.1817
  662MPD2    H5 9804   1.189   2.707  17.662  0.0508 -0.5245  0.9866
  662MPD2    N1 9805   1.407   2.295   0.029  0.4765  0.1803  0.1798
  662MPD2    H7 9806   1.308   2.275   0.022  0.7785 -1.1674 -0.2782
  663TMC3    C1 9807   1.413   2.066   0.054 -1.0291  0.4100 -0.5356
  663TMC3    C2 9808   1.276   2.058   0.022  0.2772 -0.2147  0.3787
  663TMC3    C3 9809   1.215   1.937   0.010 -0.7227  0.2238 -0.3221
  663TMC3    C4 9810   1.489   1.963   0.091 -0.5889  0.2924 -0.1531
  663TMC3    C5 9811   1.426   1.846   0.075 -0.1078 -0.3855 -0.7159
  663TMC3    C6 9812   1.299   1.827   0.034  0.0628 -0.2280 -0.7394
  663TMC3     C 9813   1.486   2.187   0.032  0.0397  0.7506 -0.0204
  663TMC3     O 9814   1.604   2.179   0.014 -0.0850  0.3643  0.2999
  663TMC3     H 9815   1.236   2.141  17.665 -2.7073 -1.2546  0.9861
  663TMC3    H1 9816   1.592   1.980   0.120 -0.4600  1.0515 -1.0346
  663TMC3    H2 9817   1.260   1.732   0.068 -1.0868  0.4001 -0.3032
  663TMC3    C7 9818   1.513   1.735   0.067 -0.4125 -0.3236  0.7858
  663TMC3    C8 9819   1.087   1.933   0.081 -0.1120  0.5863  1.0132
  663TMC3    O1 9820   1.615   1.733   0.133 -0.1127 -0.1661  0.7150
  663TMC3    O2 9821   1.057   1.828   0.129  0.2546  0.1506 -0.2184
  664MPD2     C 9822   3.944   1.032  17.643 -0.0437 -0.4219 -0.2696
  664MPD2    C1 9823   4.071   1.082  17.651  0.2799  0.0770  0.3112
  664MPD2    C2 9824   4.112   1.134   0.074 -0.9085  0.2829 -0.9586
  664MPD2    C3 9825   4.034   1.127   0.185  0.0336 -0.6022  0.4977
  664MPD2    C4 9826   3.917   1.062   0.180 -0.5279  0.0666 -0.2500
  664MPD2    C5 9827   3.869   1.022   0.057  0.4812 -0.8722  0.4622
  664MPD2     H 9828   4.205   1.189   0.080 -0.0803 -1.1117 -1.0775
  664MPD2    H1 9829   3.846   1.045   0.260 -0.1729  2.5291  0.5685
  664MPD2    H2 9830   3.898   0.995  17.552  0.4048  1.8586 -1.4356
  664MPD2    H3 9831   3.773   0.971   0.048 -0.3206  1.4973 -4.7952
  664MPD2     N 9832   4.085   1.182   0.308 -0.5722 -0.2158 -0.9046
  664MPD2    H5 9833   4.184   1.203   0.309 -0.2094 -1.8393 -1.8996
  664MPD2    N1 9834   4.162   1.100  17.536 -0.2314 -0.2689 -0.4125
  664MPD2    H7 9835   4.249   1.150  17.550 -0.4813 -0.2127  0.9724
  665TMC3    C1 9836   4.081   1.263   0.541  0.2006 -0.5897 -0.6933
  665TMC3    C2 9837   4.037   1.219   0.663 -1.4816 -0.6028 -0.1949
  665TMC3    C3 9838   4.130   1.230   0.770 -0.0423  0.3060 -0.0017
  665TMC3    C4 9839   4.206   1.318   0.521 -0.2431 -0.2447 -0.0044
  665TMC3    C5 9840   4.288   1.338   0.629 -0.5122  0.5543 -0.3358
  665TMC3    C6 9841   4.248   1.298   0.753  0.4946 -0.0075 -0.0249
  665TMC3     C 9842   4.011   1.201   0.424 -0.2068  0.9010 -0.3477
  665TMC3     O 9843   3.901   1.161   0.455  0.6837 -0.2423 -0.0719
  665TMC3     H 9844   3.945   1.166   0.682 -1.1859 -0.9766  0.1780
  665TMC3    H1 9845   4.221   1.363   0.424  0.0456  0.4271  0.3525
  665TMC3    H2 9846   4.319   1.306   0.834 -1.6327  1.2368  1.7016
  665TMC3    C7 9847   4.378   1.453   0.608 -0.0647 -0.1344 -1.1544
  665TMC3    C8 9848   4.077   1.196   0.902 -0.3434  0.9646 -1.0627
  665TMC3    O1 9849   4.391   1.495   0.494  0.1633 -0.0860  0.5415
  665TMC3    O2 9850   4.149   1.204   1.002  0.3995 -0.1621 -0.2351
  666TMC3    C1 9851   3.284   1.273   9.900 -0.1243 -0.1037  0.5733
  666TMC3    C2 9852   3.371   1.204   9.981  0.0726  0.2518 -0.2425
  666TMC3    C3 9853   3.459   1.287  10.048 -0.1985 -0.0489 -0.2451
  666TMC3    C4 9854   3.286   1.407   9.881 -0.5376 -0.0113  0.8078
  666TMC3    C5 9855   3.370   1.488   9.950 -0.6273 -0.4993  0.4897
  666TMC3    C6 9856   3.449   1.425  10.039  0.0302  0.2590 -0.1506
  666TMC3     C 9857   3.204   1.205   9.807  0.2083  0.3809 -0.1615
  666TMC3     O 9858   3.153   1.279   9.724  0.2304  0.2845 -0.1884
  666TMC3     H 9859   3.366   1.096   9.994 -1.8849  0.1675 -1.7654
  666TMC3    H1 9860   3.213   1.458   9.819  1.4853  0.0738 -1.5153
  666TMC3    H2 9861   3.498   1.488  10.112 -0.9271 -0.5183  1.1647
  666TMC3    C7 9862   3.328   1.626   9.979 -0.5918 -0.0938  0.2267
  666TMC3    C8 9863   3.543   1.218  10.145 -0.0119  0.1727  0.1624
  666TMC3    O1 9864   3.325   1.671  10.092  0.8042  0.1660 -0.3074
  666TMC3    O2 9865   3.519   1.101  10.174  0.0628  0.7347  0.2352
  667MPD2     C 9866   4.327   0.945  14.934 -0.3214 -0.0808 -0.0996
  667MPD2    C1 9867   4.212   0.956  15.014 -0.2148  0.3397 -0.6490
  667MPD2    C2 9868   4.094   0.908  14.960  0.1570 -0.0950  0.2165
  667MPD2    C3 9869   4.082   0.859  14.833  0.0026  0.2983  0.3608
  667MPD2    C4 9870   4.190   0.859  14.752  0.1716 -0.4626  0.6154
  667MPD2    C5 9871   4.315   0.894  14.806 -0.8807  0.1963  0.3450
  667MPD2     H 9872   3.997   0.934  15.000 -0.0939 -1.2084  0.3162
  667MPD2    H1 9873   4.187   0.831  14.648  0.5998 -1.7247  0.9404
  667MPD2    H2 9874   4.425   0.980  14.964 -0.9643  0.7113  1.0582
  667MPD2    H3 9875   4.402   0.890  14.741 -0.1303  0.0478  1.3610
  667MPD2     N 9876   3.953   0.821  14.786  0.7026  0.1351 -0.0435
  667MPD2    H5 9877   3.877   0.816  14.854 -0.3922  0.5714 -1.2193
  667MPD2    N1 9878   4.215   1.011  15.141  0.5956  0.1946  0.2407
  667MPD2    H7 9879   4.131   1.015  15.198  2.2857  0.3207  2.7244
  668TMC3    C1 9880   4.310   1.100  15.339  0.1306  0.6628 -0.3227
  668TMC3    C2 9881   4.404   1.180  15.390  0.0710  0.4898  0.5011
  668TMC3    C3 9882   4.399   1.213  15.519  0.7663  0.4418  0.6205
  668TMC3    C4 9883   4.199   1.057  15.413 -0.0427  1.0520  0.2013
  668TMC3    C5 9884   4.201   1.092  15.548  0.0934  0.6967 -0.2461
  668TMC3    C6 9885   4.297   1.172  15.602 -0.5666 -0.6325  0.3199
  668TMC3     C 9886   4.327   1.068  15.199  0.0067 -0.5320 -0.5493
  668TMC3     O 9887   4.431   1.103  15.151  0.4972 -0.1621  0.3680
  668TMC3     H 9888   4.500   1.199  15.344 -0.5178  0.2578 -0.8188
  668TMC3    H1 9889   4.119   0.998  15.369  0.9097 -0.3394  0.3159
  668TMC3    H2 9890   4.287   1.193  15.707 -1.9998  1.2749 -0.1950
  668TMC3    C7 9891   4.089   1.053  15.632  0.6618  0.3641 -0.3253
  668TMC3    C8 9892   4.495   1.318  15.577  0.0031  0.3969 -0.1502
  668TMC3    O1 9893   4.093   1.087  15.749  0.3181 -0.7412 -0.3100
  668TMC3    O2 9894   4.506   1.329  15.699 -0.3200  0.3871 -0.8458
  669TMC3    C1 9895   2.678   1.075  15.052 -0.0988  0.0177 -0.7190
  669TMC3    C2 9896   2.600   1.089  14.941 -0.4160 -0.4220 -0.2341
  669TMC3    C3 9897   2.638   1.180  14.847  0.0912 -0.2053 -0.3427
  669TMC3    C4 9898   2.809   1.126  15.053  0.3409  0.2991 -0.6036
  669TMC3    C5 9899   2.841   1.213  14.953 -0.2433  0.2380  0.4039
  669TMC3    C6 9900   2.750   1.258  14.856 -0.2796 -0.5612  0.3185
  669TMC3     C 9901   2.637   1.004  15.168 -0.5062 -0.0054  0.3094
  669TMC3     O 9902   2.533   1.036  15.218 -0.4206  0.1467 -0.4841
  669TMC3     H 9903   2.506   1.037  14.933 -1.4540  1.0890  2.1001
  669TMC3    H1 9904   2.878   1.103  15.134  1.7288  1.3876 -1.4802
  669TMC3    H2 9905   2.772   1.333  14.782  0.8878 -0.6247  0.5995
  669TMC3    C7 9906   2.951   1.298  14.963  0.1022  0.5149 -0.0019
  669TMC3    C8 9907   2.573   1.168  14.723  0.1060  0.1237  0.0456
  669TMC3    O1 9908   2.947   1.395  14.887  0.1443 -0.1469  0.0721
  669TMC3    O2 9909   2.466   1.113  14.706  0.3455  0.6281  0.3938
  670MPD2     C 9910   0.811   3.917  13.463  0.4560  0.4336 -0.1168
  670MPD2    C1 9911   0.869   3.984  13.570 -0.5762 -0.0898 -0.1645
  670MPD2    C2 9912   0.815   3.983  13.691  0.1596  0.1991  0.2186
  670MPD2    C3 9913   0.704   3.907  13.709  0.0523 -0.2612  0.3103
  670MPD2    C4 9914   0.654   3.830  13.610  0.5585 -0.3741 -0.8314
  670MPD2    C5 9915   0.709   3.827  13.481 -0.2516  0.3795  0.0698
  670MPD2     H 9916   0.855   4.050  13.767 -0.8399 -0.2547  1.1358
  670MPD2    H1 9917   0.571   3.761  13.619  0.4363 -0.7891 -5.2863
  670MPD2    H2 9918   0.855   3.926  13.364  2.7812  1.7288  1.0212
  670MPD2    H3 9919   0.655   3.775  13.403  1.1896 -1.2730  0.1672
  670MPD2     N 9920   0.660   3.905  13.844  0.0765 -0.0468  0.4108
  670MPD2    H5 9921   0.715   3.955  13.913  2.1950 -0.2475 -1.1485
  670MPD2    N1 9922   0.977   4.066  13.551  0.0199 -0.4021  0.1502
  670MPD2    H7 9923   1.005   4.121  13.632  0.0591  1.8913 -1.4327
  671TMC3    C1 9924   0.581   3.804  14.034  0.0403  0.1127 -0.0824
  671TMC3    C2 9925   0.695   3.831  14.097  1.0648  0.4596  0.1804
  671TMC3    C3 9926   0.701   3.793  14.226  0.1624  1.1230 -0.0668
  671TMC3    C4 9927   0.471   3.764  14.099 -0.2284  1.1120  0.2340
  671TMC3    C5 9928   0.483   3.719  14.226 -0.5173  0.7993  0.2448
  671TMC3    C6 9929   0.595   3.737  14.298  0.7099  0.3834 -0.8073
  671TMC3     C 9930   0.560   3.830  13.894 -0.2393 -0.0646  0.4181
  671TMC3     O 9931   0.468   3.782  13.827  0.1924 -0.3161 -0.1759
  671TMC3     H 9932   0.787   3.839  14.040  0.2125  2.5685 -0.8964
  671TMC3    H1 9933   0.380   3.751  14.042 -0.0399  0.6462  0.0367
  671TMC3    H2 9934   0.592   3.718  14.404  2.1294 -0.2702 -0.8895
  671TMC3    C7 9935   0.458   3.576  14.229  0.4772  0.6322 -0.4344
  671TMC3    C8 9936   0.831   3.747  14.254 -0.4932  0.1572 -0.0940
  671TMC3    O1 9937   0.354   3.542  14.172 -0.3493 -0.0560 -0.8521
  671TMC3    O2 9938   0.880   3.676  14.165  0.0552 -0.0294  0.7329
  672MPD2     C 9939   1.476   3.758   1.367  0.3552  0.1352 -0.8705
  672MPD2    C1 9940   1.607   3.789   1.325  0.0767 -0.9007 -0.1834
  672MPD2    C2 9941   1.704   3.815   1.428 -0.5116 -0.4598  0.0620
  672MPD2    C3 9942   1.663   3.822   1.565  0.2135 -0.4273  0.0247
  672MPD2    C4 9943   1.533   3.802   1.594 -0.4510 -0.3580  0.2306
  672MPD2    C5 9944   1.439   3.770   1.496  0.0488 -0.5545 -0.5290
  672MPD2     H 9945   1.802   3.837   1.389 -0.5985  1.5231  0.9454
  672MPD2    H1 9946   1.497   3.815   1.695 -0.5978 -1.1507  0.2806
  672MPD2    H2 9947   1.390   3.727   1.309 -0.4788 -1.9602  1.5038
  672MPD2    H3 9948   1.338   3.747   1.526 -0.0901 -1.2380 -1.5109
  672MPD2     N 9949   1.752   3.856   1.667  0.1336 -0.4234 -0.1962
  672MPD2    H5 9950   1.710   3.893   1.751  0.1893 -0.3117 -0.2183
  672MPD2    N1 9951   1.638   3.780   1.184 -0.0312 -0.8739  0.0984
  672MPD2    H7 9952   1.733   3.766   1.151 -1.1480  1.9613 -4.3656
  673TMC3    C1 9953   1.600   3.783   0.960 -0.0267 -0.5069  0.0276
  673TMC3    C2 9954   1.707   3.694   0.943  0.0813  0.5625 -0.1167
  673TMC3    C3 9955   1.739   3.670   0.810 -0.5613 -0.0321 -0.7440
  673TMC3    C4 9956   1.538   3.844   0.853 -0.3576 -0.5866  0.1678
  673TMC3    C5 9957   1.571   3.804   0.726 -0.4320  0.1537  0.5868
  673TMC3    C6 9958   1.681   3.730   0.701  0.5465 -0.4712 -0.0766
  673TMC3     C 9959   1.547   3.805   1.087 -0.8408 -0.4410 -0.2652
  673TMC3     O 9960   1.433   3.841   1.096 -0.5799 -0.2233  0.2504
  673TMC3     H 9961   1.760   3.644   1.023 -0.0487 -1.4884 -1.3267
  673TMC3    H1 9962   1.459   3.915   0.872  1.6495  1.2272  1.7044
  673TMC3    H2 9963   1.717   3.718   0.599 -0.4388  1.7017 -0.6616
  673TMC3    C7 9964   1.515   3.884   0.617 -0.2948 -0.3101 -0.0257
  673TMC3    C8 9965   1.859   3.595   0.771  0.1306 -0.9976 -0.1539
  673TMC3    O1 9966   1.524   3.828   0.507  0.2974  0.3350  0.3166
  673TMC3    O2 9967   1.868   3.563   0.651  0.8277 -0.4781  0.0867
  674MPD2     C 9968   1.162   3.854   0.214 -0.2008  0.1982 -0.7978
  674MPD2    C1 9969   1.143   3.741   0.294 -0.4448 -0.0205 -0.5020
  674MPD2    C2 9970   1.018   3.695   0.318 -0.0338 -0.2503  0.6991
  674MPD2    C3 9971   0.901   3.755   0.261  0.8319 -0.3353 -0.6319
  674MPD2    C4 9972   0.918   3.865   0.187  0.3506  0.1561 -0.5062
  674MPD2    C5 9973   1.043   3.912   0.163  0.3259 -0.0229  0.0288
  674MPD2     H 9974   1.001   3.598   0.365 -3.8767  0.3915  0.6506
  674MPD2    H1 9975   0.843   3.926   0.137 -0.3280  0.1445  0.4825
  674MPD2    H2 9976   1.250   3.916   0.200 -1.0713  1.6334  0.0544
  674MPD2    H3 9977   1.052   4.010   0.117 -2.5206  1.0152  1.6254
  674MPD2     N 9978   0.787   3.677   0.269  0.1141  0.2903  0.5923
  674MPD2    H5 9979   0.799   3.587   0.315  0.7325 -0.1608 -0.4537
  674MPD2    N1 9980   1.251   3.679   0.354 -0.2164 -0.6073 -0.1633
  674MPD2    H7 9981   1.339   3.714   0.317 -0.9227 -1.0147 -2.2422
  675TMC3    C1 9982   1.382   3.546   0.504  0.3248  0.1571 -0.1658
  675TMC3    C2 9983   1.387   3.489   0.629  0.3555 -0.5227  1.0630
  675TMC3    C3 9984   1.503   3.433   0.674 -0.2687  0.2537 -0.0894
  675TMC3    C4 9985   1.487   3.531   0.409 -0.0695 -0.2930 -0.1785
  675TMC3    C5 9986   1.591   3.452   0.454 -0.2357 -0.1010  0.1416
  675TMC3    C6 9987   1.605   3.410   0.582 -0.1122 -0.0696  0.0313
  675TMC3     C 9988   1.251   3.587   0.461  0.4527 -0.0413 -0.1608
  675TMC3     O 9989   1.155   3.547   0.524 -0.0455 -0.7684 -0.6349
  675TMC3     H 9990   1.303   3.494   0.697 -2.5548 -0.9006 -2.4686
  675TMC3    H1 9991   1.491   3.579   0.312  2.0369 -0.6387 -0.2521
  675TMC3    H2 9992   1.693   3.351   0.607 -0.4171 -0.5741 -0.0871
  675TMC3    C7 9993   1.691   3.423   0.361  0.9840 -0.5671  0.3024
  675TMC3    C8 9994   1.528   3.404   0.813  0.1746  0.2203  0.4593
  675TMC3    O1 9995   1.652   3.402   0.246  0.4541  0.0386 -0.2748
  675TMC3    O2 9996   1.643   3.371   0.837 -0.1530 -0.4257 -0.1645
  676MPD2     C 9997   3.775   2.470  11.645 -0.1150 -0.7616  0.4097
  676MPD2    C1 9998   3.655   2.408  11.678  0.4978 -0.2296  0.2189
  676MPD2    C2 9999   3.611   2.303  11.605  0.1355  0.0713  0.0931
  676MPD2    C310000   3.682   2.255  11.503 -0.0032  0.2156 -0.2626
  676MPD2    C410001   3.801   2.315  11.477 -0.1168  0.2346 -0.0113
  676MPD2    C510002   3.844   2.430  11.535 -0.2242  0.3185 -0.2410
  676MPD2     H10003   3.516   2.256  11.630 -0.7335  1.9149  0.2120
  676MPD2    H110004   3.859   2.285  11.390  2.2900  1.6269  1.1112
  676MPD2    H210005   3.826   2.549  11.699  2.5533 -0.4881 -2.4574
  676MPD2    H310006   3.941   2.474  11.515 -0.9440  1.1490 -1.8444
  676MPD2     N10007   3.646   2.137  11.433 -0.3787  0.1015 -0.4976
  676MPD2    H510008   3.717   2.119  11.363  1.9671  1.5043  1.5082
  676MPD2    N110009   3.580   2.453  11.790  0.3798  0.0795  0.2423
  676MPD2    H710010   3.487   2.414  11.802  0.4382  0.7308  2.8916
  677TMC3    C110011   3.525   2.560  11.984 -0.0926 -0.0712 -0.2548
  677TMC3    C210012   3.496   2.437  12.039 -0.3453  0.2369 -0.4664
  677TMC3    C310013   3.506   2.424  12.174 -0.0202  0.6636 -0.1717
  677TMC3    C410014   3.573   2.660  12.063  0.4463 -0.4597  0.0479
  677TMC3    C510015   3.586   2.638  12.199 -0.0988 -0.5332  0.0550
  677TMC3    C610016   3.544   2.525  12.257 -0.2207 -0.1414 -0.1214
  677TMC3     C10017   3.612   2.556  11.871 -0.4723  0.1851 -0.4171
  677TMC3     O10018   3.684   2.655  11.851 -0.1782  0.2346 -0.0975
  677TMC3     H10019   3.499   2.343  11.985  2.8962  0.7916 -1.2799
  677TMC3    H110020   3.581   2.761  12.025  1.4313 -0.5129  0.1096
  677TMC3    H210021   3.568   2.511  12.362 -0.3282  1.3185  0.0978
  677TMC3    C710022   3.711   2.690  12.254 -0.6282  1.2879 -0.7738
  677TMC3    C810023   3.448   2.305  12.227  0.1079  0.5721 -0.4390
  677TMC3    O110024   3.729   2.712  12.374 -0.5693 -0.7089 -0.4041
  677TMC3    O210025   3.348   2.261  12.170 -0.2231 -0.2249  0.2346
  678MPD2     C10026   0.315   2.947   1.390  0.6785 -0.0259  0.8367
  678MPD2    C110027   0.363   2.852   1.303 -0.5728 -0.3054  0.2459
  678MPD2    C210028   0.266   2.755   1.263  0.0980 -0.0742  0.0672
  678MPD2    C310029   0.131   2.770   1.292 -0.4104  0.1258  0.0585
  678MPD2    C410030   0.088   2.872   1.373 -0.6623  0.4220 -0.0752
  678MPD2    C510031   0.179   2.963   1.418 -0.3622  0.5563 -0.1952
  678MPD2     H10032   0.303   2.682   1.193  1.4591 -0.1140  0.8337
  678MPD2    H110033   4.711   2.884   1.408 -1.5858  1.3505 -3.0766
  678MPD2    H210034   0.383   3.013   1.443  1.0564  1.2377 -1.2372
  678MPD2    H310035   0.151   3.053   1.472  4.7338  1.8896  0.2795
  678MPD2     N10036   0.031   2.667   1.254 -0.0464  0.8776 -0.1328
  678MPD2    H510037   0.061   2.613   1.174  2.6549  0.0618  1.4186
  678MPD2    N110038   0.496   2.821   1.283  0.1534  0.5319 -0.3584
  678MPD2    H710039   0.523   2.729   1.249 -1.5417 -0.5952  1.3262
  679TMC3    C110040   0.837   2.647   1.362  0.4200  0.7169  0.6727
  679TMC3    C210041   0.723   2.723   1.387  0.0636  0.0232  0.1557
  679TMC3    C310042   0.723   2.844   1.326  0.0027  0.0489 -0.1635
  679TMC3    C410043   0.932   2.677   1.267 -0.4430  0.5239 -0.1911
  679TMC3    C510044   0.913   2.795   1.199  0.5261  0.8503  0.3538
  679TMC3    C610045   0.807   2.876   1.224 -0.4134  0.0870 -0.3127
  679TMC3     C10046   0.831   2.507   1.399  0.1116 -0.2667  0.1375
  679TMC3     O10047   0.873   2.413   1.328  0.0511 -0.0997  0.1654
  679TMC3     H10048   0.650   2.712   1.466 -0.0147 -2.0685 -0.2223
  679TMC3    H110049   1.010   2.605   1.246 -1.0018  0.1063 -0.8375
  679TMC3    H210050   0.804   2.973   1.175  3.0118 -0.0555 -0.8242
  679TMC3    C710051   0.990   2.836   1.083  0.2589  0.9581 -0.0243
  679TMC3    C810052   0.593   2.907   1.315 -0.8656  0.9746 -0.5342
  679TMC3    O110053   0.935   2.923   1.016  0.3683  0.2572 -0.0799
  679TMC3    O210054   0.591   3.030   1.317  0.3120 -0.5377 -0.2689
  680MPD2     C10055   0.106   0.411  13.808  0.6110  0.0704  0.2953
  680MPD2    C110056   0.220   0.443  13.879 -0.6854 -0.5829  0.2983
  680MPD2    C210057   0.236   0.569  13.935 -0.0275  0.2642 -0.3054
  680MPD2    C310058   0.130   0.660  13.926  0.0245 -0.1960 -0.6962
  680MPD2    C410059   0.018   0.624  13.857  0.2583 -0.4255 -0.6520
  680MPD2    C510060   0.010   0.506  13.789  1.0952  0.5021 -0.1207
  680MPD2     H10061   0.322   0.591  13.998  0.0784 -0.2612 -0.2694
  680MPD2    H110062   4.658   0.692  13.855 -0.6535 -1.5548 -0.3900
  680MPD2    H210063   0.094   0.316  13.757 -0.4285  0.4149 -0.0811
  680MPD2    H310064   4.646   0.479  13.734  1.3338  0.0650 -0.2880
  680MPD2     N10065   0.132   0.794  13.983  0.1556 -0.3371  0.2532
  680MPD2    H510066   0.060   0.862  13.958 -0.0527 -0.4821  0.4620
  680MPD2    N110067   0.326   0.350  13.892  0.5316 -0.7062 -0.4173
  680MPD2    H710068   0.402   0.385  13.949 -0.1684 -1.6923  1.1096
  681TMC3    C110069   0.477   0.186  13.878  0.1542  0.2436  1.0948
  681TMC3    C210070   0.472   0.191  14.016  0.1062  0.2111  0.0052
  681TMC3    C310071   0.586   0.234  14.081  0.0595  0.9612  0.1495
  681TMC3    C410072   0.584   0.220  13.805  0.2835 -0.7216  0.2935
  681TMC3    C510073   0.699   0.243  13.877 -0.0548 -0.3383 -0.1949
  681TMC3    C610074   0.700   0.261  14.014 -0.2436  0.6253  0.3565
  681TMC3     C10075   0.354   0.235  13.824 -0.8695  0.1011 -0.0445
  681TMC3     O10076   0.303   0.189  13.721 -0.4306  0.2966  0.2447
  681TMC3     H10077   0.382   0.186  14.076  0.6377 -1.1185  0.6813
  681TMC3    H110078   0.576   0.204  13.698  2.4760 -1.1393  0.1881
  681TMC3    H210079   0.785   0.302  14.068  1.3209 -1.1206 -0.7610
  681TMC3    C710080   0.812   0.273  13.802 -1.0172  0.0144 -0.2075
  681TMC3    C810081   0.543   0.329  14.183 -0.5518  0.9176 -0.5628
  681TMC3    O110082   0.910   0.212  13.843  0.4987  0.2097  0.0346
  681TMC3    O210083   0.447   0.302  14.251 -0.6180  0.0669  0.0924
  682MPD2     C10084   2.980   2.714  10.637 -0.1395  0.3371 -0.7038
  682MPD2    C110085   2.885   2.615  10.651 -0.1968 -0.0980 -0.0915
  682MPD2    C210086   2.784   2.624  10.743  0.3715 -0.3397  1.0944
  682MPD2    C310087   2.767   2.728  10.824  0.1558 -0.1709 -0.4857
  682MPD2    C410088   2.853   2.833  10.807  0.9769  0.1255  0.4161
  682MPD2    C510089   2.956   2.826  10.719  0.7232  0.0700  0.2712
  682MPD2     H10090   2.718   2.539  10.757  2.0880 -1.9934 -0.7571
  682MPD2    H110091   2.844   2.929  10.857  0.6786 -0.2119  1.0101
  682MPD2    H210092   3.066   2.713  10.572  0.9655 -1.7185  0.7925
  682MPD2    H310093   3.011   2.919  10.713  0.4155  0.2243 -0.1949
  682MPD2     N10094   2.677   2.739  10.930  0.0608 -0.8590  0.3136
  682MPD2    H510095   2.684   2.822  10.988 -1.0607  0.3053 -1.2123
  682MPD2    N110096   2.882   2.509  10.555 -0.2118  0.0799  0.1905
  682MPD2    H710097   2.800   2.449  10.560 -1.0414  1.1939  0.0810
  683TMC3    C110098   2.447   2.755  11.273  0.0882  1.1185  0.0707
  683TMC3    C210099   2.320   2.720  11.261 -0.2162 -0.4067 -0.6316
  683TMC3    C310100   2.278   2.671  11.143  0.1438 -0.0839  0.2415
  683TMC3    C410101   2.530   2.754  11.170  0.8646 -0.3671  0.0033
  683TMC3    C510102   2.482   2.720  11.044 -0.3667 -0.0978 -0.2039
  683TMC3    C610103   2.352   2.670  11.031  0.3914 -0.0564  0.1192
  683TMC3     C10104   2.490   2.811  11.403  0.1882 -0.1087 -1.1054
  683TMC3     O10105   2.411   2.798  11.498  0.5173 -1.0257 -0.4395
  683TMC3     H10106   2.252   2.717  11.346 -0.3245 -0.2416 -0.7122
  683TMC3    H110107   2.637   2.749  11.183  0.7080 -3.9084 -0.1772
  683TMC3    H210108   2.324   2.623  10.937 -1.1677 -0.6728  0.9043
  683TMC3    C710109   2.577   2.648  10.955  0.3711  0.8547 -1.0321
  683TMC3    C810110   2.213   2.539  11.152  0.0986  0.3473 -0.5205
  683TMC3    O110111   2.536   2.544  10.904 -0.6211  0.5065  0.0326
  683TMC3    O210112   2.128   2.532  11.244 -0.0278 -0.0461 -0.5777
  684MPD2     C10113   1.013   1.341  16.100  0.1327 -0.5958 -0.2727
  684MPD2    C110114   1.005   1.425  15.993 -0.4837  0.0143  0.6125
  684MPD2    C210115   1.022   1.554  16.014  0.5979  0.2730 -0.0188
  684MPD2    C310116   1.034   1.606  16.140  0.5548  0.3511 -0.2325
  684MPD2    C410117   1.040   1.528  16.254 -0.7743 -0.4243 -0.3496
  684MPD2    C510118   1.026   1.392  16.233 -0.5696  0.2613 -0.1172
  684MPD2     H10119   1.039   1.620  15.930  3.5360 -0.6612 -0.1378
  684MPD2    H110120   1.046   1.564  16.356  2.1886 -2.7073  0.2928
  684MPD2    H210121   0.979   1.240  16.083 -1.1738  0.0866 -1.6528
  684MPD2    H310122   1.004   1.321  16.311  0.9336  1.8456  1.7317
  684MPD2     N10123   1.048   1.745  16.164  0.0078 -0.3677  0.4187
  684MPD2    H510124   1.044   1.776  16.261  2.2192  1.3746 -0.0338
  684MPD2    N110125   0.982   1.386  15.860  0.2275 -0.4799 -0.4683
  684MPD2    H710126   0.987   1.459  15.789  1.3482  0.3495  0.4597
  685TMC3    C110127   0.953   1.254  15.678  0.5115 -0.1833 -0.4334
  685TMC3    C210128   0.853   1.325  15.622  0.8605 -0.3792 -0.0251
  685TMC3    C310129   0.881   1.385  15.503 -0.3874 -0.7407  0.1401
  685TMC3    C410130   1.075   1.244  15.623  0.3731 -0.0253  0.3603
  685TMC3    C510131   1.101   1.307  15.504  0.2297  0.0020  0.5878
  685TMC3    C610132   0.998   1.361  15.433 -0.4666 -0.6027 -0.1579
  685TMC3     C10133   0.958   1.260  15.818 -0.1453 -0.4937  0.2821
  685TMC3     O10134   0.963   1.156  15.881 -0.4697 -0.6042 -0.4043
  685TMC3     H10135   0.762   1.337  15.681  0.2433 -1.5896 -0.7089
  685TMC3    H110136   1.143   1.175  15.671 -1.4139 -1.1039  1.3415
  685TMC3    H210137   1.037   1.415  15.347 -3.0214  1.4461 -0.0004
  685TMC3    C710138   1.239   1.337  15.465 -0.5092  0.6310  0.9023
  685TMC3    C810139   0.802   1.504  15.467 -0.5323  0.2631 -0.3648
  685TMC3    O110140   1.252   1.387  15.357 -0.1643  0.1376  0.2362
  685TMC3    O210141   0.793   1.542  15.350 -0.3776 -0.1004  0.1134
  686MPD2     C10142   2.108   1.384  15.129 -0.5909  0.0074  0.5613
  686MPD2    C110143   2.087   1.320  15.248  0.1192 -0.4917 -0.3525
  686MPD2    C210144   2.177   1.344  15.352 -0.6840 -0.4195  0.5633
  686MPD2    C310145   2.274   1.446  15.332 -0.9718  0.6691 -0.0309
  686MPD2    C410146   2.279   1.523  15.216  0.5284 -0.4644 -0.8377
  686MPD2    C510147   2.189   1.496  15.117  0.0700  0.2888  0.6899
  686MPD2     H10148   2.169   1.293  15.447  0.1284 -1.5019  0.0495
  686MPD2    H110149   2.343   1.610  15.205  0.8296 -0.0128  4.3378
  686MPD2    H210150   2.043   1.359  15.045  1.1986  1.5431 -1.2859
  686MPD2    H310151   2.197   1.558  15.029  1.4076 -0.4608  0.2675
  686MPD2     N10152   2.369   1.466  15.437  0.8404  0.1304 -0.1752
  686MPD2    H510153   2.370   1.399  15.513  2.7189 -0.0593 -0.3465
  686MPD2    N110154   1.971   1.240  15.254  0.2819 -0.3577  0.3603
  686MPD2    H710155   1.901   1.261  15.183  1.1186  1.2357  0.0054
  687TMC3    C110156   2.545   1.581  15.561  0.1862 -0.1997  0.1004
  687TMC3    C210157   2.571   1.707  15.612 -0.5859 -0.3990  0.5167
  687TMC3    C310158   2.625   1.722  15.739  0.4122  0.3930  1.1990
  687TMC3    C410159   2.600   1.472  15.618 -0.6084 -0.1808 -0.5188
  687TMC3    C510160   2.654   1.487  15.747 -0.3131 -0.3290 -0.0691
  687TMC3    C610161   2.660   1.610  15.808 -0.0854  0.0505  0.0728
  687TMC3     C10162   2.443   1.584  15.452  0.1574 -0.8103 -0.1939
  687TMC3     O10163   2.435   1.689  15.390 -0.9259 -0.8393 -0.3436
  687TMC3     H10164   2.530   1.787  15.553 -0.1024  0.5474  1.4650
  687TMC3    H110165   2.613   1.378  15.566  0.2515 -1.7633  2.5169
  687TMC3    H210166   2.696   1.622  15.910 -0.0259  2.3725 -0.2351
  687TMC3    C710167   2.741   1.389  15.804 -0.2790 -0.3813 -0.5242
  687TMC3    C810168   2.708   1.832  15.762 -0.1936  0.3503 -0.0878
  687TMC3    O110169   2.812   1.417  15.902  0.1792 -0.8413  0.3129
  687TMC3    O210170   2.808   1.824  15.835  0.3411 -0.2972  0.2146
  688MPD2     C10171   2.064   0.431   0.139 -0.3221  0.3013 -0.1453
  688MPD2    C110172   2.055   0.301   0.151 -0.0076 -0.3757 -0.3738
  688MPD2    C210173   2.101   0.225   0.048  0.5106  0.3339 -0.5766
  688MPD2    C310174   2.159   0.286  17.642 -0.2590  0.0838  0.2434
  688MPD2    C410175   2.172   0.420  17.629  0.2127  0.1283 -0.2172
  688MPD2    C510176   2.136   0.492   0.042  0.1778 -0.0409  0.0269
  688MPD2     H10177   2.082   0.118   0.049 -1.0064  0.6361  1.8275
  688MPD2    H110178   2.216   0.465  17.541 -2.7638 -2.3555 -2.9701
  688MPD2    H210179   2.031   0.498   0.219  2.4991  0.4309  0.8871
  688MPD2    H310180   2.142   0.600   0.047  0.5283 -0.0112 -1.0528
  688MPD2     N10181   2.190   0.221  17.519 -0.5107  0.1030 -0.2060
  688MPD2    H510182   2.265   0.265  17.467  1.0945  0.1249  2.0904
  688MPD2    N110183   1.988   0.233   0.255 -0.6109  0.2479 -0.6691
  688MPD2    H710184   1.982   0.132   0.241 -0.7712  0.0991  0.4965
  689TMC3    C110185   1.888   0.199   0.467  0.7434 -0.3051 -0.1132
  689TMC3    C210186   1.889   0.237   0.598  0.9350 -0.0642 -0.8924
  689TMC3    C310187   1.876   0.144   0.699  0.0607  0.6587 -0.2407
  689TMC3    C410188   1.852   0.073   0.435 -0.4503 -0.6483  0.5157
  689TMC3    C510189   1.840   4.709   0.539 -0.2706  0.2929 -0.4063
  689TMC3    C610190   1.843   0.016   0.670  0.5612 -0.8126 -0.5697
  689TMC3     C10191   1.951   0.289   0.370 -0.6399 -0.1342 -0.1088
  689TMC3     O10192   1.985   0.395   0.415 -0.1407 -0.4281 -0.1780
  689TMC3     H10193   1.898   0.342   0.624  0.6313 -0.0996 -0.6479
  689TMC3    H110194   1.844   0.047   0.330 -2.5126  3.2578 -0.2997
  689TMC3    H210195   1.817   4.667   0.744 -1.0158 -0.0297 -0.3453
  689TMC3    C710196   1.786   4.584   0.523 -0.2252  0.2767  0.3140
  689TMC3    C810197   1.862   0.185   0.833 -0.3818 -0.4934 -0.0732
  689TMC3    O110198   1.814   4.498   0.603  0.1361  0.2882  0.0994
  689TMC3    O210199   1.827   0.102   0.914 -0.2674 -0.2959  0.0000
  690MPD2     C10200   3.971   2.369  15.976  0.5166  0.1797 -0.7466
  690MPD2    C110201   3.913   2.317  15.857  0.5463 -0.2861  0.4275
  690MPD2    C210202   3.998   2.312  15.747  0.1776 -0.3272 -0.9014
  690MPD2    C310203   4.135   2.344  15.742 -0.1384 -1.2947 -0.3639
  690MPD2    C410204   4.178   2.406  15.861 -0.5792 -0.2449 -0.0765
  690MPD2    C510205   4.107   2.405  15.973 -0.5801 -0.5586  0.4234
  690MPD2     H10206   3.958   2.303  15.647 -0.4588 -0.1749 -0.6600
  690MPD2    H110207   4.282   2.429  15.884 -1.1698  2.5131 -0.1250
  690MPD2    H210208   3.916   2.376  16.069  0.9083  0.9923 -0.5809
  690MPD2    H310209   4.138   2.450  16.067  3.3431 -1.3362 -0.5122
  690MPD2     N10210   4.209   2.334  15.622  1.2424  0.7065  0.7761
  690MPD2    H510211   4.163   2.300  15.539  0.3427  3.0145  0.3201
  690MPD2    N110212   3.782   2.273  15.840  0.6038 -0.3824 -0.1237
  690MPD2    H710213   3.749   2.261  15.744 -2.8186 -0.0255  1.0071
  691TMC3    C110214   3.609   2.150  15.911  0.1285  0.1935  0.1777
  691TMC3    C210215   3.499   2.151  15.993 -0.2476  1.0532 -0.1714
  691TMC3    C310216   3.426   2.041  16.020  0.7732  0.4651  0.1449
  691TMC3    C410217   3.663   2.034  15.851  0.0661  0.0224 -0.3501
  691TMC3    C510218   3.590   1.926  15.889 -0.0605 -0.1362 -0.2784
  691TMC3    C610219   3.478   1.927  15.972  1.1360  0.7038 -0.2160
  691TMC3     C10220   3.701   2.252  15.947 -0.2686  0.2191 -0.2622
  691TMC3     O10221   3.702   2.294  16.068 -0.6405  0.8050 -0.0304
  691TMC3     H10222   3.476   2.245  16.041  1.3756  0.8404  1.0422
  691TMC3    H110223   3.741   2.039  15.775  0.0875 -0.5150 -0.3648
  691TMC3    H210224   3.428   1.834  15.993  0.2513  0.4212 -3.4608
  691TMC3    C710225   3.647   1.799  15.844 -0.1688  0.1736  0.1950
  691TMC3    C810226   3.287   2.056  16.041 -0.4803  0.4501 -0.7087
  691TMC3    O110227   3.766   1.801  15.823 -0.6305  0.3095  0.1342
  691TMC3    O210228   3.224   1.952  16.072  0.3635  0.1434  0.4754
  692TMC3    C110229   0.704   3.254  16.097 -0.2131 -0.7264  0.6748
  692TMC3    C210230   0.815   3.291  16.168 -0.1121  0.0664 -0.6449
  692TMC3    C310231   0.933   3.219  16.143 -0.5524  0.3580 -1.1218
  692TMC3    C410232   0.714   3.164  15.992 -0.2883 -0.6084 -0.3291
  692TMC3    C510233   0.830   3.091  15.984 -0.1447  0.3570  0.0940
  692TMC3    C610234   0.930   3.102  16.073 -0.1622 -0.3425  0.1930
  692TMC3     C10235   0.596   3.341  16.121 -0.3864 -0.1915 -0.7111
  692TMC3     O10236   0.486   3.317  16.067  0.5993  0.0012  0.4369
  692TMC3     H10237   0.808   3.353  16.257 -0.0587  0.0829 -0.6521
  692TMC3    H110238   0.630   3.125  15.935 -0.9511  0.0957  0.1563
  692TMC3    H210239   1.029   3.059  16.057  1.0706  3.2787 -1.7399
  692TMC3    C710240   0.820   2.973  15.903  0.4364  0.0320 -0.2733
  692TMC3    C810241   1.029   3.191  16.249 -0.1259 -0.1615  0.6044
  692TMC3    O110242   0.751   2.981  15.804 -0.5354 -0.1481  0.1013
  692TMC3    O210243   1.083   3.080  16.263 -0.3357 -0.2769  0.2624
  693MPD2     C10244   0.135   1.497  11.258  0.3078 -0.8037 -0.1652
  693MPD2    C110245   0.110   1.370  11.204 -0.4850 -0.7986 -1.0194
  693MPD2    C210246   0.216   1.293  11.152  0.6045  0.4262  0.2882
  693MPD2    C310247   0.347   1.336  11.176  0.0717  0.1219  0.1629
  693MPD2    C410248   0.374   1.459  11.234 -0.0929  0.1454 -0.3022
  693MPD2    C510249   0.262   1.539  11.278  0.3723  0.1890  0.7114
  693MPD2     H10250   0.206   1.194  11.109  0.3258  0.9154 -0.7737
  693MPD2    H110251   0.474   1.488  11.262 -0.6577  0.9441  0.9000
  693MPD2    H210252   0.056   1.570  11.275  1.4811  0.1654  1.1935
  693MPD2    H310253   0.285   1.635  11.323  0.2005  0.3459  0.4652
  693MPD2     N10254   0.456   1.255  11.155 -0.2733  0.0569 -0.0177
  693MPD2    H510255   0.545   1.293  11.187  1.3522 -4.4654  0.8911
  693MPD2    N110256   4.697   1.337  11.187 -0.2503  0.4104  0.2221
  693MPD2    H710257   4.633   1.409  11.218 -1.4907  0.1891 -1.8253
  694TMC3    C110258   4.512   1.194  11.180 -1.3175 -0.1090 -0.0163
  694TMC3    C210259   4.443   1.103  11.106  0.0609 -0.6712  0.5279
  694TMC3    C310260   4.335   1.042  11.176  1.1830 -0.4117  0.0414
  694TMC3    C410261   4.472   1.219  11.305  0.0609 -0.1524 -0.3764
  694TMC3    C510262   4.366   1.163  11.367 -0.2057  0.2364  0.5092
  694TMC3    C610263   4.296   1.067  11.303  0.2907 -0.3905  0.4139
  694TMC3     C10264   4.651   1.218  11.144  0.9016 -0.2906 -0.5017
  694TMC3     O10265   4.709   1.141  11.072  0.0284 -0.1254 -0.7396
  694TMC3     H10266   4.484   1.077  11.009  0.8486  0.7031  0.4853
  694TMC3    H110267   4.529   1.286  11.368  1.1488 -0.2626 -1.2454
  694TMC3    H210268   4.203   1.020  11.332 -0.4712  0.3961 -0.7824
  694TMC3    C710269   4.347   1.185  11.506 -0.0226  0.3563  0.0808
  694TMC3    C810270   4.237   0.971  11.093  0.1454  0.0524  0.1351
  694TMC3    O110271   4.424   1.265  11.560  0.0338  0.2380  0.4982
  694TMC3    O210272   4.148   0.895  11.133  0.6625 -0.1287 -0.2447
  695MPD2     C10273   1.060   3.185  13.752  0.0665  0.0368 -0.8477
  695MPD2    C110274   1.014   3.106  13.861 -0.1973 -0.1087  0.2764
  695MPD2    C210275   0.881   3.073  13.863  0.3653  0.0504  0.5446
  695MPD2    C310276   0.798   3.094  13.753 -0.9245  0.4813 -0.0860
  695MPD2    C410277   0.841   3.171  13.650 -0.0619 -0.4097  0.5621
  695MPD2    C510278   0.967   3.216  13.649 -0.0177  0.0536 -0.3736
  695MPD2     H10279   0.830   3.030  13.948 -0.4649 -0.9692 -0.4678
  695MPD2    H110280   0.782   3.197  13.562 -0.5442  0.0219  1.0100
  695MPD2    H210281   1.161   3.224  13.743 -0.8515  2.4442 -0.7518
  695MPD2    H310282   1.008   3.263  13.560 -0.3603  0.2509 -0.4265
  695MPD2     N10283   0.663   3.055  13.756  0.5283 -0.2828 -0.5489
  695MPD2    H510284   0.634   3.008  13.841  0.7724  2.0977  0.8633
  695MPD2    N110285   1.094   3.091  13.984 -0.0518  0.8586 -0.4221
  695MPD2    H710286   1.051   3.033  14.055 -1.6626  0.7799 -1.4616
  696TMC3    C110287   0.431   3.031  13.715  0.0103  0.2304  0.8230
  696TMC3    C210288   0.425   3.010  13.849  0.0496  0.3999 -0.1158
  696TMC3    C310289   0.309   3.028  13.918 -0.5571  0.0058 -0.2241
  696TMC3    C410290   0.327   3.094  13.654  0.4079 -0.4707  0.2892
  696TMC3    C510291   0.216   3.123  13.723 -0.1013 -0.7004 -0.6144
  696TMC3    C610292   0.201   3.091  13.851 -0.9469  0.2725 -0.6441
  696TMC3     C10293   0.563   3.064  13.660 -0.7684  0.4014 -0.7097
  696TMC3     O10294   0.577   3.097  13.546 -0.5051 -0.1331  0.1279
  696TMC3     H10295   0.500   2.943  13.887 -0.7869 -1.1809 -1.2479
  696TMC3    H110296   0.341   3.132  13.554  0.0728  0.2275  0.5052
  696TMC3    H210297   0.105   3.100  13.899 -0.4209 -2.8781  0.9498
  696TMC3    C710298   0.155   3.248  13.679  0.3123 -0.6997  0.2862
  696TMC3    C810299   0.323   3.090  14.052  0.3484  0.5380  0.1873
  696TMC3    O110300   0.163   3.278  13.560 -0.0494 -0.0411  0.3428
  696TMC3    O210301   0.256   3.192  14.065 -0.0276 -0.0651 -0.1087
  697MPD2     C10302   0.403   0.104  16.239 -0.6317 -0.0475  0.5764
  697MPD2    C110303   0.430   0.061  16.111  0.3641 -0.0168  0.2733
  697MPD2    C210304   0.477   0.152  16.019 -0.3375 -0.6730 -0.0973
  697MPD2    C310305   0.495   0.290  16.047 -0.1919 -0.0128 -0.4091
  697MPD2    C410306   0.459   0.335  16.174 -0.1758 -0.2688  0.0677
  697MPD2    C510307   0.417   0.240  16.267  0.0887  0.4593 -0.5134
  697MPD2     H10308   0.483   0.119  15.916 -0.6769 -1.0095 -0.0112
  697MPD2    H110309   0.456   0.440  16.198 -0.9975  0.0619 -1.5100
  697MPD2    H210310   0.371   0.036  16.317  0.8564  0.8085  1.9462
  697MPD2    H310311   0.392   0.274  16.367 -1.2674  0.3359 -0.8061
  697MPD2     N10312   0.549   0.378  15.948  0.0769 -0.2976 -0.5138
  697MPD2    H510313   0.565   0.343  15.854  0.1994 -0.8692 -0.2822
  697MPD2    N110314   0.399   4.646  16.074 -0.1596 -0.1158  0.2305
  697MPD2    H710315   0.423   4.621  15.979  0.3475 -1.9240  0.8432
  698TMC3    C110316   0.617   0.565  15.843 -0.6715 -0.8889 -0.4268
  698TMC3    C210317   0.562   0.677  15.797  0.5397  0.5499 -0.1237
  698TMC3    C310318   0.602   0.733  15.678 -0.0394  0.9668 -0.6735
  698TMC3    C410319   0.707   0.488  15.775  0.6245  0.6224 -0.6635
  698TMC3    C510320   0.731   0.538  15.649  0.5947 -0.1828 -0.4162
  698TMC3    C610321   0.684   0.657  15.597 -0.3840  0.1376 -0.3708
  698TMC3     C10322   0.571   0.510  15.967  0.0335  0.1925 -1.2300
  698TMC3     O10323   0.551   0.583  16.066  0.0522 -0.0971 -0.0719
  698TMC3     H10324   0.484   0.732  15.849  0.3302  1.4187 -1.3405
  698TMC3    H110325   0.759   0.400  15.811 -2.0582 -0.3786  0.7678
  698TMC3    H210326   0.721   0.683  15.498  0.5044  3.0115  0.7008
  698TMC3    C710327   0.765   0.443  15.540  0.4977 -0.1642 -0.2370
  698TMC3    C810328   0.515   0.826  15.607 -0.7674  0.2710  0.0948
  698TMC3    O110329   0.870   0.379  15.545 -0.7580 -1.1052  0.3229
  698TMC3    O210330   0.397   0.821  15.637 -0.0425 -0.8495 -0.6780
  699TMC3    C110331   0.764   3.125  13.297 -0.5955 -0.5721  0.1925
  699TMC3    C210332   0.820   3.010  13.338  0.2139  0.3186  0.1992
  699TMC3    C310333   0.744   2.900  13.351 -1.4122 -0.8417  0.2632
  699TMC3    C410334   0.632   3.132  13.261 -1.2519 -0.1734  0.2269
  699TMC3    C510335   0.562   3.011  13.253  0.3867  0.7484  0.1581
  699TMC3    C610336   0.617   2.896  13.308  0.2525 -0.0414  0.6951
  699TMC3     C10337   0.844   3.243  13.269  0.0270  0.3898  0.0710
  699TMC3     O10338   0.939   3.271  13.339 -0.1684  0.0941  0.3788
  699TMC3     H10339   0.925   3.001  13.359  0.4205  0.4780 -0.7656
  699TMC3    H110340   0.578   3.224  13.244 -1.8996 -0.4960  0.5143
  699TMC3    H210341   0.557   2.808  13.324 -1.0006  0.4138 -1.3696
  699TMC3    C710342   0.414   3.023  13.258  0.2484 -0.2472  0.7630
  699TMC3    C810343   0.783   2.792  13.439 -0.5659  0.3680 -0.0505
  699TMC3    O110344   0.371   3.138  13.244 -0.2654 -0.2757  0.5319
  699TMC3    O210345   0.719   2.689  13.418  0.2557 -0.4968  0.0367
  700TMC3    C110346   4.304   0.516   0.014  0.4122  0.2780 -0.1910
  700TMC3    C210347   4.367   0.411   0.076 -0.1428 -0.0677  0.0663
  700TMC3    C310348   4.457   0.434   0.176 -0.2158  0.6198  0.2950
  700TMC3    C410349   4.327   0.644   0.065  0.5577  0.8688 -0.2552
  700TMC3    C510350   4.404   0.663   0.173  0.4119  0.0315  0.4792
  700TMC3    C610351   4.467   0.557   0.237  0.3445  0.3755  0.0349
  700TMC3     C10352   4.286   0.506  17.569 -0.8123 -0.1449 -0.6049
  700TMC3     O10353   4.240   0.402  17.527 -0.2948  0.3565  0.2547
  700TMC3     H10354   4.364   0.319   0.019 -0.7116  0.7466 -1.2261
  700TMC3    H110355   4.269   0.729   0.032 -2.4509 -0.9954  0.1397
  700TMC3    H210356   4.525   0.579   0.326 -0.4655 -1.5674  1.0348
  700TMC3    C710357   4.414   0.794   0.233  0.2007 -0.8515  0.0958
  700TMC3    C810358   4.586   0.368   0.163 -0.2662 -0.1842  0.5814
  700TMC3    O110359   4.420   0.816   0.353  0.3725 -0.2789 -0.1874
  700TMC3    O210360   4.689   0.440   0.174 -0.1952 -0.4477  0.6299
  701TMC3    C110361   4.264   3.958  15.834  0.0849 -0.5497 -0.5809
  701TMC3    C210362   4.298   3.872  15.728 -0.0084 -0.1933 -0.0094
  701TMC3    C310363   4.431   3.870  15.695 -0.8871  0.1974  0.7872
  701TMC3    C410364   4.353   4.035  15.901 -0.1213 -0.1944  0.0090
  701TMC3    C510365   4.486   4.024  15.870  0.2305 -0.2132  0.5835
  701TMC3    C610366   4.527   3.932  15.775  0.3512 -0.2831  0.3097
  701TMC3     C10367   4.128   3.994  15.854  0.0981 -0.0983 -0.1194
  701TMC3     O10368   4.108   4.111  15.868 -0.4138 -0.4032 -0.0296
  701TMC3     H10369   4.215   3.837  15.667 -1.4859  2.4362  0.4909
  701TMC3    H110370   4.314   4.120  15.956  1.9262  0.7179  0.0586
  701TMC3    H210371   4.629   3.943  15.740  0.0321  1.0505 -0.2143
  701TMC3    C710372   4.558   4.147  15.879 -0.3510 -0.0291  0.0905
  701TMC3    C810373   4.476   3.841  15.560 -0.3573 -0.1394 -0.2181
  701TMC3    O110374   4.623   4.177  15.777 -0.2639 -0.4268  0.1104
  701TMC3    O210375   4.596   3.860  15.537  0.1178  0.0553  0.0695
  702MPD2     C10376   4.056   1.760  11.023  0.3996 -0.2154  1.1443
  702MPD2    C110377   3.968   1.868  11.032 -0.1146 -0.0065 -0.4705
  702MPD2    C210378   4.001   1.981  10.960 -0.0985  0.5984 -0.1398
  702MPD2    C310379   4.116   1.996  10.888  0.1103  0.6217 -0.1855
  702MPD2    C410380   4.202   1.888  10.884  0.0990  0.6428  0.1478
  702MPD2    C510381   4.173   1.773  10.949 -0.5335 -0.5025 -0.2263
  702MPD2     H10382   3.929   2.062  10.965  0.9250  1.4316  0.9157
  702MPD2    H110383   4.302   1.886  10.843  1.1965  1.1668  2.7467
  702MPD2    H210384   4.028   1.674  11.083 -1.9429 -0.4791 -0.2935
  702MPD2    H310385   4.242   1.690  10.940 -1.7768 -1.3800 -1.6347
  702MPD2     N10386   4.150   2.111  10.823 -0.0688  0.2911  0.3195
  702MPD2    H510387   4.251   2.117  10.808 -0.5014  3.3191 -1.4644
  702MPD2    N110388   3.845   1.864  11.105  0.0039  0.1980 -0.2762
  702MPD2    H710389   3.799   1.954  11.114  1.7887  1.1773 -1.0325
  703TMC3    C110390   4.154   2.353  10.780 -0.3148  0.7745  0.4980
  703TMC3    C210391   4.106   2.462  10.839  0.4788  0.6226  0.0962
  703TMC3    C310392   4.183   2.569  10.851 -0.1686  0.6504 -0.0829
  703TMC3    C410393   4.282   2.333  10.729 -0.4111 -0.2020 -0.6892
  703TMC3    C510394   4.359   2.443  10.742  0.9616 -0.4741 -0.0029
  703TMC3    C610395   4.308   2.565  10.799 -0.6000 -0.2542 -0.2572
  703TMC3     C10396   4.076   2.229  10.808 -0.3895  0.6531  0.4482
  703TMC3     O10397   3.963   2.243  10.845  0.4090 -0.2231  0.0364
  703TMC3     H10398   4.018   2.449  10.901  1.1316 -0.3422  0.8296
  703TMC3    H110399   4.325   2.246  10.681  0.1227 -0.9317  1.1065
  703TMC3    H210400   4.378   2.647  10.810 -0.2433 -0.8020  1.5265
  703TMC3    C710401   4.484   2.454  10.664 -0.1714 -0.0398  0.0872
  703TMC3    C810402   4.154   2.667  10.954  0.0499  0.2438  0.9569
  703TMC3    O110403   4.572   2.535  10.696  0.3094 -0.1372  0.2918
  703TMC3    O210404   4.250   2.715  11.010  0.0929  0.4514  0.1750
  704TMC3    C110405   1.328   0.046  12.900  0.1410  0.0289  0.6098
  704TMC3    C210406   1.446   0.105  12.922 -0.5069 -0.5892 -0.2881
  704TMC3    C310407   1.537   0.022  12.989 -0.3591 -0.1027  0.2461
  704TMC3    C410408   1.290   4.648  12.948  0.0429  0.0868 -0.5694
  704TMC3    C510409   1.381   4.573  13.012  0.0718 -0.2063 -0.0045
  704TMC3    C610410   1.512   4.621  13.034  0.4506  0.0468  0.5419
  704TMC3     C10411   1.242   0.100  12.794  0.1581 -0.4076  0.9091
  704TMC3     O10412   1.135   0.047  12.782 -0.2737 -0.3962 -0.0837
  704TMC3     H10413   1.463   0.209  12.899 -2.1421 -0.2763 -0.0653
  704TMC3    H110414   1.191   4.605  12.950  0.1624 -0.0086  3.2314
  704TMC3    H210415   1.589   4.555  13.072  0.7357  0.8816  1.4124
  704TMC3    C710416   1.389   4.428  12.982  0.3692  0.1364  0.0215
  704TMC3    C810417   1.660   0.030  12.917  0.3039 -0.0842  0.1211
  704TMC3    O110418   1.497   4.388  12.954 -0.1423 -0.6174 -0.1858
  704TMC3    O210419   1.651   0.076  12.807 -0.7199 -0.0300  0.1525
  705MPD2     C10420   1.083   2.546  16.535  0.3648 -0.8841  0.8804
  705MPD2    C110421   1.133   2.671  16.531 -0.1511 -0.4366 -0.0059
  705MPD2    C210422   1.107   2.757  16.637 -0.2601 -0.2480 -0.4921
  705MPD2    C310423   1.005   2.720  16.728 -0.2878 -0.4091  0.7291
  705MPD2    C410424   0.946   2.597  16.722 -0.3144 -0.4253  0.2217
  705MPD2    C510425   0.979   2.512  16.621  0.2316 -0.2970 -0.3636
  705MPD2     H10426   1.155   2.854  16.647 -2.4841  0.4629  3.0331
  705MPD2    H110427   0.874   2.561  16.794 -1.5055 -0.2700 -0.8842
  705MPD2    H210428   1.111   2.474  16.459  0.2353  0.8785 -0.8204
  705MPD2    H310429   0.948   2.408  16.616  0.7009 -0.3932 -1.3267
  705MPD2     N10430   0.951   2.805  16.833  0.7070 -0.4469 -0.2008
  705MPD2    H510431   0.869   2.768  16.880  1.6119 -0.5134  1.3578
  705MPD2    N110432   1.221   2.710  16.426  0.2646  0.1716  0.1116
  705MPD2    H710433   1.261   2.803  16.433  3.0565 -0.9253 -1.2175
  706TMC3    C110434   1.369   2.695  15.966 -0.3583 -0.4186  0.2393
  706TMC3    C210435   1.368   2.836  15.957 -0.3983  0.0452 -0.3878
  706TMC3    C310436   1.327   2.911  16.066 -0.2820  0.5623  0.7350
  706TMC3    C410437   1.328   2.632  16.087 -0.8859  0.7028 -0.9232
  706TMC3    C510438   1.299   2.713  16.200 -0.6237  0.2606 -0.3084
  706TMC3    C610439   1.298   2.855  16.187 -0.1019  0.5115  0.3192
  706TMC3     C10440   1.476   2.620  15.896 -0.2909  0.1710  0.0895
  706TMC3     O10441   1.526   2.523  15.954  0.1719 -0.3790  0.1348
  706TMC3     H10442   1.408   2.895  15.876  1.7992  0.7841  1.2463
  706TMC3    H110443   1.331   2.524  16.098 -1.0694  0.5809 -2.1581
  706TMC3    H210444   1.272   2.919  16.271  0.3119 -1.2804  1.8184
  706TMC3    C710445   1.222   2.646  16.302  0.1919  0.4031 -0.4231
  706TMC3    C810446   1.332   3.055  16.055  0.3853  0.7708  0.2200
  706TMC3    O110447   1.156   2.546  16.266  0.2601  0.5006 -0.0340
  706TMC3    O210448   1.298   3.105  15.950 -0.0628 -0.0191 -0.3885
  707TMC3    C110449   3.140   0.910   1.274  0.2685 -0.1599 -1.0618
  707TMC3    C210450   3.172   0.834   1.384  0.0694  0.0618 -0.1830
  707TMC3    C310451   3.116   0.702   1.377  0.5961 -0.4189  0.3412
  707TMC3    C410452   3.075   0.863   1.163  0.0977  0.5109 -0.9324
  707TMC3    C510453   3.053   0.730   1.153 -0.5174  0.6804  0.0569
  707TMC3    C610454   3.064   0.652   1.264 -0.2112  0.2334  0.4671
  707TMC3     C10455   3.232   1.023   1.255  0.2895 -0.3695 -0.0132
  707TMC3     O10456   3.323   1.029   1.336  0.0853 -1.1614  0.1349
  707TMC3     H10457   3.215   0.867   1.477 -0.3443  2.7657 -0.9239
  707TMC3    H110458   3.059   0.924   1.075  0.1627  2.2109  0.2326
  707TMC3    H210459   3.042   0.547   1.248 -1.1414  0.6319 -0.8809
  707TMC3    C710460   2.997   0.669   1.030  0.2683  0.1462 -0.3407
  707TMC3    C810461   3.160   0.599   1.472 -0.1692  0.5996  0.1427
  707TMC3    O110462   2.940   0.751   0.957 -0.0874 -0.0721 -0.4295
  707TMC3    O210463   3.113   0.483   1.479 -0.1787 -0.5985  0.5640
  708MPD2     C10464   3.934   1.240  14.088  0.0470  0.4100 -0.6461
  708MPD2    C110465   3.977   1.338  14.172  0.6694 -0.3611  0.1813
  708MPD2    C210466   4.014   1.308  14.303 -0.0009 -1.3057  0.3856
  708MPD2    C310467   3.997   1.178  14.351 -0.3571  0.0831 -0.3004
  708MPD2    C410468   3.947   1.083  14.268 -0.1454  0.1212 -0.0085
  708MPD2    C510469   3.911   1.118  14.137 -0.1417  0.3234 -0.4033
  708MPD2     H10470   4.034   1.388  14.374  0.1893 -0.2797 -0.8352
  708MPD2    H110471   3.930   0.984  14.307 -0.9344  0.7880  1.3303
  708MPD2    H210472   3.889   1.266  13.993  1.3186 -0.3811 -1.4474
  708MPD2    H310473   3.858   1.045  14.077  1.7235  0.7478 -2.5609
  708MPD2     N10474   4.008   1.138  14.487  0.4231  0.2843 -0.2099
  708MPD2    H510475   3.984   1.043  14.512 -1.2701  0.5392 -0.8809
  708MPD2    N110476   3.975   1.475  14.129 -0.0380 -0.0766 -0.1369
  708MPD2    H710477   3.967   1.489  14.028 -2.5389 -0.4902  0.0183
  709TMC3    C110478   3.880   1.680  14.132 -1.1101  0.1518  0.5324
  709TMC3    C210479   3.868   1.659  13.995 -0.5584 -0.4101  0.1264
  709TMC3    C310480   3.736   1.665  13.952  0.5751 -0.6842 -0.6231
  709TMC3    C410481   3.777   1.717  14.214 -0.2789 -0.5336  0.6254
  709TMC3    C510482   3.654   1.724  14.160  0.2115 -0.1548  0.7223
  709TMC3    C610483   3.630   1.703  14.025  0.3885 -0.5883 -0.2965
  709TMC3     C10484   3.962   1.589  14.208  0.2131 -0.2124  0.3495
  709TMC3     O10485   3.956   1.600  14.331 -0.4908 -0.4603  0.0779
  709TMC3     H10486   3.953   1.643  13.930  0.6255  1.1797  1.3004
  709TMC3    H110487   3.796   1.757  14.313  2.7298 -0.3628 -0.0265
  709TMC3    H210488   3.536   1.708  13.971 -1.6457 -3.2873  2.9758
  709TMC3    C710489   3.560   1.658  14.249 -0.5398  0.7917 -0.4499
  709TMC3    C810490   3.719   1.578  13.839 -0.2371  0.1147  0.2509
  709TMC3    O110491   3.449   1.638  14.207  0.1249  0.4253 -0.0493
  709TMC3    O210492   3.619   1.509  13.850  0.1109 -0.0506  0.4183
  710TMC3    C110493   0.537   2.680   0.437 -0.1146 -0.1833 -0.4754
  710TMC3    C210494   0.586   2.601   0.332  0.4729  0.1480  0.1652
  710TMC3    C310495   0.724   2.609   0.306 -0.1155 -0.1298 -0.3586
  710TMC3    C410496   0.620   2.771   0.504  0.2564 -0.2809  0.1999
  710TMC3    C510497   0.757   2.776   0.465  0.3300 -0.3089 -1.1908
  710TMC3    C610498   0.805   2.709   0.356 -0.1928  0.3222 -0.4521
  710TMC3     C10499   0.397   2.685   0.444 -0.2878 -0.0164 -0.3438
  710TMC3     O10500   0.343   2.587   0.393  1.0908  0.1112 -0.0025
  710TMC3     H10501   0.525   2.538   0.269  0.0230  0.7770 -0.0246
  710TMC3    H110502   0.593   2.812   0.601 -0.8381 -1.3372  0.3486
  710TMC3    H210503   0.899   2.726   0.304  1.0797 -2.8460  0.7658
  710TMC3    C710504   0.847   2.794   0.578  0.3747  0.8862 -0.1006
  710TMC3    C810505   0.791   2.491   0.266 -0.8344  0.2761 -0.2911
  710TMC3    O110506   0.805   2.859   0.669 -0.7372 -0.0976 -0.8010
  710TMC3    O210507   0.909   2.496   0.225  0.4838 -0.1787 -0.5334
  711TMC3    C110508   0.367   3.596  15.015 -0.5550 -0.0517  0.2039
  711TMC3    C210509   0.391   3.696  15.112 -0.2872 -0.9471  0.0827
  711TMC3    C310510   0.493   3.666  15.196 -0.3907  0.0514  0.2556
  711TMC3    C410511   0.455   3.491  15.003 -0.0490 -0.1752  0.1797
  711TMC3    C510512   0.553   3.469  15.092 -0.0925 -0.3931  0.3563
  711TMC3    C610513   0.567   3.555  15.194 -0.8505 -0.3659 -0.0821
  711TMC3     C10514   0.240   3.598  14.934  0.4162 -0.4368 -0.3166
  711TMC3     O10515   0.216   3.496  14.870 -0.5207  0.2887 -0.2994
  711TMC3     H10516   0.324   3.780  15.128 -2.2313 -2.3326 -0.8701
  711TMC3    H110517   0.440   3.430  14.915 -1.7729 -1.2367  1.2010
  711TMC3    H210518   0.641   3.533  15.271  1.6746 -0.7152 -2.6113
  711TMC3    C710519   0.631   3.342  15.086  0.4397  0.0381  0.1040
  711TMC3    C810520   0.520   3.769  15.297 -0.4198 -0.6365  0.1101
  711TMC3    O110521   0.738   3.339  15.146 -0.7250  0.0904  0.4971
  711TMC3    O210522   0.428   3.842  15.332  0.2741 -0.5479  0.2849
  712MPD2     C10523   1.446   4.685  14.231  0.0083  0.0977  0.1964
  712MPD2    C110524   1.440   4.706  14.099  0.1749 -0.6013  0.4267
  712MPD2    C210525   1.489   0.093  14.048 -0.3089  0.1412 -0.1997
  712MPD2    C310526   1.562   0.186  14.120 -0.3554 -0.2601  0.6574
  712MPD2    C410527   1.569   0.164  14.254  1.1327 -0.5435 -0.5000
  712MPD2    C510528   1.514   0.050  14.310 -0.0171  0.5815  0.5337
  712MPD2     H10529   1.466   0.122  13.946 -1.3317 -2.3751 -0.6949
  712MPD2    H110530   1.600   0.243  14.322 -2.3682  0.0071  0.4508
  712MPD2    H210531   1.393   4.602  14.278  0.4558  0.2600  0.9834
  712MPD2    H310532   1.508   0.041  14.418  1.6296 -2.8316  0.3451
  712MPD2     N10533   1.614   0.302  14.060 -0.4552 -0.4620  0.4264
  712MPD2    H510534   1.647   0.369  14.128 -0.1783 -0.9093  0.7400
  712MPD2    N110535   1.370   4.615  14.017 -0.1435  0.2824  0.1136
  712MPD2    H710536   1.310   4.548  14.064  0.4647 -0.9389 -0.8620
  713TMC3    C110537   1.673   0.468  13.911  0.1865  0.4113 -0.4731
  713TMC3    C210538   1.801   0.484  13.956  0.6490  0.2648 -0.3003
  713TMC3    C310539   1.878   0.585  13.898  0.2210  0.1178 -0.3525
  713TMC3    C410540   1.615   0.557  13.820 -0.1455 -0.1173  0.4127
  713TMC3    C510541   1.697   0.654  13.766  0.4919  0.5024  0.2281
  713TMC3    C610542   1.822   0.666  13.799 -0.4173  0.0329 -0.1945
  713TMC3     C10543   1.613   0.338  13.927  0.4936  0.2285 -0.0784
  713TMC3     O10544   1.552   0.297  13.830  0.4382  0.5220  0.9070
  713TMC3     H10545   1.842   0.422  14.035 -0.3445  0.0029  0.0108
  713TMC3    H110546   1.520   0.535  13.773  0.3150 -1.8031  0.2611
  713TMC3    H210547   1.879   0.747  13.754  0.0354 -0.5143 -0.6104
  713TMC3    C710548   1.650   0.733  13.652  0.2449 -0.5070 -0.0678
  713TMC3    C810549   2.021   0.582  13.890 -0.3962  0.0142 -0.0547
  713TMC3    O110550   1.730   0.801  13.587 -0.6994  0.2792  0.2509
  713TMC3    O210551   2.073   0.652  13.807 -0.3714  0.5788  0.2234
  714MPD2     C10552   3.527   3.219   1.341  0.1910 -0.1431 -0.1758
  714MPD2    C110553   3.598   3.155   1.249 -0.5539  0.1898 -0.4750
  714MPD2    C210554   3.574   3.179   1.119  0.1135 -0.5538  0.0201
  714MPD2    C310555   3.480   3.261   1.065 -0.0455 -0.4292 -0.3775
  714MPD2    C410556   3.408   3.337   1.161 -0.7301  0.4433 -0.5596
  714MPD2    C510557   3.435   3.305   1.291 -0.2202 -0.0159  0.0328
  714MPD2     H10558   3.622   3.110   1.050  2.4929  1.0332  0.0852
  714MPD2    H110559   3.330   3.407   1.135 -0.9484  0.5722  0.4555
  714MPD2    H210560   3.524   3.179   1.442  0.7526 -2.2572 -0.9950
  714MPD2    H310561   3.365   3.336   1.368  1.2911  1.1487  0.9221
  714MPD2     N10562   3.456   3.272   0.924 -0.1844 -0.2839  0.5665
  714MPD2    H510563   3.502   3.217   0.853  2.4993 -1.1901  3.0180
  714MPD2    N110564   3.697   3.067   1.304  0.2951  0.2982  0.0713
  714MPD2    H710565   3.717   3.078   1.402 -2.4264 -3.5101  1.0654
  715TMC3    C110566   3.878   2.903   1.280  0.7145 -0.7000 -0.4785
  715TMC3    C210567   3.958   2.860   1.177 -0.3605  1.2244  0.0453
  715TMC3    C310568   4.094   2.851   1.212 -0.2877 -0.4906  0.6400
  715TMC3    C410569   3.917   2.942   1.408  0.1926 -0.0600 -0.1049
  715TMC3    C510570   4.048   2.916   1.435  0.1348 -0.2264  0.5500
  715TMC3    C610571   4.142   2.880   1.337  0.5236 -0.5687 -0.5702
  715TMC3     C10572   3.746   2.955   1.234 -0.0635 -1.0458  0.2380
  715TMC3     O10573   3.689   2.895   1.142  0.0246 -0.0606  0.1614
  715TMC3     H10574   3.924   2.825   1.080  3.1733 -3.1212  0.3565
  715TMC3    H110575   3.842   2.966   1.483 -0.9663  0.2294 -1.3439
  715TMC3    H210576   4.245   2.865   1.368  0.1744 -2.0537 -0.0868
  715TMC3    C710577   4.106   2.976   1.550 -0.3424  0.1769  0.3751
  715TMC3    C810578   4.182   2.791   1.118  0.4050 -0.0797 -0.1426
  715TMC3    O110579   4.224   2.967   1.564  0.2500 -0.1266  0.0687
  715TMC3    O210580   4.138   2.708   1.041  0.5261 -0.0367  0.0516
  716MPD2     C10581   4.040   1.732  10.147 -0.0563 -0.1378  0.3077
  716MPD2    C110582   4.057   1.790  10.025  0.0759  0.0883 -0.1033
  716MPD2    C210583   4.121   1.717   9.928 -0.8812 -0.1421 -0.7098
  716MPD2    C310584   4.159   1.584   9.947 -0.1482  0.7524 -0.0571
  716MPD2    C410585   4.140   1.526  10.075  0.2631 -0.2418  0.1411
  716MPD2    C510586   4.083   1.601  10.171  0.0095 -0.2887 -0.1478
  716MPD2     H10587   4.135   1.755   9.828 -1.3953 -0.3393 -0.8528
  716MPD2    H110588   4.150   1.421  10.100  0.3988 -0.9657 -2.9139
  716MPD2    H210589   3.996   1.778  10.235  1.0913  0.2199  0.6870
  716MPD2    H310590   4.053   1.554  10.264  0.0566  1.4626  0.7413
  716MPD2     N10591   4.208   1.510   9.835  0.0248 -0.6023  0.0391
  716MPD2    H510592   4.190   1.547   9.742 -0.2073 -0.3547  0.1816
  716MPD2    N110593   3.992   1.914   9.999  0.4477  0.0788  0.2089
  716MPD2    H710594   3.940   1.952  10.077  0.4871  1.7823 -0.5833
  717TMC3    C110595   4.325   1.332   9.742 -0.0397  0.6213  0.9227
  717TMC3    C210596   4.219   1.300   9.662 -0.2925 -0.1343 -0.0650
  717TMC3    C310597   4.223   1.189   9.576 -0.2852 -0.3886 -0.6371
  717TMC3    C410598   4.438   1.250   9.743  0.4169  0.2995 -0.1019
  717TMC3    C510599   4.441   1.146   9.652  0.2066  0.3709 -0.2573
  717TMC3    C610600   4.335   1.110   9.579  0.4361  0.1064 -0.2511
  717TMC3     C10601   4.296   1.407   9.858 -0.3484 -0.7513 -0.2261
  717TMC3     O10602   4.366   1.381   9.958  0.0330  0.4784 -0.2890
  717TMC3     H10603   4.127   1.358   9.668 -0.9961 -1.1919 -0.6872
  717TMC3    H110604   4.519   1.272   9.811  1.6048  1.0995 -1.7697
  717TMC3    H210605   4.336   1.005   9.553 -1.8012  0.0663 -0.1752
  717TMC3    C710606   4.538   1.045   9.684 -0.4208 -0.2490  0.4931
  717TMC3    C810607   4.105   1.153   9.502  0.0256 -0.6177  0.2073
  717TMC3    O110608   4.598   1.071   9.786  0.3413  0.2829  0.2274
  717TMC3    O210609   4.005   1.220   9.514 -0.2060  0.4357 -0.0889
  718MPD2     C10610   3.368   0.076  13.302 -0.2300 -0.2012  0.0629
  718MPD2    C110611   3.319   0.088  13.173 -0.1198 -0.5149  0.0259
  718MPD2    C210612   3.186   0.075  13.143  0.1091  0.1512 -0.7533
  718MPD2    C310613   3.095   0.059  13.240 -0.4611 -0.2766  0.2839
  718MPD2    C410614   3.138   0.061  13.373  0.2714 -0.2892 -0.3308
  718MPD2    C510615   3.270   0.069  13.400  0.0391 -0.2022 -0.4876
  718MPD2     H10616   3.149   0.074  13.041 -1.4469  0.0675 -0.1764
  718MPD2    H110617   3.069   0.054  13.457  0.1687  1.1643 -0.3059
  718MPD2    H210618   3.472   0.086  13.328 -0.5081  0.9827  0.7300
  718MPD2    H310619   3.308   0.070  13.502  1.9833  2.1023 -1.2502
  718MPD2     N10620   2.961   0.079  13.201  0.1630  0.0025 -0.1191
  718MPD2    H510621   2.950   0.081  13.100  1.1924 -2.9124 -0.3099
  718MPD2    N110622   3.418   0.118  13.071  0.7890  0.0704 -0.4314
  718MPD2    H710623   3.518   0.111  13.085  0.8923 -0.7786 -1.5984
  719TMC3    C110624   3.495   0.170  12.844 -0.3058  0.1026 -0.3059
  719TMC3    C210625   3.453   0.114  12.730 -0.4187  0.3850 -0.3955
  719TMC3    C310626   3.479   0.172  12.616  0.2047  0.0383  0.1236
  719TMC3    C410627   3.561   0.292  12.835  0.0423  0.4000 -0.0005
  719TMC3    C510628   3.594   0.342  12.711 -0.0295 -0.5088  0.1060
  719TMC3    C610629   3.540   0.290  12.598 -0.8617 -0.3130 -0.9793
  719TMC3     C10630   3.387   0.154  12.941  0.1948 -0.5207 -0.1279
  719TMC3     O10631   3.281   0.169  12.889 -0.2821 -0.4433  0.0876
  719TMC3     H10632   3.401   0.018  12.735 -4.1852  2.5213  1.4990
  719TMC3    H110633   3.595   0.349  12.921 -1.0050  0.1100  0.6074
  719TMC3    H210634   3.554   0.334  12.500  2.3733 -1.3299 -0.9709
  719TMC3    C710635   3.648   0.474  12.687 -0.1848 -0.3637 -0.3650
  719TMC3    C810636   3.367   0.169  12.529  0.2589  0.2348 -0.5358
  719TMC3    O110637   3.674   0.510  12.574  0.3053  0.4080 -0.3213
  719TMC3    O210638   3.378   0.216  12.417  0.0069 -0.8223 -0.2261
  720MPD2     C10639   1.634   1.882  13.933  0.2785 -0.1811  0.3436
  720MPD2    C110640   1.659   2.020  13.930  0.2059  0.6279  1.1901
  720MPD2    C210641   1.764   2.070  14.003 -0.5983 -0.6812  0.6683
  720MPD2    C310642   1.858   1.979  14.058  0.4838 -0.4656  0.5221
  720MPD2    C410643   1.826   1.842  14.068  0.3005  0.4351  0.4688
  720MPD2    C510644   1.710   1.795  14.008  0.5673 -0.4260 -0.2327
  720MPD2     H10645   1.786   2.176  14.001  3.4319 -1.5105  1.4285
  720MPD2    H110646   1.895   1.782  14.127  1.2326  0.3242 -0.7344
  720MPD2    H210647   1.556   1.835  13.874 -0.4092  1.5538 -0.1322
  720MPD2    H310648   1.679   1.693  14.028 -0.4065  0.1286  1.1176
  720MPD2     N10649   1.977   2.033  14.108  0.3998 -0.3401  0.2326
  720MPD2    H510650   2.002   2.132  14.100  0.5885 -0.4125 -0.0612
  720MPD2    N110651   1.573   2.103  13.853  0.0410  0.2586 -0.8818
  720MPD2    H710652   1.517   2.047  13.789  0.8877 -0.7447 -0.7325
  721TMC3    C110653   2.190   2.024  14.219  0.2455  0.2127 -0.2697
  721TMC3    C210654   2.254   1.987  14.330  0.1598 -0.8926 -0.0820
  721TMC3    C310655   2.391   1.977  14.321  0.1519 -0.1240  0.5943
  721TMC3    C410656   2.249   2.075  14.106 -0.6188  0.4745 -0.2310
  721TMC3    C510657   2.383   2.052  14.092 -0.4285  0.3289 -0.1600
  721TMC3    C610658   2.453   2.002  14.200  0.3583  1.1269 -0.6680
  721TMC3     C10659   2.053   1.971  14.200  0.4596  0.6170  0.3915
  721TMC3     O10660   2.023   1.871  14.260 -0.1166 -0.1884 -0.0364
  721TMC3     H10661   2.207   1.948  14.419 -1.5409  0.9826 -0.1543
  721TMC3    H110662   2.184   2.108  14.026 -1.3261 -5.5320 -2.1415
  721TMC3    H210663   2.560   1.983  14.202  0.8977  4.3044  0.6237
  721TMC3    C710664   2.457   2.064  13.973  0.1729 -0.3031  0.7058
  721TMC3    C810665   2.473   1.960  14.432  0.5964  0.1841  0.2887
  721TMC3    O110666   2.577   2.049  13.979  0.2219 -0.2535 -0.0914
  721TMC3    O210667   2.589   1.921  14.411 -0.1963  0.0163 -0.7906
  722MPD2     C10668   0.389   0.591  13.546 -0.0479 -0.0320  0.2762
  722MPD2    C110669   0.368   0.713  13.499 -0.4170 -0.5086 -0.1370
  722MPD2    C210670   0.247   0.750  13.445 -0.3506  0.0327  0.3452
  722MPD2    C310671   0.142   0.661  13.445 -0.4528  0.5788 -0.4165
  722MPD2    C410672   0.167   0.533  13.498 -0.9625 -0.6125 -0.7215
  722MPD2    C510673   0.290   0.499  13.546 -0.4834  0.4138  1.1592
  722MPD2     H10674   0.232   0.842  13.392 -3.1917 -0.3561  0.4621
  722MPD2    H110675   0.093   0.455  13.510 -2.1069  0.7027  0.7932
  722MPD2    H210676   0.488   0.561  13.579 -0.7681 -1.6093  0.9958
  722MPD2    H310677   0.312   0.396  13.571  0.8090  0.5040  0.3958
  722MPD2     N10678   0.012   0.684  13.391  0.4730  0.5365  0.5606
  722MPD2    H510679   4.677   0.603  13.379  0.0201  0.7534  1.3380
  722MPD2    N110680   0.468   0.805  13.462  0.4320 -0.3645  0.5869
  722MPD2    H710681   0.433   0.883  13.407  0.7074  0.4696  1.5877
  723TMC3    C110682   4.558   0.817  13.287  0.6197 -0.4929  0.5798
  723TMC3    C210683   4.487   0.701  13.256 -0.1433  0.4234 -0.2353
  723TMC3    C310684   4.377   0.718  13.170 -0.3816  0.0468  0.3628
  723TMC3    C410685   4.517   0.933  13.231  0.0454 -0.1244 -0.5881
  723TMC3    C510686   4.406   0.942  13.152  0.6289  0.0935  0.9213
  723TMC3    C610687   4.340   0.831  13.109 -0.8967  0.0732 -0.1676
  723TMC3     C10688   4.686   0.804  13.357  0.3829  0.3021 -0.0064
  723TMC3     O10689   0.008   0.917  13.375 -0.3685  0.0949  0.6858
  723TMC3     H10690   4.506   0.607  13.306  2.2485  0.0287 -1.8869
  723TMC3    H110691   4.590   1.012  13.225 -0.0861  0.0249 -0.2590
  723TMC3    H210692   4.252   0.845  13.047  0.2569 -2.3736 -2.3725
  723TMC3    C710693   4.388   1.064  13.073 -0.3096 -0.4213  0.6726
  723TMC3    C810694   4.290   0.605  13.135 -0.1135  0.1893  0.9841
  723TMC3    O110695   4.362   1.051  12.957 -0.1454 -0.1376  0.6142
  723TMC3    O210696   4.176   0.638  13.109  0.9280  0.5702  0.0720
  724TMC3    C110697   1.463   3.765   9.788  0.3240  0.2701 -0.4287
  724TMC3    C210698   1.366   3.850   9.830  0.0731  0.6249  0.2417
  724TMC3    C310699   1.396   3.967   9.894 -0.4446  0.6168 -0.7683
  724TMC3    C410700   1.592   3.790   9.821  0.3982 -0.4379 -0.0141
  724TMC3    C510701   1.622   3.911   9.885 -0.2669 -1.2591 -0.7393
  724TMC3    C610702   1.523   4.008   9.910 -0.5126  0.0335  0.0286
  724TMC3     C10703   1.431   3.641   9.733 -0.4845 -0.0397  0.3990
  724TMC3     O10704   1.320   3.601   9.758  0.1311 -0.5018  0.1984
  724TMC3     H10705   1.266   3.830   9.794 -0.9871 -0.6085  3.9089
  724TMC3    H110706   1.675   3.721   9.808  2.3760  2.1436 -1.1749
  724TMC3    H210707   1.549   4.097   9.967 -0.7894  2.0192 -2.9848
  724TMC3    C710708   1.769   3.956   9.874  0.0924 -0.4960  0.2652
  724TMC3    C810709   1.284   4.048   9.940  0.5587  0.3579 -0.4022
  724TMC3    O110710   1.842   3.862   9.850  0.4129 -0.3129  0.3814
  724TMC3    O210711   1.180   3.991   9.940 -0.3779  0.5982 -0.2565
  725TMC3    C110712   2.066   2.336  12.828  1.0930  0.3147  0.5711
  725TMC3    C210713   1.941   2.320  12.767  0.0708 -0.2102 -0.0625
  725TMC3    C310714   1.925   2.297  12.633 -0.7427 -0.1901 -0.0019
  725TMC3    C410715   2.183   2.310  12.755  0.6462 -0.1403  0.7872
  725TMC3    C510716   2.157   2.296  12.621 -0.2970 -0.1652 -0.4573
  725TMC3    C610717   2.037   2.287  12.554  0.2219  0.6741 -0.3769
  725TMC3     C10718   2.076   2.403  12.955  0.5864  0.0367 -0.9700
  725TMC3     O10719   1.990   2.490  12.976 -0.0158  0.4817  0.4082
  725TMC3     H10720   1.861   2.315  12.840  0.4834  0.5719  0.4385
  725TMC3    H110721   2.284   2.320  12.792 -0.1316  0.3565  2.7561
  725TMC3    H210722   2.030   2.258  12.450  0.4228 -0.6332 -0.0264
  725TMC3    C710723   2.272   2.265  12.537 -0.2644 -0.0661  0.1085
  725TMC3    C810724   1.810   2.358  12.574 -0.1690  0.0248 -0.8790
  725TMC3    O110725   2.247   2.208  12.431 -0.2171 -0.5743  0.3253
  725TMC3    O210726   1.730   2.390  12.663  1.1191 -0.2814  0.2040
  726MPD2     C10727   0.618   3.811  10.593 -0.2978 -0.7450  0.3287
  726MPD2    C110728   0.522   3.909  10.604 -0.2544  0.4307  0.0157
  726MPD2    C210729   0.390   3.871  10.641  0.6620 -0.4546  0.4654
  726MPD2    C310730   0.363   3.742  10.671 -0.2993 -0.2319 -0.3455
  726MPD2    C410731   0.458   3.645  10.659  0.1247  0.1929  0.7882
  726MPD2    C510732   0.586   3.683  10.631  0.5611 -0.1637  0.2380
  726MPD2     H10733   0.315   3.948  10.653 -1.8450 -2.8128 -0.0460
  726MPD2    H110734   0.437   3.539  10.669 -0.8050  0.2636 -0.4672
  726MPD2    H210735   0.720   3.834  10.565 -0.9486 -0.7231 -1.9729
  726MPD2    H310736   0.664   3.608  10.622  0.2868 -0.5379  0.9769
  726MPD2     N10737   0.230   3.710  10.706 -0.1846  0.1781 -0.4966
  726MPD2    H510738   0.200   3.613  10.702  0.0643  0.0498  0.6873
  726MPD2    N110739   0.550   4.049  10.568 -0.1112  0.6139  0.2767
  726MPD2    H710740   0.465   4.103  10.556  0.5091  1.6101  0.3400
  727TMC3    C110741   0.680   4.240  10.524  0.4485  0.7993  0.0453
  727TMC3    C210742   0.768   4.318  10.588  0.2331  0.1255 -0.9032
  727TMC3    C310743   0.753   4.455  10.572 -0.0562  0.1479  0.5552
  727TMC3    C410744   0.562   4.290  10.473 -0.9270 -0.1074  0.1130
  727TMC3    C510745   0.539   4.424  10.477 -0.5844  0.6582 -0.2617
  727TMC3    C610746   0.642   4.508  10.512  0.8309  0.0725 -0.2142
  727TMC3     C10747   0.679   4.101  10.556 -0.1992  0.1150 -0.1187
  727TMC3     O10748   0.789   4.061  10.601  0.0040  0.6230 -0.2708
  727TMC3     H10749   0.852   4.272  10.639 -0.8829 -0.9036  0.0011
  727TMC3    H110750   0.491   4.228  10.420  0.5720 -0.0306 -1.9764
  727TMC3    H210751   0.631   4.615  10.494 -0.0810 -0.0541 -0.4151
  727TMC3    C710752   0.419   4.475  10.409  0.5850 -0.4417  0.2018
  727TMC3    C810753   0.866   4.538  10.613  0.0385  0.1431  0.2523
  727TMC3    O110754   0.344   4.388  10.369 -0.4501 -0.0122  0.3124
  727TMC3    O210755   0.973   4.485  10.640  0.1485  0.4215  0.0292
  728TMC3    C110756   4.386   2.388  15.479  0.7221 -0.8121 -0.2335
  728TMC3    C210757   4.513   2.411  15.465  0.4756 -0.7369 -0.4716
  728TMC3    C310758   4.566   2.463  15.350 -0.4106 -0.0717 -0.4300
  728TMC3    C410759   4.303   2.394  15.369 -0.3813  0.1364 -0.2258
  728TMC3    C510760   4.355   2.444  15.259  0.7555 -0.3403 -0.0281
  728TMC3    C610761   4.480   2.487  15.243 -0.4319 -0.0018  0.7722
  728TMC3     C10762   4.337   2.378  15.614 -0.5884 -0.4519  0.1938
  728TMC3     O10763   4.419   2.392  15.701 -0.0107 -0.5054  0.3050
  728TMC3     H10764   4.577   2.402  15.552  0.0323 -1.1110 -0.1846
  728TMC3    H110765   4.198   2.370  15.370 -1.0966  3.2964  0.4412
  728TMC3    H210766   4.523   2.525  15.151 -1.7255 -0.8331 -0.1784
  728TMC3    C710767   4.255   2.469  15.159  0.1548  0.3494 -0.0749
  728TMC3    C810768   4.707   2.466  15.326 -0.4716 -0.9592 -0.1741
  728TMC3    O110769   4.154   2.400  15.154 -0.4062 -0.7988 -0.8249
  728TMC3    O210770   0.013   2.545  15.236 -0.6492 -0.0046 -0.0836
  729MPD2     C10771   1.612   3.074  16.868 -0.1398  0.1890  0.1285
  729MPD2    C110772   1.621   3.205  16.862 -0.0119 -0.4216 -0.1464
  729MPD2    C210773   1.628   3.279  16.984 -0.1616 -0.2794  0.1035
  729MPD2    C310774   1.629   3.210  17.104  0.8979  0.0212  0.3842
  729MPD2    C410775   1.618   3.076  17.102  0.2445 -0.0069  0.2422
  729MPD2    C510776   1.596   3.011  16.986  0.1145  0.1129 -0.0409
  729MPD2     H10777   1.640   3.386  16.981 -1.9602 -0.0432  1.4004
  729MPD2    H110778   1.595   3.020  17.192 -2.1295  0.3253 -0.1456
  729MPD2    H210779   1.611   3.019  16.775 -0.4839  0.4921 -0.0493
  729MPD2    H310780   1.575   2.905  16.984  1.2492 -0.0979 -0.9260
  729MPD2     N10781   1.652   3.268  17.230 -1.0373 -0.0379 -0.7581
  729MPD2    H510782   1.675   3.209  17.309 -2.1349  0.1972 -0.2606
  729MPD2    N110783   1.645   3.261  16.735 -0.0197  0.7857  0.0584
  729MPD2    H710784   1.659   3.197  16.658  0.9244  1.1455 -0.0746
  730TMC3    C110785   1.689   3.464  17.370  0.6925 -0.3329 -0.8480
  730TMC3    C210786   1.819   3.431  17.392  0.9678 -0.3436  0.1331
  730TMC3    C310787   1.906   3.526  17.453  0.2986  0.3482 -0.1951
  730TMC3    C410788   1.640   3.587  17.415 -0.3488  0.2091  0.0710
  730TMC3    C510789   1.718   3.674  17.479  0.1991  0.5341 -0.4711
  730TMC3    C610790   1.857   3.646  17.487 -0.8677  0.6858  0.7191
  730TMC3     C10791   1.627   3.403  17.249 -0.1613  0.8567  0.0535
  730TMC3     O10792   1.572   3.483  17.175  0.0452  0.1314 -0.3875
  730TMC3     H10793   1.861   3.348  17.335  1.7275  1.3419 -1.7693
  730TMC3    H110794   1.539   3.618  17.394  0.1813  1.8218 -0.0708
  730TMC3    H210795   1.919   3.719  17.537 -0.3248  0.0035  1.0535
  730TMC3    C710796   1.673   3.811  17.461  0.0458 -0.4717 -0.4715
  730TMC3    C810797   2.041   3.508  17.398  0.0014 -0.7539  0.0497
  730TMC3    O110798   1.580   3.845  17.394  0.3447  0.4086 -0.2094
  730TMC3    O210799   2.082   3.393  17.394  0.1363  0.0977  0.0568
  731MPD2     C10800   1.773   1.944  12.329  0.0290  0.8039 -0.2778
  731MPD2    C110801   1.675   1.847  12.355 -0.4853 -0.6238  0.6916
  731MPD2    C210802   1.634   1.823  12.488 -0.4301  0.1960  0.4947
  731MPD2    C310803   1.703   1.884  12.591  0.5458  0.4116  0.1194
  731MPD2    C410804   1.795   1.983  12.565 -0.4262  0.3854  0.4185
  731MPD2    C510805   1.836   2.009  12.432 -0.0382 -0.5048  0.2126
  731MPD2     H10806   1.555   1.752  12.504  0.2127 -0.7680 -0.5807
  731MPD2    H110807   1.847   2.038  12.644  2.4161  0.6569 -1.6301
  731MPD2    H210808   1.799   1.966  12.227 -1.4026 -2.7451 -1.4028
  731MPD2    H310809   1.918   2.077  12.410 -0.3480 -0.6854 -1.5069
  731MPD2     N10810   1.676   1.837  12.722 -0.2913 -0.0350  0.0194
  731MPD2    H510811   1.607   1.763  12.728  0.4197 -0.6811  0.2929
  731MPD2    N110812   1.623   1.786  12.236 -0.3469 -0.2941 -0.2423
  731MPD2    H710813   1.672   1.799  12.148  0.5417 -1.8990  0.0018
  732TMC3    C110814   1.504   1.628  12.117 -0.3647 -0.1631  0.3659
  732TMC3    C210815   1.417   1.521  12.123 -0.1154  0.5823 -0.0386
  732TMC3    C310816   1.417   1.424  12.027 -0.0570 -0.0874  0.7161
  732TMC3    C410817   1.607   1.626  12.022  0.5622 -0.4483 -0.0130
  732TMC3    C510818   1.617   1.513  11.945  0.3502  0.3809  0.3394
  732TMC3    C610819   1.513   1.418  11.925  0.8181 -0.0643  0.6300
  732TMC3     C10820   1.516   1.704  12.242 -0.4792 -0.1584 -0.2795
  732TMC3     O10821   1.425   1.702  12.323 -0.3025 -0.0182 -0.5929
  732TMC3     H10822   1.335   1.527  12.194 -2.3891  0.5394 -2.6386
  732TMC3    H110823   1.674   1.710  12.010  0.7143 -0.1196  3.0283
  732TMC3    H210824   1.519   1.343  11.847 -1.7360  1.4373 -1.0294
  732TMC3    C710825   1.733   1.508  11.855 -0.5402  0.8667  0.6241
  732TMC3    C810826   1.298   1.348  12.007  0.7801 -0.2129 -0.0274
  732TMC3    O110827   1.721   1.428  11.759 -0.5581  0.1570  0.3263
  732TMC3    O210828   1.284   1.293  11.899 -0.1495 -0.4671  0.2132
  733TMC3    C110829   2.537   0.264  13.150  0.6774  0.4359 -0.7324
  733TMC3    C210830   2.628   0.198  13.233 -0.0661 -0.1105 -0.3951
  733TMC3    C310831   2.762   0.199  13.200 -0.0869  0.0145 -0.7445
  733TMC3    C410832   2.570   0.324  13.034 -0.0533  0.0341  0.2382
  733TMC3    C510833   2.702   0.299  12.997 -0.5087 -0.2117  0.4344
  733TMC3    C610834   2.801   0.250  13.078  0.5086  0.2400 -0.3097
  733TMC3     C10835   2.399   0.267  13.187  0.4745 -0.7219 -0.4390
  733TMC3     O10836   2.331   0.356  13.135  0.6353  0.0919 -0.3447
  733TMC3     H10837   2.587   0.174  13.331 -0.8955  1.0550 -0.4531
  733TMC3    H110838   2.487   0.353  12.969  1.5419 -0.1026 -1.8531
  733TMC3    H210839   2.906   0.259  13.053  0.2999  1.6137 -0.6949
  733TMC3    C710840   2.738   0.322  12.855  0.3246  0.2812  0.2118
  733TMC3    C810841   2.855   0.121  13.282  0.0552 -0.1394 -0.9881
  733TMC3    O110842   2.665   0.405  12.799 -0.4613  0.2902 -0.6699
  733TMC3    O210843   2.837   0.108  13.401 -0.1979 -0.2812 -0.3174
  734MPD2     C10844   0.451   2.625  12.724  0.2198 -0.0557  0.3388
  734MPD2    C110845   0.350   2.565  12.649 -0.0375 -0.1839  0.0885
  734MPD2    C210846   0.299   2.642  12.545 -0.0595  0.2564 -0.0986
  734MPD2    C310847   0.341   2.773  12.515 -0.4148 -0.2127 -0.0477
  734MPD2    C410848   0.440   2.831  12.598  0.2824  0.7257  0.5675
  734MPD2    C510849   0.490   2.752  12.697 -0.0885  0.6387 -0.1983
  734MPD2     H10850   0.232   2.598  12.473 -0.9945  2.3567 -0.5220
  734MPD2    H110851   0.483   2.928  12.580  0.2961  0.6124 -0.0071
  734MPD2    H210852   0.506   2.582  12.807  0.0079 -1.4309 -0.2433
  734MPD2    H310853   0.559   2.802  12.764  0.1669 -0.5171  0.3870
  734MPD2     N10854   0.291   2.829  12.397 -0.1583  0.2348  0.2323
  734MPD2    H510855   0.232   2.776  12.335  1.9343 -1.0133 -0.6807
  734MPD2    N110856   0.301   2.441  12.686 -0.2458 -0.2058  0.4095
  734MPD2    H710857   0.348   2.388  12.758  1.6589  0.2995 -0.4634
  735TMC3    C110858   0.156   2.260  12.677  0.0852  0.8821  0.2013
  735TMC3    C210859   0.035   2.226  12.628 -0.5835  0.1487 -0.2687
  735TMC3    C310860   0.018   2.108  12.556  0.5159  0.4495  0.6337
  735TMC3    C410861   0.262   2.174  12.656 -0.2218 -0.0180  0.2650
  735TMC3    C510862   0.242   2.058  12.581  0.8192 -0.9410  0.2904
  735TMC3    C610863   0.121   2.024  12.532 -0.4857 -0.3114  0.1449
  735TMC3     C10864   0.185   2.395  12.638 -0.5438  0.4579 -0.3715
  735TMC3     O10865   0.093   2.450  12.579  0.3808 -0.4527 -0.2905
  735TMC3     H10866   4.677   2.284  12.667  1.2788  0.0829  3.6909
  735TMC3    H110867   0.363   2.191  12.692 -0.4211 -0.2043  0.9009
  735TMC3    H210868   0.111   1.949  12.454 -0.6787 -1.8263  1.6499
  735TMC3    C710869   0.358   2.003  12.511  0.1089 -0.2300  0.0038
  735TMC3    C810870   4.669   2.132  12.435  0.1723  0.1006 -0.0696
  735TMC3    O110871   0.459   2.072  12.532 -0.2770  0.3126  0.0448
  735TMC3    O210872   4.632   2.040  12.365 -0.2434 -0.2137 -0.7000
  736MPD2     C10873   0.428   1.668  12.392 -0.0220  0.0760  0.6791
  736MPD2    C110874   0.462   1.795  12.419 -0.0123  0.2410  0.1549
  736MPD2    C210875   0.596   1.835  12.396 -0.1524 -0.1006  0.0068
  736MPD2    C310876   0.688   1.753  12.337  0.0422  0.0419  0.9268
  736MPD2    C410877   0.654   1.624  12.319 -0.4274 -0.5384 -0.7403
  736MPD2    C510878   0.524   1.577  12.345  0.5869 -0.3592  0.2000
  736MPD2     H10879   0.620   1.940  12.406  1.4944 -0.5015  0.3078
  736MPD2    H110880   0.721   1.550  12.277  1.3574  2.3860 -3.0433
  736MPD2    H210881   0.324   1.639  12.403 -0.1578 -0.2649 -1.4648
  736MPD2    H310882   0.483   1.480  12.321  0.4433  0.2156 -1.8076
  736MPD2     N10883   0.819   1.799  12.290  0.8379 -0.2120 -0.3007
  736MPD2    H510884   0.880   1.730  12.247  0.2514 -1.1063  0.2905
  736MPD2    N110885   0.355   1.877  12.460  0.3249 -0.4729  0.7602
  736MPD2    H710886   0.268   1.825  12.456  0.5090 -0.8799  2.1291
  737TMC3    C110887   0.973   1.951  12.200  0.2417 -0.0418  0.3262
  737TMC3    C210888   0.978   2.070  12.131 -0.3621  0.2175 -0.7452
  737TMC3    C310889   1.068   2.092  12.034 -0.7080 -0.1827  0.1654
  737TMC3    C410890   1.050   1.849  12.149  0.4928  0.5518 -0.3552
  737TMC3    C510891   1.146   1.871  12.057 -0.4479 -0.6784 -0.8981
  737TMC3    C610892   1.152   1.991  11.997  0.7368  0.0691 -0.1440
  737TMC3     C10893   0.864   1.928  12.294  0.3014 -0.8344 -0.1214
  737TMC3     O10894   0.814   2.027  12.342 -0.9604 -0.4759  0.2482
  737TMC3     H10895   0.914   2.152  12.163  0.3549  0.1852  0.7800
  737TMC3    H110896   1.050   1.759  12.209 -2.2414  0.9385  0.2606
  737TMC3    H210897   1.229   2.012  11.924 -2.5819 -1.1866 -4.0343
  737TMC3    C710898   1.178   1.746  11.980 -0.4954  0.2924  0.7619
  737TMC3    C810899   1.062   2.222  11.973  0.1156 -0.7529 -0.5445
  737TMC3    O110900   1.130   1.644  12.024 -0.1527 -0.1868  0.4026
  737TMC3    O210901   0.981   2.303  12.017  0.3452  0.3550  0.5041
  738MPD2     C10902   0.391   0.956  15.356 -0.3384  0.1794 -0.2982
  738MPD2    C110903   0.521   0.961  15.383  0.9814 -0.0017 -0.1953
  738MPD2    C210904   0.602   1.042  15.300  0.3753  0.3464  0.0208
  738MPD2    C310905   0.541   1.106  15.195  0.2862  0.4983 -0.2419
  738MPD2    C410906   0.410   1.080  15.160 -0.0806 -0.2819 -0.3139
  738MPD2    C510907   0.335   0.998  15.241 -0.2403  1.2025 -0.2458
  738MPD2     H10908   0.706   1.063  15.322  0.5761  0.4858 -1.0582
  738MPD2    H110909   0.361   1.106  15.067  0.8184  0.9357 -0.4455
  738MPD2    H210910   0.328   0.888  15.413  0.8617  0.2143  1.0723
  738MPD2    H310911   0.235   0.965  15.216 -0.6383  1.3183  1.2249
  738MPD2     N10912   0.607   1.196  15.102 -0.8727 -1.0076  0.2479
  738MPD2    H510913   0.553   1.230  15.024  0.2893  0.4736  0.0902
  738MPD2    N110914   0.577   0.898  15.504  0.5153  0.1059 -0.0233
  738MPD2    H710915   0.677   0.892  15.519  0.3222 -3.3383 -0.1658
  739TMC3    C110916   0.776   1.331  15.012 -0.5693  0.1201 -0.5889
  739TMC3    C210917   0.726   1.324  14.888 -1.0027  0.0872  0.6521
  739TMC3    C310918   0.794   1.398  14.795 -0.8528  0.3925  0.1755
  739TMC3    C410919   0.867   1.420  15.049 -0.2976 -0.0455  0.4623
  739TMC3    C510920   0.932   1.493  14.957  0.0310  0.7817  0.3861
  739TMC3    C610921   0.898   1.480  14.822  0.1621  0.2750 -0.3953
  739TMC3     C10922   0.734   1.242  15.115 -1.3551  0.2903 -0.3748
  739TMC3     O10923   0.813   1.225  15.210  0.5668  0.2523  0.6701
  739TMC3     H10924   0.653   1.251  14.856 -2.1361  0.2062  3.0155
  739TMC3    H110925   0.911   1.415  15.148  0.3215  0.1854  0.2017
  739TMC3    H210926   0.967   1.523  14.750 -0.2288  1.4469 -0.0596
  739TMC3    C710927   1.024   1.600  15.011 -0.0724 -0.4524 -0.5130
  739TMC3    C810928   0.733   1.399  14.659  0.3889 -0.5685 -0.0424
  739TMC3    O110929   1.045   1.589  15.132 -0.0228  0.4697  0.7589
  739TMC3    O210930   0.640   1.320  14.651  0.2037 -0.7514  0.1426
  740TMC3    C110931   1.672   2.408  14.392  0.7379  0.3379 -0.5023
  740TMC3    C210932   1.701   2.304  14.478  0.3927  0.1723 -0.0669
  740TMC3    C310933   1.821   2.239  14.459  0.3979 -0.8429 -0.0443
  740TMC3    C410934   1.756   2.452  14.294  0.1617  0.0908  0.0949
  740TMC3    C510935   1.874   2.384  14.274  0.6166 -0.2850 -0.8210
  740TMC3    C610936   1.912   2.288  14.371 -0.0131  0.6412  0.1015
  740TMC3     C10937   1.537   2.459  14.385  0.9520  0.1447  0.6757
  740TMC3     O10938   1.504   2.503  14.277 -0.0034  0.2449  0.1402
  740TMC3     H10939   1.634   2.273  14.557  0.6008 -1.7232 -0.6307
  740TMC3    H110940   1.724   2.538  14.236 -2.0755  0.1084  1.3369
  740TMC3    H210941   1.993   2.220  14.348 -0.0555  0.3590  0.8105
  740TMC3    C710942   1.939   2.366  14.138 -0.6591 -0.8401  0.1216
  740TMC3    C810943   1.871   2.146  14.566  0.4751  0.6929 -0.0578
  740TMC3    O110944   2.043   2.307  14.137  0.1028 -0.6831  0.1186
  740TMC3    O210945   1.994   2.123  14.563  0.5189 -0.2874 -0.0288
  741TMC3    C110946   0.495   1.996  13.834  0.6664 -0.4199  0.0427
  741TMC3    C210947   0.465   1.867  13.870  0.2207  0.0647 -0.2866
  741TMC3    C310948   0.532   1.808  13.971  0.2888 -0.3992 -1.1701
  741TMC3    C410949   0.609   2.055  13.885  0.4035 -0.0024 -0.0436
  741TMC3    C510950   0.681   1.982  13.980  0.3511  0.2475 -0.3625
  741TMC3    C610951   0.631   1.866  14.037  0.4287 -0.1421 -0.0410
  741TMC3     C10952   0.413   2.075  13.761  0.0170  0.3194  0.5832
  741TMC3     O10953   0.443   2.191  13.740  0.1554 -1.1304  0.1174
  741TMC3     H10954   0.375   1.818  13.836 -1.1086  0.4983  2.6192
  741TMC3    H110955   0.643   2.151  13.849  1.9925 -0.1608  1.0366
  741TMC3    H210956   0.696   1.808  14.101 -0.2105  0.0591  0.7939
  741TMC3    C710957   0.819   2.018  14.024  0.1659  0.2916  0.0349
  741TMC3    C810958   0.462   1.698  14.028 -0.2675  0.4426  0.0353
  741TMC3    O110959   0.882   1.942  14.095 -0.3960 -0.7118  0.3363
  741TMC3    O210960   0.387   1.622  13.968  0.4384 -0.2034  0.6703
  742TMC3    C110961   0.872   0.073  15.678  0.1508 -0.2963  0.4151
  742TMC3    C210962   0.783   0.073  15.572 -0.0651  0.6021 -0.3064
  742TMC3    C310963   0.814   0.018  15.449 -0.7471  0.5241  0.5340
  742TMC3    C410964   0.998   0.037  15.649 -0.6467  0.5359  0.2718
  742TMC3    C510965   1.033   0.002  15.523  0.2287  0.3861 -0.4276
  742TMC3    C610966   0.945   4.712  15.422  0.3280  0.9573 -0.0112
  742TMC3     C10967   0.837   0.136  15.803 -0.0876 -0.5319 -0.1310
  742TMC3     O10968   0.719   0.142  15.832 -0.3691  0.1151  0.0626
  742TMC3     H10969   0.678   0.080  15.598 -0.5028  0.3477 -2.0245
  742TMC3    H110970   1.070   0.025  15.729 -0.9514  1.7223  0.7279
  742TMC3    H210971   0.979   4.678  15.325 -1.2356 -0.5097 -0.0556
  742TMC3    C710972   1.171   4.711  15.487 -0.2497  0.1133  0.0966
  742TMC3    C810973   0.719   0.011  15.343 -0.3129  0.2421 -0.6094
  742TMC3    O110974   1.196   4.631  15.402 -0.3455 -0.0151  0.6914
  742TMC3    O210975   0.762   4.685  15.239  0.1671  0.5936 -0.3449
  743MPD2     C10976   4.538   0.432   1.742  0.0312  0.3134 -0.3859
  743MPD2    C110977   4.480   0.508   1.640 -0.0313  0.2221  0.4663
  743MPD2    C210978   4.533   0.495   1.513  0.3509 -1.5307 -0.2946
  743MPD2    C310979   4.627   0.395   1.490 -0.6261 -0.5205  0.1647
  743MPD2    C410980   4.674   0.309   1.591 -0.2043  0.3011 -0.9464
  743MPD2    C510981   4.637   0.338   1.719  0.5270 -0.1130  0.6665
  743MPD2     H10982   4.515   0.562   1.429  0.7507 -0.0619  0.7804
  743MPD2    H110983   0.025   0.233   1.577 -0.6273 -0.2723 -0.0911
  743MPD2    H210984   4.508   0.438   1.846  1.1240  0.4683 -0.0792
  743MPD2    H310985   4.685   0.297   1.806  0.3209 -1.4046  0.1677
  743MPD2     N10986   4.666   0.388   1.360 -0.0330  0.1881 -0.6124
  743MPD2    H510987   4.628   0.460   1.300 -0.1669  1.1355  0.6128
  743MPD2    N110988   4.368   0.592   1.681  0.6361  0.2951 -0.5563
  743MPD2    H710989   4.338   0.584   1.778  0.7681 -2.7577 -0.7625
  744TMC3    C110990   4.184   0.745   1.651  0.5586 -0.2435 -0.0000
  744TMC3    C210991   4.092   0.650   1.674 -0.4096 -0.2915 -0.5450
  744TMC3    C310992   3.963   0.675   1.626  0.1905 -0.7615  0.1641
  744TMC3    C410993   4.159   0.864   1.581  0.3549 -0.5683  0.0576
  744TMC3    C510994   4.034   0.881   1.524  0.2062  0.2423 -0.0331
  744TMC3    C610995   3.935   0.790   1.554  0.1868  0.9453 -0.9725
  744TMC3     C10996   4.310   0.697   1.608 -0.2411 -0.7488 -0.7712
  744TMC3     O10997   4.361   0.749   1.511 -0.0118  0.0791 -0.0257
  744TMC3     H10998   4.115   0.562   1.733  1.6677  0.8696  0.3830
  744TMC3    H110999   4.244   0.925   1.555 -1.0494  0.7460 -1.3973
  744TMC3    H211000   3.838   0.814   1.513 -1.3026  0.2598  2.1005
  744TMC3    C711001   4.019   0.958   1.400 -0.0271 -0.2548  0.2470
  744TMC3    C811002   3.862   0.572   1.657 -0.4730 -0.1646 -0.0982
  744TMC3    O111003   4.122   0.997   1.352  0.5307  0.0118  0.0696
  744TMC3    O211004   3.891   0.483   1.732 -0.5611 -0.5744 -0.1849
  745TMC3    C111005   1.274   4.541  13.804  0.0845 -0.0966  0.3429
  745TMC3    C211006   1.156   4.521  13.879  0.6600  0.1084  0.4736
  745TMC3    C311007   1.036   4.515  13.811  0.0589 -0.5982 -0.1018
  745TMC3    C411008   1.265   4.579  13.672  0.1987 -0.5125 -0.5378
  745TMC3    C511009   1.139   4.580  13.620  0.1718 -0.4713  0.0744
  745TMC3    C611010   1.017   4.548  13.684  0.0547 -0.0367  0.1023
  745TMC3     C11011   1.387   4.605  13.883  0.0846  0.1538 -0.3708
  745TMC3     O11012   1.474   4.646  13.804  0.0668 -0.4087  0.2090
  745TMC3     H11013   1.160   4.479  13.978  0.3065 -1.2933 -0.0977
  745TMC3    H111014   1.351   4.591  13.608  1.1262  1.2669  1.0581
  745TMC3    H211015   0.916   4.543  13.644  0.7516 -0.7561 -1.5526
  745TMC3    C711016   1.118   4.645  13.491  0.1831 -0.5317 -0.3595
  745TMC3    C811017   0.921   4.537  13.897 -0.0008  0.6744  0.3565
  745TMC3    O111018   1.019   4.609  13.429  0.1239 -0.2863 -0.3771
  745TMC3    O211019   0.818   4.480  13.857 -0.1048 -0.4237  0.7506
  746TMC3    C111020   3.551   1.937  11.384  0.3740  0.1385 -0.2973
  746TMC3    C211021   3.671   1.914  11.312 -0.0875  0.6971 -0.1304
  746TMC3    C311022   3.673   1.802  11.238 -0.1442  0.5829  0.0527
  746TMC3    C411023   3.441   1.853  11.374  0.1235 -0.0233  0.3570
  746TMC3    C511024   3.447   1.743  11.292 -0.4872 -1.1048  0.3415
  746TMC3    C611025   3.565   1.721  11.218  0.1470  0.4939 -0.1903
  746TMC3     C11026   3.530   2.070  11.438 -0.0704  0.8222  0.4245
  746TMC3     O11027   3.425   2.099  11.493 -0.1338 -0.4733 -0.1334
  746TMC3     H11028   3.766   1.965  11.318  0.2219  0.0948  0.2021
  746TMC3    H111029   3.348   1.879  11.423 -0.1648  3.3414 -1.9548
  746TMC3    H211030   3.570   1.657  11.130 -1.5437  0.2956 -0.1352
  746TMC3    C711031   3.342   1.652  11.263 -0.2342  0.3434  0.1454
  746TMC3    C811032   3.791   1.756  11.171 -0.1306  0.3694  0.4608
  746TMC3    O111033   3.363   1.578  11.166 -0.2154 -0.0800  0.0129
  746TMC3    O211034   3.810   1.631  11.166  0.1151 -0.1652  0.0779
  747TMC3    C111035   1.485   1.900  11.067  0.3956  0.0608 -0.0534
  747TMC3    C211036   1.510   1.778  11.115  0.5135  0.3342  0.3088
  747TMC3    C311037   1.569   1.767  11.240  0.4100  0.2277  0.2798
  747TMC3    C411038   1.534   2.013  11.127  0.3973  0.6858 -0.0287
  747TMC3    C511039   1.605   2.002  11.246  0.9964  0.0695  1.0490
  747TMC3    C611040   1.607   1.880  11.303  0.1055 -0.2466  0.1938
  747TMC3     C11041   1.406   1.927  10.954 -0.1555  0.3029  0.2217
  747TMC3     O11042   1.370   2.042  10.948 -0.7625  0.9837  0.7515
  747TMC3     H11043   1.463   1.689  11.074 -0.3550  1.7094 -1.6523
  747TMC3    H111044   1.515   2.115  11.096 -0.9033  0.5333  0.2763
  747TMC3    H211045   1.657   1.869  11.399 -2.3787 -2.2800  1.2724
  747TMC3    C711046   1.637   2.113  11.328 -0.0268 -0.2591 -0.4706
  747TMC3    C811047   1.503   1.671  11.320  0.3807  0.3671  0.6271
  747TMC3    O111048   1.643   2.096  11.449  0.1247  0.2868  0.1236
  747TMC3    O211049   1.462   1.573  11.261  0.1383 -0.1845 -0.3846
  748MPD2     C11050   3.386   1.475   1.447 -0.3770  0.4754  0.4109
  748MPD2    C111051   3.476   1.565   1.501 -0.9341 -0.0653  0.4231
  748MPD2    C211052   3.463   1.698   1.463 -0.2072 -0.3164 -0.3333
  748MPD2    C311053   3.366   1.740   1.380  0.4406 -0.2258  1.0393
  748MPD2    C411054   3.277   1.650   1.324 -0.4162  0.4571  0.1302
  748MPD2    C511055   3.297   1.519   1.356  0.2760 -0.9505 -0.4050
  748MPD2     H11056   3.537   1.772   1.490  1.3144 -1.3224 -1.7137
  748MPD2    H111057   3.189   1.676   1.267 -1.6606 -0.2535  1.7445
  748MPD2    H211058   3.388   1.369   1.469  1.2066  0.6410  1.0677
  748MPD2    H311059   3.235   1.444   1.308  0.1278 -0.8415 -0.3836
  748MPD2     N11060   3.361   1.885   1.347  0.2632  0.0104 -0.1103
  748MPD2    H511061   3.427   1.945   1.395 -0.0762  1.4436 -1.4403
  748MPD2    N111062   3.584   1.514   1.574 -0.3491 -0.0160  0.2930
  748MPD2    H711063   3.575   1.419   1.611  2.7620  0.1570  1.4456
  749TMC3    C111064   3.298   2.083   1.240 -0.0884 -0.3566  0.0530
  749TMC3    C211065   3.352   2.142   1.352 -0.5973  1.3362  0.1849
  749TMC3    C311066   3.383   2.273   1.351  0.4413 -0.2350  0.3590
  749TMC3    C411067   3.309   2.143   1.111  0.2291 -0.3474  0.4170
  749TMC3    C511068   3.353   2.268   1.112  0.1805  0.5931 -0.8537
  749TMC3    C611069   3.389   2.337   1.228  0.6017 -0.7450  0.0779
  749TMC3     C11070   3.272   1.941   1.253 -0.2859  0.2320 -0.0878
  749TMC3     O11071   3.191   1.889   1.177 -0.0194 -0.1497 -0.1229
  749TMC3     H11072   3.342   2.091   1.448  0.1509 -1.0495 -0.9931
  749TMC3    H111073   3.280   2.074   1.033  1.3681 -1.3048  0.8248
  749TMC3    H211074   3.410   2.444   1.224  0.0730 -0.6204  0.7818
  749TMC3    C711075   3.409   2.325   0.987  0.5488  0.0546 -0.0020
  749TMC3    C811076   3.468   2.311   1.455  0.0719  0.2406 -0.0366
  749TMC3    O111077   3.462   2.435   1.001  0.5615 -0.7436 -0.1310
  749TMC3    O211078   3.407   2.355   1.554 -0.0535 -0.1909  0.2994
  750MPD2     C11079   4.176   3.723  11.515 -0.1333  0.1954 -0.3241
  750MPD2    C111080   4.050   3.681  11.533 -0.4312  0.7337  0.0398
  750MPD2    C211081   3.987   3.607  11.436 -0.1850  0.0890 -0.3585
  750MPD2    C311082   4.060   3.574  11.320  0.1684 -0.0086 -0.1496
  750MPD2    C411083   4.187   3.619  11.308 -0.7168  0.8569  0.2183
  750MPD2    C511084   4.248   3.695  11.402  0.3719 -0.0998 -0.4608
  750MPD2     H11085   3.885   3.572  11.439  0.3915 -1.4651  0.9842
  750MPD2    H111086   4.249   3.599  11.221  0.2417  0.2672  1.0323
  750MPD2    H211087   4.224   3.777  11.596 -0.7061  0.4309 -0.1410
  750MPD2    H311088   4.339   3.750  11.383  1.4808 -1.9425 -0.5051
  750MPD2     N11089   4.005   3.495  11.218  0.3466  0.0586  0.4229
  750MPD2    H511090   4.065   3.484  11.137 -2.7083 -0.8692 -1.7210
  750MPD2    N111091   3.978   3.735  11.645  0.2113  0.0486  0.3337
  750MPD2    H711092   4.021   3.805  11.705  0.6196  0.0128  0.0773
  751TMC3    C111093   3.855   3.397  11.071  0.4829 -0.0447  0.4863
  751TMC3    C211094   3.728   3.406  11.024  0.0170  0.2577  0.1193
  751TMC3    C311095   3.703   3.338  10.905 -0.1649 -0.5323 -0.6512
  751TMC3    C411096   3.952   3.311  11.018 -0.4417 -0.0543  0.2694
  751TMC3    C511097   3.916   3.236  10.910  0.1091 -0.1270  0.5894
  751TMC3    C611098   3.792   3.248  10.856  0.1214 -0.3688  0.1849
  751TMC3     C11099   3.880   3.435  11.207  0.0455  0.2663  0.5768
  751TMC3     O11100   3.777   3.457  11.273  0.2599 -0.4282  0.5858
  751TMC3     H11101   3.654   3.469  11.071  0.5731 -0.6802  2.2763
  751TMC3    H111102   4.054   3.311  11.054 -0.0490  1.5447 -0.8220
  751TMC3    H211103   3.765   3.180  10.775  1.6611 -0.0910 -0.5695
  751TMC3    C711104   4.003   3.130  10.858  0.0037 -0.3164  0.5549
  751TMC3    C811105   3.570   3.288  10.890 -1.0471  0.4040  0.7277
  751TMC3    O111106   4.121   3.152  10.867  0.0471 -0.4456  0.4074
  751TMC3    O211107   3.547   3.187  10.823  0.3791 -0.5931  0.0924
  752TMC3    C111108   2.337   2.807  17.112 -0.5126  0.1018 -0.3453
  752TMC3    C211109   2.395   2.698  17.166  0.6216 -0.8562 -0.8190
  752TMC3    C311110   2.478   2.715  17.269  0.1609  0.0679 -0.4805
  752TMC3    C411111   2.350   2.935  17.176  0.3939 -0.5156 -0.5650
  752TMC3    C511112   2.448   2.947  17.273  0.0403  0.3039 -0.2269
  752TMC3    C611113   2.502   2.835  17.334 -0.3890  1.0193 -0.0043
  752TMC3     C11114   2.327   2.804  16.964  0.4624 -0.1822 -0.4784
  752TMC3     O11115   2.395   2.718  16.909 -0.4556 -0.6014 -0.3808
  752TMC3     H11116   2.393   2.602  17.115 -1.9700 -0.2137 -1.9343
  752TMC3    H111117   2.318   3.030  17.135  0.0183 -0.4243 -0.0625
  752TMC3    H211118   2.571   2.849  17.416  0.2580  1.5100 -0.6287
  752TMC3    C711119   2.450   3.069  17.344 -0.0024  0.1089 -0.1983
  752TMC3    C811120   2.517   2.599  17.339 -0.4897  0.1790 -0.3512
  752TMC3    O111121   2.357   3.148  17.342  0.0850  0.8484 -0.5580
  752TMC3    O211122   2.496   2.603  17.462  0.4479 -0.5434 -0.0387
  753TMC3    C111123   4.416   0.136  13.828  0.1896 -0.1458  0.1051
  753TMC3    C211124   4.470   0.100  13.954 -0.4774 -0.4323 -0.4535
  753TMC3    C311125   4.472   4.691  13.990  0.7439 -0.1615  0.5263
  753TMC3    C411126   4.372   0.044  13.740  0.7449 -0.1837 -0.4281
  753TMC3    C511127   4.375   4.633  13.778 -0.4718  1.0516  0.6144
  753TMC3    C611128   4.423   4.598  13.899  0.1503 -0.5092 -0.3396
  753TMC3     C11129   4.396   0.279  13.796  0.0332 -0.4724  0.0865
  753TMC3     O11130   4.379   0.312  13.675 -0.0761  0.1299  0.2173
  753TMC3     H11131   4.525   0.161  14.025 -0.4999 -0.4003 -0.4639
  753TMC3    H111132   4.320   0.081  13.652 -0.5392  3.7248  1.9984
  753TMC3    H211133   4.427   4.493  13.923 -3.0334 -0.3707  0.8745
  753TMC3    C711134   4.313   4.536  13.684 -0.1219  0.2499  0.3622
  753TMC3    C811135   4.526   4.637  14.117  0.2570  0.0813  0.6554
  753TMC3    O111136   4.301   4.570  13.568  0.0485  0.3015 -0.0766
  753TMC3    O211137   4.507   4.518  14.127 -0.2146 -0.2562  0.5933
  754MPD2     C11138   2.844   3.499  13.311  0.3458  0.0945  0.5847
  754MPD2    C111139   2.840   3.374  13.368 -0.2111  0.3870  0.2835
  754MPD2    C211140   2.728   3.294  13.366  0.1245  0.3300  0.3967
  754MPD2    C311141   2.612   3.341  13.300 -0.4748 -0.5238  0.7825
  754MPD2    C411142   2.628   3.455  13.230 -0.3328 -0.5193  0.0637
  754MPD2    C511143   2.736   3.535  13.233 -0.6513 -0.2935  0.9785
  754MPD2     H11144   2.730   3.193  13.407  0.3217  0.4355  0.6433
  754MPD2    H111145   2.546   3.484  13.165  0.1976 -2.0245 -1.2730
  754MPD2    H211146   2.937   3.554  13.315  0.2500  0.4633 -2.2055
  754MPD2    H311147   2.738   3.625  13.172  0.3837 -1.0014 -0.0186
  754MPD2     N11148   2.483   3.269  13.302 -0.5881 -0.9719 -1.0270
  754MPD2    H511149   2.404   3.321  13.265 -0.2725  1.6183  2.0448
  754MPD2    N111150   2.954   3.315  13.425 -0.5401 -0.3359  0.0265
  754MPD2    H711151   2.937   3.230  13.477 -3.3465  0.0713 -0.2017
  755MPD2     C11152   1.514   3.462  13.297  0.3120 -0.0199  0.8534
  755MPD2    C111153   1.628   3.518  13.354  0.1086  0.2546  0.6447
  755MPD2    C211154   1.747   3.453  13.352 -0.1192 -0.6443  0.1776
  755MPD2    C311155   1.755   3.329  13.289  0.6731  0.2772 -0.1175
  755MPD2    C411156   1.644   3.276  13.231  0.1544  0.2118 -0.5296
  755MPD2    C511157   1.523   3.342  13.241 -0.2904  0.4877 -0.0287
  755MPD2     H11158   1.836   3.505  13.384 -1.4188  1.7712 -0.1568
  755MPD2    H111159   1.647   3.178  13.185 -0.4309 -0.7339  1.4203
  755MPD2    H211160   1.412   3.499  13.292  0.4067  0.3357  1.5167
  755MPD2    H311161   1.441   3.293  13.189  0.1195  0.0216 -0.2386
  755MPD2     N11162   1.875   3.255  13.283 -0.5138  0.0693 -0.1449
  755MPD2    H511163   1.860   3.166  13.236 -0.3615 -0.5341  0.9265
  755MPD2    N111164   1.635   3.633  13.434  0.4709  0.3413 -0.3727
  755MPD2    H711165   1.726   3.657  13.470  0.8795 -1.9915  0.1126
  756MPD2     C11166   3.372   4.605   9.771  0.0018  0.2575  0.3393
  756MPD2    C111167   3.328   4.527   9.877 -0.0561  0.0905 -0.0265
  756MPD2    C211168   3.197   4.496   9.885  0.3457 -0.4562 -0.9550
  756MPD2    C311169   3.104   4.514   9.784 -0.0395  0.7596 -0.0139
  756MPD2    C411170   3.153   4.585   9.676 -0.1254  1.0213 -0.3920
  756MPD2    C511171   3.284   4.627   9.670 -0.0971  0.0461  0.0202
  756MPD2     H11172   3.157   4.432   9.963 -1.6069  1.5227 -0.3540
  756MPD2    H111173   3.082   4.623   9.603 -1.3638 -0.9225 -0.1940
  756MPD2    H211174   3.465   4.660   9.761 -0.8793  1.5201 -0.8745
  756MPD2    H311175   3.318   4.683   9.583  0.4497  1.5543  1.1978
  756MPD2     N11176   2.970   4.474   9.796 -0.0983 -0.2506 -0.3214
  756MPD2    H511177   2.946   4.441   9.888 -0.8161 -0.4523 -0.5766
  756MPD2    N111178   3.414   4.485   9.986  0.3952 -0.4498 -0.0356
  756MPD2    H711179   3.380   4.425  10.060 -1.5114  0.1344 -0.4462
  757MPD2     C11180   2.709   3.656   9.826  0.3294  0.8136 -0.3121
  757MPD2    C111181   2.807   3.732   9.769 -0.0966  0.2708 -0.8417
  757MPD2    C211182   2.794   3.876   9.771  0.6433 -0.4824  0.4383
  757MPD2    C311183   2.698   3.936   9.844 -0.2162  0.4211 -0.2390
  757MPD2    C411184   2.602   3.854   9.906 -0.6631  0.8077 -0.1447
  757MPD2    C511185   2.606   3.719   9.888  0.1576  0.7356 -0.6874
  757MPD2     H11186   2.870   3.942   9.730 -0.5280 -0.8890 -2.4241
  757MPD2    H111187   2.523   3.886   9.974 -0.5095 -0.4370  0.6052
  757MPD2    H211188   2.709   3.548   9.818 -0.4861  0.7841  0.1118
  757MPD2    H311189   2.531   3.655   9.934 -0.4657  2.1057  0.2150
  757MPD2     N11190   2.700   4.076   9.855  0.2473 -0.0585 -0.0875
  757MPD2    H511191   2.755   4.125   9.785  0.1048  1.2022  0.6797
  757MPD2    N111192   2.913   3.672   9.699 -0.2188  0.0293 -0.3958
  757MPD2    H711193   2.924   3.572   9.709  1.1292  0.0046 -2.2591
  758MPD2     C11194   3.315   3.208  16.071  0.1446 -0.1106 -0.5701
  758MPD2    C111195   3.311   3.088  16.128 -0.2811 -0.4511 -0.0590
  758MPD2    C211196   3.214   3.074  16.227  0.3223  0.0131  0.2009
  758MPD2    C311197   3.120   3.167  16.260  0.4149 -0.7625 -0.0638
  758MPD2    C411198   3.125   3.289  16.198 -0.1749 -0.5371  0.5643
  758MPD2    C511199   3.220   3.312  16.097 -0.1101  0.1708 -0.5458
  758MPD2     H11200   3.222   2.979  16.279  0.6620  0.1294  0.3623
  758MPD2    H111201   3.060   3.367  16.235  2.6990  2.4895 -0.8345
  758MPD2    H211202   3.398   3.236  16.007  2.1455 -1.0001  1.6371
  758MPD2    H311203   3.247   3.409  16.056 -1.5660  1.1334  0.7960
  758MPD2     N11204   3.028   3.157  16.364 -0.2018 -0.4870 -0.3576
  758MPD2    H511205   2.995   3.237  16.417 -0.3128 -1.1446  0.5600
  758MPD2    N111206   3.400   2.988  16.084  0.3409  0.3649  0.5256
  758MPD2    H711207   3.462   3.013  16.008 -0.1234 -0.4135 -0.1208
  759MPD2     C11208   2.396   2.158  10.315 -0.5571  0.0676 -0.0967
  759MPD2    C111209   2.390   2.024  10.278  0.2508 -0.1920  0.1839
  759MPD2    C211210   2.483   1.979  10.182  0.6039  0.5076 -0.3393
  759MPD2    C311211   2.579   2.065  10.135 -0.0347 -0.5111  0.1609
  759MPD2    C411212   2.589   2.193  10.175  0.1719 -0.4670 -0.2363
  759MPD2    C511213   2.498   2.243  10.268  0.0581 -0.4056 -0.2182
  759MPD2     H11214   2.490   1.872  10.163 -2.9930  0.1114  0.5221
  759MPD2    H111215   2.658   2.261  10.125  0.4183  0.1328  0.9081
  759MPD2    H211216   2.322   2.203  10.381 -0.7907 -2.3472  1.2788
  759MPD2    H311217   2.496   2.348  10.293 -0.9938  0.0559 -2.2710
  759MPD2     N11218   2.660   2.004  10.036 -0.9185 -0.1365  0.1784
  759MPD2    H511219   2.644   1.906  10.015  0.2529 -0.2312 -0.2861
  759MPD2    N111220   2.293   1.928  10.316  0.5397 -0.1071 -0.8444
  759MPD2    H711221   2.310   1.831  10.291 -0.0044 -0.5937  0.7173
  760MPD2     C11222   1.913   3.534  12.311  0.9997 -0.2009 -0.6897
  760MPD2    C111223   2.000   3.535  12.200 -0.4634  0.5879  0.2679
  760MPD2    C211224   2.026   3.421  12.131  0.1556  0.3815  0.5827
  760MPD2    C311225   1.958   3.303  12.169 -0.1961 -0.0534 -0.2659
  760MPD2    C411226   1.881   3.302  12.287  0.8120  0.4869  0.6379
  760MPD2    C511227   1.852   3.419  12.352 -0.2126 -0.3517  0.0160
  760MPD2     H11228   2.087   3.412  12.042 -2.8846 -1.1162 -1.3467
  760MPD2    H111229   1.814   3.221  12.315 -0.7884  2.0252  1.2236
  760MPD2    H211230   1.880   3.625  12.359  2.5493 -0.2221  0.4035
  760MPD2    H311231   1.796   3.424  12.444  0.4564  3.0445  0.2342
  760MPD2     N11232   1.942   3.187  12.085 -0.3442 -0.3964  0.1054
  760MPD2    H511233   1.880   3.116  12.122  0.0256 -1.2320 -0.8830
  760MPD2    N111234   2.063   3.656  12.145  0.1704  0.5713  0.0932
  760MPD2    H711235   2.148   3.653  12.089  0.4441  0.1938  0.5216
  761MPD2     C11236   3.066   3.267  10.974  0.7051  0.5879  0.0399
  761MPD2    C111237   3.162   3.170  10.962  0.3992 -0.3922 -0.3835
  761MPD2    C211238   3.296   3.202  10.952  0.5061  0.0398  0.2205
  761MPD2    C311239   3.339   3.334  10.949  0.9067 -0.1107  0.2985
  761MPD2    C411240   3.240   3.434  10.965  0.2808  0.2520 -0.2834
  761MPD2    C511241   3.108   3.396  10.968 -0.1656 -0.5605  0.1971
  761MPD2     H11242   3.372   3.125  10.959  2.8425  2.5226  2.4146
  761MPD2    H111243   3.275   3.536  10.970 -0.2342  0.4552 -0.7359
  761MPD2    H211244   2.962   3.243  10.991  0.3976  0.6986 -1.6711
  761MPD2    H311245   3.040   3.479  10.985 -0.1333 -0.2057 -1.3699
  761MPD2     N11246   3.475   3.373  10.948  0.8287 -0.0682 -0.1621
  761MPD2    H511247   3.497   3.471  10.964  0.7664 -0.0735 -0.0497
  761MPD2    N111248   3.122   3.035  10.982 -0.1257 -0.6008 -0.2771
  761MPD2    H711249   3.047   3.014  11.047 -1.6997 -0.0597 -1.9370
  762MPD2     C11250   3.821   2.769  11.336 -0.3961  0.2525  0.3868
  762MPD2    C111251   3.751   2.726  11.227  0.8535  0.0739  0.2251
  762MPD2    C211252   3.829   2.687  11.116 -0.5274 -1.1564  0.2080
  762MPD2    C311253   3.963   2.701  11.109 -0.2249 -0.0224 -1.0566
  762MPD2    C411254   4.036   2.750  11.214 -0.1175 -0.3985  0.2370
  762MPD2    C511255   3.959   2.789  11.328  1.0666  0.1567 -0.0976
  762MPD2     H11256   3.773   2.652  11.030 -2.1130  2.1448 -0.1143
  762MPD2    H111257   4.143   2.764  11.214 -0.2377  0.5211 -0.1001
  762MPD2    H211258   3.770   2.810  11.422  0.7259  1.6665  0.3728
  762MPD2    H311259   4.009   2.841  11.409 -3.7071  2.1705  1.5545
  762MPD2     N11260   4.022   2.665  10.985 -0.2060  0.4673  0.4421
  762MPD2    H511261   3.954   2.620  10.925  0.6654  0.8619 -0.8176
  762MPD2    N111262   3.611   2.720  11.233  0.2121  0.1953 -0.0889
  762MPD2    H711263   3.563   2.763  11.312 -0.0866 -2.8851  1.4043
  763MPD2     C11264   0.802   2.917  16.415  0.1723 -0.1524  0.3394
  763MPD2    C111265   0.693   2.982  16.359 -0.2076 -0.1749  0.1276
  763MPD2    C211266   0.653   3.106  16.408 -0.2616  0.8983 -0.3633
  763MPD2    C311267   0.741   3.165  16.502 -0.5124 -0.5373 -0.7292
  763MPD2    C411268   0.851   3.099  16.555  0.6790  0.9465 -0.1021
  763MPD2    C511269   0.870   2.972  16.519 -0.6490  0.5115  0.0535
  763MPD2     H11270   0.578   3.172  16.366 -0.1057  0.3667 -1.4965
  763MPD2    H111271   0.922   3.145  16.624  0.4863 -0.4834  1.0381
  763MPD2    H211272   0.844   2.820  16.389  2.3832  1.2290 -1.2756
  763MPD2    H311273   0.973   2.941  16.534 -0.9781 -0.8736 -0.5931
  763MPD2     N11274   0.733   3.295  16.563 -0.4336  0.1846 -0.2726
  763MPD2    H511275   0.805   3.317  16.631 -0.4752 -1.8232  0.4204
  763MPD2    N111276   0.615   2.921  16.257 -0.1841 -0.3846 -0.3544
  763MPD2    H711277   0.525   2.957  16.229  0.6391  2.2637  0.3637
  764MPD2     C11278   3.865   4.719  17.375  0.1271 -0.1310 -0.3668
  764MPD2    C111279   3.732   0.014  17.349  0.5252  0.6692 -0.3625
  764MPD2    C211280   3.646   4.654  17.421  0.1632 -0.0483 -0.5777
  764MPD2    C311281   3.695   4.560  17.510  0.7165  0.1350  0.3256
  764MPD2    C411282   3.830   4.549  17.534  0.3906 -0.4030  0.9292
  764MPD2    C511283   3.914   4.629  17.462 -0.1662 -0.0406  0.3860
  764MPD2     H11284   3.540   4.672  17.411  0.2826  1.0797  0.1656
  764MPD2    H111285   3.865   4.485  17.614 -1.9003 -2.2727  0.4146
  764MPD2    H211286   3.945   0.048  17.325  0.7291  0.2453  0.9888
  764MPD2    H311287   4.021   4.620  17.478 -0.0679 -1.4520 -1.1209
  764MPD2     N11288   3.594   4.487  17.574  0.2521 -0.3211  0.2676
  764MPD2    H511289   3.496   4.504  17.555  0.4390  1.6719  1.0325
  764MPD2    N111290   3.671   0.121  17.267 -0.4695  0.2137  0.1448
  764MPD2    H711291   3.570   0.118  17.262 -0.3629 -0.5420 -1.7154
  765MPD2     C11292   2.865   2.332  16.072 -0.0095  0.5304  0.5535
  765MPD2    C111293   2.951   2.409  16.004  0.3047 -0.5132  0.3467
  765MPD2    C211294   3.073   2.357  15.968 -0.3993  0.0769  0.9034
  765MPD2    C311295   3.109   2.226  16.007 -0.7640  0.3162  0.1412
  765MPD2    C411296   3.013   2.151  16.070 -0.2892 -0.2301  0.1738
  765MPD2    C511297   2.894   2.203  16.091  0.5201  0.2591 -0.0999
  765MPD2     H11298   3.142   2.419  15.912  0.5516 -1.5553  0.2645
  765MPD2    H111299   3.020   2.045  16.091 -0.6262 -0.1771  0.5413
  765MPD2    H211300   2.773   2.373  16.112 -1.1076 -2.1910  0.8376
  765MPD2    H311301   2.823   2.136  16.138 -0.2757  0.7593 -0.5798
  765MPD2     N11302   3.242   2.175  15.993  0.1058 -0.3127 -0.1141
  765MPD2    H511303   3.307   2.233  15.942 -0.1932 -1.1746 -1.4821
  765MPD2    N111304   2.908   2.539  15.981 -0.2452 -0.3726  0.8946
  765MPD2    H711305   2.814   2.565  16.008 -0.8963 -1.9679  0.1467
  766MPD2     C11306   2.425   2.851  15.581  0.3047 -0.4587  0.3937
  766MPD2    C111307   2.552   2.800  15.591 -0.0300  0.3973 -0.1583
  766MPD2    C211308   2.613   2.748  15.475 -0.1231 -0.6039  0.0560
  766MPD2    C311309   2.551   2.752  15.351  0.0478 -0.1674  0.1067
  766MPD2    C411310   2.425   2.810  15.344 -0.1439  0.8429  0.2758
  766MPD2    C511311   2.360   2.856  15.457 -0.2273  0.0598 -0.5453
  766MPD2     H11312   2.712   2.706  15.490 -0.4415 -0.6914  1.9592
  766MPD2    H111313   2.370   2.823  15.251 -0.8382  0.4358  0.6285
  766MPD2    H211314   2.371   2.895  15.664 -1.9517  1.5905 -2.1483
  766MPD2    H311315   2.259   2.895  15.452 -0.2762  0.1421  0.9682
  766MPD2     N11316   2.607   2.694  15.234 -0.0349  0.6300  0.0334
  766MPD2    H511317   2.560   2.723  15.149  1.0627  1.0728 -0.4142
  766MPD2    N111318   2.640   2.823  15.697 -0.1703 -0.3542  0.4443
  766MPD2    H711319   2.734   2.785  15.691  0.4948  1.1498  1.1708
  767MPD2     C11320   2.308   3.101  15.165 -0.4147  0.2008 -0.2074
  767MPD2    C111321   2.427   3.057  15.108 -0.1935  0.1009  0.5803
  767MPD2    C211322   2.420   2.961  15.002  0.3592  0.4348  0.1162
  767MPD2    C311323   2.306   2.902  14.961  0.0376  0.1130 -0.5196
  767MPD2    C411324   2.189   2.941  15.026 -0.3701 -0.3844 -0.1675
  767MPD2    C511325   2.193   3.040  15.126  0.5199 -0.2193 -0.4623
  767MPD2     H11326   2.517   2.930  14.964  0.7139  0.6185  0.8683
  767MPD2    H111327   2.092   2.898  15.002 -0.6106  1.0786 -1.8064
  767MPD2    H211328   2.320   3.179  15.239  0.1568 -0.8607  0.8069
  767MPD2    H311329   2.107   3.070  15.185  1.0377  2.0479 -0.8828
  767MPD2     N11330   2.316   2.817  14.846  0.0888  0.2421 -0.4442
  767MPD2    H511331   2.408   2.812  14.803  1.2025  3.2433  1.5694
  767MPD2    N111332   2.553   3.105  15.163 -0.2087  0.3134  0.7025
  767MPD2    H711333   2.541   3.171  15.238  2.0355 -0.2250  1.5603
  768MPD2     C11334   3.311   1.230  10.701  0.0867  0.4485  0.2563
  768MPD2    C111335   3.238   1.222  10.822  0.3851  0.4066 -0.3487
  768MPD2    C211336   3.311   1.224  10.943  0.1777  0.3997 -0.5071
  768MPD2    C311337   3.443   1.247  10.955 -0.3069  0.0696 -0.1176
  768MPD2    C411338   3.509   1.267  10.832  0.0113 -0.7098 -0.1658
  768MPD2    C511339   3.445   1.251  10.708  0.0998  0.4523 -0.4107
  768MPD2     H11340   3.251   1.200  11.030 -0.8339 -0.7218 -1.5279
  768MPD2    H111341   3.617   1.278  10.829 -0.1475  0.4091 -1.3538
  768MPD2    H211342   3.268   1.230  10.602  0.0598 -1.2351  0.2797
  768MPD2    H311343   3.499   1.272  10.616 -0.9298 -1.9241 -1.5517
  768MPD2     N11344   3.516   1.273  11.073  0.9330  0.6218 -0.2668
  768MPD2    H511345   3.600   1.328  11.060  1.4108 -0.0318  0.0776
  768MPD2    N111346   3.095   1.216  10.824  0.2619  0.5586 -0.5461
  768MPD2    H711347   3.059   1.232  10.918  0.0970  2.0062 -0.8604
  769MPD2     C11348   4.385   3.664  15.081 -0.2165  0.0380  0.0660
  769MPD2    C111349   4.307   3.601  15.172  0.6130  0.8246  0.2074
  769MPD2    C211350   4.307   3.644  15.305  1.1642  0.5091  0.4305
  769MPD2    C311351   4.392   3.735  15.351 -0.3525  0.9690  0.2658
  769MPD2    C411352   4.484   3.788  15.259  0.1028  0.6841 -0.1440
  769MPD2    C511353   4.477   3.758  15.128  0.6120 -0.5852 -0.0373
  769MPD2     H11354   4.234   3.607  15.375  1.7547 -0.3996  0.5635
  769MPD2    H111355   4.558   3.859  15.294 -0.4290  0.1607  2.0806
  769MPD2    H211356   4.383   3.641  14.975  0.9261  1.3000 -0.2316
  769MPD2    H311357   4.543   3.807  15.057  1.9412 -0.4846  1.2743
  769MPD2     N11358   4.392   3.760  15.488 -0.7842  0.0638 -0.7766
  769MPD2    H511359   4.318   3.715  15.542  0.4162 -0.5507  0.3406
  769MPD2    N111360   4.217   3.505  15.119  0.8543  0.3196  0.4742
  769MPD2    H711361   4.233   3.479  15.022  0.6406  0.0510  0.5107
  770MPD2     C11362   3.389   2.790  15.214 -0.3987  0.3535 -0.1110
  770MPD2    C111363   3.481   2.748  15.124 -0.6406 -0.3055  0.2754
  770MPD2    C211364   3.581   2.832  15.088  0.3691 -0.2315  0.1539
  770MPD2    C311365   3.604   2.951  15.154 -0.0719 -0.2502  0.1519
  770MPD2    C411366   3.508   2.994  15.247  0.2163 -0.4046  0.2738
  770MPD2    C511367   3.395   2.915  15.269  0.7843  0.3109  0.1193
  770MPD2     H11368   3.652   2.792  15.017 -0.1324  0.4628 -0.7433
  770MPD2    H111369   3.526   3.088  15.299 -0.8861 -0.4507  0.7336
  770MPD2    H211370   3.327   2.720  15.269 -1.5674  0.0643 -1.8232
  770MPD2    H311371   3.332   2.947  15.351  0.2308 -1.4717  0.3729
  770MPD2     N11372   3.708   3.028  15.110 -0.0137 -0.2549  0.4969
  770MPD2    H511373   3.774   2.980  15.050  0.9961 -0.1637  1.5343
  770MPD2    N111374   3.475   2.619  15.081 -0.0464  0.1635  0.2450
  770MPD2    H711375   3.395   2.572  15.122  1.2423 -0.9654  1.4814
  771MPD2     C11376   0.131   1.887  14.032 -0.5966 -0.1051  0.5750
  771MPD2    C111377   0.071   2.013  13.998 -0.1932  0.0993  0.1537
  771MPD2    C211378   4.681   2.000  13.925  0.1321  0.4794  0.4034
  771MPD2    C311379   4.622   1.872  13.890  0.8169 -0.1939  0.0115
  771MPD2    C411380   4.684   1.756  13.931 -0.0536 -0.7869  0.0048
  771MPD2    C511381   0.079   1.766  13.997 -0.0236 -0.3959  0.6280
  771MPD2     H11382   4.635   2.093  13.896 -0.8747  0.6103  2.4274
  771MPD2    H111383   4.656   1.653  13.910 -1.5608 -0.6282  1.1792
  771MPD2    H211384   0.223   1.885  14.090 -0.2437 -0.5558 -0.0102
  771MPD2    H311385   0.122   1.674  14.034  0.0889 -1.6806 -2.7165
  771MPD2     N11386   4.512   1.876  13.805 -0.1400 -0.2300  0.0202
  771MPD2    H511387   4.480   1.970  13.788 -0.3616 -0.5466 -1.3068
  771MPD2    N111388   0.130   2.136  14.014  0.1128  0.5740  0.3851
  771MPD2    H711389   0.085   2.210  13.960 -0.9291  0.7348  1.4708
  772MPD2     C11390   4.668   2.792  13.776 -0.6058 -0.0334 -0.5544
  772MPD2    C111391   4.641   2.675  13.843  0.1876  0.5395 -0.5311
  772MPD2    C211392   4.518   2.614  13.845 -0.1259  0.4742  0.0704
  772MPD2    C311393   4.412   2.679  13.775  0.2484  0.1237 -0.1539
  772MPD2    C411394   4.441   2.796  13.709 -0.4574 -1.5304  0.1186
  772MPD2    C511395   4.565   2.850  13.709 -0.1848  0.3866  0.4055
  772MPD2     H11396   4.510   2.517  13.893 -0.0590  1.1509  1.4544
  772MPD2    H111397   4.373   2.841  13.638 -0.8150 -0.7435  0.9518
  772MPD2    H211398   0.042   2.834  13.761  1.3356 -3.3727  3.1006
  772MPD2    H311399   4.579   2.944  13.656 -1.8186  0.6145  0.3806
  772MPD2     N11400   4.289   2.621  13.744  0.1892  0.3677 -0.1379
  772MPD2    H511401   4.221   2.678  13.694  0.8238  2.4695  1.3621
  772MPD2    N111402   0.022   2.599  13.904  0.5054  0.3040  0.1988
  772MPD2    H711403   4.715   2.511  13.942  1.2984 -0.5871 -1.1963
  773MPD2     C11404   4.239   3.142  17.349  0.0933  0.3863  0.0011
  773MPD2    C111405   4.150   3.073  17.432  0.8553 -0.2321  0.6524
  773MPD2    C211406   4.191   2.964  17.509  0.1968 -0.1195 -1.4666
  773MPD2    C311407   4.319   2.911  17.489  0.2519 -0.3203 -0.1898
  773MPD2    C411408   4.408   2.978  17.402 -0.6994  0.0549  0.0011
  773MPD2    C511409   4.363   3.091  17.341  0.3302 -0.5323  1.0944
  773MPD2     H11410   4.118   2.915  17.571 -0.3936  2.0244 -0.4653
  773MPD2    H111411   4.511   2.950  17.384  0.0772  2.1873  1.1197
  773MPD2    H211412   4.207   3.230  17.295 -1.3294  0.5030  1.0553
  773MPD2    H311413   4.443   3.146  17.292 -1.9166  1.3425 -0.4207
  773MPD2     N11414   4.361   2.801  17.570 -0.4320  0.9347  0.1257
  773MPD2    H511415   4.289   2.756  17.625 -1.1609 -0.2552 -1.8155
  773MPD2    N111416   4.021   3.118  17.456  0.0416 -0.4807  0.3304
  773MPD2    H711417   3.967   3.049  17.508  0.3039 -0.3745  0.7430
  774MPD2     C11418   3.482   2.533  13.345  0.2093  0.0644 -0.0065
  774MPD2    C111419   3.341   2.523  13.368  0.0185  0.0506  0.3501
  774MPD2    C211420   3.271   2.637  13.418 -0.9165  0.0025 -0.0985
  774MPD2    C311421   3.339   2.753  13.442 -0.0713 -0.2182 -0.1163
  774MPD2    C411422   3.476   2.764  13.410 -0.1615  0.1157 -0.1720
  774MPD2    C511423   3.543   2.655  13.359 -0.4218 -0.3915 -0.5746
  774MPD2     H11424   3.163   2.633  13.428 -0.9928 -2.2144 -1.8032
  774MPD2    H111425   3.534   2.855  13.422 -1.7480  1.1084 -0.0194
  774MPD2    H211426   3.554   2.457  13.317  0.3669  0.7898 -1.5523
  774MPD2    H311427   3.650   2.656  13.342 -0.2060  0.6421  0.7985
  774MPD2     N11428   3.258   2.857  13.495 -0.1544 -0.1216  0.7842
  774MPD2    H511429   3.158   2.842  13.495 -0.2111  0.3466 -1.8630
  774MPD2    N111430   3.282   2.402  13.340  0.4436 -0.4634  0.2991
  774MPD2    H711431   3.348   2.331  13.312  1.2336  0.6690 -0.7219
  775MPD2     C11432   4.560   3.690  16.075  0.2738  0.2978 -0.0059
  775MPD2    C111433   4.540   3.803  16.148  0.7892  0.3181 -0.2555
  775MPD2    C211434   4.638   3.897  16.154 -0.0620 -0.7780  0.4685
  775MPD2    C311435   0.034   3.879  16.092 -0.1302 -0.4942  0.0880
  775MPD2    C411436   0.057   3.761  16.028  0.2388 -0.3079 -0.6684
  775MPD2    C511437   4.682   3.667  16.025  0.1938 -0.4162 -0.9317
  775MPD2     H11438   4.617   3.982  16.217  1.6404  0.3857 -0.5206
  775MPD2    H111439   0.151   3.738  15.978  0.1299  1.4796 -1.6950
  775MPD2    H211440   4.484   3.617  16.047 -0.8048  1.4912 -0.1510
  775MPD2    H311441   4.701   3.575  15.970 -1.2778 -1.0920 -0.3000
  775MPD2     N11442   0.136   3.976  16.085  0.2136  0.1670  0.0137
  775MPD2    H511443   0.217   3.945  16.032  0.5885 -1.0251  1.2851
  775MPD2    N111444   4.411   3.826  16.196 -0.2012 -0.2826  0.1932
  775MPD2    H711445   4.350   3.745  16.198  2.1757 -2.0943 -0.1439
  776MPD2     C11446   3.960   4.302  12.190  0.0575 -0.4726  0.5221
  776MPD2    C111447   3.904   4.315  12.062 -0.3593  0.6253 -0.5891
  776MPD2    C211448   3.875   4.440  12.016 -0.9106  0.0285 -0.0033
  776MPD2    C311449   3.924   4.551  12.078 -0.2741  0.2131 -0.0307
  776MPD2    C411450   3.996   4.538  12.188  0.4318 -0.9921  0.5864
  776MPD2    C511451   4.015   4.416  12.249 -0.4983 -0.0613  0.3838
  776MPD2     H11452   3.804   4.447  11.935 -1.3255  1.2806  0.4760
  776MPD2    H111453   4.028   4.634  12.228  0.9574 -1.8369  2.2234
  776MPD2    H211454   3.966   4.204  12.236 -0.1629 -0.6328  0.2129
  776MPD2    H311455   4.071   4.404  12.340 -0.1997  1.4738  0.4028
  776MPD2     N11456   3.915   4.679  12.028  0.2425 -0.4233 -0.1938
  776MPD2    H511457   3.974   0.022  12.075  1.0724 -1.3946  0.1642
  776MPD2    N111458   3.862   4.197  11.998 -0.0675  0.5226  0.3894
  776MPD2    H711459   3.802   4.214  11.919  0.5353 -2.8112 -0.8064
  777MPD2     C11460   4.559   1.886   0.805  0.0251 -0.3673  0.6520
  777MPD2    C111461   4.474   1.832   0.899  0.2313  0.2645 -0.1530
  777MPD2    C211462   4.414   1.710   0.872  0.8296 -0.3039 -1.1669
  777MPD2    C311463   4.446   1.639   0.751  0.3106 -0.3754 -0.1814
  777MPD2    C411464   4.536   1.699   0.664  0.1391 -0.1685  0.0224
  777MPD2    C511465   4.590   1.817   0.691  0.6577  0.0559  0.0506
  777MPD2     H11466   4.341   1.674   0.944 -1.3507  0.8530 -2.8068
  777MPD2    H111467   4.560   1.657   0.567  0.1538  0.4989 -0.2676
  777MPD2    H211468   4.610   1.981   0.811 -0.2832 -0.3270  2.4696
  777MPD2    H311469   4.652   1.865   0.616  0.3837  0.6663  0.2109
  777MPD2     N11470   4.385   1.520   0.725 -0.1623 -0.0844  0.0446
  777MPD2    H511471   4.331   1.479   0.800 -0.1664 -0.4595 -0.1640
  777MPD2    N111472   4.442   1.908   1.010  0.8985  0.1484 -0.2620
  777MPD2    H711473   4.489   1.996   1.028  0.4586 -0.1204  2.1853
  778MPD2     C11474   0.021   1.473  15.625 -0.5188  0.8505 -0.0758
  778MPD2    C111475   4.672   1.471  15.506 -0.1113 -0.0597 -0.1911
  778MPD2    C211476   4.711   1.559  15.393  0.2464 -0.3321  0.2619
  778MPD2    C311477   0.097   1.639  15.401 -0.4288  0.1789  0.1935
  778MPD2    C411478   0.182   1.627  15.513  0.0572  0.2367 -1.2024
  778MPD2    C511479   0.135   1.550  15.625  0.4899 -0.1863 -0.0165
  778MPD2     H11480   4.650   1.570  15.305 -1.4741  0.1762  1.5199
  778MPD2    H111481   0.272   1.685  15.527 -1.1076  1.4385  1.1516
  778MPD2    H211482   4.724   1.404  15.706  0.9728  1.2113  0.6279
  778MPD2    H311483   0.201   1.540  15.710  1.2786 -2.4597 -0.9005
  778MPD2     N11484   0.139   1.712  15.286  0.2264  0.6540 -0.1286
  778MPD2    H511485   0.108   1.685  15.193  1.6416 -0.8924 -0.1708
  778MPD2    N111486   4.561   1.386  15.487  0.0194  0.3519  0.2219
  778MPD2    H711487   4.516   1.383  15.397  0.4117 -1.0071  0.0712
  779MPD2     C11488   4.702   0.976  14.898  0.5412 -1.0236 -0.0031
  779MPD2    C111489   4.701   0.911  14.777 -0.3540  0.5729 -0.3063
  779MPD2    C211490   4.645   0.977  14.674 -0.1620  0.3605  0.4361
  779MPD2    C311491   4.583   1.096  14.685 -0.5411  0.1244 -0.3952
  779MPD2    C411492   4.588   1.167  14.807  0.0735 -0.1077 -0.3456
  779MPD2    C511493   4.658   1.106  14.910 -0.5006 -0.4740  0.7978
  779MPD2     H11494   4.657   0.935  14.574  0.4950  1.0083  0.2396
  779MPD2    H111495   4.542   1.264  14.821 -1.3562 -0.9903  1.0806
  779MPD2    H211496   0.002   0.934  14.995 -0.3279  0.8666  1.0255
  779MPD2    H311497   4.669   1.149  15.009 -1.6740  0.5050  0.4936
  779MPD2     N11498   4.533   1.156  14.571 -0.3922  0.0025  0.6132
  779MPD2    H511499   4.531   1.098  14.488  2.3202  0.9978 -0.1564
  779MPD2    N111500   0.033   0.782  14.748 -0.2360 -0.1034 -0.2255
  779MPD2    H711501   0.045   0.758  14.651 -0.3542 -1.6188  0.1357
  780MPD2     C11502   3.801   0.682   0.359  0.0446  0.1540  0.3269
  780MPD2    C111503   3.908   0.596   0.335 -0.3198  0.4429  0.7337
  780MPD2    C211504   4.029   0.618   0.386  0.3454 -0.8983 -0.1674
  780MPD2    C311505   4.046   0.735   0.471 -0.3463 -0.1170 -0.6867
  780MPD2    C411506   3.934   0.817   0.495  0.3329  0.6521  0.5940
  780MPD2    C511507   3.812   0.792   0.436  0.2419 -0.5235 -0.5733
  780MPD2     H11508   4.115   0.557   0.360 -0.2105 -0.0630 -3.9120
  780MPD2    H111509   3.947   0.913   0.542  1.2609  0.8291 -0.0331
  780MPD2    H211510   3.704   0.668   0.313 -0.7097  0.7398  1.7177
  780MPD2    H311511   3.728   0.860   0.447 -1.0574 -2.1260 -0.5731
  780MPD2     N11512   4.174   0.750   0.528 -0.1488 -1.0187  0.4786
  780MPD2    H511513   4.253   0.700   0.486 -0.1202 -1.5074  1.1052
  780MPD2    N111514   3.877   0.482   0.255 -0.0796  0.5512 -0.5451
  780MPD2    H711515   3.779   0.460   0.239  0.0783  0.3998 -1.2994
  781MPD2     C11516   1.342   2.054  12.237 -0.6362  0.1085  0.0500
  781MPD2    C111517   1.297   2.174  12.291  0.2295  0.1368  1.1377
  781MPD2    C211518   1.336   2.290  12.235 -0.5220 -0.1299 -0.3271
  781MPD2    C311519   1.407   2.297  12.113  0.3717 -0.0218 -0.5192
  781MPD2    C411520   1.446   2.175  12.062  0.4826  1.5144  0.2439
  781MPD2    C511521   1.418   2.059  12.127 -0.3091  0.4753  0.0284
  781MPD2     H11522   1.302   2.380  12.285  0.1401 -0.8227  1.3534
  781MPD2    H111523   1.516   2.166  11.980 -0.2415  3.3633 -0.5686
  781MPD2    H211524   1.341   1.963  12.295 -0.2417  0.0121 -0.0958
  781MPD2    H311525   1.464   1.965  12.097 -0.6872  0.7349 -1.3488
  781MPD2     N11526   1.458   2.410  12.044 -0.3522 -0.6392 -0.3270
  781MPD2    H511527   1.508   2.382  11.960  0.4069  1.4927 -0.5941
  781MPD2    N111528   1.215   2.188  12.408  0.6341  0.3558  0.7593
  781MPD2    H711529   1.189   2.281  12.438  0.8721 -0.3422  3.1254
  782MPD2     C11530   4.614   3.249  10.130 -0.2815  0.0407 -0.7828
  782MPD2    C111531   4.625   3.193  10.255 -0.5086 -0.1511 -0.5994
  782MPD2    C211532   4.632   3.279  10.359  0.2956 -0.2851  0.5819
  782MPD2    C311533   4.615   3.417  10.341 -0.1180 -0.4038  0.5131
  782MPD2    C411534   4.611   3.468  10.214 -0.0826  0.6609  0.4057
  782MPD2    C511535   4.607   3.384  10.113  0.3064  0.3174  0.2617
  782MPD2     H11536   4.635   3.236  10.459  0.8438 -0.1300  0.6301
  782MPD2    H111537   4.599   3.575  10.198 -1.7271  0.6489  1.6430
  782MPD2    H211538   4.618   3.187  10.042  1.7294 -0.4448 -0.3314
  782MPD2    H311539   4.617   3.426  10.014 -1.8882  0.5427  0.1205
  782MPD2     N11540   4.605   3.502  10.452 -0.2616 -0.3966  0.2812
  782MPD2    H511541   4.612   3.602  10.434  0.1776 -0.5181 -0.2001
  782MPD2    N111542   4.653   3.060  10.283  0.4145 -0.2086 -1.1148
  782MPD2    H711543   4.671   3.032  10.379 -0.7944  1.3485 -0.4219
  783MPD2     C11544   3.915   2.809  10.695  1.1879 -0.0113 -0.5929
  783MPD2    C111545   3.991   2.914  10.725 -0.8133  0.4221 -0.9024
  783MPD2    C211546   4.119   2.915  10.670  0.1500  0.3317 -0.5452
  783MPD2    C311547   4.173   2.810  10.598  0.2078  0.5013  0.8235
  783MPD2    C411548   4.086   2.705  10.563  0.2403  0.0095  0.3438
  783MPD2    C511549   3.956   2.711  10.608  0.0444 -0.3816  0.0934
  783MPD2     H11550   4.187   2.994  10.701 -1.2689  1.1291  0.5292
  783MPD2    H111551   4.116   2.620  10.504  1.0417 -0.6844  1.7638
  783MPD2    H211552   3.819   2.801  10.746  0.0300  0.5083 -2.7173
  783MPD2    H311553   3.887   2.633  10.577 -1.6927  1.0196  0.4313
  783MPD2     N11554   4.304   2.826  10.533  0.2201 -0.2165  0.1533
  783MPD2    H511555   4.362   2.907  10.552 -0.3032 -0.3406  2.2934
  783MPD2    N111556   3.944   3.016  10.810 -0.0368  0.2465  0.2237
  783MPD2    H711557   3.846   3.009  10.837 -0.1754  1.0116 -0.0688
  784MPD2     C11558   2.314   3.355   0.811  0.5228  0.0871 -0.2082
  784MPD2    C111559   2.309   3.462   0.911  0.7007 -0.0686  0.0206
  784MPD2    C211560   2.185   3.526   0.932 -0.2618 -0.5426  0.1046
  784MPD2    C311561   2.077   3.504   0.850 -0.1525  0.2945  0.2842
  784MPD2    C411562   2.085   3.404   0.759 -0.1701  0.0909  0.4849
  784MPD2    C511563   2.199   3.328   0.750  0.6552  0.6740 -0.5254
  784MPD2     H11564   2.175   3.596   1.014 -0.4624  0.8322 -1.0872
  784MPD2    H111565   2.007   3.368   0.693  0.9273 -0.8410 -0.3016
  784MPD2    H211566   2.406   3.298   0.804  2.0781  2.5026  0.5944
  784MPD2    H311567   2.205   3.241   0.685 -1.5613 -1.0575  1.6055
  784MPD2     N11568   1.965   3.591   0.863  0.3720  0.5604 -0.7180
  784MPD2    H511569   1.965   3.654   0.943  0.7482  0.9830 -1.0510
  784MPD2    N111570   2.417   3.488   1.005  0.9018  0.3143  0.3002
  784MPD2    H711571   2.391   3.538   1.090 -1.9061  1.2195 -1.1196
  785MPD2     C11572   1.741   2.201  10.228  0.2266 -0.0320 -0.4848
  785MPD2    C111573   1.681   2.157  10.108 -0.5382  0.1197  0.3403
  785MPD2    C211574   1.726   2.042  10.055 -0.0196  0.3013  0.1247
  785MPD2    C311575   1.825   1.969  10.120 -0.2940  0.5884  0.0862
  785MPD2    C411576   1.873   2.006  10.247  0.2314 -0.2419 -0.3983
  785MPD2    C511577   1.833   2.123  10.296 -0.3170  0.3091  0.3617
  785MPD2     H11578   1.687   2.002   9.962  0.6466 -2.3624  1.0023
  785MPD2    H111579   1.927   1.936  10.309  1.2020  1.0533  0.2375
  785MPD2    H211580   1.713   2.294  10.275  2.7225  0.0529  0.8417
  785MPD2    H311581   1.856   2.157  10.396 -0.8948 -1.6695  1.1681
  785MPD2     N11582   1.872   1.846  10.055 -0.5819  1.0366  0.1746
  785MPD2    H511583   1.831   1.821   9.965 -2.4375 -0.4852  1.4490
  785MPD2    N111584   1.587   2.231  10.035 -0.0277 -0.5048 -0.1840
  785MPD2    H711585   1.558   2.192   9.946  1.9200 -0.5363 -0.8057
  786MPD2     C11586   0.276   0.149  15.101 -0.0713  0.3127 -0.7901
  786MPD2    C111587   0.377   0.061  15.073 -1.2753  0.2710  0.6618
  786MPD2    C211588   0.483   0.041  15.159  0.2617  0.2209 -0.3714
  786MPD2    C311589   0.488   0.107  15.279 -0.9086 -0.2007 -0.7862
  786MPD2    C411590   0.388   0.193  15.313  0.2397 -0.2019 -0.0088
  786MPD2    C511591   0.282   0.213  15.225 -0.2548 -0.1212 -0.1563
  786MPD2     H11592   0.562   4.697  15.132 -1.2193 -1.2924 -0.8294
  786MPD2    H111593   0.392   0.248  15.407 -0.1485  1.8106 -1.1738
  786MPD2    H211594   0.192   0.159  15.033  0.4993  2.6017 -1.1471
  786MPD2    H311595   0.210   0.289  15.252  0.4500  0.4554  0.1045
  786MPD2     N11596   0.604   0.090  15.369 -0.4266 -0.2127 -0.3198
  786MPD2    H511597   0.605   0.149  15.452  0.6221  0.2611 -0.6613
  786MPD2    N111598   0.402   4.724  14.949  0.3827  0.3610  0.3562
  786MPD2    H711599   0.488   4.670  14.944 -0.9911 -1.9196  1.7930
  787MPD2     C11600   0.597   4.151  15.011  0.6649  0.0094  0.6982
  787MPD2    C111601   0.660   4.207  14.902 -0.4297  0.5791 -0.1403
  787MPD2    C211602   0.779   4.143  14.859  0.4873 -0.8753 -1.0555
  787MPD2    C311603   0.826   4.029  14.928 -0.0132  0.5068  0.2562
  787MPD2    C411604   0.757   3.983  15.036 -0.2621 -0.2433  0.0926
  787MPD2    C511605   0.643   4.046  15.077  0.0537 -0.1603 -0.2276
  787MPD2     H11606   0.835   4.187  14.777 -1.6111  0.5775 -1.7073
  787MPD2    H111607   0.775   3.890  15.088  1.2530  0.7932  1.3963
  787MPD2    H211608   0.502   4.195  15.038  1.3844  2.0511 -0.1296
  787MPD2    H311609   0.588   4.007  15.162  0.6711  3.3990  1.8306
  787MPD2     N11610   0.958   3.976  14.891 -0.0022 -0.0922 -0.6099
  787MPD2    H511611   1.012   4.038  14.833  1.3813 -0.5975  0.1465
  787MPD2    N111612   0.601   4.319  14.841 -0.2537 -0.6002  0.2724
  787MPD2    H711613   0.528   4.369  14.891 -0.8799  0.3807 -1.6041
  788MPD2     C11614   2.636   2.448   1.176 -0.5111 -1.3513 -0.1909
  788MPD2    C111615   2.644   2.407   1.044 -0.7150 -0.2255  0.5795
  788MPD2    C211616   2.693   2.487   0.944 -0.1100  0.3972  0.0462
  788MPD2    C311617   2.708   2.620   0.970 -0.2706  0.4097 -0.1943
  788MPD2    C411618   2.699   2.672   1.105 -0.3327  0.0084 -0.4279
  788MPD2    C511619   2.662   2.579   1.202 -0.9560  0.0230 -0.1189
  788MPD2     H11620   2.689   2.455   0.840 -0.1386 -0.2907  0.2587
  788MPD2    H111621   2.727   2.771   1.137 -0.2426  0.0784 -0.7266
  788MPD2    H211622   2.609   2.379   1.255 -0.9383  1.4119  2.0770
  788MPD2    H311623   2.672   2.618   1.303 -1.0054  1.3753 -0.6350
  788MPD2     N11624   2.742   2.723   0.865 -0.2645  0.2738 -1.5410
  788MPD2    H511625   2.738   2.820   0.892  0.7412 -0.2995  0.6625
  788MPD2    N111626   2.615   2.267   1.011 -0.5651  0.4572  0.5241
  788MPD2    H711627   2.627   2.239   0.915  1.6474 -2.7893  1.7673
  789MPD2     C11628   2.454   2.211  17.053 -0.2352 -0.5498  0.3892
  789MPD2    C111629   2.433   2.297  16.953  0.1996 -0.0385 -0.3959
  789MPD2    C211630   2.321   2.379  16.951  0.0276 -0.7080 -0.3101
  789MPD2    C311631   2.235   2.380  17.057 -0.1995  1.0228 -0.0334
  789MPD2    C411632   2.264   2.306  17.166 -0.0671 -1.0792  0.0955
  789MPD2    C511633   2.364   2.217  17.160  0.7983 -0.0537  0.1451
  789MPD2     H11634   2.319   2.438  16.860 -0.8292  1.2483  0.9798
  789MPD2    H111635   2.197   2.299  17.251  2.1300  2.0351  2.0504
  789MPD2    H211636   2.544   2.154  17.070 -0.6849 -1.4761 -0.3330
  789MPD2    H311637   2.390   2.162  17.250 -0.0141 -0.4372  0.1374
  789MPD2     N11638   2.108   2.443  17.061  0.2471  0.5787  0.7976
  789MPD2    H511639   2.063   2.460  17.150 -0.2724 -0.4806  0.7351
  789MPD2    N111640   2.516   2.296  16.840 -0.2016 -0.2038  0.2840
  789MPD2    H711641   2.491   2.359  16.764  0.4697  3.2616  2.9154
  790MPD2     C11642   3.941   4.458  13.996  0.8352 -0.7394  0.1035
  790MPD2    C111643   3.898   4.332  14.016  0.3515 -0.2767  0.1893
  790MPD2    C211644   3.839   4.271  13.899 -0.4192 -0.2993 -0.2452
  790MPD2    C311645   3.844   4.336  13.781 -0.0149  0.0752  0.6522
  790MPD2    C411646   3.913   4.454  13.771  0.0825 -0.8377 -0.4587
  790MPD2    C511647   3.962   4.518  13.879  0.2058  0.6857 -0.0603
  790MPD2     H11648   3.786   4.176  13.904 -1.1416  0.2220  1.9378
  790MPD2    H111649   3.919   4.502  13.674 -0.0117 -0.7727 -0.4332
  790MPD2    H211650   3.975   4.516  14.081 -0.2006 -1.4993  1.0335
  790MPD2    H311651   4.010   4.615  13.865  2.2208 -0.1869  0.8082
  790MPD2     N11652   3.787   4.279  13.663 -0.0889 -0.2927  0.3124
  790MPD2    H511653   3.769   4.179  13.661  0.2961 -0.3375 -0.6069
  790MPD2    N111654   3.887   4.283  14.144  0.1833 -0.3573  0.6711
  790MPD2    H711655   3.928   4.338  14.219  1.5684 -1.3887  0.6606
  791MPD2     C11656   3.177   4.435  13.248  0.2067  0.4996  0.2032
  791MPD2    C111657   3.242   4.317  13.210  0.0373 -0.2286  0.5707
  791MPD2    C211658   3.163   4.222  13.144 -0.9378 -0.4593  0.6775
  791MPD2    C311659   3.024   4.227  13.126  0.9918  0.3213 -0.2056
  791MPD2    C411660   2.968   4.348  13.162  0.1154 -0.0696 -0.1691
  791MPD2    C511661   3.044   4.447  13.214 -0.5739 -0.0970 -0.3878
  791MPD2     H11662   3.210   4.133  13.103 -0.0110  0.4112 -0.1122
  791MPD2    H111663   2.861   4.361  13.150  0.1619  0.3021 -0.1969
  791MPD2    H211664   3.232   4.514  13.298 -0.8776  0.2529  1.7706
  791MPD2    H311665   2.997   4.541  13.243 -2.4422 -1.6488  1.6382
  791MPD2     N11666   2.958   4.113  13.076  0.5190  0.2555  0.0374
  791MPD2    H511667   3.016   4.030  13.079 -1.4742 -1.1058  0.2749
  791MPD2    N111668   3.375   4.297  13.249  0.4446 -0.2231  0.6047
  791MPD2    H711669   3.415   4.372  13.304  1.3209  1.2670 -2.0877
  792MPD2     C11670   3.651   4.343  11.685  0.7137 -0.4040  0.3724
  792MPD2    C111671   3.784   4.342  11.662  0.4504  0.0221 -0.5180
  792MPD2    C211672   3.839   4.218  11.619 -0.5228 -0.2778  0.2416
  792MPD2    C311673   3.760   4.106  11.611 -0.0238 -0.2767 -0.2199
  792MPD2    C411674   3.636   4.106  11.669  0.3533  0.5430 -0.8272
  792MPD2    C511675   3.577   4.227  11.702 -0.3801 -0.0103 -0.0395
  792MPD2     H11676   3.935   4.227  11.570 -0.0688 -0.4295  1.1064
  792MPD2    H111677   3.573   4.017  11.667 -0.4772  1.1271 -0.3740
  792MPD2    H211678   3.599   4.436  11.705  1.8348  0.4026 -0.5037
  792MPD2    H311679   3.476   4.235  11.740 -0.4385  0.1644 -0.2350
  792MPD2     N11680   3.798   4.002  11.525  0.0989 -0.0720  0.6494
  792MPD2    H511681   3.724   3.939  11.496 -2.3085  2.4994  1.2439
  792MPD2    N111682   3.855   4.466  11.660  0.0877  0.0184  0.0449
  792MPD2    H711683   3.797   4.549  11.668 -1.6279 -1.3523  1.7812
  793MPD2     C11684   3.412   4.178  10.657  0.8885 -0.0920 -0.7741
  793MPD2    C111685   3.545   4.176  10.633  0.2517 -0.5232  0.4837
  793MPD2    C211686   3.624   4.103  10.719  0.5506 -0.3268  0.4877
  793MPD2    C311687   3.578   4.052  10.838  0.5286 -0.5042 -0.1543
  793MPD2    C411688   3.442   4.059  10.864  0.4406 -0.4072  0.4512
  793MPD2    C511689   3.363   4.125  10.770 -0.1712  0.5145 -0.5359
  793MPD2     H11690   3.720   4.090  10.671 -0.3281 -1.3280 -0.9977
  793MPD2    H111691   3.401   4.005  10.948 -4.3172  0.8246 -1.0715
  793MPD2    H211692   3.340   4.221  10.587  0.9560  0.8771 -0.2560
  793MPD2    H311693   3.255   4.122  10.778 -0.0316 -0.4877  1.0952
  793MPD2     N11694   3.682   4.000  10.922  0.5450 -0.8233  0.4647
  793MPD2    H511695   3.775   4.017  10.884 -1.4991  2.3912 -3.0040
  793MPD2    N111696   3.608   4.240  10.520 -0.1735 -0.4918 -0.1423
  793MPD2    H711697   3.693   4.192  10.491 -0.8057 -1.7074  0.0243
  794MPD2     C11698   3.712   3.802  17.173  0.7135  0.7265  0.2022
  794MPD2    C111699   3.595   3.752  17.224 -0.3216  0.5923 -0.4287
  794MPD2    C211700   3.478   3.824  17.203 -0.3877 -0.3279 -0.3460
  794MPD2    C311701   3.474   3.929  17.120 -0.6897  0.1547  0.5123
  794MPD2    C411702   3.591   3.979  17.072 -0.1435 -0.0809 -0.2060
  794MPD2    C511703   3.707   3.916  17.087 -0.1646  0.5789  0.2493
  794MPD2     H11704   3.382   3.783  17.234  1.3288 -4.7699 -0.9405
  794MPD2    H111705   3.598   4.074  17.020 -1.0454 -0.1030 -0.3758
  794MPD2    H211706   3.813   3.764  17.183  0.8299  1.1569  0.6401
  794MPD2    H311707   3.793   3.951  17.032  0.6463  0.1221  1.2340
  794MPD2     N11708   3.361   4.009  17.095 -1.3296 -0.1429 -0.5188
  794MPD2    H511709   3.379   4.108  17.082 -0.3226 -0.6114 -2.5527
  794MPD2    N111710   3.590   3.624  17.291 -0.3349 -0.0773 -0.2770
  794MPD2    H711711   3.501   3.587  17.324  0.6328 -0.9607  1.3312
  795MPD2     C11712   1.301   0.886  13.323  0.3285  0.6031  0.2657
  795MPD2    C111713   1.236   0.865  13.446  0.8714  0.0052  0.9237
  795MPD2    C211714   1.313   0.815  13.547  0.3966 -1.2411 -0.1075
  795MPD2    C311715   1.448   0.790  13.538  0.1705  1.0006 -0.4378
  795MPD2    C411716   1.507   0.818  13.414 -0.0860 -0.0123 -0.2834
  795MPD2    C511717   1.438   0.867  13.306 -0.3400 -0.1192 -0.4657
  795MPD2     H11718   1.265   0.783  13.639 -1.2148  0.5680 -0.3168
  795MPD2    H111719   1.610   0.796  13.389 -0.2572 -0.5967 -0.4761
  795MPD2    H211720   1.244   0.919  13.237  2.4309  0.8732 -1.0311
  795MPD2    H311721   1.487   0.893  13.213  0.8650 -2.4612 -0.4800
  795MPD2     N11722   1.517   0.739  13.647  0.5673 -0.6401 -0.0809
  795MPD2    H511723   1.469   0.709  13.732 -1.1795  3.7193  0.4573
  795MPD2    N111724   1.098   0.878  13.464  0.4480 -0.0889 -0.4906
  795MPD2    H711725   1.061   0.867  13.558  0.8727  0.9359 -0.2049
  796MPD2     C11726   0.970   2.516  15.756 -0.3711  0.4436  0.5604
  796MPD2    C111727   1.002   2.531  15.889  0.2586  1.0855  0.4002
  796MPD2    C211728   0.968   2.650  15.954  0.8734  0.4663  0.0073
  796MPD2    C311729   0.924   2.755  15.875 -0.1346  0.8067 -0.3777
  796MPD2    C411730   0.910   2.744  15.744  0.6814  0.4758 -0.2252
  796MPD2    C511731   0.928   2.626  15.683 -0.6768  0.1516  0.0673
  796MPD2     H11732   0.982   2.656  16.062 -1.3489 -0.7255  0.3460
  796MPD2    H111733   0.885   2.830  15.682  0.7707 -0.2292 -1.2423
  796MPD2    H211734   0.973   2.420  15.705 -2.8801 -0.1569  1.5495
  796MPD2    H311735   0.898   2.613  15.579  1.5099 -1.2834 -0.3991
  796MPD2     N11736   0.898   2.872  15.946  0.0086  0.6621  0.8065
  796MPD2    H511737   0.942   2.873  16.038 -0.2051 -1.6782  0.9346
  796MPD2    N111738   1.032   2.419  15.979  0.2070  0.5229  0.5025
  796MPD2    H711739   1.031   2.435  16.079  0.0736  0.0515  0.5809
  797MPD2     C11740   1.749   1.826  17.330 -0.7275 -0.1339  0.1712
  797MPD2    C111741   1.699   1.917  17.432  0.4170 -0.2287  1.1956
  797MPD2    C211742   1.618   2.023  17.394  0.0080  0.6299  0.2748
  797MPD2    C311743   1.585   2.041  17.257 -0.6373  0.2239  0.2103
  797MPD2    C411744   1.638   1.954  17.162 -0.3472  0.5190 -0.4538
  797MPD2    C511745   1.720   1.850  17.200 -0.2709  0.6978  0.7733
  797MPD2     H11746   1.568   2.089  17.464 -0.2090  0.7883 -0.0272
  797MPD2    H111747   1.624   1.968  17.055 -1.5986  0.1905 -0.3334
  797MPD2    H211748   1.814   1.744  17.355 -0.3570  1.3590  4.1563
  797MPD2    H311749   1.758   1.776  17.131  1.5196  0.2520  2.2361
  797MPD2     N11750   1.519   2.151  17.205  0.1288  0.3936  0.0205
  797MPD2    H511751   1.525   2.165  17.105  0.1140  0.3686  0.0161
  797MPD2    N111752   1.740   1.920  17.564 -0.1122  0.4483 -0.2619
  797MPD2    H711753   1.699   1.995  17.619 -1.8630 -0.5488 -0.1987
  798MPD2     C11754   1.813   2.645  17.540  0.8040 -0.5366 -0.2376
  798MPD2    C111755   1.748   2.535  17.497  0.8809  0.6232  0.8711
  798MPD2    C211756   1.788   2.406  17.543 -0.0168  0.5113  0.9014
  798MPD2    C311757   1.889   2.392  17.630 -1.0470  0.7248  0.3698
  798MPD2    C411758   1.963   2.501  17.672  0.6935 -0.2760  0.1609
  798MPD2    C511759   1.923   2.624  17.623  0.3009  0.3160 -0.1991
  798MPD2     H11760   1.737   2.314  17.515 -1.7259  0.0295  5.5498
  798MPD2    H111761   2.038   2.504   0.051  1.7501  2.0535 -0.9367
  798MPD2    H211762   1.779   2.748  17.533  0.5739 -0.5953  0.0212
  798MPD2    H311763   1.981   2.708  17.661  0.9732 -0.1304 -0.2315
  798MPD2     N11764   1.915   2.266  17.678  0.0508  0.0476 -0.8832
  798MPD2    H511765   1.851   2.195  17.643 -1.0167  0.2188  0.7106
  798MPD2    N111766   1.643   2.533  17.405 -0.8783  0.4795  0.2610
  798MPD2    H711767   1.608   2.439  17.394  3.0232 -0.7402 -1.6688
  799MPD2     C11768   0.612   3.607  14.762 -0.5297  0.9266  0.6886
  799MPD2    C111769   0.536   3.537  14.677  0.2677  0.1873  0.0297
  799MPD2    C211770   0.420   3.590  14.625  0.1108  0.2727  0.1832
  799MPD2    C311771   0.392   3.724  14.658  0.0401 -0.2784  0.2303
  799MPD2    C411772   0.474   3.797  14.738 -0.0193  1.0362  0.3996
  799MPD2    C511773   0.575   3.733  14.806  0.1852  0.3960 -0.1533
  799MPD2     H11774   0.368   3.537  14.546 -0.3518  0.1711  0.5574
  799MPD2    H111775   0.439   3.893  14.772 -0.3654  1.0992 -0.1367
  799MPD2    H211776   0.698   3.566  14.814  0.0547  1.8342  0.4296
  799MPD2    H311777   0.638   3.786  14.878 -1.6756  0.9675  1.0408
  799MPD2     N11778   0.292   3.801  14.593 -0.5798 -0.3517  0.3051
  799MPD2    H511779   0.291   3.899  14.616 -3.2928 -0.2727 -0.1463
  799MPD2    N111780   0.566   3.405  14.633 -0.1536 -0.0726 -0.2656
  799MPD2    H711781   0.496   3.374  14.567  0.3654 -2.4762  0.3119
  800MPD2     C11782   0.707   4.725  14.318  0.2438 -0.0549  0.4968
  800MPD2    C111783   0.831   0.053  14.306  0.1754 -0.0625 -0.2518
  800MPD2    C211784   0.913   0.013  14.203 -0.6271 -0.8521  0.0364
  800MPD2    C311785   0.868   4.643  14.107 -0.2893  0.2953  0.8006
  800MPD2    C411786   0.742   4.591  14.118  0.2460  0.5248 -1.2324
  800MPD2    C511787   0.668   4.628  14.231 -0.1785  0.2270 -0.1068
  800MPD2     H11788   1.014   0.052  14.193 -1.5266  1.9065  1.6991
  800MPD2    H111789   0.704   4.517  14.048  2.1414  0.0433 -1.7533
  800MPD2    H211790   0.643   0.039  14.395 -1.0929 -0.1841 -0.5444
  800MPD2    H311791   0.563   4.602  14.238  0.3795 -1.9546  0.0859
  800MPD2     N11792   0.959   4.606  14.005  0.0013  0.0910 -0.5487
  800MPD2    H511793   1.047   4.657  14.002 -0.1920  0.3840 -1.4786
  800MPD2    N111794   0.864   0.158  14.394 -0.0818  0.7116  0.3486
  800MPD2    H711795   0.798   0.203  14.456 -0.3726  0.4424  0.2345
  801MPD2     C11796   0.925   0.690  13.945 -0.1806  0.0170  0.6016
  801MPD2    C111797   0.991   0.752  14.052  0.4021 -0.1886  0.1992
  801MPD2    C211798   0.986   0.887  14.058  0.1916 -0.3542  1.1060
  801MPD2    C311799   0.915   0.959  13.960  0.3427  0.5605  0.1111
  801MPD2    C411800   0.851   0.891  13.859  0.3321  0.6887  0.1105
  801MPD2    C511801   0.865   0.762  13.847  0.5190  0.2644 -0.3373
  801MPD2     H11802   1.027   0.938  14.144 -0.1551  2.3742 -0.3751
  801MPD2    H111803   0.804   0.952  13.782 -2.0277  0.9195  1.7181
  801MPD2    H211804   0.910   0.583  13.950 -1.3898  0.1293 -0.5922
  801MPD2    H311805   0.823   0.706  13.764 -1.5606  2.7564 -0.9589
  801MPD2     N11806   0.910   1.100  13.959  0.1620  1.0002 -0.2733
  801MPD2    H511807   0.893   1.138  13.866 -0.7121  0.5900 -0.2780
  801MPD2    N111808   1.046   0.680  14.157 -0.3274  0.4545  0.4425
  801MPD2    H711809   1.081   0.736  14.234 -1.3133  1.2688  0.3013
  802MPD2     C11810   0.339   0.537  17.695 -0.3827  0.1122 -0.2135
  802MPD2    C111811   0.443   0.613  17.640 -0.6270 -0.3681 -0.3832
  802MPD2    C211812   0.571   0.581  17.671 -0.3265  0.0377  0.5708
  802MPD2    C311813   0.594   0.486   0.064 -0.1405 -0.3766  0.5045
  802MPD2    C411814   0.490   0.427   0.137 -0.1810 -0.2628  0.2497
  802MPD2    C511815   0.364   0.449   0.099 -0.4549  0.4672 -0.1821
  802MPD2     H11816   0.651   0.629  17.616 -0.8200  0.5198  0.2772
  802MPD2    H111817   0.507   0.356   0.217 -0.8917 -2.2956 -1.4263
  802MPD2    H211818   0.235   0.563  17.676 -0.2538  0.1929 -0.8037
  802MPD2    H311819   0.285   0.393   0.147  0.1381  0.7629  1.1472
  802MPD2     N11820   0.736   0.455   0.072 -0.0233 -0.4814  0.2664
  802MPD2    H511821   0.793   0.508   0.007 -1.3749  2.2053  1.2770
  802MPD2    N111822   0.424   0.722  17.553 -0.2921 -0.5088  0.4012
  802MPD2    H711823   0.501   0.753  17.495 -2.0244  0.6209 -1.3139
  803MPD2     C11824   1.618   4.510  12.165 -0.3294  0.5495 -0.2805
  803MPD2    C111825   1.729   4.464  12.230  0.5590  0.5272 -0.5318
  803MPD2    C211826   1.734   4.352  12.307 -0.1282  0.2111 -0.1905
  803MPD2    C311827   1.617   4.277  12.316 -0.1719  0.9145  0.3427
  803MPD2    C411828   1.506   4.317  12.252 -0.2839  0.1230  0.5024
  803MPD2    C511829   1.505   4.435  12.178  0.1382 -0.2791  0.1746
  803MPD2     H11830   1.826   4.328  12.359  0.5237 -0.7468 -1.8056
  803MPD2    H111831   1.409   4.273  12.270  0.2999 -0.5350  2.0940
  803MPD2    H211832   1.611   4.600  12.105 -1.0227  0.2840 -0.6055
  803MPD2    H311833   1.410   4.456  12.129  1.2699 -0.4290 -2.0954
  803MPD2     N11834   1.612   4.149  12.380 -0.1409 -0.3834  0.1455
  803MPD2    H511835   1.525   4.099  12.397 -0.9056  1.3910  1.4061
  803MPD2    N111836   1.842   4.545  12.241  0.3783  0.8870 -1.0353
  803MPD2    H711837   1.922   4.510  12.292 -0.1552  1.2094  0.0117
  804MPD2     C11838   1.729   0.794  17.088  0.9797 -0.2237  0.8229
  804MPD2    C111839   1.743   0.756  17.222  0.4636  0.0416  0.2916
  804MPD2    C211840   1.806   0.851  17.301 -0.5912 -0.1580 -0.5149
  804MPD2    C311841   1.867   0.968  17.253 -0.0981  0.6473  0.0271
  804MPD2    C411842   1.863   0.988  17.121 -0.0533 -0.0911 -0.2800
  804MPD2    C511843   1.786   0.905  17.043 -0.1807 -0.5196 -0.3665
  804MPD2     H11844   1.818   0.825  17.406 -0.0861  0.2570 -0.4722
  804MPD2    H111845   1.908   1.073  17.071 -1.5429  0.3784 -0.8390
  804MPD2    H211846   1.680   0.720  17.025 -0.3736  1.1288  0.2849
  804MPD2    H311847   1.764   0.913  16.937  1.3451 -0.0941 -0.6453
  804MPD2     N11848   1.929   1.048  17.348 -0.2384 -0.1356 -0.6474
  804MPD2    H511849   1.932   1.017  17.445  1.0721  2.7388  0.2347
  804MPD2    N111850   1.684   0.637  17.276 -0.4384 -0.0497 -0.6378
  804MPD2    H711851   1.692   0.626  17.377 -0.9936 -2.6855 -0.8973
  805MPD2     C11852   0.621   3.937  15.521  0.5818  0.2092  0.3481
  805MPD2    C111853   0.696   3.844  15.453  0.4697  0.0923  0.0845
  805MPD2    C211854   0.833   3.827  15.483  0.0317  0.1053 -0.2162
  805MPD2    C311855   0.904   3.905  15.568 -0.2534 -0.1061  0.3136
  805MPD2    C411856   0.825   4.006  15.632  0.4381  0.1865  0.2467
  805MPD2    C511857   0.692   4.024  15.607 -0.1748 -0.4019  0.5765
  805MPD2     H11858   0.883   3.737  15.449 -1.1340  0.6142 -3.3157
  805MPD2    H111859   0.855   4.080  15.705  1.1352 -0.2842  0.4346
  805MPD2    H211860   0.518   3.953  15.490  0.3181  1.0052  1.6258
  805MPD2    H311861   0.640   4.106  15.655  1.4506  1.0592 -0.1313
  805MPD2     N11862   1.040   3.871  15.602 -0.7748 -0.5039 -0.7216
  805MPD2    H511863   1.089   3.791  15.564 -1.1157 -2.3447  2.7019
  805MPD2    N111864   0.645   3.757  15.353 -0.4853  0.8399 -0.7880
  805MPD2    H711865   0.704   3.687  15.310 -1.3888 -0.3776 -0.0646
  806MPD2     C11866   1.432   3.447   1.315  0.2860 -0.3220  0.2826
  806MPD2    C111867   1.550   3.453   1.246  0.2770 -0.7222  0.0888
  806MPD2    C211868   1.545   3.433   1.109 -0.3777  0.3305  0.5260
  806MPD2    C311869   1.422   3.425   1.044 -0.1289 -0.1219 -0.0596
  806MPD2    C411870   1.303   3.420   1.119 -0.5953  0.4655  0.1356
  806MPD2    C511871   1.319   3.417   1.251 -0.2474  0.5719 -0.3104
  806MPD2     H11872   1.635   3.448   1.050 -1.8696  1.1940 -1.5372
  806MPD2    H111873   1.203   3.398   1.086 -0.1903 -0.5757 -0.3904
  806MPD2    H211874   1.424   3.459   1.422 -1.0998 -5.0867  0.7097
  806MPD2    H311875   1.225   3.401   1.302  1.7056 -1.4247  2.6702
  806MPD2     N11876   1.417   3.421   0.900  0.3962  0.3452  0.8386
  806MPD2    H511877   1.324   3.414   0.860  1.2753  0.3150 -1.2151
  806MPD2    N111878   1.669   3.459   1.319  0.5915 -0.6103  0.3896
  806MPD2    H711879   1.658   3.473   1.419  0.9076  1.7240  0.1084
  807MPD2     C11880   1.863   3.618   2.022  0.1994 -0.2197  0.7237
  807MPD2    C111881   1.789   3.539   1.937 -0.3797 -0.1659 -0.1626
  807MPD2    C211882   1.656   3.495   1.964 -0.1227 -0.1971  0.0835
  807MPD2    C311883   1.600   3.529   2.083  0.2684 -0.3067  0.0969
  807MPD2    C411884   1.677   3.602   2.174  0.0160  0.3325 -0.5711
  807MPD2    C511885   1.806   3.642   2.144  0.7555  0.1453  0.1804
  807MPD2     H11886   1.597   3.426   1.905 -0.5649  1.3179 -1.2438
  807MPD2    H111887   1.628   3.634   2.265  0.2257  1.4421 -0.8597
  807MPD2    H211888   1.966   3.642   2.000  0.4846 -2.1679 -0.0630
  807MPD2    H311889   1.864   3.702   2.213 -0.4414  1.6205 -0.1195
  807MPD2     N11890   1.473   3.480   2.116 -0.1334  0.2028  0.1168
  807MPD2    H511891   1.432   3.412   2.053  0.7582 -2.1947  2.1098
  807MPD2    N111892   1.837   3.507   1.807 -0.0198  0.7319 -0.7016
  807MPD2    H711893   1.762   3.471   1.748  0.7601 -0.5074 -0.9278
  808MPD2     C11894   1.789   0.590   9.863 -0.8776 -0.6358 -0.2859
  808MPD2    C111895   1.660   0.608   9.910  0.6595 -0.3929  0.1798
  808MPD2    C211896   1.613   0.737   9.909  0.2189  0.9153 -0.7140
  808MPD2    C311897   1.672   0.838   9.838  0.2040  0.1559 -0.5350
  808MPD2    C411898   1.779   0.810   9.760  0.9704  0.0477  0.0682
  808MPD2    C511899   1.840   0.695   9.785  0.2294  0.3658 -0.1819
  808MPD2     H11900   1.520   0.755   9.963 -0.5524  2.6721 -2.6302
  808MPD2    H111901   1.829   0.883   9.697 -2.2626 -0.5332 -3.1617
  808MPD2    H211902   1.842   0.496   9.857  0.4457  0.0934 -0.0604
  808MPD2    H311903   1.934   0.675   9.735  2.0181  0.2635  3.2400
  808MPD2     N11904   1.627   0.971   9.840  0.2004 -0.6627 -0.4704
  808MPD2    H511905   1.645   1.029   9.759 -0.0572  0.5805  0.3575
  808MPD2    N111906   1.577   0.511   9.978  0.0565 -0.1129  0.1758
  808MPD2    H711907   1.486   0.542  10.010  0.5828  1.4618  0.1205
  809MPD2     C11908   1.422   1.836   9.360 -0.1062  0.3525  0.3376
  809MPD2    C111909   1.511   1.736   9.340 -0.0013 -0.1792 -0.2526
  809MPD2    C211910   1.516   1.635   9.442 -0.2418 -0.6369 -0.2504
  809MPD2    C311911   1.446   1.646   9.561 -0.2440  0.3788  0.2079
  809MPD2    C411912   1.370   1.756   9.575 -0.3789 -0.7063 -0.0173
  809MPD2    C511913   1.349   1.847   9.473  0.1254  0.9707 -0.5067
  809MPD2     H11914   1.589   1.555   9.450 -0.4733 -0.3756  4.2182
  809MPD2    H111915   1.311   1.779   9.663 -2.2002  0.0900 -1.4637
  809MPD2    H211916   1.407   1.904   9.277 -0.2843  0.2622  0.2965
  809MPD2    H311917   1.279   1.927   9.496 -1.5359 -0.2350 -1.3097
  809MPD2     N11918   1.458   1.549   9.663  0.4495  0.1911 -0.5936
  809MPD2    H511919   1.415   1.575   9.751  0.0631 -1.0033 -0.4435
  809MPD2    N111920   1.599   1.728   9.231 -0.5177  0.2066 -0.0433
  809MPD2    H711921   1.644   1.637   9.226  0.1968  0.6915 -2.4719
  810MPD2     C11922   1.599   4.032  10.227 -0.1833 -0.0022  0.0295
  810MPD2    C111923   1.487   4.104  10.261  0.7180  0.2260 -0.1338
  810MPD2    C211924   1.490   4.239  10.279  0.1519  0.5512 -1.3251
  810MPD2    C311925   1.614   4.307  10.267  0.0852  0.9557  0.1871
  810MPD2    C411926   1.727   4.232  10.237 -0.6020 -0.8488 -0.1171
  810MPD2    C511927   1.721   4.097  10.219  0.1691  0.6779  1.1209
  810MPD2     H11928   1.393   4.287  10.286  0.3622  0.8545 -0.5322
  810MPD2    H111929   1.825   4.280  10.235 -1.1256  0.2430  0.2241
  810MPD2    H211930   1.605   3.926  10.206  0.9317  0.4871 -2.1212
  810MPD2    H311931   1.811   4.044  10.192 -0.8351 -1.2934  1.6482
  810MPD2     N11932   1.628   4.444  10.272 -0.2515  0.0659  0.0351
  810MPD2    H511933   1.719   4.487  10.284 -0.1809  0.1410 -0.8039
  810MPD2    N111934   1.361   4.041  10.281  0.1280  0.6862 -0.6843
  810MPD2    H711935   1.291   4.111  10.302 -0.1977  0.6809 -1.7234
  811MPD2     C11936   0.548   4.091  10.160  0.2679  0.3741  0.3602
  811MPD2    C111937   0.671   4.140  10.201  0.7992 -0.2720  0.9707
  811MPD2    C211938   0.699   4.276  10.191  0.4765 -0.5540  0.4218
  811MPD2    C311939   0.608   4.360  10.130 -0.6985 -0.4722  1.2819
  811MPD2    C411940   0.488   4.307  10.079 -0.3282  0.2282  0.5327
  811MPD2    C511941   0.459   4.174  10.100  0.1970  0.0858  0.0662
  811MPD2     H11942   0.793   4.321  10.219  0.8704 -0.9207 -0.3131
  811MPD2    H111943   0.409   4.361  10.029 -1.4189 -1.5312  0.3623
  811MPD2    H211944   0.530   3.984  10.154  1.0311  0.1953  1.0974
  811MPD2    H311945   0.364   4.136  10.066 -0.6083 -0.0803  2.5261
  811MPD2     N11946   0.646   4.496  10.118  0.3548 -0.7177 -0.5202
  811MPD2    H511947   0.735   4.519  10.161  0.7450 -0.9962 -1.1804
  811MPD2    N111948   0.767   4.047  10.251  0.0203  0.2659 -0.1684
  811MPD2    H711949   0.734   3.954  10.276  0.0540  1.0550  2.8904
  812MPD2     C11950   0.072   4.428  12.409  0.6407 -0.0010  0.1207
  812MPD2    C111951   4.699   4.440  12.507  0.8264  0.7877  0.1649
  812MPD2    C211952   4.668   4.318  12.571 -0.5056  0.0936 -0.3250
  812MPD2    C311953   0.024   4.197  12.565 -0.1754 -0.3376  0.5749
  812MPD2    C411954   0.120   4.201  12.466 -0.1796  0.4043 -0.9679
  812MPD2    C511955   0.135   4.306  12.384  0.3372 -0.5184  0.3968
  812MPD2     H11956   4.589   4.310  12.645  1.0986  0.9661  1.5215
  812MPD2    H111957   0.176   4.109  12.453 -0.4845 -0.4456  3.5456
  812MPD2    H211958   0.094   4.515  12.348  0.5138  0.6804  1.0466
  812MPD2    H311959   0.210   4.307  12.305  1.6659 -1.2441  1.6435
  812MPD2     N11960   4.718   4.087  12.645 -0.6225 -0.8746  0.3341
  812MPD2    H511961   4.654   4.100  12.723 -0.7505 -0.3192  0.1331
  812MPD2    N111962   4.628   4.558  12.519 -0.1203 -0.1755  0.3595
  812MPD2    H711963   4.662   4.642  12.473 -2.7970 -0.3134 -1.8349
  813MPD2     C11964   3.765   1.246  13.060 -0.5039 -0.3439 -0.0545
  813MPD2    C111965   3.719   1.368  13.030 -0.3782  0.9632 -0.7834
  813MPD2    C211966   3.621   1.421  13.111  0.3682  0.7906  0.0559
  813MPD2    C311967   3.566   1.348  13.222 -0.3772 -0.3604 -0.3914
  813MPD2    C411968   3.616   1.224  13.243 -0.0286 -0.3473  0.4113
  813MPD2    C511969   3.720   1.177  13.169  0.3019  0.5656  0.2690
  813MPD2     H11970   3.593   1.525  13.103  0.6297  0.7323 -1.5565
  813MPD2    H111971   3.583   1.146  13.311  0.0701  0.3700  1.2765
  813MPD2    H211972   3.834   1.198  12.992  1.5232  1.6092  0.6289
  813MPD2    H311973   3.753   1.075  13.187 -0.7947  0.5604  2.1704
  813MPD2     N11974   3.481   1.424  13.309 -0.0119  0.2860 -0.0574
  813MPD2    H511975   3.481   1.525  13.295 -1.9197  0.1632 -0.9184
  813MPD2    N111976   3.796   1.450  12.941  0.1283  0.2519  0.0040
  813MPD2    H711977   3.888   1.413  12.919 -0.0453  0.7393 -1.4941
  814MPD2     C11978   4.565   2.788  12.499  1.2722  0.3065  0.3373
  814MPD2    C111979   4.490   2.856  12.408  0.7801 -0.1599  0.4483
  814MPD2    C211980   4.509   2.993  12.403 -0.1808 -0.7454 -0.6141
  814MPD2    C311981   4.594   3.060  12.487 -0.2823  0.0151 -0.7118
  814MPD2    C411982   4.661   2.992  12.586  0.9010  0.3254  0.0225
  814MPD2    C511983   4.639   2.853  12.590  0.1724 -0.5822 -0.7846
  814MPD2     H11984   4.452   3.044  12.326  0.8774  0.2672 -0.7303
  814MPD2    H111985   4.722   3.043  12.659  1.5516  0.4130 -0.5825
  814MPD2    H211986   4.550   2.682  12.514  0.8612  0.4038  0.6078
  814MPD2    H311987   4.688   2.792  12.665  1.1513  0.4716 -0.5653
  814MPD2     N11988   4.630   3.194  12.476 -0.1663  0.0909  0.1480
  814MPD2    H511989   4.703   3.227  12.538  1.3059  1.4578 -2.3506
  814MPD2    N111990   4.391   2.800  12.322  0.7725  0.4201 -0.3446
  814MPD2    H711991   4.349   2.855  12.248 -1.4669 -1.3635 -0.4066
  815MPD2     C11992   4.518   1.472  12.202  0.2397  0.5135  0.4930
  815MPD2    C111993   4.488   1.343  12.193  0.1554  0.6073  0.0726
  815MPD2    C211994   4.357   1.296  12.216 -0.6215  0.0346 -0.2615
  815MPD2    C311995   4.262   1.384  12.272 -0.2422 -0.7687  0.3914
  815MPD2    C411996   4.308   1.510  12.304 -0.1746 -0.2152 -0.6576
  815MPD2    C511997   4.429   1.555  12.255  0.3032  0.1771  0.7603
  815MPD2     H11998   4.335   1.189  12.215 -3.4521  0.6110  2.0894
  815MPD2    H111999   4.244   1.587  12.345 -0.0077 -0.2715 -0.2906
  815MPD2    H212000   4.618   1.512  12.195  0.9639 -1.3654  0.2382
  815MPD2    H312001   4.461   1.658  12.270 -2.7581  1.0279  1.3949
  815MPD2     N12002   4.126   1.345  12.276 -0.0784 -0.5989  0.2874
  815MPD2    H512003   4.106   1.256  12.232 -2.1156  0.0002 -0.0157
  815MPD2    N112004   4.589   1.258  12.143  0.3148  0.1012  0.5229
  815MPD2    H712005   4.678   1.302  12.121  0.1386  1.3199  2.2729
  816MPD2     C12006   4.642   0.027   0.039  0.4418  0.1942  0.1647
  816MPD2    C112007   4.665   0.163   0.054  0.3639 -0.7007  0.2229
  816MPD2    C212008   0.049   0.223   0.001  0.7999  0.0400 -0.6862
  816MPD2    C312009   0.135   0.145  17.626 -0.6670  0.1600 -0.2392
  816MPD2    C412010   0.102   0.010  17.597 -0.8249  0.5740  0.2363
  816MPD2    C512011   4.716   4.676  17.655  0.2888  0.7876 -0.4186
  816MPD2     H12012   0.072   0.328   0.015 -0.1656  0.2192 -0.4961
  816MPD2    H112013   0.157   4.672  17.528 -1.7089 -0.2227  0.2592
  816MPD2    H212014   4.550   4.712   0.079 -0.4393  1.6293 -0.4180
  816MPD2    H312015   4.680   4.576  17.637 -1.1944  1.2383  0.0709
  816MPD2     N12016   0.254   0.210  17.576 -0.4785 -0.2074 -0.1133
  816MPD2    H512017   0.254   0.311  17.580 -0.8029 -0.2118  0.0659
  816MPD2    N112018   4.568   0.238   0.123  0.4604 -0.0457  0.4415
  816MPD2    H712019   4.480   0.195   0.150 -1.7633  3.5260 -1.1108
  817MPD2     C12020   4.149   1.988  10.458  0.0234 -0.6919 -0.6152
  817MPD2    C112021   4.233   1.993  10.344  0.0397  0.4955  0.1158
  817MPD2    C212022   4.239   2.108  10.271 -0.7784 -0.0651  0.2939
  817MPD2    C312023   4.172   2.222  10.299  0.0605  0.3028 -0.2229
  817MPD2    C412024   4.088   2.219  10.414  0.3851 -0.0689 -0.1535
  817MPD2    C512025   4.083   2.104  10.487  0.1076  0.8146 -0.3769
  817MPD2     H12026   4.293   2.106  10.177 -0.4868 -1.0750  0.4879
  817MPD2    H112027   4.031   2.304  10.450 -0.5159  0.2231 -2.2459
  817MPD2    H212028   4.154   1.901  10.522  0.8946 -0.3498 -0.2194
  817MPD2    H312029   4.025   2.108  10.579  0.9127 -1.2273  0.2268
  817MPD2     N12030   4.190   2.334  10.213  0.2922  0.2559  0.5802
  817MPD2    H512031   4.262   2.324  10.142  1.5244  0.6691  1.7731
  817MPD2    N112032   4.321   1.890  10.292  1.7805  0.5514  0.2595
  817MPD2    H712033   4.375   1.907  10.208 -1.5105  1.9585 -1.5820
  818MPD2     C12034   3.288   2.118   9.838 -0.2744  0.5207 -0.0376
  818MPD2    C112035   3.239   2.050   9.950  0.0380  0.1553  0.3192
  818MPD2    C212036   3.263   1.919   9.960 -0.2321 -0.2400  0.0350
  818MPD2    C312037   3.317   1.846   9.854  0.6899 -0.7577 -0.6907
  818MPD2    C412038   3.343   1.909   9.737 -0.0600 -0.1712  0.2175
  818MPD2    C512039   3.344   2.046   9.732  0.1114 -0.8343  0.1037
  818MPD2     H12040   3.228   1.881  10.055  0.1235 -0.8376 -0.0724
  818MPD2    H112041   3.399   1.862   9.657 -1.4702 -1.9648  0.3022
  818MPD2    H212042   3.288   2.227   9.836  1.1718  0.5276  0.6002
  818MPD2    H312043   3.397   2.090   9.649  0.7605 -1.5912  0.1090
  818MPD2     N12044   3.335   1.705   9.864 -0.1077 -0.3785 -0.4615
  818MPD2    H512045   3.371   1.655   9.783  1.2239  0.7618 -0.5631
  818MPD2    N112046   3.171   2.099  10.066  0.3356 -0.2254  0.2721
  818MPD2    H712047   3.161   2.033  10.142 -0.5776  0.1391  0.4779
  819MPD2     C12048   1.326   3.308  15.592  0.3143  0.3727 -0.1329
  819MPD2    C112049   1.360   3.181  15.632  0.0596 -0.7270  0.0487
  819MPD2    C212050   1.473   3.159  15.719  1.4284  0.2913  0.2853
  819MPD2    C312051   1.537   3.266  15.766 -0.2179  0.2454 -0.0060
  819MPD2    C412052   1.502   3.392  15.721 -0.2936  0.0624  0.1502
  819MPD2    C512053   1.401   3.414  15.635  0.0674 -0.6406 -0.6909
  819MPD2     H12054   1.502   3.060  15.753 -2.5497 -0.8927  0.1976
  819MPD2    H112055   1.547   3.484  15.755  0.7798 -0.3665 -0.1179
  819MPD2    H212056   1.252   3.329  15.516  2.8291  2.1469 -2.0596
  819MPD2    H312057   1.379   3.513  15.596  0.4821 -0.4005 -0.3151
  819MPD2     N12058   1.653   3.239  15.844  0.7808  0.4605 -0.4845
  819MPD2    H512059   1.667   3.142  15.871 -1.6391  0.4939  0.9004
  819MPD2    N112060   1.273   3.083  15.584 -0.4723 -0.1032  0.2334
  819MPD2    H712061   1.199   3.123  15.527 -1.1533 -0.8411  0.5980
  820MPD2     C12062   0.532   3.009  14.961 -0.2488  0.9995 -0.0925
  820MPD2    C112063   0.601   3.097  15.037  0.0755  0.3696 -0.2245
  820MPD2    C212064   0.697   3.043  15.121  0.3676  0.2086  0.2634
  820MPD2    C312065   0.716   2.906  15.133 -0.1545 -0.6756 -0.2072
  820MPD2    C412066   0.631   2.819  15.072  0.1096  0.5274  0.3824
  820MPD2    C512067   0.534   2.871  14.981 -0.9122  0.1594  1.2193
  820MPD2     H12068   0.759   3.109  15.181 -0.0477 -0.7746  1.7819
  820MPD2    H112069   0.638   2.711  15.067 -1.0737  0.4025  1.6204
  820MPD2    H212070   0.460   3.046  14.890 -1.8391  0.6608  1.3405
  820MPD2    H312071   0.463   2.805  14.934 -1.4849  1.5725  0.1029
  820MPD2     N12072   0.823   2.854  15.212 -0.5974 -0.0055  0.4793
  820MPD2    H512073   0.819   2.757  15.240  0.0668 -0.4629 -0.9988
  820MPD2    N112074   0.564   3.233  15.029 -0.0108  0.1967  0.3881
  820MPD2    H712075   0.476   3.246  14.980 -0.5317  0.8725  1.5048
  821MPD2     C12076   1.130   0.107  13.250 -0.0047  0.3353 -0.1614
  821MPD2    C112077   1.212   0.111  13.360  0.6458  0.0248  0.8050
  821MPD2    C212078   1.304   0.214  13.364  0.1588  0.0634  0.2385
  821MPD2    C312079   1.324   0.303  13.257 -0.5825 -0.1132  0.1913
  821MPD2    C412080   1.238   0.304  13.151  0.2728  0.0788  0.3544
  821MPD2    C512081   1.142   0.202  13.153 -0.6206  0.0688 -0.0965
  821MPD2     H12082   1.365   0.218  13.454  0.2406 -1.6593  0.2644
  821MPD2    H112083   1.242   0.379  13.074  1.6768 -0.5541 -0.1868
  821MPD2    H212084   1.044   0.042  13.242 -0.1637  0.4693  0.4804
  821MPD2    H312085   1.068   0.198  13.073 -0.1140 -1.5066 -0.5056
  821MPD2     N12086   1.428   0.397  13.250  0.2175 -0.1421  0.4289
  821MPD2    H512087   1.437   0.454  13.166 -1.6814  1.7439  1.5300
  821MPD2    N112088   1.203   0.016  13.466 -0.0256 -0.2763  0.3840
  821MPD2    H712089   1.271   0.031  13.540 -0.5843 -0.3869  0.9152
  822MPD2     C12090   2.281   4.651  15.929 -0.3334 -0.8128  0.0856
  822MPD2    C112091   2.216   4.617  16.042  0.1581 -0.3684  0.3392
  822MPD2    C212092   2.127   4.707  16.093 -0.2760 -0.4349 -0.8850
  822MPD2    C312093   2.104   0.105  16.032 -0.2451  0.0510  0.1498
  822MPD2    C412094   2.175   0.139  15.920  0.0880  0.9358  0.1369
  822MPD2    C512095   2.252   0.045  15.864  0.1825  0.2282  0.7786
  822MPD2     H12096   2.072   4.680  16.182  1.1094  1.9362  0.6860
  822MPD2    H112097   2.164   0.236  15.872 -2.7805  0.0786 -0.9315
  822MPD2    H212098   2.362   4.594  15.884 -0.1431 -1.5823  1.4114
  822MPD2    H312099   2.290   0.068  15.765 -0.1606 -0.2441  0.5344
  822MPD2     N12100   2.017   0.191  16.103  0.5158 -0.0354  0.0623
  822MPD2    H512101   1.970   0.156  16.186  0.6412 -1.2524 -0.3673
  822MPD2    N112102   2.237   4.503  16.121 -0.9326  0.5129 -0.3430
  822MPD2    H712103   2.200   4.498  16.215 -1.9133  3.4797 -0.5620
  823MPD2     C12104   1.838   0.490  16.855  0.4366 -0.0523  0.2659
  823MPD2    C112105   1.814   0.381  16.774  0.2952  0.1857 -0.5031
  823MPD2    C212106   1.824   0.254  16.830 -0.7833  0.0364  0.7278
  823MPD2    C312107   1.862   0.234  16.963 -0.6346 -0.6033  0.1199
  823MPD2    C412108   1.892   0.334  17.046 -0.3070 -0.0350  0.5866
  823MPD2    C512109   1.870   0.460  16.984 -0.2257 -0.3975  0.3307
  823MPD2     H12110   1.781   0.175  16.769  1.0894 -1.2351  1.0495
  823MPD2    H112111   1.921   0.317  17.149 -1.1764  0.5950  0.9372
  823MPD2    H212112   1.835   0.592  16.818 -2.2416  0.2034  1.2091
  823MPD2    H312113   1.903   0.543  17.046 -0.0144  0.1946 -0.5788
  823MPD2     N12114   1.863   0.104  17.022 -0.0113 -0.7062 -0.4046
  823MPD2    H512115   1.873   0.100  17.122  1.1961 -0.3050 -0.5126
  823MPD2    N112116   1.805   0.410  16.637  0.2931 -0.8874 -0.1917
  823MPD2    H712117   1.839   0.502  16.613 -2.4604 -0.0548 -0.8428
  824MPD2     C12118   2.625   3.747  16.144 -0.5908  0.2485  0.9261
  824MPD2    C112119   2.644   3.878  16.103 -0.5311 -0.9368 -0.5859
  824MPD2    C212120   2.749   3.904  16.018  0.1378  0.8443  0.0146
  824MPD2    C312121   2.844   3.807  15.991  0.1945  0.1038  0.0637
  824MPD2    C412122   2.834   3.681  16.041 -0.2002 -0.4449  0.4652
  824MPD2    C512123   2.717   3.651  16.110 -0.4235 -0.1045  0.1551
  824MPD2     H12124   2.752   4.005  15.979 -3.0734  1.3500  1.0763
  824MPD2    H112125   2.909   3.606  16.018  0.3023  0.4178 -0.6964
  824MPD2    H212126   2.542   3.711  16.204  0.0248 -0.7681  1.1775
  824MPD2    H312127   2.700   3.553  16.153 -1.3753  0.0602  0.1688
  824MPD2     N12128   2.956   3.846  15.915  0.4199 -0.4646  0.4486
  824MPD2    H512129   2.954   3.934  15.864  0.2224 -1.7046 -1.7032
  824MPD2    N112130   2.556   3.979  16.141  0.2468  0.0334  0.3422
  824MPD2    H712131   2.588   4.072  16.117  2.8679 -1.4599 -1.9493
  825MPD2     C12132   3.459   4.197  15.346  0.2545  0.2007 -0.2303
  825MPD2    C112133   3.329   4.186  15.390 -0.5838 -0.4475  0.4181
  825MPD2    C212134   3.241   4.293  15.367  0.0792  0.1071  0.1488
  825MPD2    C312135   3.281   4.409  15.304  0.1407  0.4474  0.4232
  825MPD2    C412136   3.409   4.411  15.252 -0.1341 -0.2994  0.0412
  825MPD2    C512137   3.491   4.305  15.270 -0.1439 -0.2744 -0.1479
  825MPD2     H12138   3.139   4.272  15.394 -0.1935  1.2661  0.0285
  825MPD2    H112139   3.454   4.490  15.192 -0.1444 -1.9391 -2.1044
  825MPD2    H212140   3.525   4.113  15.363 -0.1775  0.3012  2.0150
  825MPD2    H312141   3.592   4.305  15.229  0.0839  1.9211  0.4227
  825MPD2     N12142   3.193   4.519  15.282 -0.7003  0.8346 -0.4349
  825MPD2    H512143   3.218   4.596  15.220  0.5059  0.1539 -0.7980
  825MPD2    N112144   3.297   4.074  15.462 -0.3738  0.0017  0.3800
  825MPD2    H712145   3.374   4.008  15.464 -1.3735 -1.1818 -0.8172
  826MPD2     C12146   2.593   4.154  13.819  0.0281 -1.1111  0.2671
  826MPD2    C112147   2.473   4.146  13.750 -0.8665  0.2178  0.6095
  826MPD2    C212148   2.421   4.272  13.703 -0.0814 -0.7660  0.7250
  826MPD2    C312149   2.481   4.393  13.742  0.0119 -0.1419 -0.8191
  826MPD2    C412150   2.601   4.393  13.811  0.0493 -1.1363  0.2633
  826MPD2    C512151   2.659   4.273  13.848  0.1133 -0.7298  0.2727
  826MPD2     H12152   2.322   4.267  13.659 -1.5651 -2.2044  4.2262
  826MPD2    H112153   2.647   4.488  13.836 -1.0039 -0.8545  1.1397
  826MPD2    H212154   2.645   4.068  13.859 -1.2890 -1.8449  0.3832
  826MPD2    H312155   2.756   4.267  13.896  0.8368 -2.8301 -1.4464
  826MPD2     N12156   2.426   4.523  13.721  0.5832  0.1971  0.4862
  826MPD2    H512157   2.471   4.603  13.764  0.7244  0.6222 -0.4425
  826MPD2    N112158   2.416   4.022  13.728 -0.0325 -0.0342 -0.4316
  826MPD2    H712159   2.459   3.940  13.770  0.2041 -0.2720 -1.1337
  827MPD2     C12160   3.589   0.643  10.300 -0.1264 -0.5973 -0.5713
  827MPD2    C112161   3.530   0.550  10.379 -0.0382  0.1214  0.4978
  827MPD2    C212162   3.399   0.509  10.344  0.1124  0.2659 -0.4949
  827MPD2    C312163   3.339   0.554  10.225 -0.4305 -0.5388  0.1179
  827MPD2    C412164   3.412   0.647  10.150  0.2849  0.1556  0.3678
  827MPD2    C512165   3.533   0.691  10.187  0.0997 -0.0278 -0.8225
  827MPD2     H12166   3.334   0.453  10.409  2.0170 -0.8888  0.4051
  827MPD2    H112167   3.370   0.698  10.064  0.2600  0.6123  0.6490
  827MPD2    H212168   3.686   0.684  10.326  0.0452 -1.8502  0.7669
  827MPD2    H312169   3.585   0.765  10.128  0.2407  1.5715  1.2892
  827MPD2     N12170   3.198   0.517  10.202 -0.8854 -0.4970 -0.4767
  827MPD2    H512171   3.161   0.443  10.259  0.8332 -2.3551 -1.7725
  827MPD2    N112172   3.602   0.504  10.499 -0.3000 -0.1213  0.2458
  827MPD2    H712173   3.691   0.549  10.519  1.6533 -1.6837 -4.8609
  828MPD2     C12174   1.739   0.344  13.020 -0.1293 -0.4483 -0.3360
  828MPD2    C112175   1.752   0.376  12.886  0.4393  0.7149 -0.3000
  828MPD2    C212176   1.882   0.358  12.837 -0.5800  0.2875 -0.0278
  828MPD2    C312177   1.988   0.308  12.905 -0.0682 -0.6260  0.4081
  828MPD2    C412178   1.969   0.287  13.038 -0.2734 -0.2312  0.3077
  828MPD2    C512179   1.846   0.302  13.090  0.2723 -0.3036 -0.1216
  828MPD2     H12180   1.894   0.392  12.735 -2.2521  0.7228 -0.0734
  828MPD2    H112181   2.051   0.273  13.108  1.3710  3.3216 -0.9152
  828MPD2    H212182   1.643   0.364  13.066  0.4195  0.7924  0.2745
  828MPD2    H312183   1.832   0.293  13.197  3.9836 -1.0824  0.2891
  828MPD2     N12184   2.122   0.298  12.854  0.0929  0.4307  0.5724
  828MPD2    H512185   2.186   0.266  12.927  1.8916  2.7581  0.0323
  828MPD2    N112186   1.659   0.452  12.805 -0.8501 -0.3371 -0.2736
  828MPD2    H712187   1.690   0.497  12.719  2.2322 -1.5263  0.2010
  829MPD2     C12188   1.892   0.756  12.070 -0.7020 -0.3265  0.0011
  829MPD2    C112189   1.766   0.804  12.062 -0.0974  0.5351 -0.2217
  829MPD2    C212190   1.677   0.780  12.168  0.1967  0.1608  0.6792
  829MPD2    C312191   1.707   0.695  12.271 -0.1477 -0.3313  0.4950
  829MPD2    C412192   1.836   0.652  12.276  0.5054  0.1988  0.4868
  829MPD2    C512193   1.924   0.671  12.177 -0.0884 -0.9581 -0.1870
  829MPD2     H12194   1.582   0.832  12.165  0.1540  0.0256 -0.6143
  829MPD2    H112195   1.871   0.596  12.362  0.0913 -1.5076 -0.4502
  829MPD2    H212196   1.963   0.760  11.989 -2.4003 -1.0894 -1.5391
  829MPD2    H312197   2.023   0.629  12.188  0.0368 -1.0785 -1.7419
  829MPD2     N12198   1.630   0.672  12.386 -0.3943  0.1381  0.3207
  829MPD2    H512199   1.682   0.634  12.464 -0.5782  2.8099  1.7413
  829MPD2    N112200   1.742   0.890  11.956  0.0964 -0.4940 -0.0371
  829MPD2    H712201   1.824   0.899  11.896 -0.3319  0.3636 -0.4832
  830MPD2     C12202   2.551   3.283  16.045  0.3208  0.4652 -0.5207
  830MPD2    C112203   2.462   3.333  15.951 -0.5119 -0.2271  0.3411
  830MPD2    C212204   2.503   3.426  15.853 -0.7067 -0.2771 -0.1100
  830MPD2    C312205   2.638   3.449  15.831 -0.9211  0.3106  0.6873
  830MPD2    C412206   2.728   3.395  15.922  0.1056  0.2636 -0.3361
  830MPD2    C512207   2.689   3.317  16.025  0.0028  0.5447  0.3424
  830MPD2     H12208   2.435   3.470  15.781  0.8825  2.4293  0.0312
  830MPD2    H112209   2.836   3.402  15.912 -0.0009  1.7874 -0.3453
  830MPD2    H212210   2.522   3.217  16.126  0.2297  1.0597 -0.0710
  830MPD2    H312211   2.765   3.283  16.095  0.3094 -1.0723 -0.7739
  830MPD2     N12212   2.702   3.526  15.729 -0.0435 -1.1214 -0.6145
  830MPD2    H512213   2.800   3.552  15.736  0.5640 -3.9503  1.3659
  830MPD2    N112214   2.327   3.292  15.970 -0.1911  0.4736  0.3416
  830MPD2    H712215   2.323   3.227  16.047 -0.5370  0.7477  0.5575
  831MPD2     C12216   2.223   0.300  16.506 -0.5171  0.4670  0.2227
  831MPD2    C112217   2.249   0.194  16.422 -0.2145  0.4101 -0.2383
  831MPD2    C212218   2.206   0.063  16.446  0.2924  0.1335  0.4394
  831MPD2    C312219   2.109   0.047  16.541 -0.1462  0.3162 -0.5262
  831MPD2    C412220   2.086   0.149  16.626  0.0334  0.6255  0.1958
  831MPD2    C512221   2.141   0.274  16.614 -0.2311 -0.1784  0.1758
  831MPD2     H12222   2.239   4.704  16.386  0.8393  0.5444  0.1709
  831MPD2    H112223   2.024   0.129  16.714 -1.0769 -1.1725 -0.9955
  831MPD2    H212224   2.254   0.399  16.476  0.3634  0.7630  2.1235
  831MPD2    H312225   2.108   0.357  16.674  1.2158 -0.0476  0.7786
  831MPD2     N12226   2.022   4.664  16.538  0.8859  1.0811  0.2277
  831MPD2    H512227   1.945   4.680  16.603  0.4939  1.2087 -0.2652
  831MPD2    N112228   2.317   0.208  16.297 -0.0463  0.4073  0.0123
  831MPD2    H712229   2.342   0.125  16.245 -0.5844 -0.2635  0.8084
  832MPD2     C12230   0.734   1.378  17.231 -0.7406  0.5194 -0.5730
  832MPD2    C112231   0.733   1.240  17.235  0.1528 -0.6767 -0.2966
  832MPD2    C212232   0.625   1.170  17.186 -0.5854 -0.5597  0.9213
  832MPD2    C312233   0.516   1.242  17.148  0.2438 -0.0677 -0.0628
  832MPD2    C412234   0.511   1.377  17.155 -0.3413  0.1936 -0.0534
  832MPD2    C512235   0.618   1.448  17.205  0.0681  0.3666 -0.1546
  832MPD2     H12236   0.625   1.063  17.171  3.6097 -0.4338  0.0636
  832MPD2    H112237   0.429   1.437  17.119  1.1771  0.7914 -2.4721
  832MPD2    H212238   0.826   1.431  17.255 -0.8715 -0.2933  1.7014
  832MPD2    H312239   0.608   1.556  17.201  2.0867  0.5487 -0.3930
  832MPD2     N12240   0.401   1.177  17.090  0.0986 -0.0547  0.1358
  832MPD2    H512241   0.327   1.236  17.053 -0.7459  0.0302  1.9409
  832MPD2    N112242   0.848   1.178  17.290 -0.2340 -0.8646 -0.4678
  832MPD2    H712243   0.922   1.239  17.321  0.0976 -0.7124 -1.5535
  833MPD2     C12244   2.094   2.635  12.524  0.9498 -0.0283  0.3897
  833MPD2    C112245   2.199   2.688  12.597 -1.0290  0.3783  0.3847
  833MPD2    C212246   2.325   2.677  12.542 -0.2397 -0.7307 -0.4014
  833MPD2    C312247   2.347   2.613  12.429  0.0783 -0.1757 -0.1291
  833MPD2    C412248   2.242   2.556  12.356  0.3916  0.6864 -0.4377
  833MPD2    C512249   2.114   2.567  12.407 -0.3766 -0.5583  0.2891
  833MPD2     H12250   2.410   2.731  12.583  1.3724 -2.4482 -1.4591
  833MPD2    H112251   2.246   2.504  12.261 -1.2305 -1.0384  0.4331
  833MPD2    H212252   1.988   2.644  12.543  0.8532 -0.1691 -0.0974
  833MPD2    H312253   2.031   2.515  12.361 -1.6090  0.5632  1.2382
  833MPD2     N12254   2.475   2.629  12.371  0.0239  0.0905  0.2521
  833MPD2    H512255   2.541   2.688  12.421 -0.0013  1.6745 -1.5649
  833MPD2    N112256   2.165   2.760  12.718 -0.3206  0.2885  0.2931
  833MPD2    H712257   2.066   2.761  12.736 -0.7044  1.3945 -1.7656
  834MPD2     C12258   2.786   3.019  11.492 -0.3118 -0.1075  0.1085
  834MPD2    C112259   2.673   2.944  11.512 -0.0923 -0.0895  0.9132
  834MPD2    C212260   2.642   2.905  11.642  0.4029 -0.7040 -0.0983
  834MPD2    C312261   2.712   2.948  11.753 -0.3521 -0.3927  0.8038
  834MPD2    C412262   2.818   3.033  11.732  0.3286  0.1645 -0.0788
  834MPD2    C512263   2.850   3.068  11.602  0.3931 -0.6698 -0.1919
  834MPD2     H12264   2.564   2.832  11.663  1.4674 -1.5983  0.7445
  834MPD2    H112265   2.884   3.069  11.811  1.2005  1.9460 -1.6124
  834MPD2    H212266   2.821   3.034  11.390 -1.5737 -1.5005 -0.5181
  834MPD2    H312267   2.935   3.134  11.589 -0.9226  1.0867  0.0553
  834MPD2     N12268   2.677   2.899  11.876 -0.0306  0.1210 -1.0706
  834MPD2    H512269   2.629   2.810  11.873 -1.4095  0.7834  1.7364
  834MPD2    N112270   2.607   2.880  11.397  0.4603  0.2630 -0.0813
  834MPD2    H712271   2.643   2.889  11.302  0.9261 -0.8963 -0.0163
  835MPD2     C12272   3.169   1.193  11.367 -0.1387 -0.3394  0.6636
  835MPD2    C112273   3.048   1.143  11.420  0.6899 -0.7175 -0.5840
  835MPD2    C212274   3.038   1.145  11.562 -0.1355 -0.5099 -0.4012
  835MPD2    C312275   3.142   1.183  11.639 -0.6302  0.0782 -0.3886
  835MPD2    C412276   3.254   1.233  11.585  0.1843  0.3028 -0.1722
  835MPD2    C512277   3.262   1.240  11.448 -0.1641  0.5255 -0.1917
  835MPD2     H12278   2.946   1.118  11.611 -0.3140  0.6688 -0.0708
  835MPD2    H112279   3.344   1.259  11.639  1.0305  2.7645 -2.7653
  835MPD2    H212280   3.191   1.198  11.261 -0.4276 -0.6297  0.5913
  835MPD2    H312281   3.353   1.272  11.398  0.1906  0.9029  0.6823
  835MPD2     N12282   3.134   1.175  11.783  0.0563  0.1493  0.1893
  835MPD2    H512283   3.221   1.194  11.832 -0.0617  2.7841 -0.6466
  835MPD2    N112284   2.941   1.085  11.345 -1.2551 -0.5214 -0.0900
  835MPD2    H712285   2.857   1.056  11.394 -0.1066 -2.3057  0.8444
  836MPD2     C12286   2.577   1.006  11.870 -0.4430  0.0361  0.8278
  836MPD2    C112287   2.579   1.065  11.993  0.1235  0.0567 -0.3223
  836MPD2    C212288   2.460   1.081  12.060 -0.4687 -0.3571 -0.3438
  836MPD2    C312289   2.342   1.034  11.997 -0.5050 -0.1308 -0.0722
  836MPD2    C412290   2.341   0.984  11.869  0.1604 -0.2767 -0.0273
  836MPD2    C512291   2.462   0.969  11.806  0.8991 -0.5019  0.3633
  836MPD2     H12292   2.460   1.122  12.161  0.3951  0.3176 -0.6171
  836MPD2    H112293   2.255   0.945  11.815  1.6693 -2.9365 -0.5397
  836MPD2    H212294   2.673   0.989  11.824  0.2138  3.1072  1.0216
  836MPD2    H312295   2.473   0.925  11.708  1.3172  0.1506  0.1191
  836MPD2     N12296   2.216   1.028  12.069 -0.5084  0.0311 -0.7143
  836MPD2    H512297   2.139   1.011  12.006 -1.6609  0.7519  0.5017
  836MPD2    N112298   2.702   1.104  12.040  0.0936 -0.1190  0.8404
  836MPD2    H712299   2.774   1.099  11.969  0.1644  1.3811  0.8093
  837MPD2     C12300   0.608   0.389  10.631 -0.0099 -0.3246  0.0209
  837MPD2    C112301   0.654   0.428  10.507 -0.2266 -0.4185 -0.1873
  837MPD2    C212302   0.662   0.558  10.476  0.0397  0.5270  0.4480
  837MPD2    C312303   0.619   0.653  10.568  0.1851  0.0874  0.0987
  837MPD2    C412304   0.596   0.622  10.698  1.2512  0.3204  0.0324
  837MPD2    C512305   0.590   0.490  10.723 -0.1126  0.4769  0.3150
  837MPD2     H12306   0.684   0.600  10.379 -2.2639 -0.8774 -0.6884
  837MPD2    H112307   0.581   0.695  10.777 -1.2790 -1.7205  1.4436
  837MPD2    H212308   0.597   0.284  10.656  1.5706  0.0298  2.2034
  837MPD2    H312309   0.576   0.462  10.827 -0.0785  2.1777  0.7711
  837MPD2     N12310   0.610   0.784  10.513  0.7396  0.0586  0.1791
  837MPD2    H512311   0.659   0.796  10.425  0.3413 -1.0210 -0.1811
  837MPD2    N112312   0.683   0.332  10.406 -0.7053 -0.2454  0.1123
  837MPD2    H712313   0.723   0.373  10.322 -0.1679  1.3902  1.1639
  838MPD2     C12314   3.663   3.067  11.267  0.1605 -0.1489  0.3646
  838MPD2    C112315   3.671   3.064  11.409  0.0830 -0.1165  0.7146
  838MPD2    C212316   3.560   3.042  11.482 -0.0709 -0.3655 -0.1676
  838MPD2    C312317   3.443   3.033  11.415 -0.3623  0.0871 -0.1329
  838MPD2    C412318   3.427   3.053  11.280 -0.0669 -0.0090 -0.1734
  838MPD2    C512319   3.542   3.066  11.208  0.0177  0.1503  0.4359
  838MPD2     H12320   3.568   3.059  11.588  1.1915 -0.8947 -0.1765
  838MPD2    H112321   3.328   3.061  11.235  0.7000  1.4314 -1.5874
  838MPD2    H212322   3.746   3.080  11.199  0.6496  0.3791  1.0592
  838MPD2    H312323   3.530   3.085  11.101 -3.7565  0.5651  0.9440
  838MPD2     N12324   3.325   3.022  11.498 -0.3585 -0.3872  0.0999
  838MPD2    H512325   3.237   3.043  11.452  0.5245 -0.2962 -1.5504
  838MPD2    N112326   3.793   3.094  11.481  0.2341 -0.0523  0.6232
  838MPD2    H712327   3.779   3.104  11.581 -0.7825  1.3599  0.3397
  839MPD2     C12328   3.965   2.851  12.251  0.3180  0.1984 -0.0735
  839MPD2    C112329   3.898   2.814  12.140  0.2809 -0.0239  0.8378
  839MPD2    C212330   3.936   2.860  12.023 -0.6243 -0.9620  0.5011
  839MPD2    C312331   4.025   2.960  12.012  0.0045  0.0448  0.0092
  839MPD2    C412332   4.088   3.000  12.127 -0.0067 -0.5493  0.0495
  839MPD2    C512333   4.065   2.939  12.241 -0.1242 -0.2481 -0.1999
  839MPD2     H12334   3.875   2.828  11.939  1.0654 -0.6311 -0.8534
  839MPD2    H112335   4.174   3.064  12.131 -0.8004  0.5861 -0.9851
  839MPD2    H212336   3.947   2.813  12.351  3.7449 -1.1931  0.0162
  839MPD2    H312337   4.122   2.969  12.328 -1.6930  3.6131 -0.5428
  839MPD2     N12338   4.036   3.020  11.888 -0.4060 -0.6338 -0.3451
  839MPD2    H512339   3.986   2.981  11.809 -1.7130 -0.8427  0.5705
  839MPD2    N112340   3.785   2.728  12.143 -0.3397 -0.4056  0.1041
  839MPD2    H712341   3.744   2.700  12.055  0.1930  0.8228 -0.5265
  840MPD2     C12342   4.094   0.817  10.620 -0.0633 -0.1384 -0.0801
  840MPD2    C112343   4.051   0.772  10.742 -0.7045 -0.5605  0.7820
  840MPD2    C212344   4.111   0.831  10.855  0.7993 -0.4994 -0.6666
  840MPD2    C312345   4.216   0.924  10.849 -0.2825  0.1645  0.1396
  840MPD2    C412346   4.252   0.964  10.728  0.2968  0.0039 -0.3496
  840MPD2    C512347   4.199   0.904  10.615 -0.3997 -1.2211  0.3119
  840MPD2     H12348   4.068   0.805  10.952  0.6548 -1.6623 -1.0465
  840MPD2    H112349   4.332   1.035  10.713  3.0629 -2.7510  1.3400
  840MPD2    H212350   4.055   0.772  10.529 -0.0273 -1.7132  0.6946
  840MPD2    H312351   4.238   0.930  10.517 -0.6113  0.1215  0.5875
  840MPD2     N12352   4.266   1.000  10.960  0.1207 -0.8115  0.4123
  840MPD2    H512353   4.327   1.079  10.947 -0.5423 -0.6813 -2.1048
  840MPD2    N112354   3.948   0.680  10.749  0.4328 -0.0491 -0.7019
  840MPD2    H712355   3.898   0.656  10.664 -1.4800  1.1841  0.0712
  841MPD2     C12356   3.664   4.685  15.058  0.3503 -0.7741  0.5483
  841MPD2    C112357   3.633   4.670  14.921 -0.1111  0.1781  0.2802
  841MPD2    C212358   3.632   0.063  14.847  0.2116  0.0989  0.1209
  841MPD2    C312359   3.667   0.183  14.906  0.1523 -0.6044  0.3429
  841MPD2    C412360   3.700   0.196  15.040 -0.1173  0.4931 -0.1684
  841MPD2    C512361   3.700   0.079  15.113  0.0375 -0.1645 -0.0727
  841MPD2     H12362   3.603   0.062  14.743  1.0520  1.1112 -0.1279
  841MPD2    H112363   3.729   0.292  15.081  1.5502 -0.2353  0.3654
  841MPD2    H212364   3.678   4.596  15.119 -1.3581 -0.7143  1.0059
  841MPD2    H312365   3.723   0.085  15.219  0.2278 -1.5297 -0.0476
  841MPD2     N12366   3.664   0.296  14.820 -0.4849 -0.0656 -0.4763
  841MPD2    H512367   3.629   0.282  14.726 -0.3403 -0.6748 -0.4400
  841MPD2    N112368   3.607   4.548  14.851 -0.3739 -0.3445  0.4544
  841MPD2    H712369   3.578   4.559  14.755  1.6624 -0.9598 -0.2348
  842MPD2     C12370   3.792   1.257  16.707  0.1332  0.3123 -0.6714
  842MPD2    C112371   3.880   1.358  16.731 -0.6006  0.2660  0.7148
  842MPD2    C212372   3.998   1.315  16.788 -0.5654 -0.1471  0.2811
  842MPD2    C312373   4.030   1.185  16.824 -0.1405 -0.4497  0.4632
  842MPD2    C412374   3.941   1.087  16.794  0.3637 -0.0849  0.4664
  842MPD2    C512375   3.821   1.123  16.736 -0.1044 -0.0771  0.3177
  842MPD2     H12376   4.073   1.389  16.817  0.3952 -0.8415 -0.4279
  842MPD2    H112377   3.969   0.985  16.817  2.7978  0.2394 -1.0935
  842MPD2    H212378   3.693   1.278  16.668  0.3766  2.2430 -0.2800
  842MPD2    H312379   3.756   1.044  16.703 -0.4513  1.2304 -2.1598
  842MPD2     N12380   4.142   1.147  16.901  0.4028  0.2594 -0.3131
  842MPD2    H512381   4.156   1.048  16.921 -0.9401 -0.0765 -1.0486
  842MPD2    N112382   3.847   1.487  16.687 -0.1724  0.0053  0.1824
  842MPD2    H712383   3.761   1.491  16.633  0.5822 -0.3416 -1.0414
  843MPD2     C12384   1.091   2.169   0.414  0.3298  0.1090  0.1220
  843MPD2    C112385   1.191   2.075   0.413 -0.6049 -0.2199 -0.3304
  843MPD2    C212386   1.321   2.114   0.403  0.4102 -0.1375  0.4844
  843MPD2    C312387   1.357   2.243   0.387  0.0500 -0.8306 -0.0094
  843MPD2    C412388   1.260   2.339   0.383  0.0719  0.0761 -0.1586
  843MPD2    C512389   1.128   2.297   0.405 -0.2193 -0.2469 -0.5078
  843MPD2     H12390   1.394   2.034   0.404  1.4610  0.8438  1.6635
  843MPD2    H112391   1.281   2.445   0.374 -0.2402  0.2245  0.8715
  843MPD2    H212392   0.984   2.149   0.419  0.6804 -1.6571  0.7041
  843MPD2    H312393   1.043   2.363   0.391 -0.0948 -0.0414 -0.3047
  843MPD2     N12394   1.490   2.290   0.372 -0.1380  0.1396 -0.1497
  843MPD2    H512395   1.492   2.391   0.380  2.7935  0.1670 -1.2229
  843MPD2    N112396   1.153   1.939   0.402 -0.2856  0.0648  0.4547
  843MPD2    H712397   1.055   1.930   0.375 -0.4444  0.3321  0.9488
  844MPD2     C12398   0.602   1.323  16.808 -0.3841  0.1721  0.0155
  844MPD2    C112399   0.601   1.189  16.784  0.3215  1.1203 -0.3842
  844MPD2    C212400   0.717   1.123  16.805 -0.9675  0.0872  0.1768
  844MPD2    C312401   0.834   1.183  16.852  0.9504 -0.1100  0.7997
  844MPD2    C412402   0.828   1.318  16.877  0.7839 -0.3594 -0.5792
  844MPD2    C512403   0.711   1.390  16.857  0.2011  0.6303  0.0376
  844MPD2     H12404   0.719   1.015  16.794  0.3265  0.0801  0.5133
  844MPD2    H112405   0.904   1.382  16.921  0.3894  0.7157 -1.4610
  844MPD2    H212406   0.511   1.381  16.803 -0.4664  0.0216 -0.2641
  844MPD2    H312407   0.702   1.490  16.898  0.1783  1.9144 -3.0968
  844MPD2     N12408   0.954   1.109  16.877  0.4843 -0.6121 -0.7302
  844MPD2    H512409   0.944   1.008  16.866  0.5778 -0.5085 -1.7970
  844MPD2    N112410   0.495   1.120  16.725 -0.6187 -0.4970  0.1579
  844MPD2    H712411   0.526   1.026  16.707  0.4082 -0.1860  0.3190
  845MPD2     C12412   1.522   1.574  17.334  0.7249 -0.4233 -0.2811
  845MPD2    C112413   1.432   1.586  17.232  0.1121 -0.3026  0.1679
  845MPD2    C212414   1.409   1.488  17.142 -0.4887  0.0069  0.1813
  845MPD2    C312415   1.471   1.366  17.139  0.0996  0.9039  0.1473
  845MPD2    C412416   1.557   1.346  17.249  0.2749 -0.1047  0.4069
  845MPD2    C512417   1.588   1.450  17.333  0.3989 -0.0847 -0.2335
  845MPD2     H12418   1.328   1.503  17.071 -2.0822 -0.4715  1.8996
  845MPD2    H112419   1.610   1.252  17.262 -0.3197 -0.4851  0.0391
  845MPD2    H212420   1.538   1.655  17.404 -3.6770 -1.3673  1.8116
  845MPD2    H312421   1.661   1.437  17.412  0.5201  2.7661  0.1067
  845MPD2     N12422   1.436   1.265  17.054 -0.1316 -0.3839  0.1436
  845MPD2    H512423   1.381   1.284  16.971  1.0161 -0.6830 -0.6900
  845MPD2    N112424   1.373   1.712  17.218 -0.3629 -0.3005 -1.3789
  845MPD2    H712425   1.371   1.762  17.306 -1.6645 -0.7951 -1.1238
  846MPD2     C12426   1.990   2.460  13.634  0.1456  0.0457  0.5259
  846MPD2    C112427   1.890   2.536  13.689  0.3293  0.2106  0.0721
  846MPD2    C212428   1.857   2.530  13.827 -0.4837 -0.5312 -0.2293
  846MPD2    C312429   1.922   2.440  13.903 -0.2568 -0.0120 -0.3591
  846MPD2    C412430   2.033   2.369  13.847 -0.8161  1.0908  0.1333
  846MPD2    C512431   2.064   2.384  13.717 -0.0345 -0.0812  0.4178
  846MPD2     H12432   1.780   2.594  13.868  1.0026  1.5108 -0.6304
  846MPD2    H112433   2.093   2.299  13.905 -0.7130  0.0148 -1.2450
  846MPD2    H212434   2.012   2.455  13.528  0.4281 -2.2840  0.6827
  846MPD2    H312435   2.147   2.325  13.680 -0.1897 -0.5037  0.7397
  846MPD2     N12436   1.882   2.438  14.035  0.1475  0.2885 -0.1523
  846MPD2    H512437   1.802   2.496  14.058 -0.6851 -0.9757  0.1555
  846MPD2    N112438   1.809   2.624  13.606  0.3789  0.2877 -0.0864
  846MPD2    H712439   1.754   2.686  13.663 -2.7016 -4.4293  2.0711
  847MPD2     C12440   2.004   3.631  14.316  0.5709 -0.5677 -0.0012
  847MPD2    C112441   2.118   3.696  14.352 -0.4047  0.5774  0.2160
  847MPD2    C212442   2.207   3.625  14.430 -0.3083  0.4046 -0.9540
  847MPD2    C312443   2.183   3.497  14.469 -0.1456  0.1696  0.3221
  847MPD2    C412444   2.072   3.432  14.432  0.7063  0.0766 -0.0279
  847MPD2    C512445   1.983   3.498  14.350  0.2622  0.3735  0.0937
  847MPD2     H12446   2.290   3.681  14.472 -0.8572  0.2912  0.2674
  847MPD2    H112447   2.053   3.329  14.461  0.2386 -0.1333 -1.0944
  847MPD2    H212448   1.932   3.690  14.260  1.5722  0.4287 -0.2538
  847MPD2    H312449   1.887   3.454  14.326 -0.4318  1.8631  0.1112
  847MPD2     N12450   2.270   3.447  14.576  0.6937 -0.4729  0.0663
  847MPD2    H512451   2.345   3.508  14.606 -2.1618  3.1612 -0.2092
  847MPD2    N112452   2.140   3.838  14.333 -0.1941  0.6712 -0.4473
  847MPD2    H712453   2.237   3.865  14.348  0.2888 -0.1842 -1.9993
  848MPD2     C12454   4.577   1.357  16.669  0.2468 -0.7865 -0.3380
  848MPD2    C112455   4.704   1.377  16.728  0.3717 -0.0223  0.6455
  848MPD2    C212456   0.043   1.499  16.704  0.1410 -0.0308  0.1876
  848MPD2    C312457   4.706   1.597  16.628 -0.6151  0.5808 -0.0572
  848MPD2    C412458   4.582   1.572  16.564 -0.8613  0.4714  0.7744
  848MPD2    C512459   4.525   1.449  16.584 -0.3736 -0.3708 -0.0107
  848MPD2     H12460   0.137   1.514  16.756  0.7306 -1.8618 -0.3696
  848MPD2    H112461   4.541   1.646  16.496  1.6326  1.3491  0.2349
  848MPD2    H212462   4.519   1.265  16.679  0.0903 -0.5901  0.5447
  848MPD2    H312463   4.433   1.437  16.527 -1.3390 -1.7703  1.8101
  848MPD2     N12464   0.040   1.719  16.598  0.2540 -0.3703 -0.5544
  848MPD2    H512465   4.720   1.773  16.524 -0.6220  0.5572  0.6512
  848MPD2    N112466   0.047   1.278  16.808  0.3887 -0.7693  0.4661
  848MPD2    H712467   0.129   1.304  16.862 -0.2321 -0.6732  1.3568
  849MPD2     C12468   3.458   1.474  14.461  0.1687  0.0869 -0.4800
  849MPD2    C112469   3.591   1.501  14.440 -0.1197  0.5792  0.7662
  849MPD2    C212470   3.687   1.448  14.525 -0.4093  0.6456  0.0678
  849MPD2    C312471   3.647   1.368  14.628  0.1639 -0.2638 -0.3009
  849MPD2    C412472   3.516   1.328  14.637 -0.1910 -0.1366 -0.2329
  849MPD2    C512473   3.423   1.390  14.557 -0.0333 -0.4175  0.3773
  849MPD2     H12474   3.793   1.474  14.521 -0.1511 -0.2211  1.1089
  849MPD2    H112475   3.496   1.242  14.699 -2.5273 -0.2215 -1.0972
  849MPD2    H212476   3.373   1.529  14.421 -1.3980 -2.3180 -0.4924
  849MPD2    H312477   3.316   1.375  14.569 -0.2420 -0.0083 -1.0189
  849MPD2     N12478   3.746   1.326  14.719 -0.1059  1.5213 -0.0582
  849MPD2    H512479   3.831   1.381  14.716  0.6682  0.2515 -1.0323
  849MPD2    N112480   3.632   1.588  14.342  0.0508 -0.4661  0.0119
  849MPD2    H712481   3.732   1.606  14.341 -0.0909  0.3077 -0.8084
  850MPD2     C12482   1.944   4.043  14.814  0.7761 -0.0345  0.5897
  850MPD2    C112483   1.921   4.150  14.897  0.1811  0.5433  0.2800
  850MPD2    C212484   2.022   4.239  14.922 -0.6158  0.3521  0.3553
  850MPD2    C312485   2.155   4.210  14.877  0.2442  0.5420 -0.0920
  850MPD2    C412486   2.173   4.101  14.793  0.4869 -0.4634 -0.3712
  850MPD2    C512487   2.068   4.027  14.757 -1.1006 -0.1603 -0.6865
  850MPD2     H12488   2.000   4.322  14.989  0.0233 -1.3472  2.6956
  850MPD2    H112489   2.271   4.076  14.754  1.1855 -1.8637  2.2600
  850MPD2    H212490   1.865   3.978  14.779  1.3161 -0.6385  0.4867
  850MPD2    H312491   2.083   3.944  14.689 -0.8378 -2.1705  1.8370
  850MPD2     N12492   2.267   4.286  14.911 -0.0202  0.2204  0.0548
  850MPD2    H512493   2.353   4.258  14.864 -0.8552 -0.1535 -1.2515
  850MPD2    N112494   1.796   4.159  14.952 -0.4923  0.0402 -0.5624
  850MPD2    H712495   1.729   4.101  14.903 -0.7269 -1.1803  1.1931
  851MPD2     C12496   2.376   4.350  15.606  0.0177 -0.1942  0.3125
  851MPD2    C112497   2.338   4.264  15.502  0.2071  0.0413  0.7033
  851MPD2    C212498   2.417   4.158  15.467 -0.2874  0.9035  0.1544
  851MPD2    C312499   2.533   4.131  15.538 -0.5661 -0.1020 -0.3611
  851MPD2    C412500   2.566   4.223  15.637 -0.2185  0.2927  0.9004
  851MPD2    C512501   2.487   4.327  15.679 -0.1024  0.2196 -0.4548
  851MPD2     H12502   2.394   4.078  15.398  1.3127 -0.3053  1.0362
  851MPD2    H112503   2.664   4.208  15.681 -0.1250 -0.3376  0.4746
  851MPD2    H212504   2.320   4.437  15.637  0.0547  0.1218 -0.5227
  851MPD2    H312505   2.528   4.389  15.759  1.2842 -0.1952 -0.8356
  851MPD2     N12506   2.612   4.016  15.507  0.4004  0.0020 -0.2394
  851MPD2    H512507   2.566   3.952  15.444  0.5259 -0.4080  0.0824
  851MPD2    N112508   2.216   4.306  15.433 -0.6538 -0.0233  0.1036
  851MPD2    H712509   2.157   4.384  15.460 -0.2557  0.4521 -0.4110
  852MPD2     C12510   2.519   1.771   9.692 -0.2503 -0.0567 -0.2012
  852MPD2    C112511   2.420   1.834   9.759 -0.9504  0.9610  0.8041
  852MPD2    C212512   2.430   1.974   9.763  0.6724  0.6859 -0.4527
  852MPD2    C312513   2.531   2.048   9.706 -0.5301  0.0927  0.2288
  852MPD2    C412514   2.641   1.977   9.649 -0.0250  0.1801  0.0141
  852MPD2    C512515   2.622   1.843   9.635  0.0005 -0.6729  0.1081
  852MPD2     H12516   2.345   2.024   9.807  0.7977  2.4949 -2.2307
  852MPD2    H112517   2.727   2.020   9.601  1.1466 -1.9188  0.2536
  852MPD2    H212518   2.518   1.664   9.675 -2.5904 -0.0465 -0.1702
  852MPD2    H312519   2.704   1.797   9.580  0.6432  2.2426 -1.3515
  852MPD2     N12520   2.529   2.185   9.724 -0.2207 -0.1448  0.2421
  852MPD2    H512521   2.452   2.227   9.775  1.4027  1.5846  1.2764
  852MPD2    N112522   2.313   1.764   9.824 -0.2198 -0.0346 -0.7991
  852MPD2    H712523   2.243   1.821   9.868 -1.6518 -0.4214 -2.5570
  853MPD2     C12524   2.845   1.623  12.458  0.5819  0.3042 -0.0283
  853MPD2    C112525   2.859   1.761  12.475 -0.3324  0.1271 -0.5741
  853MPD2    C212526   2.930   1.836  12.381  0.2761  0.1768  0.2139
  853MPD2    C312527   2.972   1.772  12.267  0.1029  0.4053 -0.3966
  853MPD2    C412528   2.949   1.640  12.248  0.4668 -0.1413  0.4539
  853MPD2    C512529   2.880   1.568  12.340 -0.4619 -0.7398 -0.4363
  853MPD2     H12530   2.966   1.937  12.399  0.2207  0.1085  0.6987
  853MPD2    H112531   2.984   1.594  12.157 -0.8925 -1.5961  0.6731
  853MPD2    H212532   2.785   1.569  12.529 -0.5754 -0.3820 -1.5199
  853MPD2    H312533   2.844   1.468  12.314 -1.5119 -1.3468  3.3411
  853MPD2     N12534   3.042   1.841  12.161 -0.4941  0.1701 -0.2582
  853MPD2    H512535   3.064   1.790  12.076 -1.1653 -0.1356 -0.2475
  853MPD2    N112536   2.794   1.823  12.589 -0.0402  0.7050 -0.3006
  853MPD2    H712537   2.735   1.761  12.643 -0.2388  1.2082  0.0655
  854MPD2     C12538   4.632   2.209  12.936 -0.3220 -0.1208  0.6545
  854MPD2    C112539   0.019   2.282  12.977 -0.3378  0.1377  0.1024
  854MPD2    C212540   0.132   2.222  13.038 -0.4273  0.4370 -0.2842
  854MPD2    C312541   0.122   2.086  13.061  0.2166 -0.8683 -0.5010
  854MPD2    C412542   0.007   2.018  13.022  0.5545  0.4497  0.1588
  854MPD2    C512543   4.642   2.076  12.947 -0.3149 -0.1873  0.3247
  854MPD2     H12544   0.220   2.277  13.067 -2.1383  1.7059  2.5198
  854MPD2    H112545   4.720   1.911  13.030  0.8538  0.5619  2.2519
  854MPD2    H212546   4.554   2.246  12.870  2.2218  0.2517 -2.1677
  854MPD2    H312547   4.555   2.025  12.906  1.4616 -2.6107 -0.4625
  854MPD2     N12548   0.236   2.023  13.130 -0.0013 -0.5059  0.9522
  854MPD2    H512549   0.218   1.932  13.172 -1.2912 -1.3060 -1.3465
  854MPD2    N112550   0.008   2.418  12.955 -0.3723 -0.4481  0.0264
  854MPD2    H712551   4.652   2.441  12.899 -0.2800  3.9221  1.7373
  855MPD2     C12552   0.051   1.469  13.704  0.3646  0.2474  0.6354
  855MPD2    C112553   0.185   1.479  13.735 -0.3469 -0.1158  0.0553
  855MPD2    C212554   0.265   1.569  13.669 -0.2371 -0.2859  0.0507
  855MPD2    C312555   0.210   1.642  13.564  0.4218 -0.5649 -0.1035
  855MPD2    C412556   0.077   1.630  13.524  0.4493 -0.6914 -0.6225
  855MPD2    C512557   4.725   1.536  13.598  0.5004 -0.0336 -0.2292
  855MPD2     H12558   0.365   1.577  13.711 -0.4952  3.0751  0.0680
  855MPD2    H112559   0.034   1.673  13.434  1.2078 -0.8808 -1.0771
  855MPD2    H212560   4.701   1.423  13.769 -1.2128  0.4273 -1.0677
  855MPD2    H312561   4.623   1.519  13.564  0.7474  0.5635 -1.2817
  855MPD2     N12562   0.280   1.735  13.482 -0.1446 -0.5950  0.4952
  855MPD2    H512563   0.229   1.783  13.408  1.9059 -2.9740 -2.4686
  855MPD2    N112564   0.230   1.385  13.829  0.6222  0.0846  0.4288
  855MPD2    H712565   0.317   1.406  13.876 -0.7538  0.7044  2.7209
  856MPD2     C12566   2.329   2.972  14.282 -0.1832  0.5704 -0.0190
  856MPD2    C112567   2.416   3.053  14.214  0.7422  0.2137 -0.2867
  856MPD2    C212568   2.375   3.171  14.156 -0.0714  0.1172  0.1518
  856MPD2    C312569   2.243   3.207  14.165  0.5290  0.3977  0.2085
  856MPD2    C412570   2.154   3.125  14.229  0.2724  0.3383 -0.5489
  856MPD2    C512571   2.197   3.006  14.285 -0.0876 -0.2344 -0.0401
  856MPD2     H12572   2.441   3.226  14.089  0.6593 -2.2186 -1.0394
  856MPD2    H112573   2.048   3.149  14.231  0.5218  1.4300 -0.4164
  856MPD2    H212574   2.367   2.888  14.338 -1.2875  1.1012  1.5234
  856MPD2    H312575   2.128   2.945  14.342 -1.0385  2.2552  1.4911
  856MPD2     N12576   2.186   3.312  14.086 -0.5895  0.3721  0.7112
  856MPD2    H512577   2.087   3.312  14.064  0.1509  4.3495 -2.6880
  856MPD2    N112578   2.556   3.015  14.198  0.8664 -0.3984 -0.2407
  856MPD2    H712579   2.617   3.090  14.167 -0.2499  0.6842  0.1844
  857MPD2     C12580   4.195   0.120  13.035 -0.1963  0.4946 -0.1717
  857MPD2    C112581   4.326   0.131  13.030 -0.0955 -0.1360  0.5405
  857MPD2    C212582   4.376   0.254  13.057  0.4681  0.1313  0.5124
  857MPD2    C312583   4.299   0.368  13.077 -0.0314 -0.3835  0.6291
  857MPD2    C412584   4.162   0.350  13.085 -0.2073 -0.0086  0.1982
  857MPD2    C512585   4.110   0.229  13.060  0.0383  0.4978 -0.4991
  857MPD2     H12586   4.482   0.279  13.054  0.0517  2.1828  2.3483
  857MPD2    H112587   4.093   0.429  13.115 -1.2525 -0.1504 -1.8157
  857MPD2    H212588   4.148   0.024  13.022 -2.2091  1.3418  0.8108
  857MPD2    H312589   4.003   0.211  13.058  0.2921 -0.8349 -2.1578
  857MPD2     N12590   4.362   0.490  13.117 -0.2998 -0.2476  0.0884
  857MPD2    H512591   4.463   0.503  13.113 -0.5568  2.0115  0.8654
  857MPD2    N112592   4.409   0.020  13.004 -0.0949  0.1146 -0.1114
  857MPD2    H712593   4.362   4.656  12.993  1.1318 -0.5849  0.2963
  858MPD2     C12594   0.349   3.936  16.743  0.0210 -1.2336 -0.0612
  858MPD2    C112595   0.483   3.935  16.729 -0.1419  0.2843 -0.3346
  858MPD2    C212596   0.565   4.005  16.812 -0.0769 -0.4895  0.4776
  858MPD2    C312597   0.507   4.095  16.899 -0.9286  0.2939 -0.1656
  858MPD2    C412598   0.368   4.110  16.893 -0.4669  0.1030  0.5772
  858MPD2    C512599   0.292   4.029  16.823  0.1682  0.2002  0.1335
  858MPD2     H12600   0.672   3.995  16.801 -0.1553  0.0810 -0.8172
  858MPD2    H112601   0.323   4.193  16.945 -0.6050  0.4405 -0.0713
  858MPD2    H212602   0.296   3.871  16.675 -0.8719 -1.9756  1.3353
  858MPD2    H312603   0.184   4.020  16.819  0.1628  0.9213 -1.3320
  858MPD2     N12604   0.581   4.168  16.993  0.4720  0.6980  0.2392
  858MPD2    H512605   0.527   4.215  17.065 -2.1349  3.1505 -3.2411
  858MPD2    N112606   0.540   3.836  16.647  0.1222  0.4023 -0.1665
  858MPD2    H712607   0.478   3.757  16.630  0.1660 -0.4016  3.3169
  859MPD2     C12608   3.598   0.918  15.249 -0.4255 -0.5596  0.3048
  859MPD2    C112609   3.731   0.959  15.251  0.0667  0.3797  0.0418
  859MPD2    C212610   3.832   0.867  15.212 -0.1310 -0.2237 -0.2119
  859MPD2    C312611   3.802   0.745  15.160 -0.1947  0.5702 -0.1563
  859MPD2    C412612   3.671   0.706  15.154 -0.0930  0.0548  0.6168
  859MPD2    C512613   3.573   0.793  15.197  0.7769 -0.4812 -0.0381
  859MPD2     H12614   3.938   0.884  15.231 -0.2320 -1.7122  1.6679
  859MPD2    H112615   3.627   0.615  15.115  1.2777 -1.2827  2.2283
  859MPD2    H212616   3.515   0.986  15.268  0.9353  0.9117  1.0117
  859MPD2    H312617   3.470   0.763  15.184  0.6120  0.7474 -1.4518
  859MPD2     N12618   3.901   0.643  15.137  0.4788 -0.1142 -0.9010
  859MPD2    H512619   3.851   0.564  15.099  0.3344 -0.8796  0.8675
  859MPD2    N112620   3.749   1.098  15.285 -0.6413  0.0641 -0.3675
  859MPD2    H712621   3.666   1.150  15.310 -1.4920 -1.9576  0.9670
  860MPD2     C12622   1.012   1.253  11.997 -0.2549 -0.2517  0.1427
  860MPD2    C112623   1.075   1.290  12.114  0.1383 -0.2681 -0.1152
  860MPD2    C212624   1.003   1.278  12.237  0.1034  0.2503 -0.6276
  860MPD2    C312625   0.872   1.238  12.239 -0.2248  0.8926 -0.1962
  860MPD2    C412626   0.812   1.192  12.124 -0.1656  1.1244 -0.1178
  860MPD2    C512627   0.880   1.201  12.005 -0.5592 -0.2581 -0.6107
  860MPD2     H12628   1.047   1.317  12.328  0.8343 -1.0387 -0.4253
  860MPD2    H112629   0.722   1.134  12.105 -0.7667  1.8818  0.4004
  860MPD2    H212630   1.069   1.255  11.905 -2.2388 -0.9336 -1.1154
  860MPD2    H312631   0.836   1.160  11.915 -1.2134 -0.4460 -0.2013
  860MPD2     N12632   0.805   1.225  12.363  0.2722 -0.4965  0.3266
  860MPD2    H512633   0.858   1.249  12.445  1.8545  2.3531 -1.5169
  860MPD2    N112634   1.212   1.340  12.119  0.2359 -0.1724 -0.0621
  860MPD2    H712635   1.249   1.362  12.211  1.8391 -0.5077 -0.6212
  861MPD2     C12636   4.487   4.663  11.567  0.1021 -0.6823 -0.6822
  861MPD2    C112637   4.581   0.037  11.599  0.1625  0.8051 -0.1228
  861MPD2    C212638   4.584   0.148  11.521 -0.0196  0.0348 -0.4897
  861MPD2    C312639   4.491   0.174  11.418  0.5978  1.2013 -0.1782
  861MPD2    C412640   4.399   0.075  11.392 -0.4985  0.1813 -0.3054
  861MPD2    C512641   4.397   4.682  11.468  0.2888  0.4704 -0.1062
  861MPD2     H12642   4.656   0.227  11.542 -1.3841  1.2936 -0.5232
  861MPD2    H112643   4.329   0.095  11.312 -1.4591  0.0331  0.4941
  861MPD2    H212644   4.477   4.572  11.626 -0.0061  0.0358  0.4037
  861MPD2    H312645   4.320   4.607  11.454  0.3356  0.6051 -1.0917
  861MPD2     N12646   4.473   0.294  11.342  0.1585 -0.9515 -0.9024
  861MPD2    H512647   4.397   0.299  11.275  0.0420 -2.7324 -0.9052
  861MPD2    N112648   4.684   0.021  11.687 -0.7638 -0.5437  0.1888
  861MPD2    H712649   0.021   0.100  11.703 -1.7008  0.1187  0.5094
  862MPD2     C12650   4.542   0.603  10.646  0.3071 -0.5228  0.3360
  862MPD2    C112651   4.522   0.505  10.747 -0.3133 -1.1391 -0.0115
  862MPD2    C212652   4.551   0.371  10.723  0.1803  0.3702  0.3594
  862MPD2    C312653   4.582   0.332  10.599 -0.1372  0.0836 -0.1007
  862MPD2    C412654   4.586   0.428  10.502 -0.6515  0.0473  0.4823
  862MPD2    C512655   4.577   0.564  10.523 -0.6187 -0.2142 -0.5559
  862MPD2     H12656   4.556   0.305  10.808  2.6680  1.1525  0.8206
  862MPD2    H112657   4.601   0.393  10.400 -0.5595  0.4282  0.3629
  862MPD2    H212658   4.520   0.708  10.660  1.9488 -0.0020 -1.0173
  862MPD2    H312659   4.585   0.622  10.432 -2.7977  1.2915  0.2296
  862MPD2     N12660   4.621   0.200  10.557  0.1019  0.0093 -0.3273
  862MPD2    H512661   4.625   0.170  10.460 -1.3632 -0.4216 -0.2570
  862MPD2    N112662   4.494   0.530  10.874 -0.6711  0.4967 -0.0178
  862MPD2    H712663   4.468   0.461  10.944 -0.9713 -0.1015 -0.7188
  863MPD2     C12664   3.325   3.463  16.909 -0.7548 -0.8113  0.1331
  863MPD2    C112665   3.331   3.331  16.876 -0.0845  0.6208  0.0078
  863MPD2    C212666   3.451   3.268  16.912  1.4709  0.0739 -0.1014
  863MPD2    C312667   3.565   3.346  16.938 -0.0057  0.3459 -0.2614
  863MPD2    C412668   3.561   3.483  16.948 -0.4354  0.0001 -0.4041
  863MPD2    C512669   3.438   3.537  16.944  0.2992 -0.9620  0.0772
  863MPD2     H12670   3.449   3.160  16.913 -0.3732  0.0686 -1.9832
  863MPD2    H112671   3.647   3.540  16.982  0.8654 -0.6708 -2.6109
  863MPD2    H212672   3.227   3.509  16.903  0.2544  1.3502  0.1931
  863MPD2    H312673   3.425   3.640  16.976  0.1295 -1.2191  0.8323
  863MPD2     N12674   3.694   3.295  16.973 -0.5555 -0.1644 -0.3764
  863MPD2    H512675   3.776   3.354  16.983 -1.2278  0.6791  0.1256
  863MPD2    N112676   3.215   3.264  16.840 -0.7392 -0.1788 -0.2143
  863MPD2    H712677   3.134   3.322  16.819  0.9995  2.2923 -0.0424
  864MPD2     C12678   3.852   4.649  17.010 -0.1379  0.0181 -0.0968
  864MPD2    C112679   3.949   4.581  17.082  0.0085  0.6265 -0.6531
  864MPD2    C212680   4.080   4.601  17.038  0.2429  0.8599  0.3283
  864MPD2    C312681   4.111   4.694  16.945 -0.3342 -0.1890  0.7937
  864MPD2    C412682   4.010   0.039  16.882  0.2849 -0.5150  0.4189
  864MPD2    C512683   3.881   0.023  16.923 -0.3349  0.1245 -0.8386
  864MPD2     H12684   4.154   4.550  17.099 -1.5495 -2.4641 -0.2624
  864MPD2    H112685   4.029   0.123  16.816 -3.8916  1.6069  1.8695
  864MPD2    H212686   3.748   4.625  17.032  0.0035  0.2155  0.7895
  864MPD2    H312687   3.807   0.076  16.864  1.3297  2.5673 -0.7589
  864MPD2     N12688   4.243   4.721  16.915 -0.4846  0.4010 -0.1095
  864MPD2    H512689   4.242   0.063  16.839 -1.4058  0.5539  0.0293
  864MPD2    N112690   3.936   4.481  17.176  0.1233 -0.2989 -0.7889
  864MPD2    H712691   4.013   4.443  17.230  1.0994  0.1487 -1.8950
  865MPD2     C12692   4.152   4.515  16.195  0.1211 -0.7861  0.4543
  865MPD2    C112693   4.158   4.444  16.316  0.1169 -0.3410 -0.6225
  865MPD2    C212694   4.242   4.482  16.424  0.3352 -0.5157 -0.0237
  865MPD2    C312695   4.315   4.601  16.411 -0.6653  0.6566 -0.5418
  865MPD2    C412696   4.284   4.690  16.301  0.4498 -0.3500 -0.3083
  865MPD2    C512697   4.209   4.645  16.193 -1.0945  0.1395 -0.4436
  865MPD2     H12698   4.274   4.414  16.502  0.2437 -1.0075 -0.4214
  865MPD2    H112699   4.344   0.053  16.285 -0.3578  0.2912  0.1827
  865MPD2    H212700   4.106   4.489  16.100 -0.2841 -0.3046  0.5209
  865MPD2    H312701   4.205   4.708  16.105 -0.9411  0.8770  0.0741
  865MPD2     N12702   4.409   4.641  16.503  0.3127 -0.2563 -0.6051
  865MPD2    H512703   4.443   0.011  16.494 -0.2321  0.1030  1.0973
  865MPD2    N112704   4.096   4.318  16.308 -0.2983 -0.6078 -0.4220
  865MPD2    H712705   4.059   4.297  16.216 -2.1304  3.0501 -0.5190
  866MPD2     C12706   0.814   0.674  12.054  0.4403  0.0401 -0.1441
  866MPD2    C112707   0.787   0.601  11.941  0.0042  0.5596 -0.0907
  866MPD2    C212708   0.694   0.659  11.851 -0.3733 -0.4032  0.4459
  866MPD2    C312709   0.615   0.765  11.877 -0.0029 -0.1379 -0.2395
  866MPD2    C412710   0.639   0.831  11.994  0.3770 -0.2654  0.2938
  866MPD2    C512711   0.739   0.784  12.079  0.0308 -0.0402 -0.0734
  866MPD2     H12712   0.691   0.612  11.753 -0.1805  2.8121 -1.0964
  866MPD2    H112713   0.567   0.906  12.024 -1.0017 -1.1071 -0.9038
  866MPD2    H212714   0.875   0.629  12.131  0.0764  0.8705  0.6244
  866MPD2    H312715   0.749   0.834  12.175  0.2901  1.1425 -0.7131
  866MPD2     N12716   0.503   0.811  11.802  0.2625 -0.5202 -0.5295
  866MPD2    H512717   0.447   0.889  11.834  1.5967 -0.1796  0.9547
  866MPD2    N112718   0.869   0.495  11.905  0.5575  0.3372  0.5318
  866MPD2    H712719   0.950   0.482  11.964  1.0650 -2.8240 -0.8357
  867MPD2     C12720   2.907   4.702  16.852 -0.1254 -0.4880 -0.3222
  867MPD2    C112721   3.000   4.647  16.929 -0.2732  0.0010  0.1935
  867MPD2    C212722   3.098   0.003  16.989 -0.7782 -0.3344  0.5626
  867MPD2    C312723   3.099   0.143  16.970 -0.2372 -0.7142 -0.0438
  867MPD2    C412724   3.001   0.199  16.899  0.5682  0.2632 -0.1005
  867MPD2    C512725   2.903   0.112  16.842  0.0147 -0.4761  0.8910
  867MPD2     H12726   3.174   4.692  17.058 -1.3199  1.3499  2.0345
  867MPD2    H112727   2.991   0.307  16.889 -0.7634  0.0643 -0.8939
  867MPD2    H212728   2.827   4.647  16.805  0.3954 -0.3033 -1.4327
  867MPD2    H312729   2.825   0.171  16.796  0.8481  0.2838  0.4602
  867MPD2     N12730   3.201   0.229  17.019  0.6620  0.4673 -0.3263
  867MPD2    H512731   3.198   0.329  17.001  2.2861  0.6925  0.7019
  867MPD2    N112732   3.004   4.502  16.936 -0.5599 -0.7944  0.1147
  867MPD2    H712733   2.929   4.459  16.883 -0.8497  1.3402 -1.2082
  868MPD2     C12734   0.163   2.745  13.284 -0.3651  0.1488  0.0816
  868MPD2    C112735   0.215   2.875  13.275 -0.1137  0.2301 -0.1686
  868MPD2    C212736   0.125   2.977  13.294 -0.3553 -0.2616  0.2338
  868MPD2    C312737   4.717   2.948  13.324  0.2743  0.6734  0.4822
  868MPD2    C412738   4.671   2.815  13.343  0.5887 -0.6123  0.0781
  868MPD2    C512739   0.036   2.714  13.321  0.4841 -0.7899  0.3894
  868MPD2     H12740   0.154   3.081  13.293 -0.7945 -0.1315  1.0784
  868MPD2    H112741   4.571   2.791  13.375  0.2127  2.4886  1.1583
  868MPD2    H212742   0.231   2.663  13.265 -0.1901  0.3869 -0.3314
  868MPD2    H312743   0.005   2.610  13.333 -0.8224 -0.0154  3.4806
  868MPD2     N12744   4.629   3.056  13.356 -0.5022  0.4097 -0.0564
  868MPD2    H512745   4.666   3.150  13.351 -0.5639  0.4687  0.5368
  868MPD2    N112746   0.352   2.899  13.256 -0.2806 -0.1872 -0.2287
  868MPD2    H712747   0.409   2.817  13.240  1.2535  0.8959 -0.3091
  869MPD2     C12748   4.595   1.318   1.341 -0.4691  0.7382  0.2798
  869MPD2    C112749   4.717   1.255   1.333 -0.6075 -0.1613 -0.7831
  869MPD2    C212750   0.101   1.335   1.304 -0.5570 -0.0581 -0.1081
  869MPD2    C312751   0.093   1.474   1.306 -0.0927 -0.1976  0.8098
  869MPD2    C412752   4.696   1.540   1.310 -0.2732  0.0397  0.1617
  869MPD2    C512753   4.589   1.455   1.325 -0.0889  0.3914 -0.2892
  869MPD2     H12754   0.201   1.294   1.312 -1.2457 -1.2568  2.2256
  869MPD2    H112755   4.677   1.646   1.299 -0.8516  0.2713  3.4942
  869MPD2    H212756   4.507   1.272   1.384 -0.6467  3.5157  2.8355
  869MPD2    H312757   4.487   1.490   1.335 -0.1033  1.1616 -2.8911
  869MPD2     N12758   0.209   1.541   1.301 -0.6473 -0.4803  0.3204
  869MPD2    H512759   0.295   1.497   1.269 -2.1542 -2.0683 -1.5038
  869MPD2    N112760   4.723   1.118   1.364 -0.0594 -0.0727  0.1920
  869MPD2    H712761   4.645   1.077   1.413 -0.5581 -0.4770 -0.9353
  870MPD2     C12762   0.753   4.396   1.710 -0.0560 -1.0637  1.2695
  870MPD2    C112763   0.896   4.392   1.718 -0.4850  0.4166 -0.7627
  870MPD2    C212764   0.969   4.504   1.688 -0.5418  0.2130  0.5589
  870MPD2    C312765   0.904   4.627   1.685 -0.0719  0.0676  0.3098
  870MPD2    C412766   0.763   4.630   1.671  1.2836  1.6830 -0.7190
  870MPD2    C512767   0.686   4.517   1.693  0.2559 -0.3175  0.6178
  870MPD2     H12768   1.076   4.492   1.691 -0.4336  1.2782  1.1370
  870MPD2    H112769   0.716   0.001   1.649 -0.3467  1.3770  1.3401
  870MPD2    H212770   0.704   4.305   1.742 -0.9834 -0.6250  1.0858
  870MPD2    H312771   0.578   4.524   1.684  0.1814 -1.7705  0.2905
  870MPD2     N12772   0.973   0.022   1.680 -0.1516  1.0176  0.0261
  870MPD2    H512773   1.074   0.014   1.670 -0.3988 -1.2910 -0.7347
  870MPD2    N112774   0.948   4.277   1.770  0.0909  0.0784 -0.0348
  870MPD2    H712775   0.888   4.212   1.819 -0.5361  0.6628 -0.0202
  871MPD2     C12776   2.022   4.222  16.598  0.0293  0.3907 -0.3196
  871MPD2    C112777   1.957   4.168  16.702  0.0477 -0.1715 -0.1788
  871MPD2    C212778   1.911   4.042  16.695  0.0014  0.5466  0.0170
  871MPD2    C312779   1.925   3.960  16.583 -0.5580 -0.6220 -0.6035
  871MPD2    C412780   1.996   4.017  16.476  0.4299  0.4320 -0.0839
  871MPD2    C512781   2.031   4.148  16.483 -0.1194 -0.0844  0.5464
  871MPD2     H12782   1.860   3.994  16.778 -0.4459  1.0966  0.0590
  871MPD2    H112783   2.016   3.967  16.382 -0.7460  0.0573 -0.1333
  871MPD2    H212784   2.066   4.321  16.592  0.8369  0.0226 -0.5348
  871MPD2    H312785   2.082   4.195  16.399 -1.4624  0.6901  0.1626
  871MPD2     N12786   1.869   3.832  16.588  0.3915 -0.8671 -0.1498
  871MPD2    H512787   1.802   3.816  16.663 -1.0243 -1.4334 -1.5366
  871MPD2    N112788   1.949   4.249  16.814 -0.0349 -0.5269  0.2021
  871MPD2    H712789   2.001   4.336  16.803 -0.1577 -0.7521 -2.0457
  872MPD2     C12790   2.498   2.040  13.463  0.5597  0.0121  0.3333
  872MPD2    C112791   2.596   2.069  13.561 -0.3269  0.1377 -0.4346
  872MPD2    C212792   2.556   2.072  13.694  0.3868 -0.2196  0.2342
  872MPD2    C312793   2.423   2.062  13.727 -0.1636 -0.5883 -0.5843
  872MPD2    C412794   2.329   2.033  13.627 -0.8438  0.6147 -0.7683
  872MPD2    C512795   2.367   2.020  13.493  0.2557 -0.7070 -1.1643
  872MPD2     H12796   2.629   2.102  13.769  2.1142  0.0875 -1.5698
  872MPD2    H112797   2.222   2.037  13.641 -0.9401 -2.3448 -0.7995
  872MPD2    H212798   2.529   2.019  13.362 -1.5882 -0.8014 -0.1391
  872MPD2    H312799   2.302   1.993  13.411 -3.4199 -1.0215  1.8761
  872MPD2     N12800   2.377   2.067  13.862  0.3491 -0.1600  0.3244
  872MPD2    H512801   2.281   2.036  13.873  0.6882 -1.6618 -1.1465
  872MPD2    N112802   2.736   2.076  13.529 -0.2086  0.3978 -0.1006
  872MPD2    H712803   2.801   2.098  13.603 -2.0100  1.9861  1.0417
  873MPD2     C12804   0.290   2.219   0.951  0.0762 -0.3229 -0.2842
  873MPD2    C112805   0.164   2.173   0.973  0.1361 -0.4876  0.0370
  873MPD2    C212806   0.133   2.033   0.962  0.1322 -0.3802  0.6884
  873MPD2    C312807   0.232   1.950   0.905 -0.3063 -0.0752  0.8702
  873MPD2    C412808   0.350   2.006   0.865  0.2457  0.0482  0.0322
  873MPD2    C512809   0.382   2.134   0.910  0.3958  0.5098 -0.2084
  873MPD2     H12810   0.033   1.992   0.966 -0.3383  0.9536  2.5119
  873MPD2    H112811   0.439   1.950   0.838 -2.1952 -2.8867 -1.9143
  873MPD2    H212812   0.310   2.325   0.960 -0.0246 -0.5525  2.5085
  873MPD2    H312813   0.480   2.172   0.885  0.9353 -1.5671 -1.3126
  873MPD2     N12814   0.214   1.816   0.877 -0.2179 -0.0061 -0.1652
  873MPD2    H512815   0.246   1.781   0.787 -4.6322 -1.6625 -1.0949
  873MPD2    N112816   0.069   2.268   1.003  0.6982  0.0488  0.5682
  873MPD2    H712817   0.104   2.361   1.022  0.7776  0.1399 -0.0246
  874MPD2     C12818   4.258   2.178  16.217  0.1915  0.0739  0.4637
  874MPD2    C112819   4.271   2.091  16.324 -0.1537  0.3327  0.8416
  874MPD2    C212820   4.398   2.073  16.379  0.1262 -0.3297  0.1236
  874MPD2    C312821   4.511   2.127  16.324  0.2259 -0.1165 -0.1903
  874MPD2    C412822   4.499   2.208  16.212  0.0610  0.2006  0.0876
  874MPD2    C512823   4.372   2.242  16.170 -0.3551  0.0545  0.9336
  874MPD2     H12824   4.419   2.014  16.468  1.0251 -0.8488 -0.4315
  874MPD2    H112825   4.583   2.269  16.180  0.4883  0.3206  1.4134
  874MPD2    H212826   4.164   2.195  16.166 -0.3452 -1.9922  0.7649
  874MPD2    H312827   4.354   2.311  16.088  0.2563 -1.2638 -0.3153
  874MPD2     N12828   4.632   2.090  16.388 -0.2092  0.3464  0.4184
  874MPD2    H512829   4.627   2.021  16.461  1.0270 -1.2592 -1.0157
  874MPD2    N112830   4.154   2.026  16.370  0.4274 -0.3887 -0.5664
  874MPD2    H712831   4.061   2.057  16.342  0.6539  0.9434  0.1516
  875MPD2     C12832   0.694   0.332  15.032  0.3052 -0.1607 -0.7556
  875MPD2    C112833   0.581   0.388  15.078 -0.7134  0.7161  0.4059
  875MPD2    C212834   0.581   0.431  15.213 -0.0050 -0.2365 -0.1460
  875MPD2    C312835   0.681   0.415  15.306 -0.5717 -0.2284 -0.6509
  875MPD2    C412836   0.795   0.350  15.254  0.4368  0.8129  0.2309
  875MPD2    C512837   0.794   0.306  15.124 -0.5469 -0.1717  0.6833
  875MPD2     H12838   0.489   0.480  15.241  1.3159  1.0516  1.9204
  875MPD2    H112839   0.878   0.323  15.319  1.3103  3.7594  0.3415
  875MPD2    H212840   0.703   0.296  14.930  0.2505 -0.5229 -0.6331
  875MPD2    H312841   0.882   0.260  15.080  0.1993  2.9455 -1.0334
  875MPD2     N12842   0.668   0.459  15.442  0.2105  0.2816  0.2322
  875MPD2    H512843   0.582   0.506  15.467 -0.8797 -1.2323 -0.7541
  875MPD2    N112844   0.462   0.409  14.996 -0.0514  0.2067  0.1039
  875MPD2    H712845   0.391   0.451  15.055 -0.7792 -0.9778  0.0813
  876MPD2     C12846   4.199   1.527  16.355  0.1828  0.5960  0.2306
  876MPD2    C112847   4.259   1.475  16.241 -0.6099  0.8963 -0.2773
  876MPD2    C212848   4.287   1.340  16.244 -0.3817 -0.2901  0.5300
  876MPD2    C312849   4.251   1.257  16.349  0.6948 -0.4271  0.2125
  876MPD2    C412850   4.201   1.316  16.463  0.9808  0.7099 -0.2562
  876MPD2    C512851   4.174   1.454  16.465  0.0035 -0.6389 -0.1856
  876MPD2     H12852   4.356   1.304  16.169  0.7960  3.0499  0.0242
  876MPD2    H112853   4.193   1.273  16.562  2.2592  2.5642  0.6462
  876MPD2    H212854   4.185   1.634  16.366 -0.4868  0.3249  2.0490
  876MPD2    H312855   4.145   1.510  16.553 -0.3262  0.3063 -0.8947
  876MPD2     N12856   4.282   1.117  16.340 -0.4614  0.4042 -0.1436
  876MPD2    H512857   4.359   1.094  16.278 -0.6940  0.1714 -0.3432
  876MPD2    N112858   4.289   1.551  16.127  0.5941 -0.3701 -0.1670
  876MPD2    H712859   4.347   1.503  16.059  0.9719  0.6071 -0.5264
  877MPD2     C12860   3.931   2.019  15.558 -0.1980 -0.3225 -0.0473
  877MPD2    C112861   4.071   2.002  15.537 -0.7732  0.3921  0.2003
  877MPD2    C212862   4.122   2.019  15.404  0.4441 -0.8985  0.0567
  877MPD2    C312863   4.038   2.045  15.299 -0.3509 -0.4585 -0.8150
  877MPD2    C412864   3.906   2.049  15.319  0.8211  0.6973 -0.1042
  877MPD2    C512865   3.857   2.038  15.446 -0.5237  0.0008  0.0006
  877MPD2     H12866   4.229   2.010  15.391  0.1914 -2.1886 -1.0956
  877MPD2    H112867   3.836   2.060  15.238 -0.8843  0.4384  1.3207
  877MPD2    H212868   3.879   2.006  15.653 -1.7256 -1.9556 -1.1072
  877MPD2    H312869   3.749   2.052  15.451 -0.6910 -0.7734 -1.2839
  877MPD2     N12870   4.090   2.079  15.174  0.0168  0.2290  0.3754
  877MPD2    H512871   4.020   2.090  15.100  1.2454  1.5830 -0.5822
  877MPD2    N112872   4.166   1.973  15.633  0.2791  1.0029 -0.8555
  877MPD2    H712873   4.261   1.961  15.602  1.0466  3.7145  0.4560
  878MPD2     C12874   3.879   1.378  13.375  0.5844 -0.1829 -0.5493
  878MPD2    C112875   3.908   1.510  13.386  0.6237 -0.1946 -0.4710
  878MPD2    C212876   3.891   1.574  13.506 -1.0250  0.7608  0.5361
  878MPD2    C312877   3.826   1.514  13.615  0.2649  0.5605  0.4348
  878MPD2    C412878   3.787   1.385  13.599  0.7124 -0.4761  0.3094
  878MPD2    C512879   3.825   1.314  13.481  0.4137  0.4963  0.7735
  878MPD2     H12880   3.924   1.677  13.512  1.5121  0.0160 -0.4945
  878MPD2    H112881   3.762   1.331  13.689  0.4226  2.1347  1.8010
  878MPD2    H212882   3.897   1.330  13.280  1.5661  0.6542 -0.7936
  878MPD2    H312883   3.807   1.208  13.468 -0.0434  0.3620  2.5449
  878MPD2     N12884   3.810   1.585  13.738 -0.8776  0.6808  0.0975
  878MPD2    H512885   3.861   1.673  13.738  2.2546 -1.1193  0.0756
  878MPD2    N112886   3.952   1.569  13.268 -0.9875 -0.2171 -0.8095
  878MPD2    H712887   3.968   1.508  13.189 -1.3208  1.6994 -2.3481
  879MPD2     C12888   0.254   2.418  16.611 -0.0952 -0.1860  0.1418
  879MPD2    C112889   0.243   2.302  16.688  0.9288 -0.1545  0.0206
  879MPD2    C212890   0.118   2.248  16.715  0.5511 -0.0782  0.7816
  879MPD2    C312891   0.004   2.316  16.664 -0.6441 -0.1312  0.5454
  879MPD2    C412892   0.027   2.420  16.576 -0.2157  0.4206 -0.3178
  879MPD2    C512893   0.148   2.475  16.559  0.2831  0.2502  0.5041
  879MPD2     H12894   0.107   2.158  16.775  1.2286  0.2705  1.4324
  879MPD2    H112895   4.672   2.470  16.521  0.0574  0.6559 -0.4984
  879MPD2    H212896   0.354   2.450  16.586 -0.5860  1.4661  0.3088
  879MPD2    H312897   0.157   2.559  16.490 -0.0921 -1.1361 -1.2314
  879MPD2     N12898   4.590   2.283  16.689 -0.0981  0.2324  0.3454
  879MPD2    H512899   4.521   2.336  16.637 -1.0995 -2.1576 -0.7986
  879MPD2    N112900   0.365   2.258  16.744 -0.7576 -0.0043  0.3935
  879MPD2    H712901   0.448   2.314  16.731 -0.5861  0.0307  1.5833
  880MPD2     C12902   1.286   4.303   0.444 -0.2237 -0.1753 -0.1019
  880MPD2    C112903   1.359   4.345   0.548  0.1921 -0.0848  0.3005
  880MPD2    C212904   1.416   4.241   0.619  0.3056 -0.6216 -0.0497
  880MPD2    C312905   1.422   4.109   0.577  0.4528 -0.4051 -0.6068
  880MPD2    C412906   1.341   4.070   0.473 -0.1423  0.1342  1.0689
  880MPD2    C512907   1.271   4.171   0.408  0.4731 -0.1425  0.1096
  880MPD2     H12908   1.492   4.257   0.695 -0.6593 -1.4818  1.0973
  880MPD2    H112909   1.346   3.969   0.434 -1.4339  0.5595 -0.1902
  880MPD2    H212910   1.233   4.373   0.379 -0.0310  1.3125  1.3485
  880MPD2    H312911   1.214   4.148   0.318 -0.3635  1.3570  0.2624
  880MPD2     N12912   1.491   4.013   0.652  0.0329  0.2699  0.4536
  880MPD2    H512913   1.532   4.048   0.738  1.1345  0.2145 -0.0460
  880MPD2    N112914   1.372   4.482   0.582  0.3809 -0.1669  0.6453
  880MPD2    H712915   1.316   4.548   0.528  2.5593  0.6463 -0.6092
  881MPD2     C12916   1.674   0.617   0.198  0.4871 -0.3425 -0.4504
  881MPD2    C112917   1.647   0.487   0.164 -0.1101  0.0845  0.0251
  881MPD2    C212918   1.586   0.408   0.260 -0.6408  0.3057  0.0982
  881MPD2    C312919   1.573   0.452   0.392  0.9675  0.0061  0.4417
  881MPD2    C412920   1.607   0.587   0.420  0.4604  0.5866 -0.0947
  881MPD2    C512921   1.652   0.669   0.317 -0.2497  0.6131 -0.5057
  881MPD2     H12922   1.556   0.307   0.235  3.5103 -0.8054 -0.4793
  881MPD2    H112923   1.589   0.624   0.520  1.7332 -0.4771  0.5243
  881MPD2    H212924   1.707   0.691   0.126  0.2437 -0.9074 -1.1497
  881MPD2    H312925   1.654   0.776   0.338  0.7932  0.5262 -0.1937
  881MPD2     N12926   1.534   0.366   0.502  0.2501  0.1879 -0.4333
  881MPD2    H512927   1.528   0.409   0.593  0.3657  0.3178 -0.4868
  881MPD2    N112928   1.635   0.461   0.026  0.4015 -0.1752  0.4948
  881MPD2    H712929   1.687   0.521  17.664  0.8006  2.6779  3.5536
  882MPD2     C12930   3.994   2.146  14.359  0.6218 -0.8985 -0.3199
  882MPD2    C112931   3.965   2.123  14.489 -0.1338 -0.5819  0.1697
  882MPD2    C212932   3.846   2.058  14.518 -0.2869 -0.3789 -0.3577
  882MPD2    C312933   3.760   2.016  14.422 -0.3923  0.1597 -0.0386
  882MPD2    C412934   3.790   2.046  14.291  0.4531  0.4665  0.2850
  882MPD2    C512935   3.909   2.106  14.262  0.0336 -0.3664  0.3840
  882MPD2     H12936   3.819   2.034  14.620 -0.9542 -1.2530 -0.7410
  882MPD2    H112937   3.725   2.012  14.211  0.3200  1.5601 -0.0675
  882MPD2    H212938   4.082   2.195  14.320 -1.2090 -0.0253 -3.2770
  882MPD2    H312939   3.938   2.119  14.158 -1.0652  1.1516  0.2564
  882MPD2     N12940   3.640   1.949  14.456  0.0018  0.7659  0.1282
  882MPD2    H512941   3.560   1.954  14.394  0.4375 -0.9167 -0.5763
  882MPD2    N112942   4.061   2.162  14.582  0.3533  0.8222  0.2696
  882MPD2    H712943   4.148   2.208  14.554 -0.1852  1.7026  0.0424
  883MPD2     C12944   1.359   1.631  15.898 -0.4946  0.4613  0.6281
  883MPD2    C112945   1.429   1.749  15.867  0.9541 -0.2351 -0.3507
  883MPD2    C212946   1.478   1.835  15.969 -0.3675  0.0576  0.2981
  883MPD2    C312947   1.467   1.804  16.099 -0.4530  0.1645  0.1061
  883MPD2    C412948   1.389   1.692  16.133 -0.3021  0.0764 -0.5619
  883MPD2    C512949   1.337   1.612  16.035 -0.3382 -0.5853 -0.2815
  883MPD2     H12950   1.538   1.922  15.945 -1.3252  1.2023  2.0150
  883MPD2    H112951   1.372   1.660  16.235 -2.0221 -0.3523 -0.9812
  883MPD2    H212952   1.305   1.568  15.828  0.3951  0.2367  0.1409
  883MPD2    H312953   1.280   1.525  16.068  0.4777 -0.9155  0.2641
  883MPD2     N12954   1.534   1.886  16.197  0.0042  0.0194  0.0795
  883MPD2    H512955   1.602   1.949  16.156  1.7442 -0.5607  2.0814
  883MPD2    N112956   1.463   1.782  15.735 -0.3754  0.2706 -0.5122
  883MPD2    H712957   1.521   1.866  15.730  0.4046 -0.1905  0.7545
  884MPD2     C12958   3.186   2.461  15.544 -0.1718  0.2139 -0.3427
  884MPD2    C112959   3.192   2.496  15.409  0.0371 -0.1693 -0.2337
  884MPD2    C212960   3.103   2.598  15.372 -0.2640 -0.6686  0.4498
  884MPD2    C312961   3.034   2.679  15.465  0.3218 -0.5006 -0.1687
  884MPD2    C412962   3.043   2.643  15.593  0.6546  0.8082 -0.4651
  884MPD2    C512963   3.118   2.534  15.637  0.8436 -0.8956  0.6805
  884MPD2     H12964   3.112   2.625  15.268  1.6010 -1.2470  0.4703
  884MPD2    H112965   2.985   2.695  15.668  1.9613  0.8560  0.5159
  884MPD2    H212966   3.243   2.375  15.579 -2.4919 -1.3241 -0.2936
  884MPD2    H312967   3.119   2.514  15.743  0.0100 -1.8975  0.5039
  884MPD2     N12968   2.972   2.795  15.420 -0.1009  0.3545 -0.8183
  884MPD2    H512969   2.986   2.812  15.321  0.2599  2.3646 -0.4136
  884MPD2    N112970   3.269   2.432  15.309 -0.5914  0.0428  0.5195
  884MPD2    H712971   3.244   2.463  15.216 -1.2300 -1.9388  0.0327
  885MPD2     C12972   1.335   3.052   0.649  0.2691  0.1680 -0.2026
  885MPD2    C112973   1.463   3.080   0.606  0.1218 -0.1165 -0.1378
  885MPD2    C212974   1.477   3.136   0.481  0.0455 -0.2423 -0.5784
  885MPD2    C312975   1.364   3.175   0.407 -0.0495  0.0460 -0.5097
  885MPD2    C412976   1.238   3.147   0.460  0.4342 -0.6501 -0.3532
  885MPD2    C512977   1.226   3.086   0.578  0.5201 -0.4031  0.3341
  885MPD2     H12978   1.575   3.152   0.438 -0.1861 -0.3353 -1.1326
  885MPD2    H112979   1.148   3.174   0.406 -0.2643 -1.4571  0.4221
  885MPD2    H212980   1.320   3.008   0.747  1.2738 -0.7385 -0.4538
  885MPD2    H312981   1.127   3.053   0.608  0.6799  0.4386  1.8038
  885MPD2     N12982   1.383   3.233   0.277 -0.3529 -0.5011 -0.1236
  885MPD2    H512983   1.476   3.228   0.238 -0.1985 -0.1567  0.2065
  885MPD2    N112984   1.572   3.045   0.684  0.0452 -0.0154 -0.4088
  885MPD2    H712985   1.543   3.004   0.773 -0.5103  1.3390  0.0429
  886MPD2     C12986   2.729   1.415  15.284 -0.6579 -0.6065  0.0683
  886MPD2    C112987   2.836   1.447  15.363 -1.0646 -0.2737 -0.5288
  886MPD2    C212988   2.866   1.579  15.385 -0.0256 -1.1544 -0.4716
  886MPD2    C312989   2.786   1.683  15.330  0.0491 -0.3271  0.4150
  886MPD2    C412990   2.678   1.642  15.248  0.2635  0.3321  0.4223
  886MPD2    C512991   2.654   1.517  15.234  0.1030 -0.6075 -0.3847
  886MPD2     H12992   2.953   1.599  15.447  0.0379  0.3636 -1.0476
  886MPD2    H112993   2.621   1.715  15.191 -0.4042  1.1852  2.1984
  886MPD2    H212994   2.702   1.313  15.257  1.8902 -1.1009 -0.6039
  886MPD2    H312995   2.573   1.479  15.172  0.7895  0.3994 -1.8986
  886MPD2     N12996   2.808   1.825  15.344 -0.3000 -0.0376  0.2263
  886MPD2    H512997   2.770   1.890  15.275  2.8058  1.2644 -0.2458
  886MPD2    N112998   2.919   1.352  15.419  0.4712 -0.0074 -0.5562
  886MPD2    H712999   3.004   1.384  15.465  1.0304  0.0469 -1.6268
  887MPD2     C13000   3.632   1.332  15.619  0.7490  0.4104 -1.2630
  887MPD2    C113001   3.504   1.388  15.626  0.1716  0.0452  0.0365
  887MPD2    C213002   3.479   1.504  15.689  0.9149 -0.3388 -0.0703
  887MPD2    C313003   3.585   1.584  15.736 -0.8302 -0.8345  0.6257
  887MPD2    C413004   3.705   1.521  15.745  0.4512 -0.0453 -0.2160
  887MPD2    C513005   3.733   1.400  15.686 -0.4891  0.8213  0.0589
  887MPD2     H13006   3.376   1.534  15.675  0.7083 -1.1545 -0.3168
  887MPD2    H113007   3.794   1.567  15.786 -0.0053  0.8713 -0.2521
  887MPD2    H213008   3.648   1.233  15.579  0.2015 -0.3360  0.3505
  887MPD2    H313009   3.829   1.350  15.688 -0.7161  0.3491 -0.5564
  887MPD2     N13010   3.552   1.708  15.798 -0.5907 -0.5476 -0.1321
  887MPD2    H513011   3.454   1.733  15.796 -0.2464  0.6258 -3.1999
  887MPD2    N113012   3.393   1.325  15.573 -1.0205  0.0421 -0.1811
  887MPD2    H713013   3.298   1.349  15.600 -0.5317  1.5798  0.1746
  888MPD2     C13014   0.482   1.564  14.953 -0.8184 -0.4623 -0.1611
  888MPD2    C113015   0.528   1.586  15.079 -0.2815  0.5808 -0.5378
  888MPD2    C213016   0.626   1.688  15.089  0.6039  0.1287  0.2234
  888MPD2    C313017   0.676   1.755  14.985  0.1933  0.1391 -0.2514
  888MPD2    C413018   0.625   1.738  14.859 -0.2211 -0.1538  0.5115
  888MPD2    C513019   0.536   1.632  14.846  0.6149 -0.5662  1.2216
  888MPD2     H13020   0.660   1.719  15.187 -0.5032 -0.0143  0.6608
  888MPD2    H113021   0.650   1.804  14.777 -0.5168  1.0580  1.3939
  888MPD2    H213022   0.411   1.486  14.927 -0.7316  0.0998 -2.1232
  888MPD2    H313023   0.487   1.619  14.750 -0.2856  0.4950  1.5356
  888MPD2     N13024   0.770   1.857  15.016  0.4300  0.6222  0.6636
  888MPD2    H513025   0.792   1.862  15.115  2.0344 -0.3655  0.3619
  888MPD2    N113026   0.482   1.526  15.197  0.1878 -0.4745 -0.0851
  888MPD2    H713027   0.545   1.536  15.276 -0.4115 -0.4933  0.3956
  889MPD2     C13028   4.333   1.332  12.987 -0.3845  0.3095  0.1095
  889MPD2    C113029   4.388   1.301  13.107 -0.3454 -0.6005  0.0168
  889MPD2    C213030   4.388   1.395  13.207  0.2067 -0.2390 -0.5822
  889MPD2    C313031   4.344   1.527  13.190 -0.6035  0.1399 -0.1693
  889MPD2    C413032   4.303   1.561  13.061 -0.2703  0.0533 -0.3615
  889MPD2    C513033   4.304   1.467  12.961 -0.8021 -0.1711 -0.1445
  889MPD2     H13034   4.412   1.364  13.309  1.0554 -2.1685 -1.3662
  889MPD2    H113035   4.264   1.660  13.039 -0.7311 -0.3030 -1.1349
  889MPD2    H213036   4.349   1.267  12.902  0.4442 -1.3687  1.5389
  889MPD2    H313037   4.281   1.500  12.861 -0.5382 -2.1868 -0.8569
  889MPD2     N13038   4.330   1.606  13.303  0.6712 -0.2434  0.7317
  889MPD2    H513039   4.352   1.561  13.391  1.6010 -0.5898  0.3240
  889MPD2    N113040   4.413   1.174  13.149  0.6590 -0.2491 -0.4812
  889MPD2    H713041   4.433   1.160  13.247 -0.2100  0.0150 -0.2692
  890MPD2     C13042   4.106   2.692  14.718 -0.2970 -0.6024  0.0979
  890MPD2    C113043   4.200   2.776  14.774 -0.3486  0.0671  0.2606
  890MPD2    C213044   4.264   2.731  14.885  0.3657 -0.3613 -0.2266
  890MPD2    C313045   4.232   2.613  14.952  0.0583  0.1175 -0.5874
  890MPD2    C413046   4.135   2.535  14.891  0.0091 -0.7975  0.0195
  890MPD2    C513047   4.077   2.571  14.769  0.6896 -0.5205 -0.6532
  890MPD2     H13048   4.345   2.785  14.933  0.0980  1.3845 -1.7502
  890MPD2    H113049   4.097   2.442  14.930 -0.4655 -0.7981 -0.4339
  890MPD2    H213050   4.065   2.718  14.621  1.5019  2.3481  0.1169
  890MPD2    H313051   3.999   2.513  14.723  1.9567 -3.3748  0.8233
  890MPD2     N13052   4.290   2.580  15.080  0.3939  0.2238  0.4687
  890MPD2    H513053   4.363   2.641  15.116  0.5447  0.0795  0.4079
  890MPD2    N113054   4.223   2.904  14.710  0.1393  0.0579 -0.0734
  890MPD2    H713055   4.160   2.930  14.634  0.5256  1.5049  0.1058
  891MPD2     C13056   2.351   1.244  16.029  0.0573  0.0832  0.5733
  891MPD2    C113057   2.305   1.306  16.141  0.1483 -0.4623  0.9133
  891MPD2    C213058   2.373   1.292  16.252 -0.1712 -0.3468  0.5236
  891MPD2    C313059   2.497   1.232  16.259  0.3663 -0.1242 -0.6465
  891MPD2    C413060   2.549   1.169  16.146  0.5999 -0.8076  0.2802
  891MPD2    C513061   2.473   1.176  16.031  0.2863 -0.3885 -0.8573
  891MPD2     H13062   2.331   1.337  16.342  0.3024 -1.0966  1.1247
  891MPD2    H113063   2.645   1.119  16.145  0.0837 -1.8208  1.3285
  891MPD2    H213064   2.291   1.243  15.939  0.9911  0.0473 -0.0607
  891MPD2    H313065   2.502   1.126  15.939 -0.9443 -2.1425 -0.3001
  891MPD2     N13066   2.575   1.248  16.378 -0.3105 -0.5304  0.0444
  891MPD2    H513067   2.525   1.291  16.455  1.5198 -0.6600  1.3148
  891MPD2    N113068   2.187   1.368  16.139  0.3285 -0.1926  0.7854
  891MPD2    H713069   2.144   1.351  16.048 -0.8817  3.2942  0.7155
  892MPD2     C13070   3.309   2.632  14.688 -0.7225 -0.4309 -1.0002
  892MPD2    C113071   3.252   2.555  14.787 -0.1264 -0.1437 -0.0200
  892MPD2    C213072   3.274   2.422  14.796  0.5367 -0.4036 -0.5185
  892MPD2    C313073   3.349   2.363  14.698 -0.4870  0.2089 -0.0478
  892MPD2    C413074   3.416   2.445  14.608  0.2665  0.0256  0.4240
  892MPD2    C513075   3.399   2.575  14.606  0.4400 -0.3005  0.8309
  892MPD2     H13076   3.217   2.358  14.863  1.8456  0.4123  1.3800
  892MPD2    H113077   3.483   2.396  14.538 -2.2634  0.3535 -2.2084
  892MPD2    H213078   3.296   2.740  14.681 -2.2592 -0.3356  3.3992
  892MPD2    H313079   3.461   2.628  14.534 -0.0014  0.6615  1.1596
  892MPD2     N13080   3.370   2.220  14.686  0.3122 -0.3915  0.0232
  892MPD2    H513081   3.427   2.183  14.610 -0.4019  2.7455 -2.0576
  892MPD2    N113082   3.155   2.621  14.861 -0.0355  0.1549  0.0125
  892MPD2    H713083   3.113   2.704  14.819 -1.9478  0.2597  2.1666
  893MPD2     C13084   1.066   4.379   2.126 -0.4249  0.2543  0.5629
  893MPD2    C113085   0.938   4.404   2.077  0.1450 -0.7997 -0.0370
  893MPD2    C213086   0.855   4.298   2.069 -0.1137 -0.2794  0.0321
  893MPD2    C313087   0.900   4.175   2.107  0.0623 -0.1516  0.3941
  893MPD2    C413088   1.022   4.151   2.158  0.1600  0.1068  0.3638
  893MPD2    C513089   1.105   4.260   2.174 -0.3864 -0.2156  0.6994
  893MPD2     H13090   0.767   4.319   2.009  1.2645 -0.2419 -1.9515
  893MPD2    H113091   1.055   4.055   2.195  0.4162  1.1009  2.7173
  893MPD2    H213092   1.134   4.463   2.132 -0.6389  0.4565  0.1761
  893MPD2    H313093   1.201   4.251   2.224 -1.6257 -2.7233  2.6201
  893MPD2     N13094   0.812   4.061   2.098  0.5055 -0.2691  0.6512
  893MPD2    H513095   0.835   3.981   2.157 -0.7377  0.5809  2.2777
  893MPD2    N113096   0.905   4.536   2.048  0.4964  0.0627  0.1139
  893MPD2    H713097   0.975   4.610   2.053  0.9463 -0.3490  0.0011
  894MPD2     C13098   3.135   2.545   0.609  0.7447  0.7578  0.7008
  894MPD2    C113099   3.142   2.619   0.721 -0.1302 -0.3207  0.0910
  894MPD2    C213100   3.181   2.754   0.727 -0.3355  0.0856  0.5966
  894MPD2    C313101   3.215   2.827   0.611  0.3683 -0.4219  0.4275
  894MPD2    C413102   3.211   2.742   0.492 -0.6540  0.6903  0.0929
  894MPD2    C513103   3.178   2.609   0.498 -0.7891  0.4576 -0.0867
  894MPD2     H13104   3.164   2.819   0.812 -1.0866 -0.1319  0.6142
  894MPD2    H113105   3.252   2.780   0.399  0.3957 -0.0785  0.2387
  894MPD2    H213106   3.103   2.441   0.599 -1.7810  1.7717 -2.0108
  894MPD2    H313107   3.171   2.546   0.409  0.2875 -1.9094  1.4950
  894MPD2     N13108   3.243   2.961   0.605 -0.6842  0.3003  0.3941
  894MPD2    H513109   3.252   3.011   0.693 -0.3128  0.0445  0.5033
  894MPD2    N113110   3.102   2.563   0.850  0.7101  0.0741 -0.4164
  894MPD2    H713111   3.107   2.620   0.933  1.4637 -0.0177 -0.3925
  895MPD2     C13112   2.734   1.510  13.924  0.1679 -0.0601 -0.0175
  895MPD2    C113113   2.629   1.439  13.877 -0.4849 -0.0468 -0.2533
  895MPD2    C213114   2.643   1.305  13.848  0.3029 -0.1535  0.3629
  895MPD2    C313115   2.765   1.243  13.879 -0.6538  0.1758  0.4178
  895MPD2    C413116   2.869   1.313  13.935 -0.0541  0.1898 -0.0389
  895MPD2    C513117   2.852   1.447  13.961 -0.4656  0.1761  0.1478
  895MPD2     H13118   2.555   1.243  13.834 -0.5944  1.1838  0.1405
  895MPD2    H113119   2.970   1.274  13.945  0.2683  1.0927  0.2357
  895MPD2    H213120   2.721   1.613  13.955 -1.3259 -0.4720  0.6919
  895MPD2    H313121   2.931   1.505  14.006  0.9285 -2.0089  0.4769
  895MPD2     N13122   2.786   1.110  13.839 -0.1066 -0.0434  0.3329
  895MPD2    H513123   2.706   1.072  13.789 -1.8195  1.3488  2.0260
  895MPD2    N113124   2.499   1.492  13.850 -0.0221  0.1180 -0.3808
  895MPD2    H713125   2.437   1.426  13.803 -2.3299  0.7715  1.7460
  896MPD2     C13126   4.533   3.611   1.782 -0.0597  0.6026 -0.2521
  896MPD2    C113127   4.529   3.583   1.647 -0.3683 -0.0444  0.2385
  896MPD2    C213128   4.411   3.532   1.593 -0.0227  0.0169 -0.0722
  896MPD2    C313129   4.297   3.533   1.672 -0.4912 -0.5917 -0.4147
  896MPD2    C413130   4.299   3.577   1.804  0.1732  0.1950 -0.3260
  896MPD2    C513131   4.416   3.621   1.856  0.4384 -0.3381 -0.9196
  896MPD2     H13132   4.411   3.494   1.492 -0.5790  0.0291 -0.0738
  896MPD2    H113133   4.217   3.579   1.876  1.5815 -2.8438  1.3818
  896MPD2    H213134   4.624   3.658   1.818 -1.7000  2.2351  1.7733
  896MPD2    H313135   4.410   3.662   1.956 -1.6754 -0.8485 -0.8312
  896MPD2     N13136   4.182   3.486   1.605 -0.7545  0.3170 -0.0105
  896MPD2    H513137   4.207   3.438   1.520 -2.4964  0.8401 -0.8102
  896MPD2    N113138   4.646   3.605   1.568  0.6409 -0.1010 -0.1863
  896MPD2    H713139   0.002   3.617   1.629 -0.6329  3.0339  0.8921
  897MPD2     C13140   1.049   0.774  10.528 -0.0346  0.1836  0.5563
  897MPD2    C113141   1.011   0.907  10.551 -0.7755 -0.1643  0.2794
  897MPD2    C213142   0.930   0.939  10.657 -0.2664 -0.2591 -0.0322
  897MPD2    C313143   0.893   0.841  10.748  0.2819  0.2558  0.1530
  897MPD2    C413144   0.930   0.716  10.725  0.3518  0.0145 -0.0692
  897MPD2    C513145   1.014   0.680  10.624 -0.3523 -0.5150 -0.0808
  897MPD2     H13146   0.905   1.041  10.686 -0.0244 -0.9577  2.5765
  897MPD2    H113147   0.892   0.634  10.787 -0.1341 -1.0414 -1.7704
  897MPD2    H213148   1.109   0.752  10.441 -3.0487 -1.0475 -1.2261
  897MPD2    H313149   1.043   0.580  10.595  0.6288  0.2127 -1.6112
  897MPD2     N13150   0.815   0.870  10.862  0.7377 -0.2283  0.6502
  897MPD2    H513151   0.789   0.968  10.862  1.9274  0.0820 -0.3089
  897MPD2    N113152   1.056   1.003  10.457  0.0513  0.2609  0.2012
  897MPD2    H713153   1.089   0.969  10.367  0.4485 -0.7129  0.7225
  898MPD2     C13154   3.934   1.371  17.433  0.4431 -0.2216 -0.2036
  898MPD2    C113155   3.891   1.416  17.556 -0.2152 -0.0226  0.4925
  898MPD2    C213156   3.749   1.416  17.577  0.3153  0.4083 -0.2306
  898MPD2    C313157   3.659   1.374  17.478  0.2653  0.4217 -0.1449
  898MPD2    C413158   3.706   1.321  17.362  0.0401 -0.5238 -0.0304
  898MPD2    C513159   3.845   1.317  17.342  0.5338 -0.0373  0.0871
  898MPD2     H13160   3.710   1.463  17.666 -0.5257 -1.4620  0.3919
  898MPD2    H113161   3.643   1.287  17.280 -3.0579  2.1563  1.2004
  898MPD2    H213162   4.040   1.359  17.412  0.1975 -2.8863  0.0964
  898MPD2    H313163   3.878   1.290  17.243  2.9490 -0.7122  1.0686
  898MPD2     N13164   3.522   1.405  17.503  0.3384 -0.4707 -0.7729
  898MPD2    H513165   3.492   1.460  17.583 -1.1073 -2.0808 -0.2168
  898MPD2    N113166   3.971   1.450  17.669  0.2236  0.8505  0.2843
  898MPD2    H713167   3.931   1.506   0.043 -1.6753 -0.8295  0.5203
  899MPD2     C13168   4.304   2.669  17.248  0.1618  0.3824 -0.5157
  899MPD2    C113169   4.175   2.702  17.268  0.5656 -0.3188 -0.7754
  899MPD2    C213170   4.086   2.621  17.329  0.0104 -0.6801 -0.3925
  899MPD2    C313171   4.121   2.497  17.372  0.0349 -0.1553 -0.1967
  899MPD2    C413172   4.261   2.464  17.367 -0.1976 -0.3442  0.0674
  899MPD2    C513173   4.347   2.554  17.305  0.2682  0.0008  0.6454
  899MPD2     H13174   3.988   2.664  17.347  0.6575  1.1800 -1.2783
  899MPD2    H113175   4.309   2.372  17.398  0.5592  0.6678  1.9073
  899MPD2    H213176   4.377   2.729  17.193  0.3887  1.1877  0.6774
  899MPD2    H313177   4.452   2.527  17.302  0.1885 -0.4302  2.1402
  899MPD2     N13178   4.030   2.397  17.418  0.5482 -0.1206 -0.0103
  899MPD2    H513179   4.068   2.304  17.433  1.4474  0.3215  0.4604
  899MPD2    N113180   4.139   2.825  17.205 -0.3393 -0.4961 -0.1654
  899MPD2    H713181   4.216   2.879  17.167 -1.9264  0.7409 -1.6300
  900MPD2     C13182   3.528   4.352  12.923  0.5296  0.5212  0.1579
  900MPD2    C113183   3.503   4.259  12.825  0.1963  0.2701 -0.3371
  900MPD2    C213184   3.407   4.283  12.735 -0.0581 -0.6184  1.0804
  900MPD2    C313185   3.327   4.397  12.754  0.5735  0.3260 -0.5131
  900MPD2    C413186   3.348   4.488  12.852  0.1901  0.4882  0.1401
  900MPD2    C513187   3.450   4.463  12.929 -0.4037  0.6649 -0.9391
  900MPD2     H13188   3.391   4.217  12.651 -1.3528 -1.0780  1.6735
  900MPD2    H113189   3.279   4.565  12.883 -0.5221 -0.0778 -0.0508
  900MPD2    H213190   3.604   4.334  12.999 -0.4265  0.1871  1.0227
  900MPD2    H313191   3.463   4.540  13.005  0.8363  0.3223 -0.8052
  900MPD2     N13192   3.218   4.414  12.665 -0.1580 -0.3573  0.0728
  900MPD2    H513193   3.212   4.350  12.586 -0.4954  0.0306 -0.2126
  900MPD2    N113194   3.588   4.147  12.807 -0.6747 -0.3992  0.2813
  900MPD2    H713195   3.547   4.079  12.744  1.9475 -0.8075 -0.9743
  901MPD2     C13196   3.341   3.237  12.554  0.3336 -0.5204  0.8212
  901MPD2    C113197   3.441   3.213  12.650  0.3707  1.6678 -0.3638
  901MPD2    C213198   3.513   3.318  12.706 -0.0824  0.9195  0.7780
  901MPD2    C313199   3.501   3.453  12.678  0.9535  0.1205  0.7412
  901MPD2    C413200   3.403   3.471  12.580  0.6136 -0.2254  0.1374
  901MPD2    C513201   3.320   3.370  12.529 -0.1817  0.2241  0.0091
  901MPD2     H13202   3.585   3.289  12.782  0.4245  0.2163  0.0312
  901MPD2    H113203   3.378   3.569  12.543 -3.2397 -0.8384  1.0302
  901MPD2    H213204   3.291   3.160  12.498 -0.8197  0.4054  0.5822
  901MPD2    H313205   3.241   3.402  12.462  1.2849 -1.5754 -2.5840
  901MPD2     N13206   3.584   3.552  12.728 -0.1527  0.5306  0.2416
  901MPD2    H513207   3.648   3.525  12.803  0.5378  2.0305  0.1922
  901MPD2    N113208   3.462   3.077  12.668 -0.0078  0.0807  0.4155
  901MPD2    H713209   3.427   3.016  12.595 -0.9019  1.3548 -0.2167
  902MPD2     C13210   2.612   2.369  12.515  0.4264  0.2495  0.7500
  902MPD2    C113211   2.508   2.284  12.507 -0.6022  0.0523  0.5613
  902MPD2    C213212   2.528   2.168  12.433  0.1816  0.1519  0.0932
  902MPD2    C313213   2.646   2.139  12.364 -0.2145  0.4354  0.2775
  902MPD2    C413214   2.746   2.234  12.370  0.1808  0.1963  0.5409
  902MPD2    C513215   2.730   2.351  12.441  0.2191  0.4760  0.4566
  902MPD2     H13216   2.452   2.092  12.441  0.0553  0.0261 -2.1406
  902MPD2    H113217   2.834   2.229  12.306 -1.4299  0.2474 -1.6877
  902MPD2    H213218   2.594   2.463  12.566 -3.4637  0.7368 -1.4931
  902MPD2    H313219   2.815   2.418  12.439  0.0578  0.7224  1.6752
  902MPD2     N13220   2.680   2.022  12.291 -0.3256  0.3228  0.5877
  902MPD2    H513221   2.744   2.037  12.214 -2.2999  0.7942 -0.9678
  902MPD2    N113222   2.390   2.319  12.573 -0.1766 -0.2530 -0.0043
  902MPD2    H713223   2.390   2.390  12.645 -0.8415 -0.0851 -0.1665
  903MPD2     C13224   2.189   1.640  11.649 -0.0192 -0.9172  0.2210
  903MPD2    C113225   2.182   1.691  11.780 -0.0760  0.7228  0.3540
  903MPD2    C213226   2.070   1.662  11.863  0.5882  0.5263  0.1903
  903MPD2    C313227   1.958   1.604  11.805 -0.7754 -0.0546 -0.0613
  903MPD2    C413228   1.963   1.568  11.668  0.3029 -0.2564 -0.0841
  903MPD2    C513229   2.075   1.584  11.597  0.0126 -0.3318 -0.0315
  903MPD2     H13230   2.067   1.664  11.971 -1.2481 -2.7209  0.1755
  903MPD2    H113231   1.875   1.534  11.614  1.0790 -1.5540 -0.5278
  903MPD2    H213232   2.266   1.669  11.578  1.2380 -1.1096  1.5074
  903MPD2    H313233   2.087   1.559  11.492 -1.8220  1.1598 -0.5784
  903MPD2     N13234   1.839   1.590  11.885  0.4802 -0.7729 -0.2075
  903MPD2    H513235   1.832   1.636  11.975  0.0749 -1.7957  0.2873
  903MPD2    N113236   2.306   1.737  11.831  0.5362 -0.1372  0.2021
  903MPD2    H713237   2.387   1.719  11.772 -0.8120 -1.2010 -1.3286
  904MPD2     C13238   2.290   0.904  13.989  0.4915  0.6418 -0.1728
  904MPD2    C113239   2.272   0.865  14.120 -0.2396  0.5836  0.1926
  904MPD2    C213240   2.375   0.866  14.205  0.2637 -0.4240  0.0682
  904MPD2    C313241   2.506   0.875  14.164  0.9132 -0.0468  0.7361
  904MPD2    C413242   2.527   0.913  14.033 -0.3069  0.1264  0.1928
  904MPD2    C513243   2.419   0.925  13.947 -0.7466 -0.5818 -0.0931
  904MPD2     H13244   2.362   0.852  14.312 -3.5589 -0.7398 -0.4386
  904MPD2    H113245   2.626   0.924  13.990 -0.3319 -1.2758 -0.2125
  904MPD2    H213246   2.211   0.885  13.917  2.3699 -3.1924 -1.2197
  904MPD2    H313247   2.440   0.955  13.845 -1.4070 -1.3333 -0.4480
  904MPD2     N13248   2.615   0.862  14.257 -0.0389  0.4070  0.1373
  904MPD2    H513249   2.594   0.842  14.354  0.8344 -0.2076  0.2001
  904MPD2    N113250   2.142   0.842  14.168  0.6900  0.3937 -0.2785
  904MPD2    H713251   2.128   0.796  14.258  0.7012  1.3018  0.1916
  905MPD2     C13252   2.059   0.973  13.481  0.0523 -0.9743  0.2718
  905MPD2    C113253   2.132   1.026  13.583 -0.3687 -0.5716 -0.0228
  905MPD2    C213254   2.270   1.008  13.583 -0.0335 -0.7917  0.2020
  905MPD2    C313255   2.334   0.921  13.495  0.1952 -0.1313 -0.4500
  905MPD2    C413256   2.262   0.862  13.394  0.5192  0.0772 -0.3273
  905MPD2    C513257   2.128   0.906  13.383 -0.6700  0.3424  0.0550
  905MPD2     H13258   2.332   1.059  13.656 -0.0414 -1.6554  0.8006
  905MPD2    H113259   2.310   0.790  13.329 -0.3440 -1.3055  0.5582
  905MPD2    H213260   1.950   0.978  13.477  0.2196  3.0528  0.1054
  905MPD2    H313261   2.063   0.868  13.305  1.5364  0.9111 -2.0984
  905MPD2     N13262   2.461   0.872  13.521  0.2406 -0.5462 -0.0952
  905MPD2    H513263   2.503   0.790  13.477 -1.2630  0.3789 -3.1973
  905MPD2    N113264   2.075   1.099  13.689 -0.2557 -0.3889  0.0562
  905MPD2    H713265   1.974   1.088  13.687 -0.4522  1.8188 -2.3748
  906MPD2     C13266   4.270   1.160  11.780 -0.1354 -0.0441  0.2046
  906MPD2    C113267   4.222   1.078  11.683 -0.2229  0.5623  0.0895
  906MPD2    C213268   4.124   0.988  11.715  0.3300  0.4883 -0.1272
  906MPD2    C313269   4.091   0.960  11.845 -0.3341  0.1961 -0.8195
  906MPD2    C413270   4.152   1.035  11.946  0.7134  0.3632 -0.1978
  906MPD2    C513271   4.233   1.134  11.912 -0.2212  0.8145 -0.4107
  906MPD2     H13272   4.073   0.931  11.638  1.7282 -2.0215  0.8336
  906MPD2    H113273   4.146   1.021  12.053  0.2414 -3.5375 -0.7349
  906MPD2    H213274   4.354   1.228  11.774 -1.8554  1.9882 -0.5553
  906MPD2    H313275   4.280   1.184  11.995 -0.7794  1.2904 -0.3852
  906MPD2     N13276   4.000   0.856  11.868  0.7556 -0.0631  0.1917
  906MPD2    H513277   3.977   0.799  11.787 -0.9123 -1.9828  2.0376
  906MPD2    N113278   4.253   1.098  11.550 -0.1589  0.5582 -0.0964
  906MPD2    H713279   4.212   1.028  11.489 -1.0428  0.3154  0.7705
  907MPD2     C13280   2.849   0.329  15.718 -0.1511  0.6921  0.5590
  907MPD2    C113281   2.920   0.214  15.692 -0.2808 -0.4727 -0.1454
  907MPD2    C213282   3.003   0.151  15.780 -0.1729  1.2253  0.0194
  907MPD2    C313283   3.022   0.204  15.904 -0.3902 -0.3888  1.0013
  907MPD2    C413284   2.956   0.320  15.937  0.0054 -0.3518 -0.3190
  907MPD2    C513285   2.879   0.385  15.844 -0.3279  0.2294  0.2123
  907MPD2     H13286   3.040   0.056  15.745  1.4423  0.7982  2.8143
  907MPD2    H113287   2.971   0.362  16.036  0.2423  1.1359 -0.9958
  907MPD2    H213288   2.795   0.388  15.644 -0.3289  2.0287  1.7597
  907MPD2    H313289   2.827   0.476  15.873  0.8267  1.0757 -0.3904
  907MPD2     N13290   3.093   0.121  15.995  0.8296 -0.4192 -0.6371
  907MPD2    H513291   3.146   0.043  15.957 -0.5047 -1.6465  0.0364
  907MPD2    N113292   2.911   0.156  15.564  0.0354  0.2353  0.7152
  907MPD2    H713293   2.973   0.075  15.564 -1.3037 -0.7933 -1.6173
  908MPD2     C13294   1.228   0.999   9.591 -0.0481  0.0325 -0.1721
  908MPD2    C113295   1.257   0.927   9.706 -0.3521  0.0821 -0.4822
  908MPD2    C213296   1.231   0.977   9.829  0.7343  0.2490 -0.0815
  908MPD2    C313297   1.174   1.100   9.850  0.4812 -0.1983 -0.5997
  908MPD2    C413298   1.155   1.179   9.734  0.0332 -0.2895 -0.6266
  908MPD2    C513299   1.185   1.128   9.605 -0.0551  0.1060 -0.0072
  908MPD2     H13300   1.264   0.926   9.919  1.5046  3.0706  1.2387
  908MPD2    H113301   1.115   1.280   9.732 -1.1908 -0.7666  0.2558
  908MPD2    H213302   1.254   0.956   9.495  2.4080 -2.2976  1.5223
  908MPD2    H313303   1.194   1.192   9.518 -4.0346  1.0956  0.2938
  908MPD2     N13304   1.150   1.137   9.981  0.0404  0.1946  0.4807
  908MPD2    H513305   1.169   1.062  10.046 -2.0984 -0.5191  0.2767
  908MPD2    N113306   1.309   0.795   9.706 -0.1172  0.0176  0.2961
  908MPD2    H713307   1.314   0.736   9.788  1.4155 -0.2874 -0.0182
  909MPD2     C13308   1.616   3.954  11.956 -0.1117 -0.3534  0.0800
  909MPD2    C113309   1.505   3.990  11.891 -0.3378  0.5471  0.4183
  909MPD2    C213310   1.394   4.025  11.967  0.4392  0.0078 -0.1777
  909MPD2    C313311   1.391   4.006  12.105 -0.2086  0.1941  0.1226
  909MPD2    C413312   1.501   3.951  12.164  0.1844  0.2165  0.3089
  909MPD2    C513313   1.608   3.919  12.090  0.7366 -1.2831 -0.6851
  909MPD2     H13314   1.300   4.053  11.919 -0.4086  0.2090  1.6149
  909MPD2    H113315   1.509   3.921  12.268  0.9918 -1.6625 -0.2956
  909MPD2    H213316   1.703   3.933  11.896 -0.3477 -0.8327 -0.0970
  909MPD2    H313317   1.695   3.866  12.128  1.0803 -0.1749  0.0706
  909MPD2     N13318   1.270   4.037  12.168 -0.1319  0.1954  0.3912
  909MPD2    H513319   1.196   4.057  12.102  0.9761 -0.0651 -0.9118
  909MPD2    N113320   1.510   4.018  11.754 -0.0700  0.0379  0.4586
  909MPD2    H713321   1.597   4.000  11.705 -0.2818  0.8825 -0.2371
  910MPD2     C13322   2.737   0.769  16.585 -0.5377 -0.6119 -0.7862
  910MPD2    C113323   2.768   0.671  16.497 -0.1519 -0.5800  0.2023
  910MPD2    C213324   2.698   0.662  16.376  0.2664 -0.5355 -0.7164
  910MPD2    C313325   2.613   0.760  16.346  0.2690 -0.0949  0.6854
  910MPD2    C413326   2.574   0.850  16.433  0.1122 -0.3912  0.4916
  910MPD2    C513327   2.631   0.851  16.557  1.3407 -0.0857 -0.5719
  910MPD2     H13328   2.717   0.578  16.310  1.5678  0.8664 -2.1251
  910MPD2    H113329   2.492   0.918  16.414  0.3480  0.0618  1.1028
  910MPD2    H213330   2.780   0.786  16.683 -0.3935  0.8535 -1.1111
  910MPD2    H313331   2.587   0.928  16.620  1.5030 -0.8068  0.4292
  910MPD2     N13332   2.549   0.762  16.224 -0.5295 -0.5145 -0.1072
  910MPD2    H513333   2.474   0.830  16.230 -0.4575 -0.5493  1.2301
  910MPD2    N113334   2.859   0.574  16.525  0.1585 -0.6126  0.3185
  910MPD2    H713335   2.869   0.498  16.458  0.7243  0.3473 -0.6879
  911MPD2     C13336   0.444   1.141  16.287  0.6393  0.0685  0.0723
  911MPD2    C113337   0.526   1.236  16.344 -0.1772 -0.1208 -1.1646
  911MPD2    C213338   0.499   1.373  16.325  0.0904 -0.6621  0.0145
  911MPD2    C313339   0.385   1.407  16.253  0.2256  0.3955 -0.5020
  911MPD2    C413340   0.305   1.309  16.208 -0.0047  0.5831  0.0867
  911MPD2    C513341   0.334   1.174  16.207  0.8879 -0.2145 -0.8300
  911MPD2     H13342   0.544   1.449  16.387 -0.7060  0.6728 -1.0473
  911MPD2    H113343   0.217   1.341  16.153 -2.5001 -3.2143  1.8113
  911MPD2    H213344   0.471   1.036  16.297  0.8201 -0.0430 -1.5492
  911MPD2    H313345   0.261   1.106  16.163 -0.2559  0.9863 -0.7861
  911MPD2     N13346   0.343   1.543  16.250 -0.5766 -0.3141 -0.6440
  911MPD2    H513347   0.254   1.547  16.201 -0.1242  0.5105 -1.3889
  911MPD2    N113348   0.637   1.189  16.414  0.2238 -0.2053 -0.9197
  911MPD2    H713349   0.649   1.092  16.442  0.9847 -0.2247 -1.3187
  912MPD2     C13350   4.663   1.465  15.998  0.3467  0.3454 -0.3592
  912MPD2    C113351   4.683   1.547  16.109 -0.4201 -0.1216  0.6798
  912MPD2    C213352   4.704   1.483  16.233 -0.0462 -0.8450  0.1231
  912MPD2    C313353   4.687   1.343  16.234 -0.1189  0.8583  0.6745
  912MPD2    C413354   4.655   1.270  16.125 -0.3902 -0.4733 -0.1514
  912MPD2    C513355   4.646   1.329  16.006 -0.1458  1.0717 -0.3519
  912MPD2     H13356   4.721   1.538  16.325  0.5258  0.6568 -0.8765
  912MPD2    H113357   4.637   1.163  16.126 -0.0060 -0.5440 -2.0692
  912MPD2    H213358   4.650   1.510  15.900  2.9824  0.9101 -0.4542
  912MPD2    H313359   4.617   1.277  15.915  0.3824  1.8686 -0.9674
  912MPD2     N13360   4.725   1.272  16.355  0.4418  0.2335  0.4605
  912MPD2    H513361   0.031   1.335  16.428 -0.7141  0.9938  0.2867
  912MPD2    N113362   4.694   1.690  16.092  0.0700 -0.0995  0.2629
  912MPD2    H713363   4.694   1.726  15.997  2.2665 -0.7594  0.0233
  913MPD2     C13364   1.267   3.155  11.166 -0.3944 -0.1106 -0.2054
  913MPD2    C113365   1.362   3.166  11.063  0.3280  0.2952 -0.3514
  913MPD2    C213366   1.329   3.133  10.931  0.3700  0.5229  0.2840
  913MPD2    C313367   1.192   3.102  10.904 -0.6745 -0.7806 -0.5219
  913MPD2    C413368   1.099   3.089  11.003 -0.1093 -0.2233 -0.4492
  913MPD2    C513369   1.141   3.105  11.137  0.1278  0.4547  0.2167
  913MPD2     H13370   1.404   3.114  10.856 -0.7332 -2.0312 -0.1586
  913MPD2    H113371   0.996   3.061  10.982 -0.0083 -1.9772  1.3504
  913MPD2    H213372   1.293   3.177  11.269 -0.6471 -3.3130  0.5459
  913MPD2    H313373   1.068   3.101  11.217  0.2683 -0.2624  0.3056
  913MPD2     N13374   1.152   3.093  10.767  0.5808 -0.4399 -0.2330
  913MPD2    H513375   1.053   3.081  10.745  0.0323  1.0279  1.3602
  913MPD2    N113376   1.497   3.202  11.097 -0.4816 -0.3148  0.4226
  913MPD2    H713377   1.508   3.221  11.196  3.9024 -0.4907 -0.0050
  914MPD2     C13378   3.118   2.574  12.138 -1.1603  0.8654 -0.2407
  914MPD2    C113379   3.146   2.711  12.154  0.3017  0.3717  0.0510
  914MPD2    C213380   3.207   2.748  12.271  1.0222  0.1119 -0.1113
  914MPD2    C313381   3.230   2.650  12.364  0.1461 -0.4383  1.0597
  914MPD2    C413382   3.190   2.519  12.351 -0.1481 -0.0921 -0.4108
  914MPD2    C513383   3.130   2.477  12.237  0.1885 -0.3176  0.0817
  914MPD2     H13384   3.228   2.852  12.293  1.3069 -0.1232  0.7263
  914MPD2    H113385   3.204   2.454  12.436 -0.8865 -0.0590 -0.2642
  914MPD2    H213386   3.073   2.536  12.046 -0.2721  0.5952 -0.5620
  914MPD2    H313387   3.092   2.376  12.227  0.3588 -0.3649 -0.1072
  914MPD2     N13388   3.313   2.697  12.462 -0.0989  0.2840 -0.0540
  914MPD2    H513389   3.342   2.794  12.464  0.0708  0.2099  1.1682
  914MPD2    N113390   3.113   2.803  12.054  0.2683 -0.3986 -0.2731
  914MPD2    H713391   3.094   2.760  11.964  0.8387  1.3470 -1.2318
  915MPD2     C13392   1.729   2.462  15.488  0.0021 -0.0630  0.9740
  915MPD2    C113393   1.650   2.571  15.454 -0.1481 -0.0658  0.1865
  915MPD2    C213394   1.585   2.649  15.553  0.3034 -0.0078 -0.3698
  915MPD2    C313395   1.585   2.596  15.679  0.1498  0.4239  0.1412
  915MPD2    C413396   1.653   2.481  15.712  0.3743 -0.1980 -0.0431
  915MPD2    C513397   1.721   2.417  15.614  0.0300 -0.0169 -0.8371
  915MPD2     H13398   1.530   2.734  15.514  1.7839  0.4978 -1.3889
  915MPD2    H113399   1.640   2.427  15.805 -0.0061 -0.4443 -0.2391
  915MPD2    H213400   1.792   2.419  15.410 -0.2369 -1.3204  1.4771
  915MPD2    H313401   1.767   2.320  15.629  1.7111  0.8805 -0.2456
  915MPD2     N13402   1.507   2.666  15.773 -0.0526  0.2621 -0.1480
  915MPD2    H513403   1.453   2.747  15.743 -0.6708  0.1953  0.7891
  915MPD2    N113404   1.634   2.595  15.318 -0.2957 -1.3170 -0.5389
  915MPD2    H713405   1.659   2.514  15.262  0.6776 -1.3228 -0.0986
  916MPD2     C13406   0.082   0.884  16.061 -0.0998 -0.6432  0.1860
  916MPD2    C113407   0.027   0.779  16.129 -0.7547  0.1579 -1.1230
  916MPD2    C213408   0.053   0.660  16.070 -0.3874 -0.0120  0.5203
  916MPD2    C313409   0.138   0.644  15.961  0.5527  0.4050  1.4580
  916MPD2    C413410   0.200   0.749  15.904  0.0761  1.2164  0.1729
  916MPD2    C513411   0.159   0.872  15.945 -0.7101 -0.8031  0.5254
  916MPD2     H13412   4.718   0.578  16.109  0.7600 -0.3947  1.4722
  916MPD2    H113413   0.259   0.736  15.814 -1.3175 -1.7767 -0.2788
  916MPD2    H213414   0.054   0.983  16.095  0.1651 -0.0455 -1.3547
  916MPD2    H313415   0.190   0.965  15.898  1.0500 -1.5121  0.2822
  916MPD2     N13416   0.154   0.509  15.921 -0.2081 -0.1746 -0.4041
  916MPD2    H513417   0.116   0.428  15.970  1.6312 -0.3258  0.7653
  916MPD2    N113418   4.654   0.802  16.238 -0.1474  0.3918 -0.0643
  916MPD2    H713419   4.638   0.898  16.265 -0.4842  0.3854 -0.2457
  917MPD2     C13420   0.104   3.372  11.125  0.3868 -0.5242 -0.3373
  917MPD2    C113421   0.175   3.445  11.226  0.1260 -0.0648 -0.8396
  917MPD2    C213422   0.276   3.529  11.190 -0.5303 -0.0619  0.0294
  917MPD2    C313423   0.308   3.541  11.056  0.1945 -0.9939  0.2063
  917MPD2    C413424   0.240   3.484  10.954  0.0793  0.0444 -0.0803
  917MPD2    C513425   0.136   3.395  10.991  0.2677  0.6931 -0.0154
  917MPD2     H13426   0.326   3.590  11.264 -0.5752 -0.0336  0.0358
  917MPD2    H113427   0.273   3.499  10.852 -1.3297 -0.5038 -0.6134
  917MPD2    H213428   0.020   3.307  11.149 -0.5698  0.9117  0.2190
  917MPD2    H313429   0.080   3.343  10.914  0.9526 -0.6170  0.3662
  917MPD2     N13430   0.420   3.621  11.015  0.2392  0.3330 -0.3724
  917MPD2    H513431   0.420   3.646  10.917 -0.8172  0.4137 -0.3583
  917MPD2    N113432   0.133   3.426  11.354  0.0911 -0.4147 -0.3086
  917MPD2    H713433   0.057   3.361  11.369  0.8188 -1.2209 -0.1125
  918MPD2     C13434   0.346   3.882  12.266  0.4137  0.3940 -0.2282
  918MPD2    C113435   0.431   3.779  12.222 -0.2311  0.2818  0.2970
  918MPD2    C213436   0.389   3.703  12.117  0.6644 -0.2360  0.5350
  918MPD2    C313437   0.262   3.725  12.059 -0.6022 -0.4131  1.2054
  918MPD2    C413438   0.175   3.817  12.108 -0.3888 -0.3926 -0.1434
  918MPD2    C513439   0.216   3.891  12.217  0.8110  0.2240 -0.1571
  918MPD2     H13440   0.453   3.627  12.072 -3.4309 -1.8025 -2.6364
  918MPD2    H113441   0.076   3.835  12.069 -0.3544  1.4109  0.5960
  918MPD2    H213442   0.357   3.951  12.348  0.6633  0.2040 -0.1008
  918MPD2    H313443   0.158   3.973  12.259 -0.0133 -1.0787  1.2700
  918MPD2     N13444   0.231   3.634  11.959 -0.1226  0.1370  0.3583
  918MPD2    H513445   0.308   3.584  11.917 -0.3326 -0.0410  0.1831
  918MPD2    N113446   0.554   3.745  12.285 -0.1230 -0.3233  1.0580
  918MPD2    H713447   0.596   3.658  12.254 -2.4852 -0.9776 -0.3301
  919MPD2     C13448   1.124   2.485  11.854 -0.0728  0.0378 -0.5887
  919MPD2    C113449   1.171   2.369  11.795  0.2441  0.1790 -0.6053
  919MPD2    C213450   1.234   2.363  11.671  0.4401 -0.1119 -0.2169
  919MPD2    C313451   1.240   2.480  11.593  0.6093 -0.1405 -0.7138
  919MPD2    C413452   1.200   2.602  11.658 -0.0601 -0.2481  0.7858
  919MPD2    C513453   1.138   2.596  11.781 -1.3358  0.4658  0.6109
  919MPD2     H13454   1.258   2.268  11.624  0.2984 -0.4020  0.3011
  919MPD2    H113455   1.203   2.698  11.608 -0.0166 -0.7707 -0.2210
  919MPD2    H213456   1.086   2.489  11.955 -2.2221 -2.2812 -1.2951
  919MPD2    H313457   1.119   2.693  11.825  0.6491  0.4974  1.3854
  919MPD2     N13458   1.271   2.484  11.456 -0.1422 -0.1417 -0.4778
  919MPD2    H513459   1.255   2.573  11.409  2.7214 -0.5574 -2.2810
  919MPD2    N113460   1.148   2.242  11.863 -0.2137  0.2375 -0.0641
  919MPD2    H713461   1.199   2.162  11.827  1.6339  1.7747 -0.9103
  920MPD2     C13462   0.707   2.917  10.828 -0.1755  0.2171 -0.3738
  920MPD2    C113463   0.714   2.803  10.759  0.3008  0.9344 -0.5690
  920MPD2    C213464   0.790   2.699  10.807  0.4875 -0.5131  0.0601
  920MPD2    C313465   0.872   2.715  10.915  1.0304  0.4014 -0.4954
  920MPD2    C413466   0.855   2.829  10.995  0.0367  0.0956 -0.0460
  920MPD2    C513467   0.779   2.926  10.939 -0.3957 -0.6550  0.2098
  920MPD2     H13468   0.794   2.607  10.750  1.3818 -0.3292 -0.1850
  920MPD2    H113469   0.900   2.844  11.093  1.3976  1.8791 -0.9290
  920MPD2    H213470   0.672   3.013  10.791  0.3090  0.1010 -1.1222
  920MPD2    H313471   0.750   3.015  10.993 -0.4688 -0.9394  0.6434
  920MPD2     N13472   0.966   2.617  10.948  0.2653  0.2190  0.5027
  920MPD2    H513473   0.990   2.552  10.874  0.2591  2.0429 -1.0809
  920MPD2    N113474   0.633   2.783  10.651  0.6063 -0.3184  0.4321
  920MPD2    H713475   0.647   2.696  10.599 -0.5965 -0.0582 -0.3359
  921MPD2     C13476   1.583   1.607  16.637 -0.4289 -0.1061 -0.2035
  921MPD2    C113477   1.550   1.537  16.521  0.4835  0.4403  0.1235
  921MPD2    C213478   1.428   1.472  16.522 -0.1886 -0.9627 -0.2077
  921MPD2    C313479   1.350   1.454  16.640 -0.3587  0.2124  0.1082
  921MPD2    C413480   1.390   1.529  16.745  0.1074 -0.3848 -0.1172
  921MPD2    C513481   1.506   1.601  16.749  0.4206  0.3661 -0.3257
  921MPD2     H13482   1.389   1.440  16.426 -0.4805 -3.5267  0.7490
  921MPD2    H113483   1.331   1.528  16.836  0.5587 -0.4366  0.1742
  921MPD2    H213484   1.678   1.659  16.644 -0.3150 -0.2176 -1.0372
  921MPD2    H313485   1.534   1.670  16.828 -1.7144  0.7954  0.0546
  921MPD2     N13486   1.231   1.381  16.649 -0.2358  0.3451  0.6033
  921MPD2    H513487   1.163   1.388  16.724 -0.4341 -1.1978  0.5549
  921MPD2    N113488   1.646   1.529  16.416 -0.4835  0.1109 -0.4433
  921MPD2    H713489   1.729   1.584  16.435  0.2763 -0.8384 -1.0052
  922MPD2     C13490   2.485   3.643  17.151  0.4405 -0.2491  0.3267
  922MPD2    C113491   2.414   3.754  17.191  0.1476  0.1386 -0.3108
  922MPD2    C213492   2.293   3.737  17.254 -0.1485  1.1988 -0.6425
  922MPD2    C313493   2.227   3.615  17.274  0.2258  1.1485  0.2039
  922MPD2    C413494   2.296   3.503  17.233  0.2322 -0.0828 -0.5541
  922MPD2    C513495   2.418   3.523  17.169 -0.4216 -0.3193  0.1064
  922MPD2     H13496   2.246   3.825  17.296  2.6149  1.2275  2.3654
  922MPD2    H113497   2.266   3.401  17.254 -1.2580  0.7984  1.5716
  922MPD2    H213498   2.590   3.647  17.125  0.2700  0.8145 -0.1827
  922MPD2    H313499   2.472   3.434  17.140 -0.3345  1.3823 -4.8038
  922MPD2     N13500   2.099   3.621  17.336 -0.0828  0.2565  0.4922
  922MPD2    H513501   2.061   3.715  17.347 -0.6289  0.0433  0.4168
  922MPD2    N113502   2.463   3.889  17.177  0.3196 -0.2823 -0.0656
  922MPD2    H713503   2.404   3.959  17.220 -1.3850 -2.0663  0.5365
  923MPD2     C13504   3.870   0.806   9.199  0.4544 -0.7093  0.4786
  923MPD2    C113505   3.830   0.930   9.234 -0.4181 -0.3546  0.8001
  923MPD2    C213506   3.915   1.011   9.313  0.2081  0.4592  0.1928
  923MPD2    C313507   4.040   0.969   9.340 -0.4130 -0.6809  0.5762
  923MPD2    C413508   4.084   0.851   9.297 -0.4716 -0.3207  0.2060
  923MPD2    C513509   3.998   0.768   9.237 -0.0043  0.1547  0.1818
  923MPD2     H13510   3.889   1.107   9.356  2.3086  0.5206  1.3318
  923MPD2    H113511   4.176   0.798   9.316  0.4530  0.6025 -1.7257
  923MPD2    H213512   3.820   0.741   9.128  3.4396 -0.0135 -2.2736
  923MPD2    H313513   4.036   0.675   9.196 -2.2869 -0.8169  0.2886
  923MPD2     N13514   4.135   1.053   9.408  0.3730  0.6131  0.1952
  923MPD2    H513515   4.228   1.013   9.413 -0.0855 -0.6957 -1.7496
  923MPD2    N113516   3.702   0.976   9.198  0.4849  0.1291 -0.2707
  923MPD2    H713517   3.657   0.908   9.137  0.4037 -0.1297  0.0767
  924MPD2     C13518   3.345   4.008  16.390  0.2172 -0.0362  0.4387
  924MPD2    C113519   3.447   4.107  16.380  0.4892  0.5411 -0.2602
  924MPD2    C213520   3.434   4.223  16.300 -0.4195 -0.7359  0.0466
  924MPD2    C313521   3.310   4.256  16.243 -0.1166  0.9112 -0.1935
  924MPD2    C413522   3.209   4.171  16.273 -0.5843  0.0414 -0.4029
  924MPD2    C513523   3.228   4.048  16.325 -0.5021  0.2390 -0.0623
  924MPD2     H13524   3.518   4.292  16.289  0.4563 -1.7083  0.6230
  924MPD2    H113525   3.107   4.198  16.246 -0.1121  0.7375 -1.4818
  924MPD2    H213526   3.345   3.920  16.452 -1.8855  0.1965  0.7722
  924MPD2    H313527   3.139   3.987  16.334  0.4610 -0.9787  1.2994
  924MPD2     N13528   3.282   4.375  16.171  0.4679  0.2480  0.8423
  924MPD2    H513529   3.184   4.404  16.170  0.9420  1.8193  0.1227
  924MPD2    N113530   3.562   4.087  16.463 -0.3700 -0.8440  0.1481
  924MPD2    H713531   3.550   4.001  16.516 -2.7497  0.7602  2.1822
  925MPD2     C13532   2.598   1.915  14.705  0.7149  0.5914 -0.4141
  925MPD2    C113533   2.491   2.005  14.680  0.0024 -0.3660  0.2103
  925MPD2    C213534   2.455   2.090  14.786 -0.4447 -0.0580  0.0529
  925MPD2    C313535   2.529   2.081  14.907  0.2310  0.2593 -0.5272
  925MPD2    C413536   2.619   1.984  14.927 -0.4065 -0.0070  0.0841
  925MPD2    C513537   2.653   1.903  14.829 -0.2672  0.3889  0.3040
  925MPD2     H13538   2.372   2.156  14.762  1.1416  1.9466  0.0584
  925MPD2    H113539   2.656   1.970  15.028 -0.0360  0.9882  0.0908
  925MPD2    H213540   2.632   1.840  14.634 -1.5663  0.0796 -0.9738
  925MPD2    H313541   2.733   1.832  14.843 -0.3638  0.0361 -0.9157
  925MPD2     N13542   2.485   2.169  15.016 -0.1745 -0.0913  0.3190
  925MPD2    H513543   2.515   2.144  15.110  0.7940 -0.0468  0.0218
  925MPD2    N113544   2.427   2.013  14.551  0.1017 -0.0491 -0.1462
  925MPD2    H713545   2.339   2.063  14.552 -0.6910 -1.4608  1.2047
  926MPD2     C13546   1.021   0.365  13.626 -0.1677 -0.3978 -0.3448
  926MPD2    C113547   0.887   0.399  13.606  0.1883 -0.2811  0.1586
  926MPD2    C213548   0.852   0.474  13.495 -0.5325  0.2102 -0.3372
  926MPD2    C313549   0.956   0.533  13.417  0.2319 -0.0872 -0.0398
  926MPD2    C413550   1.086   0.510  13.445  0.2032  0.2261 -0.1546
  926MPD2    C513551   1.116   0.431  13.552 -0.0600  0.1545  0.0702
  926MPD2     H13552   0.745   0.489  13.483 -0.9284 -1.3058  1.2673
  926MPD2    H113553   1.162   0.562  13.387  1.0471 -0.4619  0.3311
  926MPD2    H213554   1.062   0.305  13.706 -0.1985 -0.9642 -0.7566
  926MPD2    H313555   1.217   0.404  13.581  0.0429 -1.3447 -1.7030
  926MPD2     N13556   0.936   0.619  13.301 -0.4337  0.5464 -0.6279
  926MPD2    H513557   1.005   0.685  13.266  0.7791  0.4647  1.5920
  926MPD2    N113558   0.788   0.362  13.702  0.0138 -0.4084  1.4983
  926MPD2    H713559   0.701   0.412  13.687  0.7793  0.5509  0.2389
  927MPD2     C13560   0.673   2.146   0.298  0.1655  0.1411  0.4633
  927MPD2    C113561   0.758   2.250   0.256 -0.6854 -0.7741  0.1331
  927MPD2    C213562   0.869   2.217   0.175 -0.4037  0.2593  0.3788
  927MPD2    C313563   0.909   2.086   0.165 -0.1477 -0.4251 -0.8699
  927MPD2    C413564   0.833   1.987   0.228  0.2405 -0.5389  0.5076
  927MPD2    C513565   0.714   2.014   0.292  0.2046  0.4379  0.7430
  927MPD2     H13566   0.933   2.291   0.128  1.5056 -2.1118 -0.7683
  927MPD2    H113567   0.863   1.883   0.234 -1.6016 -1.0515  0.6929
  927MPD2    H213568   0.589   2.171   0.362  0.3523  1.7105  0.1006
  927MPD2    H313569   0.649   1.943   0.342  0.6468  0.5061  1.4132
  927MPD2     N13570   1.022   2.056   0.095 -0.5245 -0.2138  0.4069
  927MPD2    H513571   1.071   2.135   0.052  0.0903 -2.5110 -3.1325
  927MPD2    N113572   0.715   2.377   0.282  0.6236  0.3467 -0.2574
  927MPD2    H713573   0.635   2.391   0.343 -0.2474 -1.1717 -1.0672
  928MPD2     C13574   3.711   1.013   1.203 -0.3655  0.3415  0.9159
  928MPD2    C113575   3.845   1.023   1.229 -0.3510 -0.0001 -0.4058
  928MPD2    C213576   3.926   1.067   1.133 -0.1385  0.3933 -0.0700
  928MPD2    C313577   3.874   1.105   1.011  0.3485 -0.1542 -0.3443
  928MPD2    C413578   3.733   1.105   0.984 -0.1935 -0.2116 -0.6098
  928MPD2    C513579   3.656   1.050   1.081 -0.5249 -0.3285  0.3867
  928MPD2     H13580   4.033   1.079   1.149 -0.4808  3.2458 -0.0100
  928MPD2    H113581   3.694   1.142   0.890 -0.5801 -1.6064 -1.0133
  928MPD2    H213582   3.642   0.977   1.278 -1.4987  0.5422 -0.0244
  928MPD2    H313583   3.554   1.034   1.046 -0.3882 -0.2643 -0.0423
  928MPD2     N13584   3.947   1.155   0.901 -0.4302 -0.5128 -0.0954
  928MPD2    H513585   3.893   1.159   0.815  0.2239 -1.9985 -0.5895
  928MPD2    N113586   3.888   0.974   1.352  1.1726 -1.0433  0.0929
  928MPD2    H713587   3.815   0.949   1.418  0.4012 -0.6068 -0.5977
  929MPD2     C13588   3.923   1.210  10.492 -0.5149  0.0420  0.4553
  929MPD2    C113589   3.806   1.139  10.484 -0.0974  0.3715  0.3621
  929MPD2    C213590   3.718   1.155  10.380  0.0527 -0.0551  0.1233
  929MPD2    C313591   3.744   1.259  10.290 -0.1798 -1.0170  0.2736
  929MPD2    C413592   3.857   1.335  10.302 -0.2873  0.1370  1.0316
  929MPD2    C513593   3.948   1.312  10.400 -0.0335  0.0575  0.3092
  929MPD2     H13594   3.613   1.127  10.385  0.1765  0.3510  4.4947
  929MPD2    H113595   3.875   1.429  10.252  1.6917 -2.1546 -2.5729
  929MPD2    H213596   3.995   1.185  10.568 -0.9051 -0.9615  0.4882
  929MPD2    H313597   4.034   1.378  10.413 -0.0562  0.9860 -4.1523
  929MPD2     N13598   3.655   1.292  10.185 -0.3876 -0.1108  0.4399
  929MPD2    H513599   3.674   1.377  10.134 -1.7280  0.0602  0.2243
  929MPD2    N113600   3.776   1.049  10.587  0.1789  0.3037 -0.2235
  929MPD2    H713601   3.844   1.053  10.662  1.5376 -1.0307 -1.4022
  930MPD2     C13602   0.692   3.308  14.316 -0.2783 -0.3806  0.1952
  930MPD2    C113603   0.576   3.359  14.270  0.1415  0.1252 -0.4429
  930MPD2    C213604   0.486   3.276  14.209  0.4467 -0.0733 -0.5128
  930MPD2    C313605   0.521   3.144  14.187 -0.6954  0.0715  0.3207
  930MPD2    C413606   0.639   3.090  14.235  0.4331  0.0640  0.3260
  930MPD2    C513607   0.717   3.173  14.311  0.3573 -0.3820  0.6613
  930MPD2     H13608   0.394   3.322  14.178 -1.3563 -4.8471 -2.2771
  930MPD2    H113609   0.669   2.987  14.226 -1.7802 -0.6057  0.4456
  930MPD2    H213610   0.766   3.373  14.361 -1.3714  2.0280 -1.4957
  930MPD2    H313611   0.807   3.148  14.366  0.5174 -2.2917 -0.4664
  930MPD2     N13612   0.444   3.058  14.107 -0.4679 -0.3627  0.3971
  930MPD2    H513613   0.485   2.966  14.091  0.2297 -0.0651  0.4510
  930MPD2    N113614   0.561   3.498  14.267  0.3430 -0.1238 -0.1314
  930MPD2    H713615   0.639   3.549  14.306  0.9993  0.8482 -2.7561
  931MPD2     C13616   1.185   2.644   0.651  0.8465 -0.5220  0.4295
  931MPD2    C113617   1.062   2.711   0.673 -0.3554 -0.4765 -0.1389
  931MPD2    C213618   1.040   2.762   0.802 -0.0201  0.0978 -0.1383
  931MPD2    C313619   1.125   2.729   0.912 -0.7805  0.3257  0.4022
  931MPD2    C413620   1.235   2.656   0.893 -0.4119  0.2594  0.0948
  931MPD2    C513621   1.262   2.614   0.766  0.3137 -0.2537  0.6859
  931MPD2     H13622   0.943   2.800   0.832  0.1109  2.1585 -2.3382
  931MPD2    H113623   1.286   2.627   0.984  1.1427  1.0991 -0.4979
  931MPD2    H213624   1.214   2.613   0.551  1.0640 -0.0903  0.3585
  931MPD2    H313625   1.348   2.553   0.741 -0.9298 -2.3501  1.5134
  931MPD2     N13626   1.080   2.744   1.045  0.6966 -0.3416  0.4603
  931MPD2    H513627   1.129   2.690   1.115  0.4158 -1.5610 -0.2781
  931MPD2    N113628   0.966   2.728   0.567 -0.0659 -0.1275 -0.1578
  931MPD2    H713629   0.994   2.682   0.481  1.2966 -2.0126  1.3019
  932MPD2     C13630   2.144   2.251  11.147 -0.2845 -0.1050 -0.2149
  932MPD2    C113631   2.257   2.308  11.088 -0.0150  0.5762 -0.1816
  932MPD2    C213632   2.360   2.225  11.049 -0.2318  0.1458  0.1507
  932MPD2    C313633   2.346   2.090  11.054  0.3437 -0.7368  0.1656
  932MPD2    C413634   2.229   2.029  11.095 -0.1426  0.2023 -0.0679
  932MPD2    C513635   2.125   2.114  11.136 -0.3755  0.3624 -0.1379
  932MPD2     H13636   2.452   2.278  11.029 -0.7139  0.6917 -0.5900
  932MPD2    H113637   2.218   1.922  11.079 -1.6106  0.1331  1.3781
  932MPD2    H213638   2.058   2.309  11.179 -0.6910 -0.9775  0.2879
  932MPD2    H313639   2.032   2.069  11.170 -0.4617  0.9581  0.4339
  932MPD2     N13640   2.456   2.009  11.024  0.4003  0.7384 -0.0043
  932MPD2    H513641   2.432   1.910  11.022 -0.6062  0.9946 -0.2953
  932MPD2    N113642   2.279   2.443  11.079  0.3772 -0.1276 -0.5277
  932MPD2    H713643   2.371   2.473  11.048  1.5664 -1.2561  1.8834
  933MPD2     C13644   3.594   0.427   1.685  0.2043  0.0213  0.3464
  933MPD2    C113645   3.613   0.550   1.629 -0.3310  0.1261 -0.8110
  933MPD2    C213646   3.516   0.617   1.564 -0.0475 -0.0767 -0.8541
  933MPD2    C313647   3.389   0.564   1.560 -0.3900 -0.5393 -0.9203
  933MPD2    C413648   3.370   0.440   1.615 -0.0050  0.0668 -0.3989
  933MPD2    C513649   3.467   0.372   1.685 -0.6212 -0.6280 -0.0739
  933MPD2     H13650   3.540   0.714   1.522  0.4052 -0.5473 -1.6893
  933MPD2    H113651   3.269   0.399   1.611 -0.2842  0.8129 -1.0128
  933MPD2    H213652   3.672   0.362   1.722  0.8080  0.8222  0.4842
  933MPD2    H313653   3.443   0.280   1.736  2.2044 -2.0021 -1.2224
  933MPD2     N13654   3.287   0.642   1.506  0.1443  0.0540 -0.0712
  933MPD2    H513655   3.309   0.737   1.478 -0.7340  0.8504  1.9765
  933MPD2    N113656   3.743   0.609   1.608  0.1021 -0.2617  0.7803
  933MPD2    H713657   3.745   0.698   1.560  1.4616 -0.5216  0.3499
  934MPD2     C13658   4.092   3.260   1.978 -0.0205 -0.1618  0.4801
  934MPD2    C113659   4.202   3.241   1.893  0.5032  0.3040 -0.1362
  934MPD2    C213660   4.178   3.175   1.773  0.3023  0.6959 -0.3644
  934MPD2    C313661   4.053   3.131   1.732  0.3442 -0.1692  0.0293
  934MPD2    C413662   3.944   3.154   1.825 -0.4992  0.5662  0.1383
  934MPD2    C513663   3.966   3.216   1.939  0.5056 -0.7345 -0.7740
  934MPD2     H13664   4.260   3.167   1.702 -1.1128  0.2612 -1.9666
  934MPD2    H113665   3.846   3.109   1.812  0.1232 -0.1297 -2.2198
  934MPD2    H213666   4.096   3.303   2.078 -0.5274  2.9630 -0.8273
  934MPD2    H313667   3.883   3.231   2.007  2.1082  0.2897  0.9727
  934MPD2     N13668   4.016   3.050   1.622  0.0766 -0.1548 -0.1702
  934MPD2    H513669   3.918   3.047   1.596 -0.3393 -0.3777  1.3930
  934MPD2    N113670   4.333   3.275   1.928 -0.4231  0.5175  0.0131
  934MPD2    H713671   4.410   3.252   1.867 -0.2191 -0.0578  0.4913
  935MPD2     C13672   4.657   2.728   0.909  0.3758 -0.3526  0.4079
  935MPD2    C113673   4.540   2.656   0.882 -0.1666  0.3137 -0.2048
  935MPD2    C213674   4.420   2.702   0.951  0.3856 -0.4929  0.2783
  935MPD2    C313675   4.426   2.801   1.051  0.1114 -0.1046  0.4484
  935MPD2    C413676   4.539   2.871   1.074 -0.1281  0.2826 -0.7581
  935MPD2    C513677   4.653   2.835   1.001 -0.0760  0.1907  0.1536
  935MPD2     H13678   4.332   2.639   0.944 -0.0882  0.2290 -0.2748
  935MPD2    H113679   4.539   2.957   1.140  1.8132 -1.3395  1.3399
  935MPD2    H213680   0.026   2.710   0.857 -0.3169  0.6372 -1.1802
  935MPD2    H313681   0.017   2.894   1.019  0.6172 -0.6316 -0.6326
  935MPD2     N13682   4.310   2.844   1.127  0.2991  0.1072 -0.3553
  935MPD2    H513683   4.309   2.925   1.187 -0.4125 -0.7002  0.7305
  935MPD2    N113684   4.535   2.545   0.796  0.4195  0.3836  0.1528
  935MPD2    H713685   4.446   2.519   0.756  1.6281 -0.0605 -2.2148
  936MPD2     C13686   2.874   0.327  12.581 -0.4756 -0.4082 -0.2290
  936MPD2    C113687   2.915   0.253  12.690  0.4745  0.3334  0.8804
  936MPD2    C213688   3.036   0.188  12.690 -0.1160 -0.1328  0.3313
  936MPD2    C313689   3.124   0.211  12.586 -0.0339 -0.9079 -0.2211
  936MPD2    C413690   3.097   0.298  12.485  0.6726 -0.0223  0.4717
  936MPD2    C513691   2.963   0.344  12.476 -0.5630 -0.2807  0.1831
  936MPD2     H13692   3.079   0.143  12.779  0.5147  1.1597  0.6876
  936MPD2    H113693   3.164   0.314  12.401 -0.5738  0.8880 -0.3598
  936MPD2    H213694   2.780   0.380  12.573  0.1705  0.6146 -1.0033
  936MPD2    H313695   2.939   0.419  12.402 -4.9700 -0.6264  1.2665
  936MPD2     N13696   3.255   0.163  12.610 -0.6864 -0.5550 -0.5354
  936MPD2    H513697   3.261   0.127  12.705 -0.9401 -0.4096 -0.4649
  936MPD2    N113698   2.843   0.246  12.811  0.0452  0.3899 -0.5723
  936MPD2    H713699   2.871   0.175  12.878 -0.0025  2.1502  1.3262
  937MPD2     C13700   1.224   1.556  11.744  0.2284  0.5310 -0.4154
  937MPD2    C113701   1.291   1.678  11.760  0.1359 -0.5724  0.6161
  937MPD2    C213702   1.359   1.732  11.651 -0.1337 -0.1954 -0.1613
  937MPD2    C313703   1.398   1.651  11.546  0.6883 -0.1102 -0.4423
  937MPD2    C413704   1.341   1.526  11.535 -0.3252 -0.1073 -0.1111
  937MPD2    C513705   1.260   1.482  11.636 -0.1342 -0.4205  0.3652
  937MPD2     H13706   1.382   1.838  11.658 -0.9351 -0.0682  0.5707
  937MPD2    H113707   1.346   1.466  11.445  1.8716 -0.5908  0.3405
  937MPD2    H213708   1.159   1.521  11.824 -1.9922  2.4506 -1.3970
  937MPD2    H313709   1.220   1.381  11.627  0.9824 -0.9183  0.9645
  937MPD2     N13710   1.472   1.720  11.449  0.6932  0.4893 -0.3346
  937MPD2    H513711   1.488   1.819  11.464 -1.2312  0.4760  1.9051
  937MPD2    N113712   1.254   1.774  11.864 -0.2224 -0.2986 -0.0389
  937MPD2    H713713   1.291   1.868  11.851  1.5259 -0.8253  1.1626
  938MPD2     C13714   3.480   2.358   0.476 -1.2135 -0.4668  0.0300
  938MPD2    C113715   3.511   2.446   0.579  0.9698  0.3516 -0.1745
  938MPD2    C213716   3.503   2.407   0.716  0.2544  0.0532 -0.1292
  938MPD2    C313717   3.443   2.282   0.750 -0.0114 -0.0819  0.3252
  938MPD2    C413718   3.417   2.191   0.644 -0.1669 -0.4915 -0.4349
  938MPD2    C513719   3.451   2.226   0.510  1.3305  0.7254  0.5598
  938MPD2     H13720   3.520   2.482   0.792 -0.2004 -1.4299  1.4243
  938MPD2    H113721   3.381   2.092   0.670 -1.5417  0.0962 -0.0897
  938MPD2    H213722   3.471   2.384   0.371 -1.8692  0.0498  0.2161
  938MPD2    H313723   3.436   2.146   0.438 -2.4834  3.2419 -1.4616
  938MPD2     N13724   3.395   2.251   0.880  0.2729  0.0379 -0.9461
  938MPD2    H513725   3.346   2.163   0.892  1.3044 -0.2659  0.9651
  938MPD2    N113726   3.528   2.584   0.570 -0.0941  0.8936  0.1152
  938MPD2    H713727   3.534   2.639   0.655 -0.5221 -0.4725  1.0263
  939MPD2     C13728   4.482   3.381   0.443  0.1507  0.0464 -0.8973
  939MPD2    C113729   4.498   3.492   0.358  0.5060 -0.4506  0.2378
  939MPD2    C213730   4.583   3.485   0.245  0.3133 -0.0840  0.2523
  939MPD2    C313731   4.673   3.385   0.232  0.7178 -0.1553 -0.2184
  939MPD2    C413732   4.658   3.279   0.321 -0.2967 -0.8456 -0.3320
  939MPD2    C513733   4.566   3.275   0.422  0.4370  0.3404 -0.2926
  939MPD2     H13734   4.597   3.554   0.163 -0.6291 -0.3124 -0.1085
  939MPD2    H113735   0.007   3.200   0.317 -0.4519 -1.0899  1.6773
  939MPD2    H213736   4.405   3.375   0.519  1.0000 -2.9793 -0.3094
  939MPD2    H313737   4.571   3.193   0.493  0.9790  0.3621 -0.3061
  939MPD2     N13738   0.037   3.378   0.121 -0.3763  0.1419 -0.0679
  939MPD2    H513739   0.021   3.437   0.041 -1.1755  0.9314  0.6779
  939MPD2    N113740   4.414   3.601   0.390  0.1273 -0.3057  0.3042
  939MPD2    H713741   4.373   3.594   0.482  2.5603 -1.7149  1.2783
  940MPD2     C13742   3.734   0.222  13.404  0.0088 -0.6155 -0.0899
  940MPD2    C113743   3.723   0.082  13.411 -0.1165  0.1314 -0.2790
  940MPD2    C213744   3.737   4.723  13.300  0.4000  0.5994 -0.2175
  940MPD2    C313745   3.747   0.062  13.178 -0.1426 -0.3135  0.6393
  940MPD2    C413746   3.745   0.202  13.170  0.4124  0.0996 -0.0498
  940MPD2    C513747   3.750   0.283  13.280  0.0919 -0.0355  0.1184
  940MPD2     H13748   3.744   4.616  13.312  1.6706  0.8033  0.8303
  940MPD2    H113749   3.760   0.254  13.076  0.2615  0.3147  0.0446
  940MPD2    H213750   3.734   0.292  13.487  1.0727 -0.7159 -0.0015
  940MPD2    H313751   3.769   0.389  13.279  1.6471 -0.3155  0.5478
  940MPD2     N13752   3.759   4.722  13.052 -0.1236  0.0196  0.2147
  940MPD2    H513753   3.775   0.045  12.963 -1.0477 -0.5943 -0.2834
  940MPD2    N113754   3.702   0.017  13.538 -0.7053 -0.3166  0.5413
  940MPD2    H713755   3.703   4.640  13.543  2.2687 -0.2409  1.2424
  941MPD2     C13756   2.762   0.142   9.923  0.0948 -0.0422 -0.1350
  941MPD2    C113757   2.883   0.078   9.964 -0.0600  0.2910 -0.3543
  941MPD2    C213758   2.883   4.674  10.023  0.9820  0.4230  0.7020
  941MPD2    C313759   2.757   4.618  10.058 -0.2281 -0.0106  0.2661
  941MPD2    C413760   2.640   4.689  10.029 -0.7121 -0.5296 -0.3857
  941MPD2    C513761   2.641   0.086   9.959  0.8538 -0.0280  0.2127
  941MPD2     H13762   2.979   4.631  10.050  0.8292 -0.2300  0.2149
  941MPD2    H113763   2.540   4.657  10.057 -0.9887 -1.7303 -2.7900
  941MPD2    H213764   2.771   0.242   9.882  3.2188 -0.7960 -1.3326
  941MPD2    H313765   2.547   0.133   9.933  2.0189  2.0393 -0.2370
  941MPD2     N13766   2.738   4.489  10.121 -0.9045  0.3347 -0.1836
  941MPD2    H513767   2.643   4.464  10.149 -0.8603  0.2440 -0.1155
  941MPD2    N113768   3.009   0.132   9.957 -0.4476 -0.7432 -0.0220
  941MPD2    H713769   3.085   0.073   9.991 -1.0265 -0.0035  2.5461
  942MPD2     C13770   3.377   0.714   9.382 -0.0460 -0.2201  0.2234
  942MPD2    C113771   3.326   0.840   9.431  0.1118 -0.8792  0.0180
  942MPD2    C213772   3.416   0.925   9.489  0.5687 -0.0156 -0.0089
  942MPD2    C313773   3.549   0.892   9.510  0.5695  0.2028 -0.0001
  942MPD2    C413774   3.591   0.773   9.458 -0.7812 -0.2282  0.6645
  942MPD2    C513775   3.507   0.686   9.395  0.4943 -0.1582 -0.4332
  942MPD2     H13776   3.372   1.008   9.542 -0.3295 -0.2883 -0.3213
  942MPD2    H113777   3.691   0.733   9.471 -1.1742 -1.1703  0.8494
  942MPD2    H213778   3.317   0.637   9.335 -0.3690  0.7998 -1.0478
  942MPD2    H313779   3.551   0.605   9.338  2.1530  0.1176  0.4699
  942MPD2     N13780   3.640   0.979   9.572 -0.2901  0.2114  0.4450
  942MPD2    H513781   3.731   0.937   9.589 -0.9026 -0.6006  1.7511
  942MPD2    N113782   3.192   0.873   9.420  0.3947 -0.0691 -0.1398
  942MPD2    H713783   3.165   0.967   9.448 -0.2189  0.7278 -3.3171
  943MPD2     C13784   2.398   3.144   9.479 -0.6508  0.1228 -0.1021
  943MPD2    C113785   2.306   3.216   9.541 -0.3376 -0.6075  0.4290
  943MPD2    C213786   2.325   3.352   9.553  0.1742 -0.2626 -0.2354
  943MPD2    C313787   2.445   3.407   9.512 -0.4145  0.6682  0.0199
  943MPD2    C413788   2.544   3.330   9.456 -0.1139 -1.0072  0.0108
  943MPD2    C513789   2.518   3.203   9.437  0.4853 -0.3841 -0.3082
  943MPD2     H13790   2.253   3.429   9.578  1.2862  1.0240 -1.0180
  943MPD2    H113791   2.642   3.364   9.424 -1.1706  1.2826 -0.7964
  943MPD2    H213792   2.365   3.048   9.443  0.9201 -0.6878  0.5950
  943MPD2    H313793   2.578   3.139   9.374  0.4354 -2.0732  1.3513
  943MPD2     N13794   2.485   3.541   9.530  0.2031 -0.3638  0.0546
  943MPD2    H513795   2.558   3.578   9.470 -1.9079 -0.7883 -2.7906
  943MPD2    N113796   2.180   3.150   9.560 -0.7229 -0.2560 -0.0356
  943MPD2    H713797   2.161   3.062   9.514 -1.4188 -0.0132 -0.2029
  944MPD2     C13798   2.002   3.967  11.208 -0.1093  0.0887 -0.6281
  944MPD2    C113799   1.945   3.850  11.165 -0.6118 -0.0800  0.3144
  944MPD2    C213800   1.872   3.770  11.256  0.2186  0.0273  0.8023
  944MPD2    C313801   1.853   3.812  11.387  0.1681  0.2565 -0.1962
  944MPD2    C413802   1.902   3.937  11.431  0.1014 -0.5497 -0.4458
  944MPD2    C513803   1.968   4.011  11.338  0.1658  0.2613  0.1475
  944MPD2     H13804   1.834   3.670  11.237  0.9789  0.0640 -0.9393
  944MPD2    H113805   1.904   3.967  11.535  0.8766 -4.3255  0.6291
  944MPD2    H213806   2.079   4.017  11.151  1.0664 -2.1488 -1.0116
  944MPD2    H313807   2.020   4.096  11.381 -0.0226  0.0134  0.8653
  944MPD2     N13808   1.797   3.715  11.476  0.5934  0.2299 -0.2686
  944MPD2    H513809   1.768   3.627  11.436  1.3926 -0.1352 -0.0476
  944MPD2    N113810   1.965   3.818  11.027  0.2088 -0.3864  0.3785
  944MPD2    H713811   2.027   3.877  10.973 -0.4253  0.2311  0.3373
    1TCq1    O113812   4.014   3.657  14.606 -0.7081  0.4155 -0.7222
    1TCq1    C113813   4.121   3.681  14.678  0.2355  0.3828 -0.3188
    1TCq1    O213814   4.235   3.688  14.633  0.2609  0.0576  0.4137
    1TCq1    C213815   4.077   3.730  14.809  0.3483 -0.6685 -0.7394
    1TCq1    C313816   3.960   3.686  14.860 -0.2348  0.3877 -0.3844
    1TCq1    C413817   3.919   3.731  14.978  0.0363  0.6502  0.0891
    1TCq1    C513818   3.995   3.809  15.056 -0.2390 -0.2422  0.1992
    1TCq1    C613819   4.108   3.860  15.001  0.1104  0.1019 -0.4674
    1TCq1    C713820   4.158   3.824  14.879  0.1426 -0.5422 -0.3383
    1TCq1    C813821   4.168   3.978  15.066  0.2976  0.2396  0.4484
    1TCq1    O413822   4.159   3.989  15.188 -0.2850 -0.3337  0.0054
    1TCq1    C913823   3.789   3.699  15.027 -0.3849  0.0628  0.3008
    1TCq1    O513824   3.770   3.718  15.149 -0.4543  1.1219 -0.1746
    1TCq1    O613825   3.688   3.688  14.950 -0.0072  0.1641  0.0569
    1TCq1    H113826   3.928   3.692  14.639 -0.2849  1.3748 -0.6484
    1TCq1    H213827   3.899   3.609  14.815  1.3445 -1.5565  0.8188
    1TCq1    H313828   3.960   3.842  15.152 -1.4767 -1.5799  0.1986
    1TCq1    H413829   4.253   3.855  14.837  0.3869 -0.3075  0.3939
    2MPD2     C13830   4.421   4.422  15.086 -0.3097  0.3579 -0.2319
    2MPD2    C113831   4.368   4.407  14.960 -0.0389  1.0419  0.3971
    2MPD2    C213832   4.306   4.290  14.923 -0.0949 -0.0992  0.1343
    2MPD2    C313833   4.287   4.189  15.014  0.4637 -0.0930  0.1110
    2MPD2    C413834   4.345   4.203  15.138  1.0171 -0.1135  0.5909
    2MPD2    C513835   4.421   4.316  15.176 -0.2429  0.0708  0.2747
    2MPD2     H13836   4.261   4.286  14.825  0.6695 -0.2056 -0.2144
    2MPD2    H113837   4.349   4.118  15.206  1.8883  0.6623  1.4995
    2MPD2    H213838   4.482   4.508  15.107  0.0037  0.9291 -3.5063
    2MPD2    H313839   4.486   4.325  15.262 -4.4916  2.9802  3.2212
    2MPD2     N13840   4.221   4.065  14.972 -0.2190 -0.6937  0.1898
    2MPD2    H513841   4.207   4.053  14.872 -0.8652 -3.4176  0.5881
    2MPD2    N113842   4.370   4.522  14.881 -0.0953  0.2864  0.7073
    2MPD2    H713843   4.428   4.600  14.908  1.2702 -0.7583  0.8027
    3TMC2    C113844   4.311   4.665  14.701 -0.1496  0.7051 -0.2105
    3TMC2    C213845   4.346   0.050  14.773 -0.3052  0.6288  0.4347
    3TMC2    C313846   4.353   0.171  14.705 -0.3226  0.1454 -0.8121
    3TMC2    C413847   4.280   4.669  14.569 -0.2200  0.2983 -0.8256
    3TMC2    C513848   4.279   0.067  14.506 -0.4378 -0.6503  0.3736
    3TMC2    C613849   4.314   0.181  14.576 -0.0159  0.0636 -0.3690
    3TMC2     C13850   4.310   4.536  14.757  0.1563  0.1109 -0.1560
    3TMC2     O13851   4.252   4.453  14.689 -0.0928 -0.3874 -0.3098
    3TMC2     H13852   4.347   0.037  14.881  0.4503 -0.4868  0.2910
    3TMC2    H113853   4.262   4.578  14.513 -0.0842 -0.1367 -0.1555
    3TMC2    H213854   4.328   0.275  14.524 -1.1528 -0.0816 -0.9283
    3TMC2    C713855   4.211   0.067  14.377 -0.2892 -0.1702  0.0794
    3TMC2    C813856   4.416   0.284  14.775  0.4905 -0.5203  1.1200
    3TMC2    O113857   4.180   4.679  14.337  0.7649 -0.1335  0.4832
    3TMC2    O213858   4.401   0.393  14.727  0.3253 -0.3080 -0.5070
    3TMC2    O513859   4.512   0.251  14.858  0.0428 -0.1437  1.0155
    3TMC2    H513860   4.520   0.158  14.888  0.1661 -1.3459 -2.7431
    4MPD2     C13861   3.155   0.768  13.548  0.1554 -0.1926 -0.1403
    4MPD2    C113862   3.265   0.799  13.468  0.0145 -0.2186 -0.4037
    4MPD2    C213863   3.391   0.794  13.527  0.5571 -0.1976  0.5153
    4MPD2    C313864   3.404   0.759  13.664  0.0116 -0.0409  0.5082
    4MPD2    C413865   3.296   0.720  13.737 -0.2544 -0.1098 -0.1679
    4MPD2    C513866   3.175   0.725  13.680  0.0420  0.3449 -0.3221
    4MPD2     H13867   3.475   0.836  13.474  0.4394  1.5915  1.7542
    4MPD2    H113868   3.303   0.690  13.841 -1.1723  2.4099  0.6357
    4MPD2    H213869   3.056   0.756  13.504 -0.1011 -0.2476  0.4511
    4MPD2    H313870   3.094   0.693  13.745 -0.3306  0.6074 -0.6534
    4MPD2     N13871   3.533   0.757  13.720  0.6398 -0.3092  0.1492
    4MPD2    H513872   3.605   0.792  13.658  0.3229 -0.1724 -0.1402
    4MPD2    N113873   3.232   0.845  13.337  0.4750  0.0618 -0.1196
    4MPD2    H713874   3.132   0.844  13.318  0.2980 -0.8332  0.8497
    5TCq2    C113875   3.566   0.728  13.852 -0.3119  0.0177 -0.7317
    5TCq2    O213876   3.494   0.688  13.946 -0.2626  1.3003 -0.0945
    5TCq2    C213877   3.713   0.741  13.876 -0.2974  0.0743  0.4625
    5TCq2    C313878   3.789   0.832  13.803 -0.1128 -0.2224 -0.2714
    5TCq2    C413879   3.916   0.854  13.847  0.3889  0.0684 -0.1839
    5TCq2    C513880   3.967   0.786  13.948  0.0695  0.2506 -0.1801
    5TCq2    C613881   3.886   0.698  14.019  0.0742  0.3069 -0.2842
    5TCq2    C713882   3.758   0.674  13.984  0.2401  0.0568 -0.1790
    5TCq2    C813883   3.957   0.599  14.094 -0.2991 -0.4061  0.1468
    5TCq2    O413884   4.006   0.627  14.200 -0.4788 -1.0641 -0.2283
    5TCq2    C913885   3.994   0.959  13.789 -0.6124  0.3082 -0.1591
    5TCq2    O513886   3.939   1.037  13.706  0.1615  0.1775  0.5244
    5TCq2    O613887   4.098   0.990  13.857  0.5564 -0.3545 -0.1027
    5TCq2    H213888   3.736   0.906  13.745  0.1905  0.1430 -0.0824
    5TCq2    H313889   4.072   0.786  13.975  0.3471  0.7202 -1.2802
    5TCq2    H413890   3.700   0.601  14.040  0.7337  1.8363  2.6651
    6MPD1     C13891   2.044   1.925  13.273 -0.1358 -0.5335  0.6054
    6MPD1    C113892   2.020   1.920  13.139  0.3062  0.3423  0.2573
    6MPD1    C213893   2.073   1.814  13.062 -0.1664  0.7385  0.5732
    6MPD1    C313894   2.135   1.703  13.124 -0.3552  0.2278 -0.3614
    6MPD1    C413895   2.141   1.702  13.263  0.1756 -0.1028 -0.2235
    6MPD1    C513896   2.107   1.818  13.332  0.2888 -0.2360  0.6189
    6MPD1     H13897   2.061   1.821  12.954 -0.3144 -3.7525  0.3244
    6MPD1    H113898   2.190   1.624  13.320 -2.5088  0.0932  2.3252
    6MPD1    H213899   2.013   2.007  13.337 -1.8614  0.4715 -1.5204
    6MPD1    H313900   2.130   1.826  13.438 -1.9532  1.9085  0.9499
    6MPD1     N13901   2.219   1.610  13.053 -0.0601 -0.3877  0.4509
    6MPD1    H513902   2.268   1.536  13.102  1.2391  1.3213  1.7050
    6MPD1    N113903   1.984   2.038  13.073  0.7486  0.1089  0.2099
    6MPD1    H613904   1.925   2.107  13.119 -0.8770 -2.0911  1.4160
    6MPD1    H713905   1.942   2.007  12.985 -0.2478  3.2530 -0.4159
    7MPD2     C13906   2.460   0.881  13.029 -0.1042  0.2053  0.7981
    7MPD2    C113907   2.549   0.974  12.994  0.4610  0.2164 -0.0733
    7MPD2    C213908   2.683   0.943  12.978 -0.5694 -0.1246  0.5740
    7MPD2    C313909   2.725   0.810  12.999  0.7166 -0.2339  0.3634
    7MPD2    C413910   2.636   0.723  13.045  0.0493 -0.0925 -0.7024
    7MPD2    C513911   2.504   0.757  13.054 -0.3522  0.4217  1.3426
    7MPD2     H13912   2.746   1.025  12.946 -1.2172  0.3238  0.4474
    7MPD2    H113913   2.662   0.619  13.061  0.7265  0.1430 -0.2659
    7MPD2    H213914   2.354   0.902  13.034 -0.5533 -1.8163 -0.1610
    7MPD2    H313915   2.440   0.674  13.079  1.5715 -1.5271 -0.2504
    7MPD2     N13916   2.860   0.787  12.992  0.3433  0.2190  0.0997
    7MPD2    H513917   2.896   0.709  13.046 -1.6043 -0.9386 -0.2376
    7MPD2    N113918   2.513   1.108  12.955  0.1633 -0.0452  0.6271
    7MPD2    H713919   2.595   1.166  12.940  0.7879 -1.5063 -1.6114
    8TMC3    C113920   3.092   0.830  12.949  0.0436  0.5195 -0.2475
    8TMC3    C213921   3.129   0.836  13.081 -0.2337  0.1008 -0.4762
    8TMC3    C313922   3.255   0.885  13.105 -0.8515 -0.1059 -0.5246
    8TMC3    C413923   3.166   0.889  12.850  0.5832  0.3873 -0.3967
    8TMC3    C513924   3.273   0.969  12.888 -0.6248  0.3602  0.5699
    8TMC3    C613925   3.325   0.954  13.016  0.6217 -0.5228  0.1418
    8TMC3     C13926   2.950   0.863  12.926  0.0740 -0.1635  0.3714
    8TMC3     O13927   2.928   0.950  12.844  0.3180 -0.0133  0.0287
    8TMC3     H13928   3.056   0.818  13.159  1.3032 -0.4992  0.8279
    8TMC3    H113929   3.122   0.890  12.751 -2.5545 -2.3126  0.9562
    8TMC3    H213930   3.407   1.015  13.054 -2.2691  2.4097  1.6447
    8TMC3    C713931   3.257   1.107  12.846  0.5445  0.1110 -0.0597
    8TMC3    C813932   3.315   0.875  13.238  0.0774 -0.3192  0.3779
    8TMC3    O113933   3.340   1.184  12.896  0.3115 -0.7731 -0.1130
    8TMC3    O213934   3.434   0.885  13.237  0.0045  0.1263  0.0987
    9TMC3    C113935   2.325   1.507  12.874  0.4874 -0.0546  0.3220
    9TMC3    C213936   2.418   1.517  12.768  0.3163 -0.0724 -0.5853
    9TMC3    C313937   2.507   1.421  12.743  0.0878 -0.7301 -0.4421
    9TMC3    C413938   2.308   1.388  12.939  0.3872 -0.2549  0.3479
    9TMC3    C513939   2.394   1.292  12.898  0.0311 -0.3656 -0.1808
    9TMC3    C613940   2.491   1.297  12.796 -0.4647 -0.0334 -0.1479
    9TMC3     C13941   2.243   1.615  12.919 -0.0890  0.2079  0.3077
    9TMC3     O13942   2.226   1.698  12.831  0.4862 -0.5073  0.4460
    9TMC3     H13943   2.439   1.610  12.717  0.4637  1.2632  1.9007
    9TMC3    H113944   2.239   1.361  13.018  2.7418 -3.4702  1.3120
    9TMC3    H213945   2.551   1.213  12.764 -0.9534 -0.9900  1.4209
    9TMC3    C713946   2.382   1.162  12.957 -0.0454  0.5233  0.7774
    9TMC3    C813947   2.640   1.472  12.737 -0.0407 -0.0447  0.1487
    9TMC3    O113948   2.273   1.118  12.983 -0.0662 -0.1425  0.4899
    9TMC3    O213949   2.660   1.588  12.764 -0.1715  0.5851 -0.0307
   10MPD2     C13950   3.143   1.381  12.779  0.0414  0.0463 -0.1238
   10MPD2    C113951   3.075   1.259  12.769 -0.4363 -0.0861  0.2970
   10MPD2    C213952   2.940   1.270  12.741  0.2570 -0.3797  0.5419
   10MPD2    C313953   2.873   1.388  12.725 -0.3298  0.0472 -0.2671
   10MPD2    C413954   2.937   1.501  12.768 -0.5280 -0.3544 -0.0942
   10MPD2    C513955   3.075   1.498  12.775 -0.3642  0.8882 -0.9492
   10MPD2     H13956   2.880   1.181  12.726  0.2271 -0.5390  1.6752
   10MPD2    H113957   2.891   1.599  12.764 -0.6625 -0.4127  0.0233
   10MPD2    H213958   3.250   1.384  12.794 -0.2610  0.6317  1.9560
   10MPD2    H313959   3.122   1.595  12.785  2.2434 -0.3201 -1.4765
   10MPD2     N13960   2.731   1.381  12.705 -0.1510 -0.2226  0.4233
   10MPD2    H513961   2.692   1.290  12.685 -0.9625  0.0303  0.8739
   10MPD2    N113962   3.131   1.134  12.793 -0.3324 -0.1606 -0.1656
   10MPD2    H713963   3.065   1.057  12.800  1.2771 -1.6031 -0.6789
   11MPD2     C13964   4.161   0.130  14.085  0.8955 -0.0768  0.5458
   11MPD2    C113965   4.153   0.222  14.189 -0.1203  0.8939 -0.3354
   11MPD2    C213966   4.106   0.351  14.164 -0.0899 -0.2301 -0.6094
   11MPD2    C313967   4.052   0.378  14.036 -0.1649  0.1670 -0.1956
   11MPD2    C413968   4.049   0.277  13.943  0.4954  0.4743 -0.3679
   11MPD2    C513969   4.098   0.158  13.966  0.6828  0.5792  0.4836
   11MPD2     H13970   4.093   0.427  14.240  0.3914  0.9964 -1.7506
   11MPD2    H113971   3.996   0.301  13.851  1.5312 -1.7924 -1.5505
   11MPD2    H213972   4.186   0.030  14.119 -0.1692 -1.0149 -1.4107
   11MPD2    H313973   4.082   0.080  13.893  2.6783  0.4954  0.1304
   11MPD2     N13974   3.976   0.492  14.011 -0.2152  0.3064  0.2127
   11MPD2    H513975   3.946   0.488  13.914 -0.6602  0.6463  0.3375
   11MPD2    N113976   4.196   0.193  14.321  0.6585  0.0031  0.0127
   11MPD2    H713977   4.182   0.270  14.386 -1.2838  0.0778 -0.4883
    1MPD1     C13978   1.888   1.503  17.008  0.3519 -0.0038 -0.3737
    1MPD1    C113979   1.858   1.462  16.879 -0.2950 -0.5160  0.1884
    1MPD1    C213980   1.920   1.525  16.777  0.5029  0.1478  0.1000
    1MPD1    C313981   1.981   1.654  16.797  0.3631  0.7589  0.2089
    1MPD1    C413982   1.998   1.702  16.923 -0.0023 -0.0318 -0.9325
    1MPD1    C513983   1.954   1.627  17.029  0.2363  0.0175  0.2669
    1MPD1     H13984   1.900   1.496  16.675  0.0152  0.7870  0.0138
    1MPD1    H113985   2.037   1.801  16.939 -1.0679  0.0750  1.1205
    1MPD1    H213986   1.863   1.433  17.087 -0.5113 -1.7848 -2.2135
    1MPD1    H313987   1.970   1.663  17.130 -0.3504  0.0119  0.3591
    1MPD1     N13988   2.030   1.732  16.685 -0.7114  0.3089  0.1622
    1MPD1    H513989   2.095   1.808  16.696  0.4756 -0.6067 -0.5272
    1MPD1    N113990   1.805   1.335  16.864 -0.2713 -0.3465  0.0691
    1MPD1    H613991   1.721   1.333  16.921 -1.1057  0.9632 -1.1116
    1MPD1    H713992   1.775   1.322  16.768 -0.0534  0.7914 -0.1554
    2MPD1     C13993   2.890   1.861  16.293 -0.2792  0.2191  0.2612
    2MPD1    C113994   2.824   1.830  16.178  0.3506  0.5780 -0.0642
    2MPD1    C213995   2.685   1.825  16.182 -0.1387 -0.8245 -0.6123
    2MPD1    C313996   2.610   1.897  16.280 -0.5168  0.4965 -0.3398
    2MPD1    C413997   2.683   1.951  16.379 -0.1589 -0.3580  0.2828
    2MPD1    C513998   2.819   1.938  16.385  0.2162  0.4172 -0.2247
    2MPD1     H13999   2.631   1.778  16.101 -2.3447  2.2677 -0.9292
    2MPD1    H114000   2.624   2.001  16.455  0.7787  0.6488  0.3419
    2MPD1    H214001   2.995   1.845  16.317 -0.9920 -0.9619  2.5298
    2MPD1    H314002   2.880   1.970  16.469 -0.0194  0.4670 -0.0704
    2MPD1     N14003   2.468   1.889  16.279  0.0288 -0.1188 -0.3185
    2MPD1    H514004   2.435   1.829  16.204  0.0091 -0.0404 -0.3723
    2MPD1    N114005   2.892   1.751  16.080 -0.2602  0.6003  0.4799
    2MPD1    H614006   2.986   1.787  16.063  0.1585 -0.8640 -0.3368
    2MPD1    H714007   2.849   1.754  15.988 -0.6705 -0.1512  0.6511
    3TMC3    C114008   2.250   1.886  16.358 -0.3511  0.1732  0.2838
    3TMC3    C214009   2.188   1.906  16.238 -0.6676  0.1796 -0.3243
    3TMC3    C314010   2.053   1.876  16.231  0.1984 -0.0232 -0.3021
    3TMC3    C414011   2.183   1.837  16.473  0.0268  0.0178 -0.1181
    3TMC3    C514012   2.052   1.799  16.454  0.0185 -0.2244 -0.5544
    3TMC3    C614013   1.986   1.823  16.332  0.7108 -0.4782 -0.9181
    3TMC3     C14014   2.383   1.925  16.384 -0.3260  0.6415  0.6820
    3TMC3     O14015   2.403   1.984  16.491 -0.0493 -0.0659 -0.2105
    3TMC3     H14016   2.236   1.947  16.150 -0.6154 -1.3493 -1.0076
    3TMC3    H114017   2.236   1.810  16.563  2.3276  0.0444 -1.4678
    3TMC3    H214018   1.889   1.777  16.320  1.0413 -1.4458  0.1118
    3TMC3    C714019   1.978   1.721  16.557 -0.3759 -1.1837  0.4846
    3TMC3    C814020   1.972   1.906  16.115  0.1008  0.4912 -0.7598
    3TMC3    O114021   1.879   1.656  16.521 -0.0460  0.1745  0.3147
    3TMC3    O214022   1.847   1.915  16.136  0.3864  0.7008 -0.1579
    4MPD1     C14023   1.921   1.735  15.632 -0.1815 -0.3742  0.2992
    4MPD1    C114024   2.058   1.749  15.652  0.6065  0.1794 -0.1862
    4MPD1    C214025   2.097   1.795  15.777  0.3642  0.0935 -0.5297
    4MPD1    C314026   2.000   1.832  15.872  0.1599 -0.4993  0.5278
    4MPD1    C414027   1.864   1.821  15.844  1.5636 -0.0966 -0.8720
    4MPD1    C514028   1.824   1.772  15.725 -0.1817  0.6018 -0.0466
    4MPD1     H14029   2.203   1.801  15.801  0.2405  0.0082  0.0340
    4MPD1    H114030   1.788   1.856  15.914  1.4542 -0.1916 -0.9426
    4MPD1    H214031   1.889   1.681  15.544 -0.2639  0.0489  0.0717
    4MPD1    H314032   1.720   1.744  15.717  0.7814 -3.0891  0.4589
    4MPD1     N14033   2.044   1.878  15.996 -0.6351 -0.4783 -0.0624
    4MPD1    H514034   2.144   1.896  16.006 -0.7355 -1.1152  2.1215
    4MPD1    N114035   2.148   1.695  15.560 -0.9726 -0.8309 -0.4326
    4MPD1    H614036   2.238   1.741  15.574 -0.6445 -1.3376 -0.9067
    4MPD1    H714037   2.119   1.696  15.463  1.2419  1.4596 -1.0894
    1TCq1    O114038   3.258   1.620  10.716 -0.1481 -0.2893 -0.3475
    1TCq1    C114039   3.382   1.621  10.769  0.4692 -0.2874  0.5925
    1TCq1    O214040   3.486   1.577  10.723 -0.3065 -0.0936  0.4900
    1TCq1    C214041   3.391   1.750  10.840  0.4715  0.6550  0.1818
    1TCq1    C314042   3.491   1.836  10.810  0.5497  0.3706 -0.3295
    1TCq1    C414043   3.528   1.935  10.894  0.5047 -0.5238 -0.6373
    1TCq1    C514044   3.445   1.978  10.989 -1.0506 -0.2231  0.9706
    1TCq1    C614045   3.327   1.911  10.998  0.0743 -0.0927 -0.3049
    1TCq1    C714046   3.303   1.790  10.935 -0.2162  0.8767 -0.0791
    1TCq1    C814047   3.213   1.971  11.069  0.5630  0.2669 -0.1831
    1TCq1    O414048   3.124   1.899  11.117  0.3072  0.2682 -0.5053
    1TCq1    C914049   3.648   2.015  10.876 -0.4920 -0.3662 -0.1653
    1TCq1    O514050   3.652   2.120  10.950 -0.7844  0.4909  0.1421
    1TCq1    O614051   3.727   2.002  10.774 -0.1106 -0.1727 -0.4214
    1TCq1    H114052   3.194   1.673  10.769  1.9391  1.2571  0.5998
    1TCq1    H214053   3.568   1.798  10.744  2.3478  2.6257  0.4992
    1TCq1    H314054   3.456   2.060  11.059  1.8067  0.8504 -0.7508
    1TCq1    H414055   3.219   1.728  10.962  1.6875 -2.6252 -2.1041
    2MPD1     C14056   2.899   2.376  11.095  0.1681 -0.1793  0.4445
    2MPD1    C114057   3.014   2.419  11.041 -0.0061 -0.4974 -0.3068
    2MPD1    C214058   3.117   2.326  11.027 -0.1681 -0.4154 -0.6602
    2MPD1    C314059   3.103   2.195  11.070  0.6367  0.2833 -0.2771
    2MPD1    C414060   2.979   2.157  11.123  0.4772 -0.0292  0.3653
    2MPD1    C514061   2.871   2.250  11.134  0.3448 -0.1162  0.4921
    2MPD1     H14062   3.214   2.352  10.988 -0.8075 -1.5655 -2.9961
    2MPD1    H114063   2.969   2.058  11.166  0.8678 -0.6905 -1.0581
    2MPD1    H214064   2.816   2.444  11.104  1.7449  2.0770 -2.0698
    2MPD1    H314065   2.773   2.229  11.175  0.8014 -2.9053  0.1680
    2MPD1     N14066   3.211   2.105  11.041 -0.0248 -0.1100 -1.0592
    2MPD1    H514067   3.300   2.144  11.012  1.3144 -0.4915  2.5132
    2MPD1    N114068   3.034   2.558  11.020 -0.4833  0.1764  0.3594
    2MPD1    H614069   2.954   2.606  10.980  0.3377  1.6020  0.4383
    2MPD1    H714070   3.111   2.575  10.954 -1.7809  1.6380 -0.7638
    1TCq1    O114071   0.797   2.490   1.023 -0.4781 -0.1683  0.4797
    1TCq1    C114072   0.787   2.564   0.913 -0.1470 -0.2702 -0.0894
    1TCq1    O214073   0.716   2.659   0.905 -0.1780 -0.6952  0.2979
    1TCq1    C214074   0.823   2.470   0.802  0.3604 -0.0553 -0.1380
    1TCq1    C314075   0.724   2.444   0.712 -0.4074 -0.1699 -0.0326
    1TCq1    C414076   0.733   2.325   0.647 -0.2880  0.3171 -0.2846
    1TCq1    C514077   0.833   2.236   0.671 -0.4063 -0.4147  0.6184
    1TCq1    C614078   0.946   2.272   0.747 -0.1385  0.9277 -0.2144
    1TCq1    C714079   0.939   2.384   0.823  0.4648  0.2224 -0.1398
    1TCq1    C814080   1.050   2.175   0.761  0.1201  0.2102  0.0135
    1TCq1    O414081   1.168   2.216   0.776  0.3870 -0.4718 -0.2629
    1TCq1    C914082   0.617   2.264   0.594 -0.1128 -0.0319  0.0096
    1TCq1    O514083   0.557   2.339   0.514 -0.4377 -0.5629 -0.9217
    1TCq1    O614084   0.588   2.145   0.620  0.1128 -0.1884  0.8141
    1TCq1    H114085   0.814   2.395   1.008  0.4477 -0.0503  0.8016
    1TCq1    H214086   0.629   2.494   0.725 -0.2543 -0.4300  2.1431
    1TCq1    H314087   0.831   2.141   0.619 -1.9387  0.3719 -0.7636
    1TCq1    H414088   1.018   2.404   0.894 -0.9535  0.6609  1.3082
    2MPD1     C14089   1.203   1.683   0.775  0.6908  0.0772 -0.1409
    2MPD1    C114090   1.070   1.697   0.787  0.0038 -0.2669  0.0318
    2MPD1    C214091   1.007   1.819   0.782  0.2641  0.4109 -0.8881
    2MPD1    C314092   1.072   1.935   0.774  0.5948 -1.0520 -0.8358
    2MPD1    C414093   1.210   1.928   0.766 -0.4858  0.0070  0.1986
    2MPD1    C514094   1.273   1.802   0.762  0.5222 -0.0994  0.2167
    2MPD1     H14095   0.899   1.821   0.776  0.0881  0.9696  2.4441
    2MPD1    H114096   1.268   2.020   0.766 -2.5483  1.2857  1.4222
    2MPD1    H214097   1.260   1.591   0.770 -0.2861 -0.5428  0.2113
    2MPD1    H314098   1.381   1.791   0.753  0.4401 -1.2424  0.6827
    2MPD1     N14099   1.000   2.048   0.774  0.1270  0.6276  0.5440
    2MPD1    H514100   0.899   2.053   0.786  0.0806  1.7521 -0.2913
    2MPD1    N114101   0.997   1.575   0.803 -0.5100 -0.3139  0.2721
    2MPD1    H614102   0.903   1.577   0.764 -1.1073 -0.0597  1.7258
    2MPD1    H714103   1.047   1.489   0.778  0.6497  0.8096 -1.2918
    1MPD1     C14104   0.491   2.437  10.753 -0.8865 -0.4173 -0.0726
    1MPD1    C114105   0.600   2.363  10.788  0.1698  0.4625  0.3916
    1MPD1    C214106   0.655   2.392  10.909 -0.0444 -0.2695  0.0626
    1MPD1    C314107   0.607   2.495  10.996 -0.4310  1.2320 -0.6587
    1MPD1    C414108   0.488   2.564  10.962  0.3626  0.5798 -0.4510
    1MPD1    C514109   0.435   2.537  10.834  0.6388 -0.1807  0.0438
    1MPD1     H14110   0.736   2.330  10.945 -1.3229 -2.7512 -1.3908
    1MPD1    H114111   0.438   2.640  11.021 -0.5693 -0.5478  0.2182
    1MPD1    H214112   0.437   2.422  10.660  0.7642  0.6009 -1.1954
    1MPD1    H314113   0.362   2.602  10.787  1.5428  0.7250 -0.0993
    1MPD1     N14114   0.668   2.510  11.119  0.1133 -0.2158 -0.0067
    1MPD1    H514115   0.751   2.453  11.134 -0.1693 -0.5061  0.4962
    1MPD1    N114116   0.667   2.278  10.694  0.1821 -0.3277  0.6721
    1MPD1    H614117   0.614   2.227  10.624 -0.1193  0.5938  0.2267
    1MPD1    H714118   0.729   2.209  10.737 -1.3995 -0.6540  2.4010
    2MPD1     C14119   3.612   1.754  12.172 -0.2370  0.4473 -0.0392
    2MPD1    C114120   3.731   1.797  12.209 -0.3612  0.4284  0.2392
    2MPD1    C214121   3.843   1.751  12.139  0.0025  0.5541 -0.2032
    2MPD1    C314122   3.825   1.653  12.042 -0.0481  0.8885  0.8223
    2MPD1    C414123   3.703   1.600  12.010  0.2572 -0.8422 -0.6655
    2MPD1    C514124   3.595   1.660  12.071  0.6183 -0.0089 -0.5582
    2MPD1     H14125   3.942   1.789  12.161  0.8437 -3.1248  2.4279
    2MPD1    H114126   3.692   1.521  11.937 -2.4696 -0.1417 -1.0133
    2MPD1    H214127   3.522   1.799  12.213  0.7103  2.2581  0.0691
    2MPD1    H314128   3.493   1.626  12.054  1.4486 -0.5653 -4.3207
    2MPD1     N14129   3.933   1.597  11.970 -0.3101 -0.2992 -0.0851
    2MPD1    H514130   3.911   1.526  11.902  0.0425 -1.1413  0.6831
    2MPD1    N114131   3.738   1.901  12.297 -0.0821 -0.4596  0.5608
    2MPD1    H614132   3.827   1.913  12.344  0.7702  2.1119 -1.7306
    2MPD1    H714133   3.676   1.886  12.376 -1.8050 -1.1416 -0.9046
    3MPD1     C14134   4.133   1.358  11.039 -0.2957  0.3189 -1.2516
    3MPD1    C114135   4.250   1.416  11.061 -0.0077 -0.3922 -0.2030
    3MPD1    C214136   4.283   1.467  11.189  0.0509 -0.2492 -0.4360
    3MPD1    C314137   4.188   1.451  11.283 -0.3273  0.7228  0.3801
    3MPD1    C414138   4.068   1.401  11.260  0.6846 -0.5554 -0.2941
    3MPD1    C514139   4.039   1.354  11.136  0.0022 -0.7370 -0.8283
    3MPD1     H14140   4.381   1.506  11.211 -0.8342  1.9169 -0.3413
    3MPD1    H114141   3.999   1.372  11.338 -0.4755 -1.1523 -1.5575
    3MPD1    H214142   4.111   1.296  10.952 -2.1568  0.9463 -1.2395
    3MPD1    H314143   3.949   1.295  11.131 -1.0447  0.8705 -0.8137
    3MPD1     N14144   4.219   1.477  11.418  0.1505 -0.4433 -0.0337
    3MPD1    H514145   4.315   1.502  11.441 -0.0126 -1.8496  2.1806
    3MPD1    N114146   4.346   1.405  10.961 -0.5697 -0.9701 -0.3438
    3MPD1    H614147   4.309   1.390  10.868 -0.4017  0.5566 -0.6585
    3MPD1    H714148   4.412   1.483  10.961 -1.6867 -0.0080  0.2203
    4MPD2     C14149   1.019   2.072  11.592  0.8729 -0.4718  0.0831
    4MPD2    C114150   0.924   2.159  11.641  0.5749  0.8919  0.4800
    4MPD2    C214151   0.848   2.120  11.748 -0.2549  0.5512  0.8587
    4MPD2    C314152   0.853   1.984  11.787 -0.4999  0.2388 -0.5369
    4MPD2    C414153   0.944   1.899  11.733 -0.3460 -0.1802  0.1041
    4MPD2    C514154   1.026   1.944  11.637  0.5875  0.6575  0.2570
    4MPD2     H14155   0.771   2.181  11.793 -0.3399  1.1111 -0.0667
    4MPD2    H114156   0.951   1.793  11.755 -0.5671 -0.1134  0.5022
    4MPD2    H214157   1.080   2.105  11.509 -0.5066  1.6925 -0.0688
    4MPD2    H314158   1.099   1.872  11.601  2.4868  1.4097  2.6393
    4MPD2     N14159   0.758   1.941  11.887  0.1962 -0.3117  1.0811
    4MPD2    H514160   0.700   2.017  11.921  3.2153  0.8485  3.5837
    4MPD2    N114161   0.898   2.289  11.595  0.5443 -0.0140 -0.0974
    4MPD2    H714162   0.846   2.339  11.666  0.4139 -0.9231  0.4414
    5TMC3    C114163   0.878   2.477  11.471  0.0391 -0.0441  0.0855
    5TMC3    C214164   0.808   2.489  11.359  0.2436  0.3188 -0.4028
    5TMC3    C314165   0.687   2.558  11.353 -0.7379 -0.1892 -0.6311
    5TMC3    C414166   0.829   2.534  11.582 -0.2737  0.8228 -0.1658
    5TMC3    C514167   0.704   2.592  11.587 -0.7318 -0.2057  0.2955
    5TMC3    C614168   0.631   2.608  11.468  0.1000  0.0734  0.4964
    5TMC3     C14169   0.934   2.345  11.476  0.0435  0.1811  0.4766
    5TMC3     O14170   0.975   2.284  11.380  0.1113  0.3925  0.3930
    5TMC3     H14171   0.853   2.451  11.269 -0.0132  1.9168 -1.2126
    5TMC3    H114172   0.889   2.537  11.673 -1.5266  0.6912  0.6599
    5TMC3    H214173   0.531   2.648  11.456  1.0621  1.9714 -1.1265
    5TMC3    C714174   0.630   2.530  11.702  1.0093 -0.0762  0.2227
    5TMC3    C814175   0.612   2.568  11.227  0.0185 -0.3079 -0.2385
    5TMC3    O114176   0.697   2.458  11.772 -0.2323 -0.0076 -0.3250
    5TMC3    O214177   0.504   2.623  11.244  0.2610  0.1086 -0.3586
    6TMC3    C114178   4.143   1.583  11.864 -0.5894  0.1820  0.0084
    6TMC3    C214179   4.096   1.572  11.739  0.3179 -0.1299 -1.0128
    6TMC3    C314180   4.185   1.547  11.640  0.3360  0.0673  0.2322
    6TMC3    C414181   4.280   1.582  11.889  0.2867 -0.0990  0.0693
    6TMC3    C514182   4.362   1.552  11.789 -0.4462 -0.2635  0.1703
    6TMC3    C614183   4.322   1.530  11.658  0.2081 -0.3982  0.3049
    6TMC3     C14184   4.064   1.631  11.976  0.6399  0.5208 -0.2774
    6TMC3     O14185   4.131   1.696  12.059  0.0289 -0.3158 -0.3841
    6TMC3     H14186   3.990   1.581  11.721  0.0099  0.7891  1.2090
    6TMC3    H114187   4.324   1.592  11.987  2.0393 -1.3999 -0.5886
    6TMC3    H214188   4.391   1.492  11.583 -0.3741  0.2771 -0.5704
    6TMC3    C714189   4.501   1.549  11.826 -1.2401  0.5253  0.1365
    6TMC3    C814190   4.124   1.504  11.517  0.2897  0.6842  0.2738
    6TMC3    O114191   4.535   1.638  11.900  0.1469 -0.2780 -0.2890
    6TMC3    O214192   4.005   1.519  11.505 -0.1110  0.1161  0.0045
    7MPD2     C14193   0.211   2.392  11.978 -0.7346 -0.6285  0.2072
    7MPD2    C114194   0.334   2.329  11.961  0.1468  0.1428  0.4206
    7MPD2    C214195   0.428   2.397  11.881 -0.2759  0.0418  0.0243
    7MPD2    C314196   0.404   2.510  11.804  0.0011  0.3503 -0.3354
    7MPD2    C414197   0.278   2.560  11.810 -0.5428  0.2987  0.4508
    7MPD2    C514198   0.186   2.501  11.896 -0.4535 -0.0254  0.3557
    7MPD2     H14199   0.530   2.359  11.884  0.2308  1.4679  1.0013
    7MPD2    H114200   0.229   2.624  11.737  1.5662 -2.2203 -3.1915
    7MPD2    H214201   0.133   2.350  12.041 -1.1528  0.1381  0.1997
    7MPD2    H314202   0.085   2.538  11.882 -0.4389  0.2648  0.9967
    7MPD2     N14203   0.497   2.566  11.711 -0.2795 -0.0158 -0.3683
    7MPD2    H514204   0.463   2.639  11.649 -0.2980  1.3071  1.1953
    7MPD2    N114205   0.364   2.206  12.032 -0.4088 -0.1619  0.2872
    7MPD2    H714206   0.286   2.154  12.072 -2.0099  0.4454 -1.9846
    8TMC3    C114207   0.474   1.998  12.067 -0.8383 -0.3902 -0.5181
    8TMC3    C214208   0.369   1.928  12.021  0.2654  0.4873 -0.6179
    8TMC3    C314209   0.387   1.798  11.979  0.0203 -0.2521 -0.3680
    8TMC3    C414210   0.598   1.932  12.067 -0.4146 -0.9759  0.0781
    8TMC3    C514211   0.618   1.808  12.018  0.1937  0.4883 -0.0772
    8TMC3    C614212   0.516   1.735  11.976 -0.1038 -0.3004 -0.0873
    8TMC3     C14213   0.485   2.137  12.037 -0.1606  0.3656  0.4445
    8TMC3     O14214   0.599   2.179  12.015 -0.0079 -0.0764  0.0216
    8TMC3     H14215   0.271   1.975  12.010  0.0553  0.0687 -0.5472
    8TMC3    H114216   0.680   1.984  12.115 -0.6784  0.0419 -0.5835
    8TMC3    H214217   0.532   1.639  11.929  2.8912 -0.3082  0.9754
    8TMC3    C714218   0.735   1.813  11.922  0.5708  0.4010 -0.1160
    8TMC3    C814219   0.276   1.717  11.941 -0.6643 -0.1950 -0.0487
    8TMC3    O114220   0.775   1.705  11.882 -0.6119 -0.2150  0.2238
    8TMC3    O214221   0.167   1.763  11.964  0.0210 -0.1854 -0.2670
    9MPD2     C14222   0.253   1.471  11.677 -0.4883  0.2824 -0.2505
    9MPD2    C114223   0.208   1.547  11.781  0.1705 -0.0678 -0.5233
    9MPD2    C214224   0.071   1.542  11.811 -0.4933 -0.9788  0.6049
    9MPD2    C314225   4.707   1.466  11.736 -0.3941 -0.0735  0.3657
    9MPD2    C414226   0.036   1.395  11.639  0.4027  0.4420  0.7438
    9MPD2    C514227   0.165   1.406  11.600 -0.0586  0.2950  0.4384
    9MPD2     H14228   0.027   1.598  11.893  0.7821 -0.0218  0.6384
    9MPD2    H114229   4.699   1.349  11.563 -0.5977  1.5722  0.8769
    9MPD2    H214230   0.356   1.470  11.643 -0.0292 -0.5320  1.1989
    9MPD2    H314231   0.199   1.350  11.513  0.8920 -1.7398  2.1031
    9MPD2     N14232   4.569   1.464  11.747 -0.2469  0.5214 -0.4396
    9MPD2    H514233   4.518   1.401  11.686 -0.9174  1.5040 -0.8884
    9MPD2    N114234   0.307   1.621  11.848  0.0885  0.1770  0.2711
    9MPD2    H714235   0.404   1.597  11.830  0.2566  1.2278 -0.2334
    1MPD1     C14236   0.350   0.632  16.347  0.5515 -0.5176 -0.6704
    1MPD1    C114237   0.472   0.620  16.395  0.4607 -0.1000  0.3065
    1MPD1    C214238   0.485   0.568  16.527 -0.2997  0.3984  0.4941
    1MPD1    C314239   0.379   0.512  16.594 -0.0982  0.0627 -0.1444
    1MPD1    C414240   0.257   0.506  16.526 -0.6197  0.0767 -0.2685
    1MPD1    C514241   0.243   0.577  16.410  0.4227  0.0865 -0.2773
    1MPD1     H14242   0.582   0.568  16.574  0.4091 -1.2799 -0.9782
    1MPD1    H114243   0.175   0.453  16.572 -0.3289 -0.7738 -0.7279
    1MPD1    H214244   0.336   0.675  16.248  0.9120  0.1263 -0.4422
    1MPD1    H314245   0.150   0.582  16.355 -0.8700  2.9696  2.1824
    1MPD1     N14246   0.391   0.439  16.713 -0.6575  0.3780 -0.0974
    1MPD1    H514247   0.304   0.397  16.745 -1.4908  2.0948 -0.0855
    1MPD1    N114248   0.576   0.682  16.325 -0.2150 -0.3297  0.4355
    1MPD1    H614249   0.664   0.648  16.363 -0.2200 -0.5139  0.2815
    1MPD1    H714250   0.572   0.662  16.225  0.5269  0.3774  0.2675
    2MPD1     C14251   4.503   0.236  17.257  0.3520 -0.6378 -0.2802
    2MPD1    C114252   4.503   0.258  17.118 -0.3711 -0.3684 -0.2672
    2MPD1    C214253   4.620   0.231  17.054  0.4861  0.0404 -0.4302
    2MPD1    C314254   0.011   0.190  17.121  0.3588  0.5623 -0.6851
    2MPD1    C414255   0.010   0.182  17.258 -0.1106  0.0094 -0.2118
    2MPD1    C514256   4.614   0.193  17.321 -0.0738  0.7656  0.0866
    2MPD1     H14257   4.611   0.234  16.946 -0.0461 -2.2344 -0.4534
    2MPD1    H114258   0.096   0.163  17.321 -0.2632  0.9636  0.2803
    2MPD1    H214259   4.412   0.242  17.316 -0.1580 -0.5089 -1.0809
    2MPD1    H314260   4.614   0.194  17.430  0.2796 -2.7890  0.1413
    2MPD1     N14261   0.130   0.170  17.043  0.1791 -0.0028 -0.9760
    2MPD1    H514262   0.127   0.200  16.946 -0.1410 -1.0347 -1.2786
    2MPD1    N114263   4.381   0.273  17.050 -0.3030  0.2160  0.1101
    2MPD1    H614264   4.308   0.320  17.103 -0.2889  0.8685 -0.4607
    2MPD1    H714265   4.396   0.318  16.960  0.8850  1.2615  0.8182
    3TCq2    C114266   0.248   0.126  17.088 -0.5917 -0.8079  0.1651
    3TCq2    O214267   0.276   0.063  17.191  0.4865  0.3034 -0.0725
    3TCq2    C214268   0.367   0.151  17.001 -0.5714  0.1551  0.0178
    3TCq2    C314269   0.478   0.075  17.020  0.0915  0.0533  0.3091
    3TCq2    C414270   0.596   0.121  16.974 -0.3503 -0.0609 -0.4166
    3TCq2    C514271   0.602   0.247  16.914  0.0195 -0.0978 -0.1308
    3TCq2    C614272   0.487   0.316  16.883 -0.5527  0.5958 -0.4601
    3TCq2    C714273   0.366   0.266  16.926 -0.1236  0.1485  0.5399
    3TCq2    C814274   0.505   0.419  16.785  0.3153 -0.1162  0.3334
    3TCq2    O414275   0.616   0.462  16.766  0.8224 -0.4463 -0.3947
    3TCq2    C914276   0.721   0.052  17.008 -0.6451  0.0965 -0.4077
    3TCq2    O514277   0.722   4.667  17.066 -0.1525 -0.3162 -0.4777
    3TCq2    O614278   0.822   0.109  16.960  0.1480  0.4440  0.0107
    3TCq2    H214279   0.461   4.704  17.068  1.3799  0.1816  1.0219
    3TCq2    H314280   0.699   0.280  16.880  1.1641 -1.9397  1.3373
    3TCq2    H414281   0.276   0.326  16.924  0.5217  1.1191  0.0731
    1TCq1    O114282   2.039   4.336  12.564  0.0577  0.0190 -0.0355
    1TCq1    C114283   2.127   4.275  12.648 -0.5912 -0.0438  0.3255
    1TCq1    O214284   2.244   4.253  12.624 -0.3280 -0.1420 -0.3150
    1TCq1    C214285   2.051   4.189  12.746  0.2644  0.9552  0.2261
    1TCq1    C314286   1.915   4.175  12.744 -0.4488 -0.4759 -0.1753
    1TCq1    C414287   1.853   4.081  12.824 -0.3055  0.2074 -0.2875
    1TCq1    C514288   1.918   4.003  12.915  0.3258  0.0744 -0.2288
    1TCq1    C614289   2.050   4.029  12.914  0.4631 -0.0764  0.0350
    1TCq1    C714290   2.119   4.122  12.843 -0.3571 -0.0642 -0.4579
    1TCq1    C814291   2.124   3.937  12.993  0.7457 -0.3865  0.3677
    1TCq1    O414292   2.093   3.820  12.996  0.4074 -0.6148 -0.5955
    1TCq1    C914293   1.711   4.094  12.847 -0.2370 -0.0765 -0.0174
    1TCq1    O514294   1.645   4.134  12.748 -0.1708  0.3804  0.2400
    1TCq1    O614295   1.663   4.053  12.957 -0.8408  0.2364  0.3715
    1TCq1    H114296   1.955   4.358  12.608  0.0598 -0.9431  0.4621
    1TCq1    H214297   1.848   4.236  12.685  1.0849  0.7579 -0.6587
    1TCq1    H314298   1.880   3.940  12.994 -0.6563 -1.0453 -1.5922
    1TCq1    H414299   2.225   4.142  12.854 -1.1132  2.4150  2.4111
    2MPD2     C14300   2.318   3.802  13.163  0.0772 -0.3581 -0.2722
    2MPD2    C114301   2.313   3.940  13.152  0.7256 -1.0417 -0.4930
    2MPD2    C214302   2.396   4.021  13.220 -0.7656 -0.1897 -0.8628
    2MPD2    C314303   2.482   3.965  13.308  0.1945 -0.0288  0.2548
    2MPD2    C414304   2.485   3.831  13.327 -0.4666 -0.2980  0.5627
    2MPD2    C514305   2.406   3.746  13.253 -0.0245  0.1932  0.1312
    2MPD2     H14306   2.390   4.129  13.210  1.5762 -0.0542 -0.6279
    2MPD2    H114307   2.550   3.782  13.398  0.0995  1.8715  1.5499
    2MPD2    H214308   2.253   3.737  13.105  1.4336 -1.1556 -0.8780
    2MPD2    H314309   2.410   3.639  13.264 -0.4157  0.1975  0.3252
    2MPD2     N14310   2.575   4.052  13.374 -0.3371  0.0696  0.2293
    2MPD2    H514311   2.572   4.148  13.342 -0.8786 -0.7555 -2.2399
    2MPD2    N114312   2.223   4.003  13.061  0.4078  0.1250  0.0685
    2MPD2    H714313   2.228   4.102  13.042 -0.6326  0.4251  1.3007
    3TCq1    O114314   2.897   4.504  13.632  0.4832 -0.0585 -0.0971
    3TCq1    C114315   2.800   4.469  13.540 -0.4057  0.5678 -0.0093
    3TCq1    O214316   2.731   4.533  13.465  0.4813 -0.1959 -0.4291
    3TCq1    C214317   2.844   4.332  13.507  0.1642  1.0275 -0.9872
    3TCq1    C314318   2.978   4.291  13.518 -0.0828 -0.2287 -0.6278
    3TCq1    C414319   3.011   4.163  13.481 -0.2128 -0.2294 -1.2218
    3TCq1    C514320   2.920   4.075  13.454  0.4730 -0.4463 -0.1168
    3TCq1    C614321   2.791   4.118  13.454  0.2154 -0.0822 -0.3585
    3TCq1    C714322   2.749   4.242  13.472  0.0730 -0.4719  0.4268
    3TCq1    C814323   2.685   4.016  13.452  0.1891 -0.1298  1.0197
    3TCq1    O414324   2.711   3.911  13.511 -0.7254 -0.3003  0.4044
    3TCq1    C914325   3.146   4.118  13.483 -0.0121  0.3188  0.5345
    3TCq1    O514326   3.215   4.177  13.567 -0.4886  0.3413  0.2678
    3TCq1    O614327   3.153   3.993  13.456  0.1984 -0.3358  0.1832
    3TCq1    H114328   2.934   4.424  13.675 -0.1561  0.2267  0.9662
    3TCq1    H214329   3.059   4.362  13.534 -1.5034  0.8015  2.0197
    3TCq1    H314330   2.935   3.973  13.419 -1.8683  0.1383 -2.8903
    3TCq1    H414331   2.646   4.276  13.463  0.0380 -0.2787  1.5627
    1MPD2     C14332   1.783   0.718  15.199 -0.2179 -0.2197 -0.2014
    1MPD2    C114333   1.760   0.579  15.170  0.3030  0.1538  0.7777
    1MPD2    C214334   1.867   0.505  15.118 -0.6539  0.1734  0.8198
    1MPD2    C314335   1.994   0.567  15.092  0.0305 -0.1301  0.9051
    1MPD2    C414336   2.012   0.700  15.125 -0.0655 -1.3266 -0.4896
    1MPD2    C514337   1.907   0.776  15.172 -0.3691  0.3641 -0.1085
    1MPD2     H14338   1.855   0.399  15.097  2.0266  0.4125 -1.8070
    1MPD2    H114339   2.109   0.746  15.109 -1.4305  2.0595  1.0181
    1MPD2    H214340   1.703   0.778  15.242 -1.4758 -1.4139 -0.8528
    1MPD2    H314341   1.927   0.880  15.191  0.5068  0.4756 -1.6136
    1MPD2     N14342   2.109   0.497  15.044 -0.6168  0.1628  0.5725
    1MPD2    H514343   2.200   0.540  15.058  0.0320 -0.6717 -1.1228
    1MPD2    N114344   1.628   0.528  15.195  0.6856  0.9735  0.7869
    1MPD2    H714345   1.559   0.592  15.231  1.0625  0.9495  1.5540
    2TMC3    C114346   1.451   0.360  15.209  0.6954 -0.1267 -0.2254
    2TMC3    C214347   1.440   0.226  15.240 -0.6348 -0.5234  0.4514
    2TMC3    C314348   1.364   0.144  15.159 -0.0252  0.1802 -0.3133
    2TMC3    C414349   1.374   0.408  15.108  0.3557 -0.4112 -0.5226
    2TMC3    C514350   1.298   0.323  15.034 -0.0277  0.1648 -0.2453
    2TMC3    C614351   1.283   0.196  15.062  0.2429 -0.1538 -0.8948
    2TMC3     C14352   1.594   0.390  15.198  0.3804  0.4334 -0.5344
    2TMC3     O14353   1.666   0.287  15.194 -0.0857  0.1382  0.0337
    2TMC3     H14354   1.500   0.182  15.319  0.4813  1.9859  0.9901
    2TMC3    H114355   1.394   0.510  15.078  1.0861 -0.8934 -1.6752
    2TMC3    H214356   1.220   0.131  15.002  0.7034 -0.8639 -0.6001
    2TMC3    C714357   1.205   0.377  14.946 -0.0123  0.2981  0.5647
    2TMC3    C814358   1.427   0.021  15.107 -0.2990  0.5825 -0.0523
    2TMC3    O114359   1.110   0.311  14.910 -0.8927  0.0222 -0.9050
    2TMC3    O214360   1.350   4.658  15.068  0.3969 -0.0405 -0.1636
    3TCq1    O114361   1.404   1.278  14.087  0.0480  0.2138  0.3905
    3TCq1    C114362   1.390   1.146  14.107 -0.4233  0.0328 -0.1164
    3TCq1    O214363   1.345   1.072  14.022  0.2865 -0.5638 -0.4795
    3TCq1    C214364   1.388   1.112  14.244  0.1977 -0.6246  0.9173
    3TCq1    C314365   1.482   1.169  14.328  0.2834  0.0009  0.1402
    3TCq1    C414366   1.482   1.126  14.457 -1.4263 -0.4233  0.6007
    3TCq1    C514367   1.382   1.044  14.518 -1.3788  0.6989  0.1230
    3TCq1    C614368   1.295   0.992  14.424 -0.3377  0.3173  0.0473
    3TCq1    C714369   1.303   1.023  14.289  0.3465  0.5402  0.6336
    3TCq1    C814370   1.205   0.882  14.445 -0.1578 -0.0080 -0.0766
    3TCq1    O414371   1.108   0.871  14.366  0.4822 -0.1866 -0.1112
    3TCq1    C914372   1.587   1.165  14.546 -0.4292  0.4571 -0.2212
    3TCq1    O514373   1.675   1.248  14.506 -0.0301  0.3810  0.6759
    3TCq1    O614374   1.588   1.104  14.657 -0.4579  0.1366  0.5590
    3TCq1    H114375   1.428   1.332  14.166 -0.4851  1.9326 -0.6300
    3TCq1    H214376   1.563   1.234  14.299 -1.6658  1.5128 -1.9480
    3TCq1    H314377   1.392   1.022  14.624 -1.9606 -1.0012 -0.1770
    3TCq1    H414378   1.229   0.981  14.221 -0.0134  1.8020  0.2476
    4MPD2     C14379   1.024   0.707  14.606 -0.2105  0.0873  0.1934
    4MPD2    C114380   1.157   0.728  14.632  0.0232 -0.7684  0.3125
    4MPD2    C214381   1.219   0.665  14.737 -0.2095 -0.0686  0.0324
    4MPD2    C314382   1.154   0.571  14.805 -0.2844  0.2357 -0.2307
    4MPD2    C414383   1.023   0.543  14.779  0.1892 -0.2977  0.2738
    4MPD2    C514384   0.954   0.615  14.683  0.2209  0.1584 -0.9530
    4MPD2     H14385   1.324   0.686  14.751 -0.1985  1.1698 -1.9145
    4MPD2    H114386   0.963   0.473  14.835 -1.7604  0.2547 -1.1448
    4MPD2    H214387   0.971   0.763  14.530  0.2376 -3.1035 -2.4659
    4MPD2    H314388   0.853   0.589  14.653  1.0394 -1.7168 -2.0676
    4MPD2     N14389   1.241   0.498  14.899  0.1339  0.2720  0.0479
    4MPD2    H514390   1.339   0.522  14.909  0.0569  0.5186  0.2221
    4MPD2    N114391   1.244   0.810  14.561 -0.0088  0.1188 -0.0203
    4MPD2    H714392   1.327   0.842  14.611  0.8905 -0.4190 -1.1780
    5TMC2    C114393   2.204   0.072  15.004  0.5505  0.5740  0.0157
    5TMC2    C214394   2.300   0.092  15.095 -0.3264 -0.1913 -0.1002
    5TMC2    C314395   2.367   0.214  15.101 -0.3890 -0.1964 -0.3472
    5TMC2    C414396   2.175   0.176  14.917 -0.4391  0.3316 -0.2391
    5TMC2    C514397   2.216   0.299  14.952 -0.1286 -0.2655  0.8866
    5TMC2    C614398   2.325   0.324  15.031 -0.7021  0.5090  0.5531
    5TMC2     C14399   2.084   0.022  15.066  0.6486  0.4433 -0.3808
    5TMC2     O14400   2.060   0.063  15.178 -0.2796  0.2687  0.2551
    5TMC2     H14401   2.320   0.007  15.158  1.9890  1.8610  1.9091
    5TMC2    H114402   2.088   0.159  14.855  0.5092 -0.9686 -1.2089
    5TMC2    H214403   2.370   0.419  15.058 -1.6789  1.4503 -1.2129
    5TMC2    C714404   2.096   0.392  14.954  0.0311  0.1090  0.1018
    5TMC2    C814405   2.493   0.215  15.163  0.3288 -0.0221  0.2324
    5TMC2    O114406   1.994   0.352  14.903  0.2158 -0.0414  0.5123
    5TMC2    O214407   2.554   0.315  15.197  0.1058  0.3256 -0.5206
    5TMC2    O514408   2.547   0.103  15.108 -0.5270  0.3627  0.1807
    5TMC2    H514409   2.485   0.055  15.049  0.6873  0.7410 -1.3968
    6MPD2     C14410   1.618   4.563  14.969  1.0605  0.0511 -0.1965
    6MPD2    C114411   1.660   4.665  15.045  0.3122  0.0448  0.1870
    6MPD2    C214412   1.797   4.692  15.051 -0.1550 -0.2697 -0.6322
    6MPD2    C314413   1.887   4.620  14.979  0.5653 -0.4318  0.6093
    6MPD2    C414414   1.838   4.517  14.896  0.8711  0.4788 -0.6318
    6MPD2    C514415   1.706   4.490  14.894  0.2529 -0.2314  0.1202
    6MPD2     H14416   1.834   0.050  15.111  0.0212 -0.6665 -0.2001
    6MPD2    H114417   1.896   4.458  14.827  1.7144 -1.7139  1.9701
    6MPD2    H214418   1.513   4.540  14.956  0.3770  0.4178  4.6257
    6MPD2    H314419   1.675   4.408  14.829 -2.3342  1.5723 -0.9032
    6MPD2     N14420   2.020   4.666  14.979  0.1988 -0.0586  0.5451
    6MPD2    H514421   2.068   4.636  14.894 -0.5419 -2.9797  1.1708
    6MPD2    N114422   1.564   0.029  15.106 -0.0322  0.3024  0.7578
    6MPD2    H714423   1.598   0.122  15.131 -0.8001  1.0808 -1.0959
  945NH3     N114424   0.658   1.963  10.252 -0.6896 -0.1106  0.3802
  945NH3     H214425   0.674   2.000  10.159 -1.5379 -0.7620 -0.0271
  945NH3     H314426   0.752   1.952  10.286 -1.6026  0.3767  3.0774
  945NH3     H414427   0.615   1.872  10.237 -1.7632  0.5821 -0.7482
  946SOD     NA14428   4.333   3.588  17.411  0.5509  0.2633 -0.2556
  947SOD     NA14429   3.541   3.759  15.091 -0.0515  0.5297  0.7965
  948SOD     NA14430   4.047   1.578   2.856  0.2261  0.1275 -0.2833
  949SOD     NA14431   2.649   4.526  12.103 -0.2682 -0.0548 -0.4080
  950SOD     NA14432   0.971   4.168  16.818 -0.0271 -0.2595 -0.0287
  951SOD     NA14433   0.604   0.289   0.423  0.2059  0.5727  0.0872
  952SOD     NA14434   0.746   1.415   4.434  0.1573 -0.0008  0.1219
  953SOD     NA14435   2.873   1.685  10.356 -0.2069  0.3903 -0.5296
  954SOD     NA14436   2.889   0.131  13.992 -0.4062 -0.2163  0.4088
  955SOD     NA14437   4.526   0.351  15.546  0.3410  0.4202 -0.2627
  956SOD     NA14438   0.332   4.486  11.267  0.1887 -0.6069  0.1240
  957SOD     NA14439   1.027   4.532  11.844  0.0639  0.3199  0.2654
  958SOD     NA14440   3.206   1.989  17.494  0.2908 -0.0199 -0.1248
  959SOD     NA14441   3.616   3.727  14.742  0.8138  0.5228 -0.3892
  960SOD     NA14442   2.050   0.095  15.395  0.8050  0.0481  0.1787
  961SOD     NA14443   2.382   4.091  10.153 -0.1908  0.0929 -0.1161
  962SOD     NA14444   2.724   3.570  11.664 -0.0996 -0.0019 -0.4599
  963SOD     NA14445   4.123   3.561   0.752  0.2480  0.4414 -0.4081
  964SOD     NA14446   2.233   1.156  14.739  0.0070 -0.5551 -0.0133
  965SOD     NA14447   0.772   3.222   0.614  0.4350  0.5144 -0.1291
  966SOD     NA14448   3.326   2.572  14.232 -0.2829  0.1036 -0.3312
  967SOD     NA14449   4.614   1.835  11.934 -0.0448 -0.5596 -0.7672
  968SOD     NA14450   4.645   3.334   4.513  0.2067 -0.4626  0.3473
  969SOD     NA14451   3.813   3.638   8.885 -0.3253  0.0949 -0.1649
  970SOD     NA14452   2.053   0.781  10.822  0.4021 -0.2539  0.4107
  971SOD     NA14453   0.078   3.199  14.495  0.4250  0.1704  0.0570
  972SOD     NA14454   3.742   2.231  10.762 -0.3684  0.0713 -0.2550
  973SOD     NA14455   2.534   0.035  11.944  0.0078  0.1981 -0.1165
  974SOD     NA14456   1.558   3.916  13.095  0.2003 -0.2664 -0.8120
  975SOD     NA14457   2.483   0.071   4.665 -0.1205 -0.6977 -0.4782
  976SOD     NA14458   3.603   2.016   4.332  0.0696 -0.0636 -0.1428
  977SOD     NA14459   3.845   0.778  13.348  0.2147 -0.8281  0.4198
  978SOD     NA14460   4.080   2.703  13.248 -0.1133 -0.4222 -0.3803
  979SOD     NA14461   1.112   4.065  11.635 -0.1092 -0.3269  0.4581
  980SOD     NA14462   1.260   1.050  15.033  0.1132  0.0218 -0.4122
  981SOD     NA14463   4.206   4.145  12.091  0.0491  0.2066  0.4118
  982SOD     NA14464   3.482   2.906  16.863  0.2070 -0.2932 -0.3945
  983SOD     NA14465   0.467   3.827   2.645  0.6808  0.0136  0.0584
  984SOD     NA14466   2.293   4.326  10.538 -0.6066 -0.3032 -0.6061
  985SOD     NA14467   2.627   0.097  12.263 -0.0732  0.5548  0.1650
  986SOD     NA14468   0.997   3.307  11.866  0.0791 -0.0526 -0.2414
  987SOD     NA14469   1.158   4.564  16.015 -0.3413  0.2722  0.3439
  988SOD     NA14470   2.033   1.480  12.468 -0.5061 -0.3518  0.1566
  989SOD     NA14471   4.612   3.369  17.315  0.0725 -0.2045  0.3544
  990SOD     NA14472   4.025   4.159   1.498 -0.2207 -0.3618 -0.3047
  991SOD     NA14473   4.173   0.175  15.620  0.0856 -0.0498 -0.3367
  992SOD     NA14474   4.287   1.760  14.532  0.2980 -0.1842  0.4048
  993SOD     NA14475   2.387   3.915  10.453  0.0424 -0.0927 -0.4822
  994SOD     NA14476   1.614   4.229  13.101  0.4775 -0.1408 -0.1067
  995SOD     NA14477   3.236   3.739  13.031  0.0775 -0.1504 -0.1357
  996SOD     NA14478   2.835   4.524   2.050 -0.0196 -0.4613 -0.1055
  997SOD     NA14479   2.086   1.692   0.682  0.0454 -0.0813 -0.7092
  998SOD     NA14480   0.355   2.379   0.488 -0.1940 -0.4421  0.0663
  999SOD     NA14481   3.751   0.398   2.869  0.0411  0.2129 -0.1450
 1000SOD     NA14482   1.439   1.028   7.705  0.0491 -0.1356  0.2012
 1001SOD     NA14483   2.480   4.591  11.344 -0.4498  0.2300  0.1554
 1002SOD     NA14484   4.660   0.196  15.254  0.8097  0.3281  0.2407
 1003SOD     NA14485   3.902   0.570  11.471  0.1063 -0.1676  0.1274
 1004SOD     NA14486   2.770   1.116  10.040  0.1942 -0.4290 -0.2505
 1005SOD     NA14487   1.733   3.416  14.870  0.2005 -0.0768  0.3277
 1006SOD     NA14488   1.069   3.568   2.738 -0.1461  0.2500  0.2906
 1007SOD     NA14489   1.435   0.953   0.591  0.0139  0.5017  0.3451
 1008SOD     NA14490   2.972   2.572  13.196 -0.5780 -0.1891 -0.1392
 1009SOD     NA14491   0.645   3.409   7.966 -0.3072 -0.1134 -0.6518
 1010SOD     NA14492   1.744   2.636  10.504 -0.1245 -0.6722  0.0536
 1011SOD     NA14493   1.829   3.465   7.426  0.6749 -0.3403 -0.0094
 1012SOL     OW14494   1.894   3.534   6.977  0.0390  0.0606  0.1852
 1012SOL    HW114495   1.859   3.516   7.064 -0.4153  1.7208  0.3447
 1012SOL    HW214496   1.959   3.601   6.998  0.5387 -1.0761  2.1938
 1013SOL     OW14497   3.001   2.990   7.622 -0.1972  0.8547  0.0685
 1013SOL    HW114498   3.083   2.965   7.581 -1.8324 -0.0264 -2.6660
 1013SOL    HW214499   3.017   2.971   7.715  0.2200 -1.8171 -0.5317
 1014SOL     OW14500   2.033   1.663  11.110 -0.2860  0.0162  0.1168
 1014SOL    HW114501   2.100   1.703  11.165 -2.6648  3.3935  0.5512
 1014SOL    HW214502   1.981   1.741  11.089 -2.8369 -1.7825 -0.3237
 1015SOL     OW14503   0.187   2.769   5.053  0.1503  0.2442  0.0790
 1015SOL    HW114504   0.176   2.790   5.146 -2.5781 -0.0360 -0.1741
 1015SOL    HW214505   0.177   2.674   5.053 -1.1534  0.3803  0.6300
 1016SOL     OW14506   0.074   4.341  15.370 -0.1476  0.1849  0.0429
 1016SOL    HW114507   0.024   4.422  15.364 -0.8127 -0.0730  1.9623
 1016SOL    HW214508   0.015   4.285  15.421  2.1206 -0.7298  1.6667
 1017SOL     OW14509   2.084   0.946   9.692 -0.2851  0.9771 -0.1651
 1017SOL    HW114510   2.081   1.041   9.708  1.0014  0.7700  1.3083
 1017SOL    HW214511   2.098   0.910   9.780 -2.0686  1.3062  0.2556
 1018SOL     OW14512   3.560   3.429   7.576 -0.0666  0.5415  0.0541
 1018SOL    HW114513   3.565   3.511   7.625 -2.3654  0.1851  0.8907
 1018SOL    HW214514   3.470   3.439   7.545  0.1864  0.2504 -0.7668
 1019SOL     OW14515   1.121   0.630  12.211  0.0994 -0.2229  0.2205
 1019SOL    HW114516   1.160   0.694  12.153  1.6752 -0.0477  1.4688
 1019SOL    HW214517   1.193   0.567  12.210  0.2589 -0.0256 -0.4033
 1020SOL     OW14518   3.941   0.811  12.984 -0.2265 -0.5129 -0.2945
 1020SOL    HW114519   3.957   0.838  13.074 -0.8780  1.2940 -0.7198
 1020SOL    HW214520   3.943   0.892  12.934  0.5325 -0.1091  0.3993
 1021SOL     OW14521   3.575   3.796  14.250 -0.0486 -0.2222  0.7090
 1021SOL    HW114522   3.582   3.890  14.234  1.5510  0.0146  2.7794
 1021SOL    HW214523   3.584   3.793  14.345 -0.3016 -1.2902  0.7003
 1022SOL     OW14524   2.691   2.531   9.192  0.0958  0.1932  0.3782
 1022SOL    HW114525   2.642   2.463   9.237 -0.9206  0.0886 -0.8792
 1022SOL    HW214526   2.730   2.570   9.270  1.6392  3.3489 -1.9911
 1023SOL     OW14527   0.972   0.713   8.477  0.0515  0.3483 -0.3465
 1023SOL    HW114528   0.970   0.807   8.459 -0.7483  0.6874  1.5282
 1023SOL    HW214529   0.962   0.711   8.572 -1.9010 -0.5301 -0.5652
 1024SOL     OW14530   0.158   3.547  13.095 -0.3088 -0.1118 -0.2255
 1024SOL    HW114531   0.076   3.522  13.051  0.4790  0.7351 -2.1566
 1024SOL    HW214532   0.223   3.482  13.070  0.3394  1.4137 -2.4519
 1025SOL     OW14533   2.715   4.349  11.634  0.1017  0.1900  0.8964
 1025SOL    HW114534   2.688   4.289  11.704  0.7018 -0.8085  0.2769
 1025SOL    HW214535   2.778   4.395  11.689  0.4035 -0.1408  0.8263
 1026SOL     OW14536   3.445   0.737   1.264  0.3296 -0.1451 -0.7552
 1026SOL    HW114537   3.527   0.698   1.293  0.4767 -0.5345 -1.7021
 1026SOL    HW214538   3.461   0.817   1.214 -0.9907  0.6586  0.1132
 1027SOL     OW14539   2.107   2.183   5.432  0.4741 -0.2002 -0.1342
 1027SOL    HW114540   2.168   2.166   5.361  0.5738  0.0616 -0.1128
 1027SOL    HW214541   2.043   2.245   5.395 -0.6214 -0.2625  1.6358
 1028SOL     OW14542   2.720   1.284   8.742  0.5374 -0.0528 -0.0431
 1028SOL    HW114543   2.630   1.300   8.716  1.0579  4.1313  0.7821
 1028SOL    HW214544   2.742   1.243   8.659 -1.6912 -0.4303 -0.4433
 1029SOL     OW14545   0.159   4.442   7.843  0.0992  0.0599 -0.2282
 1029SOL    HW114546   0.177   4.529   7.877 -1.7923  0.4812 -0.3250
 1029SOL    HW214547   0.169   4.390   7.922  2.7404 -0.1892 -0.7083
 1030SOL     OW14548   0.996   0.934   0.499  0.5018 -0.2451  0.4245
 1030SOL    HW114549   0.982   0.990   0.423 -1.0762  0.6777  1.3816
 1030SOL    HW214550   0.964   0.849   0.470 -1.5642  1.3223 -1.8866
 1031SOL     OW14551   1.142   0.300  10.893 -0.5085 -0.4133  0.2741
 1031SOL    HW114552   1.114   0.374  10.948  2.0874  0.9397 -0.2806
 1031SOL    HW214553   1.154   0.350  10.813 -0.5275 -1.5059 -0.4043
 1032SOL     OW14554   2.401   1.518  10.866 -0.4431 -0.4303  0.4594
 1032SOL    HW114555   2.334   1.467  10.912  0.4631 -0.0566  2.1599
 1032SOL    HW214556   2.399   1.463  10.787  2.3310 -0.0966  0.1767
 1033SOL     OW14557   4.138   1.208   3.099 -0.1762 -0.0650 -0.2035
 1033SOL    HW114558   4.124   1.248   3.185  0.5145 -0.9106  0.3019
 1033SOL    HW214559   4.230   1.228   3.083  0.4266 -1.2875  1.6957
 1034SOL     OW14560   2.974   2.979   5.125  0.3970 -0.0870 -0.2402
 1034SOL    HW114561   3.051   3.005   5.175  0.5799 -1.0517 -0.0307
 1034SOL    HW214562   2.903   2.992   5.187  0.2088  1.0155 -0.6937
 1035SOL     OW14563   0.839   0.242  12.777  0.0756  0.2086  0.1837
 1035SOL    HW114564   0.811   0.216  12.690 -2.0634 -0.9584  1.2299
 1035SOL    HW214565   0.768   0.299  12.807 -0.0160 -0.2805  0.8922
 1036SOL     OW14566   1.118   0.334  15.627  0.2027 -0.3957  0.2132
 1036SOL    HW114567   1.027   0.335  15.596 -0.2037  1.7441  1.4385
 1036SOL    HW214568   1.127   0.421  15.666  0.1886 -0.7067  0.9054
 1037SOL     OW14569   1.353   0.686  13.905 -0.4077  0.1334  0.0832
 1037SOL    HW114570   1.362   0.668  13.998  1.0414 -1.7110 -0.4086
 1037SOL    HW214571   1.292   0.613  13.892 -0.5877  0.5100 -1.2013
 1038SOL     OW14572   1.234   1.299   4.860  0.0403  0.3459  0.6822
 1038SOL    HW114573   1.219   1.227   4.921  0.0551 -0.2608 -0.0218
 1038SOL    HW214574   1.271   1.248   4.788 -0.5180 -0.0311  0.6690
 1039SOL     OW14575   1.997   3.114   4.996  0.0936 -0.0800 -0.7296
 1039SOL    HW114576   1.984   3.167   5.074 -1.2496 -0.0770 -0.9476
 1039SOL    HW214577   2.069   3.155   4.949 -0.6439  2.7426  0.6337
 1040SOL     OW14578   0.914   4.223  10.986  0.2213 -0.5441  0.0038
 1040SOL    HW114579   0.944   4.132  10.988 -2.3979 -1.4064 -0.5764
 1040SOL    HW214580   0.966   4.263  10.917 -0.9612 -0.6742 -0.9511
 1041SOL     OW14581   2.883   1.678   8.927 -0.0595 -0.0238  0.2327
 1041SOL    HW114582   2.807   1.676   8.869  1.2217 -1.6340 -1.3982
 1041SOL    HW214583   2.864   1.746   8.991 -1.3129 -1.4045  1.3369
 1042SOL     OW14584   3.089   0.684  17.396  0.3472 -0.4367  0.0444
 1042SOL    HW114585   3.164   0.624  17.397  0.7725  0.0732 -0.7965
 1042SOL    HW214586   3.065   0.676  17.303  0.8405  0.0710 -0.1250
 1043SOL     OW14587   0.766   4.600  14.997 -0.1504 -0.2650  0.4731
 1043SOL    HW114588   0.795   4.511  15.017  0.1751 -0.3743 -0.5153
 1043SOL    HW214589   0.764   4.629  15.088 -0.0822 -2.0387  1.0585
 1044SOL     OW14590   0.749   0.711   3.791  0.1808 -0.1960 -0.3034
 1044SOL    HW114591   0.779   0.733   3.879 -0.0842  2.1618 -0.7944
 1044SOL    HW214592   0.785   0.625   3.769 -1.0343 -1.4008  2.5366
 1045SOL     OW14593   0.879   3.338  10.359  0.1596  0.5209  0.8075
 1045SOL    HW114594   0.886   3.373  10.448  1.4871  1.0618  0.4934
 1045SOL    HW214595   0.939   3.396  10.313 -1.7147  2.6081  0.9876
 1046SOL     OW14596   3.010   3.290   3.489  0.1189 -0.0034  0.1936
 1046SOL    HW114597   2.963   3.251   3.416 -1.6532  0.8158  0.9078
 1046SOL    HW214598   3.099   3.291   3.452 -0.3453  1.0136 -0.8722
 1047SOL     OW14599   1.186   1.742  16.622  0.0830 -0.0879  0.6613
 1047SOL    HW114600   1.257   1.712  16.565 -1.8479 -0.4397 -1.5985
 1047SOL    HW214601   1.136   1.776  16.548  0.4033 -1.5270 -0.2093
 1048SOL     OW14602   2.725   1.564   3.592  0.9011 -0.0725  0.5877
 1048SOL    HW114603   2.722   1.592   3.501  0.9432 -2.0934 -0.0250
 1048SOL    HW214604   2.762   1.645   3.628 -0.8427  0.2951  1.5320
 1049SOL     OW14605   0.476   2.979   2.469 -0.1262  0.0119  0.2949
 1049SOL    HW114606   0.412   2.988   2.540  0.0421  0.6734  0.3616
 1049SOL    HW214607   0.424   2.961   2.392 -0.9548  0.1415  0.8199
 1050SOL     OW14608   4.472   3.229   8.651  0.2967  0.4235  0.4130
 1050SOL    HW114609   4.455   3.186   8.567  0.7939  1.4844 -0.2263
 1050SOL    HW214610   4.554   3.279   8.647  1.2546 -1.2731 -0.9344
 1051SOL     OW14611   3.069   2.825   1.047  0.6714 -0.4075  0.1794
 1051SOL    HW114612   3.136   2.878   1.090 -0.9364  1.7069  0.0316
 1051SOL    HW214613   3.030   2.889   0.989  3.8704  0.7297 -0.7031
 1052SOL     OW14614   3.743   3.904   7.381 -0.3270  0.2983 -0.0465
 1052SOL    HW114615   3.666   3.944   7.421 -0.4952  0.6671 -0.7246
 1052SOL    HW214616   3.805   3.929   7.449 -0.8696 -0.5317  0.7568
 1053SOL     OW14617   1.813   1.541  12.484  0.7771 -0.3383  0.3213
 1053SOL    HW114618   1.803   1.450  12.510  2.0428  0.0252  2.0316
 1053SOL    HW214619   1.735   1.576  12.528  0.2196  0.7099 -1.4893
 1054SOL     OW14620   3.676   2.220  13.398  0.1006  0.3198 -0.0299
 1054SOL    HW114621   3.727   2.301  13.403  2.5564 -1.2059 -0.4591
 1054SOL    HW214622   3.651   2.219  13.306  0.5195 -1.2393 -0.1342
 1055SOL     OW14623   2.409   3.604  17.599 -0.0029 -0.3669  0.0023
 1055SOL    HW114624   2.440   3.582  17.686 -2.6202 -0.0981  1.0250
 1055SOL    HW214625   2.487   3.645  17.561  0.2622 -1.1919 -0.3331
 1056SOL     OW14626   0.191   2.543   9.069 -0.0136  0.0052  0.0261
 1056SOL    HW114627   0.213   2.527   8.977  0.8393  1.4366 -0.0175
 1056SOL    HW214628   0.222   2.634   9.076  1.5998 -0.6913  1.8622
 1057SOL     OW14629   0.561   2.867   5.911  0.1591  0.2553  0.0564
 1057SOL    HW114630   0.466   2.876   5.908 -0.0753 -2.0596 -0.1627
 1057SOL    HW214631   0.563   2.807   5.836  1.2590 -0.7827  0.9020
 1058SOL     OW14632   1.030   2.852   5.731 -0.2210  0.2905 -0.0165
 1058SOL    HW114633   0.992   2.886   5.650 -0.8043 -1.1049 -0.3229
 1058SOL    HW214634   1.085   2.928   5.750 -0.0114 -0.2449  1.5233
 1059SOL     OW14635   0.482   4.286   5.542  0.1227  0.6464 -0.3754
 1059SOL    HW114636   0.446   4.358   5.490 -0.0789 -0.7036 -2.1276
 1059SOL    HW214637   0.562   4.269   5.492 -0.3918  2.8629 -1.9437
 1060SOL     OW14638   0.487   3.980   0.488 -0.4517  0.0813  0.0556
 1060SOL    HW114639   0.551   4.027   0.435 -1.4299  0.6720 -0.5917
 1060SOL    HW214640   0.543   3.904   0.507 -0.4256  0.1109  0.0973
 1061SOL     OW14641   1.216   2.567   6.830  0.2019  0.2860  0.2293
 1061SOL    HW114642   1.246   2.496   6.886 -1.0177 -2.7764 -2.9419
 1061SOL    HW214643   1.127   2.585   6.860  0.4493 -2.9494  2.8943
 1062SOL     OW14644   2.866   3.703  10.540 -0.1166 -0.0004 -0.3820
 1062SOL    HW114645   2.890   3.771  10.477  0.4046  0.3440  0.1942
 1062SOL    HW214646   2.812   3.745  10.607 -0.9616 -0.5557 -0.7085
 1063SOL     OW14647   3.305   4.359   2.827 -0.0899 -0.0262 -0.5191
 1063SOL    HW114648   3.357   4.280   2.841 -0.5702 -0.0106  1.3092
 1063SOL    HW214649   3.233   4.322   2.776 -0.6866  0.0842  0.2471
 1064SOL     OW14650   4.687   2.880   9.770  0.5515  0.2927 -0.1270
 1064SOL    HW114651   4.605   2.831   9.779 -0.1977  1.1894 -2.0238
 1064SOL    HW214652   4.661   2.968   9.745 -0.7852  0.3824  1.5716
 1065SOL     OW14653   3.846   4.396   2.674  0.1420 -0.5620  0.7614
 1065SOL    HW114654   3.845   4.369   2.766  0.3521 -0.3603  0.8223
 1065SOL    HW214655   3.772   4.344   2.641  0.0796 -0.7210  1.1534
 1066SOL     OW14656   0.977   1.340   3.781  0.2317 -0.1248 -0.3672
 1066SOL    HW114657   1.046   1.304   3.726  1.1037  0.6330  0.2209
 1066SOL    HW214658   0.960   1.428   3.746 -1.8297  0.2614  1.5714
 1067SOL     OW14659   0.021   0.086   3.150 -0.0784 -0.4696 -0.1062
 1067SOL    HW114660   0.043   0.101   3.242  1.8894  2.6556 -1.0772
 1067SOL    HW214661   4.688   0.010   3.155 -0.2482 -0.3416 -0.1050
 1068SOL     OW14662   2.527   2.869   8.366 -0.4376 -0.4148  0.1984
 1068SOL    HW114663   2.589   2.925   8.320  0.5562 -0.3204  1.6901
 1068SOL    HW214664   2.581   2.815   8.423 -0.8258 -1.0893 -0.0629
 1069SOL     OW14665   3.921   1.856   6.052 -0.2572  0.0309 -0.1780
 1069SOL    HW114666   3.906   1.942   6.013 -0.2413 -0.3705 -1.0566
 1069SOL    HW214667   3.912   1.799   5.976  2.3489 -0.4607 -0.1265
 1070SOL     OW14668   1.836   1.004   9.373  0.2257 -0.3279 -0.5889
 1070SOL    HW114669   1.892   1.018   9.450 -1.4170 -3.1521  1.1118
 1070SOL    HW214670   1.825   1.092   9.335  1.2399 -0.0599 -0.2519
 1071SOL     OW14671   3.051   2.381   5.475  0.2766  0.5304  0.1323
 1071SOL    HW114672   2.983   2.330   5.518  0.6620  1.0103  1.2987
 1071SOL    HW214673   3.040   2.463   5.523  0.0692 -0.0223  1.0248
 1072SOL     OW14674   2.509   1.093   5.397 -0.0502  0.3239  0.3993
 1072SOL    HW114675   2.450   1.161   5.429 -0.1968 -0.4580  1.8208
 1072SOL    HW214676   2.573   1.094   5.469  1.9971  1.0978 -1.4442
 1073SOL     OW14677   1.307   2.943   3.089  0.6855 -0.2536  0.0258
 1073SOL    HW114678   1.251   2.922   3.164 -2.1367  0.1177 -1.9824
 1073SOL    HW214679   1.361   2.865   3.078  1.8871  0.5049  0.5989
 1074SOL     OW14680   3.702   4.176   6.995 -0.2411  0.4437  0.9872
 1074SOL    HW114681   3.636   4.123   6.949 -1.3934  0.0318  3.1130
 1074SOL    HW214682   3.751   4.113   7.049  1.6754  3.2859  2.5693
 1075SOL     OW14683   3.653   2.458   2.978 -0.1093 -0.1422  0.3839
 1075SOL    HW114684   3.572   2.446   2.928  0.7613 -0.2509 -1.0224
 1075SOL    HW214685   3.705   2.481   2.900  0.9839 -2.0511  0.5359
 1076SOL     OW14686   3.917   2.041  13.460 -0.1827 -0.0561  0.2348
 1076SOL    HW114687   3.927   2.110  13.394 -1.3191 -0.0842  0.0428
 1076SOL    HW214688   3.900   1.968  13.401  0.5219  1.0037 -1.3162
 1077SOL     OW14689   0.395   4.227  17.215  0.2283  0.0999 -0.3044
 1077SOL    HW114690   0.405   4.241  17.310 -2.5166  0.8430 -0.1205
 1077SOL    HW214691   0.380   4.134  17.202 -1.5332  0.1568  1.1431
 1078SOL     OW14692   2.592   2.164   4.229 -0.4254  0.0017 -0.2466
 1078SOL    HW114693   2.656   2.187   4.298  1.2479  1.4530 -2.2976
 1078SOL    HW214694   2.622   2.077   4.201  1.0124  1.2590 -2.6067
 1079SOL     OW14695   1.412   2.232   3.090  0.1584 -0.3588  0.1956
 1079SOL    HW114696   1.341   2.248   3.027 -0.6001 -0.2368  1.0762
 1079SOL    HW214697   1.469   2.170   3.044 -0.9186 -1.3843  0.2405
 1080SOL     OW14698   3.936   4.041   8.700  0.1189 -0.2079  0.0259
 1080SOL    HW114699   3.958   3.966   8.646 -1.9826  0.3909 -1.6793
 1080SOL    HW214700   3.875   4.002   8.764  2.8398 -4.6168 -0.1470
 1081SOL     OW14701   4.164   2.262   2.419  0.0313 -0.0360 -0.6853
 1081SOL    HW114702   4.251   2.223   2.414 -0.3710 -0.9385 -0.5474
 1081SOL    HW214703   4.128   2.248   2.331 -0.0888 -1.6072 -0.3723
 1082SOL     OW14704   1.604   0.729   6.068 -0.1579 -0.1867 -0.1575
 1082SOL    HW114705   1.578   0.637   6.068 -0.6197 -0.0572 -0.8490
 1082SOL    HW214706   1.683   0.727   6.015  0.3107  1.2108  0.4750
 1083SOL     OW14707   1.340   4.066  10.631  0.1570  0.1211 -0.3390
 1083SOL    HW114708   1.250   4.055  10.599 -0.1582 -0.6835  0.8474
 1083SOL    HW214709   1.341   4.011  10.709 -2.0115  0.3409 -0.1445
 1084SOL     OW14710   4.096   1.884   2.098  0.3297 -0.3214  0.4233
 1084SOL    HW114711   4.067   1.802   2.058 -2.0941  0.0311  1.4336
 1084SOL    HW214712   4.155   1.850   2.166  0.2188 -1.4390 -0.0485
 1085SOL     OW14713   4.021   4.380   5.800  0.3643 -0.5767  0.2583
 1085SOL    HW114714   4.110   4.409   5.782  1.1428 -3.1916  0.0424
 1085SOL    HW214715   3.982   4.446   5.742 -0.9840  1.5606  3.6215
 1086SOL     OW14716   0.261   3.465   5.524 -0.0145  0.0262 -0.1098
 1086SOL    HW114717   0.226   3.465   5.435 -2.1662  2.3633  0.7532
 1086SOL    HW214718   0.356   3.468   5.507 -0.5644 -0.3576 -3.2924
 1087SOL     OW14719   4.103   1.362   4.242 -0.4365  0.1318  0.7992
 1087SOL    HW114720   4.133   1.302   4.310  0.9043 -2.3454 -1.9810
 1087SOL    HW214721   4.101   1.440   4.298  0.7043  0.6979  0.0449
 1088SOL     OW14722   4.040   1.899   1.802  1.0282 -0.7620 -0.3625
 1088SOL    HW114723   4.086   1.828   1.846 -2.3897 -2.3752  0.5830
 1088SOL    HW214724   4.095   1.932   1.731 -1.3260 -0.6924 -2.1757
 1089SOL     OW14725   2.348   4.396  17.686  0.1741  0.5004 -0.1761
 1089SOL    HW114726   2.420   4.456   0.009 -1.4862  1.6630  1.9296
 1089SOL    HW214727   2.365   4.338   0.060 -0.1690 -0.0033 -0.4907
 1090SOL     OW14728   1.044   2.585   8.585 -0.3751  0.1978 -0.8802
 1090SOL    HW114729   1.053   2.640   8.507  0.3520  1.2389 -0.0635
 1090SOL    HW214730   0.976   2.527   8.552  1.1344 -1.4445 -1.0859
 1091SOL     OW14731   2.899   1.530   1.445 -0.4863 -0.3563 -0.6265
 1091SOL    HW114732   2.823   1.548   1.501 -0.0154  2.7286 -0.9999
 1091SOL    HW214733   2.924   1.621   1.428  2.0566 -0.8318  0.6297
 1092SOL     OW14734   3.637   1.945   1.356  0.5731  0.3099 -0.4259
 1092SOL    HW114735   3.657   2.021   1.302 -1.5569  1.0493 -0.1790
 1092SOL    HW214736   3.709   1.940   1.419 -1.2217 -1.0245  1.5533
 1093SOL     OW14737   1.857   2.463   1.991 -0.5301  0.3512 -0.3854
 1093SOL    HW114738   1.812   2.399   2.045 -1.0548  4.7105  4.4182
 1093SOL    HW214739   1.859   2.543   2.045  0.3569 -0.1727  0.3642
 1094SOL     OW14740   1.093   0.398   7.311  0.0265  0.7522  0.0289
 1094SOL    HW114741   0.999   0.416   7.307 -0.1833 -0.1232  0.9467
 1094SOL    HW214742   1.124   0.487   7.325  1.0405  0.4482 -0.3269
 1095SOL     OW14743   3.540   0.807   3.751  0.4112 -0.1017  0.0992
 1095SOL    HW114744   3.617   0.821   3.695 -1.2474  1.3934 -1.7954
 1095SOL    HW214745   3.577   0.854   3.826 -1.0714 -0.8224  1.2762
 1096SOL     OW14746   0.437   0.048  15.654 -0.4839  0.0507  0.2526
 1096SOL    HW114747   0.463   4.686  15.686  0.5212  0.5631  0.8147
 1096SOL    HW214748   0.382   0.017  15.582 -1.1937  2.3553 -0.2028
 1097SOL     OW14749   1.015   1.631  16.810 -0.1259  0.4743 -0.2802
 1097SOL    HW114750   0.952   1.701  16.790 -0.9146 -0.4465 -1.0190
 1097SOL    HW214751   1.088   1.664  16.758  0.2026  2.5940  1.5151
 1098SOL     OW14752   1.474   4.406   7.019 -0.1630 -0.3160  0.1493
 1098SOL    HW114753   1.438   4.452   7.095  1.3483  0.4456  0.4103
 1098SOL    HW214754   1.504   4.478   6.963  1.1848 -0.9026  0.1228
 1099SOL     OW14755   3.909   3.736   2.245  0.3496  0.2401  0.4337
 1099SOL    HW114756   3.847   3.672   2.212  0.4727  0.2520  0.1782
 1099SOL    HW214757   3.984   3.725   2.187  0.7630  0.0828  0.9878
 1100SOL     OW14758   1.834   3.255   2.207 -0.6187  0.1185 -0.3874
 1100SOL    HW114759   1.753   3.244   2.257 -0.6560  1.9405 -0.0464
 1100SOL    HW214760   1.864   3.334   2.252 -0.6597 -0.6135  0.8924
 1101SOL     OW14761   1.950   3.538   3.638  0.2415  0.3214  0.0229
 1101SOL    HW114762   1.889   3.601   3.677  0.3457  1.6870 -2.0790
 1101SOL    HW214763   1.925   3.452   3.672  1.7888  0.1397  0.7153
 1102SOL     OW14764   4.516   1.084   8.940 -0.0063 -0.4799 -0.3705
 1102SOL    HW114765   4.478   1.125   8.862  0.3563 -0.0215 -0.3050
 1102SOL    HW214766   4.556   1.006   8.901  1.4963  0.3301 -0.4512
 1103SOL     OW14767   4.179   4.359   6.561  0.2580  0.4236 -0.2401
 1103SOL    HW114768   4.182   4.438   6.615  1.4120  1.4808 -1.8572
 1103SOL    HW214769   4.221   4.294   6.618 -1.4425  1.8258  2.6141
 1104SOL     OW14770   2.352   2.084  15.501 -0.3381  0.5138 -0.3637
 1104SOL    HW114771   2.356   2.172  15.539  1.0796  0.1993  0.2168
 1104SOL    HW214772   2.258   2.069  15.503 -0.0400 -1.1661  0.6480
 1105SOL     OW14773   0.935   3.169   1.321  0.0399 -0.1262 -0.1025
 1105SOL    HW114774   0.944   3.094   1.381  2.6076 -1.0284 -1.6265
 1105SOL    HW214775   1.025   3.186   1.291 -0.0391 -2.1403 -1.4873
 1106SOL     OW14776   3.515   0.343   7.827  0.6182 -0.3367 -0.4819
 1106SOL    HW114777   3.570   0.415   7.855  1.4152 -1.7528  1.5826
 1106SOL    HW214778   3.496   0.367   7.736  2.5488 -2.6185 -1.5169
 1107SOL     OW14779   0.170   2.862   6.854  0.5598 -0.0372 -0.2268
 1107SOL    HW114780   0.171   2.848   6.949  0.3714  0.6493 -0.1251
 1107SOL    HW214781   0.121   2.783   6.831 -0.7636  0.7652 -0.1400
 1108SOL     OW14782   2.758   1.355  11.753 -0.4055 -0.3733  0.1146
 1108SOL    HW114783   2.805   1.274  11.770 -0.0583 -0.4019 -0.9865
 1108SOL    HW214784   2.669   1.331  11.729 -0.6892  0.1359  0.6544
 1109SOL     OW14785   1.091   4.272   5.253  0.3550  0.0456 -0.7883
 1109SOL    HW114786   1.178   4.278   5.212  0.3913 -1.5999 -0.9472
 1109SOL    HW214787   1.093   4.319   5.337  1.9298  2.4350 -2.1474
 1110SOL     OW14788   4.559   2.617   2.131 -1.1608  0.0368 -0.6279
 1110SOL    HW114789   4.597   2.699   2.099 -0.9582  0.1293 -0.1572
 1110SOL    HW214790   4.571   2.561   2.053  0.2517  0.9930 -1.0952
 1111SOL     OW14791   3.222   2.295   4.732  0.1129  0.4142 -0.0960
 1111SOL    HW114792   3.139   2.291   4.780 -0.1601  1.1388 -0.5021
 1111SOL    HW214793   3.194   2.230   4.668  0.2693  0.3117 -0.0609
 1112SOL     OW14794   1.925   2.259   9.655  1.1197  0.3263  0.2130
 1112SOL    HW114795   1.844   2.208   9.651  1.9521 -1.0016  0.1624
 1112SOL    HW214796   1.936   2.301   9.570 -2.0015  1.3998  0.3285
 1113SOL     OW14797   2.640   3.570  16.538 -0.5515  0.1999  0.0778
 1113SOL    HW114798   2.571   3.632  16.513  0.8365  0.8592 -2.1129
 1113SOL    HW214799   2.639   3.582  16.633  0.0574 -0.0537  0.1149
 1114SOL     OW14800   1.843   1.114   6.196 -0.0614 -0.3762  0.0976
 1114SOL    HW114801   1.820   1.153   6.280 -1.5462  1.3806 -1.1425
 1114SOL    HW214802   1.794   1.178   6.145  0.3305 -0.9304 -0.9675
 1115SOL     OW14803   1.834   2.343   6.757  0.4365  0.2860  0.1331
 1115SOL    HW114804   1.750   2.356   6.802 -0.1978  2.0629 -1.5660
 1115SOL    HW214805   1.817   2.355   6.663 -0.8274 -1.7677  0.0891
 1116SOL     OW14806   0.277   0.442   3.802 -0.3372  0.1727 -0.7641
 1116SOL    HW114807   0.310   0.524   3.837 -0.1234 -0.1193 -0.2762
 1116SOL    HW214808   0.347   0.388   3.840 -0.1421  0.2103 -1.0648
 1117SOL     OW14809   0.993   1.639   6.476  0.2332 -0.6178  0.4888
 1117SOL    HW114810   1.030   1.720   6.441 -0.4990  0.7117  2.8253
 1117SOL    HW214811   1.032   1.575   6.417  0.8639 -0.4165  0.6903
 1118SOL     OW14812   0.528   2.531   4.182  0.0908 -0.2651  0.4447
 1118SOL    HW114813   0.590   2.543   4.254 -0.4299  2.0343  0.5078
 1118SOL    HW214814   0.524   2.436   4.191  4.2252 -0.4349  0.8487
 1119SOL     OW14815   1.614   2.628   6.955  0.3020  0.6486  0.1904
 1119SOL    HW114816   1.581   2.650   7.042 -0.3189  0.1722  0.0771
 1119SOL    HW214817   1.612   2.717   6.920  0.2460  0.6396  0.1708
 1120SOL     OW14818   3.849   2.092   7.408 -0.6302 -0.0778 -0.0423
 1120SOL    HW114819   3.841   2.182   7.437  0.8165  0.1849 -0.4925
 1120SOL    HW214820   3.765   2.055   7.434 -1.0939  0.9261 -0.1209
 1121SOL     OW14821   4.293   0.355   3.469  0.0117 -0.2768  0.1468
 1121SOL    HW114822   4.379   0.392   3.488  0.4735 -1.1698 -0.2070
 1121SOL    HW214823   4.248   0.365   3.553  2.0170  1.3969  1.0297
 1122SOL     OW14824   2.069   1.644   4.876 -0.3812  0.1379 -0.2062
 1122SOL    HW114825   2.061   1.549   4.878 -1.2420  0.2880  3.1837
 1122SOL    HW214826   2.102   1.663   4.964  1.3000 -1.9964 -0.3857
 1123SOL     OW14827   4.175   4.507   2.483 -0.2325 -0.1893  0.6473
 1123SOL    HW114828   4.116   4.564   2.531 -0.0530  1.4492 -1.1088
 1123SOL    HW214829   4.140   4.423   2.514 -2.2773  0.3397 -0.2503
 1124SOL     OW14830   2.201   3.205   3.550  0.0058  0.0994 -0.1383
 1124SOL    HW114831   2.227   3.130   3.604 -1.3610 -0.9363 -0.9375
 1124SOL    HW214832   2.174   3.161   3.470  1.7714 -0.1814 -0.5853
 1125SOL     OW14833   2.244   1.329   2.694 -0.1139  0.4493 -0.1732
 1125SOL    HW114834   2.177   1.301   2.631 -1.8688 -0.4778  2.1372
 1125SOL    HW214835   2.266   1.247   2.737 -1.3030 -0.1379 -0.6694
 1126SOL     OW14836   1.157   3.565   3.733 -0.4504  0.1050 -0.0304
 1126SOL    HW114837   1.251   3.564   3.751 -0.3442  1.5652 -0.4444
 1126SOL    HW214838   1.139   3.654   3.765 -0.8895 -0.1597  0.4515
 1127SOL     OW14839   1.198   3.139  17.152 -0.1784 -0.4030  0.3061
 1127SOL    HW114840   1.172   3.128  17.061 -0.0092  0.1527  0.1937
 1127SOL    HW214841   1.145   3.205  17.198  0.3510 -0.5074  1.0574
 1128SOL     OW14842   2.136   3.699   7.690 -0.0801 -0.4174  0.1921
 1128SOL    HW114843   2.217   3.741   7.719  0.1758  0.7865 -2.3002
 1128SOL    HW214844   2.099   3.668   7.773 -0.1589 -1.1258 -0.1033
 1129SOL     OW14845   0.743   3.419  13.924  0.1483  0.2568  0.2775
 1129SOL    HW114846   0.745   3.381  13.836  1.5616 -0.9204  0.8074
 1129SOL    HW214847   0.654   3.448  13.942  0.6523  2.5826 -1.1009
 1130SOL     OW14848   1.083   0.883   3.453 -0.8590 -0.2711 -0.3022
 1130SOL    HW114849   1.010   0.939   3.481 -1.8912 -1.2185 -1.1138
 1130SOL    HW214850   1.143   0.902   3.525 -0.9060 -3.4301  0.5748
 1131SOL     OW14851   1.423   2.854  16.726 -0.1650 -0.4251 -0.4619
 1131SOL    HW114852   1.458   2.773  16.761  2.1873  0.7440 -0.1287
 1131SOL    HW214853   1.340   2.867  16.771 -0.3711 -0.2975 -0.8740
 1132SOL     OW14854   2.991   0.519   5.695 -0.5051  0.0398 -0.4958
 1132SOL    HW114855   3.079   0.528   5.661 -0.3900  0.5487 -0.0615
 1132SOL    HW214856   2.963   0.434   5.659  3.5432 -0.8079 -1.6343
 1133SOL     OW14857   4.336   1.148   6.664  0.3015 -0.0949 -0.4810
 1133SOL    HW114858   4.270   1.089   6.700  0.7639  0.6039  1.5333
 1133SOL    HW214859   4.307   1.232   6.700 -0.4333 -0.1687 -0.9017
 1134SOL     OW14860   4.355   3.340   3.072  0.1526 -0.0387  0.1001
 1134SOL    HW114861   4.308   3.339   2.989  2.6534 -1.9791 -1.3051
 1134SOL    HW214862   4.300   3.392   3.130  0.2248  0.2287 -0.0737
 1135SOL     OW14863   1.744   3.643  15.597 -0.3217 -0.5113 -0.1092
 1135SOL    HW114864   1.742   3.586  15.674 -0.1867 -0.5236 -0.1158
 1135SOL    HW214865   1.723   3.584  15.525 -2.7484 -1.0252  0.9998
 1136SOL     OW14866   2.182   0.681   7.303 -0.7027  0.5496  0.1646
 1136SOL    HW114867   2.176   0.704   7.210 -0.5209 -2.4852 -0.6302
 1136SOL    HW214868   2.246   0.744   7.335  0.0064 -1.3868  2.5900
 1137SOL     OW14869   3.157   2.098   3.645 -0.9883  0.5803  0.3781
 1137SOL    HW114870   3.211   2.034   3.598 -1.0138 -0.1213  1.3253
 1137SOL    HW214871   3.072   2.066   3.615 -0.5739 -0.3811  0.2322
 1138SOL     OW14872   1.846   0.756  10.932 -0.2246 -0.3149  0.0653
 1138SOL    HW114873   1.858   0.683  10.993  2.2879 -0.2077 -0.3045
 1138SOL    HW214874   1.760   0.735  10.895 -0.4757 -0.2683  0.6116
 1139SOL     OW14875   4.242   0.831   3.080 -0.0556 -0.4932  0.2136
 1139SOL    HW114876   4.167   0.888   3.098  1.1113  1.4547 -1.0903
 1139SOL    HW214877   4.248   0.786   3.164  1.7831 -1.8247 -0.6380
 1140SOL     OW14878   1.382   1.280   5.810  0.0081 -0.2884  0.0492
 1140SOL    HW114879   1.471   1.312   5.821  0.1851 -0.3436 -1.2330
 1140SOL    HW214880   1.396   1.193   5.849  2.4466  0.1366  0.1153
 1141SOL     OW14881   3.045   2.123   5.139 -0.1617  0.0007 -0.0859
 1141SOL    HW114882   3.077   2.035   5.159  3.0500  1.1729 -0.1075
 1141SOL    HW214883   2.964   2.105   5.186 -1.3788  0.6645 -1.9261
 1142SOL     OW14884   1.238   2.025   4.114  0.5645 -0.5111 -0.1709
 1142SOL    HW114885   1.285   2.019   4.197  1.4907  1.0108 -0.5883
 1142SOL    HW214886   1.169   2.089   4.134  2.0784  1.1217 -0.1562
 1143SOL     OW14887   2.474   0.550   7.635  0.6342 -0.3379 -0.2935
 1143SOL    HW114888   2.518   0.587   7.559 -2.5606 -1.7008 -2.7909
 1143SOL    HW214889   2.500   0.599   7.713  1.0837 -1.1069  0.0421
 1144SOL     OW14890   0.009   4.488   2.325  0.8444  0.0515 -0.0213
 1144SOL    HW114891   0.098   4.506   2.294  0.0462 -0.0689 -2.3865
 1144SOL    HW214892   0.010   4.393   2.316 -0.3689  0.1235 -0.9323
 1145SOL     OW14893   0.767   3.586   5.627  0.1873  0.7120 -0.4014
 1145SOL    HW114894   0.776   3.499   5.588 -0.9484 -0.1937  1.3522
 1145SOL    HW214895   0.684   3.601   5.581 -0.1127  1.3362  0.3415
 1146SOL     OW14896   1.025   1.076   8.717 -1.0544 -0.5888 -0.1920
 1146SOL    HW114897   1.003   1.160   8.758  2.5317  1.2793 -2.0647
 1146SOL    HW214898   1.083   1.033   8.779  1.0214  1.2820 -0.8548
 1147SOL     OW14899   0.781   0.478   7.235  0.3217 -0.1931 -0.1641
 1147SOL    HW114900   0.697   0.482   7.189 -1.2907  1.1483  2.8790
 1147SOL    HW214901   0.814   0.568   7.236 -1.0069  0.3475 -2.9886
 1148SOL     OW14902   0.381   1.997   8.495  0.0966  0.1198  0.1590
 1148SOL    HW114903   0.417   1.984   8.583 -2.7807  2.1151  1.5958
 1148SOL    HW214904   0.409   1.913   8.457  1.3595  0.8543 -0.5341
 1149SOL     OW14905   0.753   1.611   1.661 -0.2663  0.5540  0.6820
 1149SOL    HW114906   0.753   1.621   1.566 -2.5024  2.2585  0.8700
 1149SOL    HW214907   0.838   1.569   1.675  0.6260  1.2486 -2.5910
 1150SOL     OW14908   4.067   3.675  13.695  0.1491 -0.0106 -0.3601
 1150SOL    HW114909   4.097   3.635  13.613 -1.8702 -0.6648 -0.7771
 1150SOL    HW214910   4.012   3.735  13.645 -1.4474 -0.7406  0.5326
 1151SOL     OW14911   0.799   4.604   0.632 -0.4929  0.3323  0.2585
 1151SOL    HW114912   0.720   4.569   0.675  0.9326 -1.2302  1.5877
 1151SOL    HW214913   0.858   4.530   0.622 -0.0010  0.8137 -0.4017
 1152SOL     OW14914   3.030   0.212   1.765  0.2161 -0.6170  0.4230
 1152SOL    HW114915   3.095   0.172   1.824  0.7793  0.8563  0.7834
 1152SOL    HW214916   3.032   0.298   1.806 -1.6968  0.1020 -1.0673
 1153SOL     OW14917   3.877   3.837  13.572 -0.7434  0.5688 -0.1560
 1153SOL    HW114918   3.810   3.905  13.581 -1.0535  0.4338 -1.3692
 1153SOL    HW214919   3.823   3.772  13.527  0.0199  0.2773 -0.6383
 1154SOL     OW14920   2.528   0.623   2.797  0.4748 -0.8557 -0.8571
 1154SOL    HW114921   2.576   0.540   2.788 -0.7226 -1.6941  0.5915
 1154SOL    HW214922   2.448   0.596   2.842  0.4631 -0.2120 -0.4917
 1155SOL     OW14923   0.326   1.655   8.029  0.2516  0.4463 -0.5482
 1155SOL    HW114924   0.277   1.733   8.004  0.3443  0.6267 -0.1663
 1155SOL    HW214925   0.334   1.621   7.939 -3.0433 -2.7006  0.3605
 1156SOL     OW14926   1.966   2.985   3.685 -0.6030  0.1777 -0.5372
 1156SOL    HW114927   2.051   2.963   3.647 -0.0192  1.7059 -0.0798
 1156SOL    HW214928   1.992   2.963   3.774  2.9468  2.6895 -0.9671
 1157SOL     OW14929   0.140   2.890   4.160 -0.4145 -0.0762  0.1740
 1157SOL    HW114930   0.196   2.907   4.085  0.8427  1.4966  1.4589
 1157SOL    HW214931   0.178   2.804   4.177 -2.5697 -1.1258 -0.2441
 1158SOL     OW14932   0.685   1.250  10.824 -0.7291 -0.1777  0.5874
 1158SOL    HW114933   0.756   1.225  10.883 -0.5249 -2.3094 -0.5751
 1158SOL    HW214934   0.695   1.345  10.820 -0.8498 -0.1566  0.7507
 1159SOL     OW14935   0.891   4.582   5.698 -0.6270 -0.5552  0.3922
 1159SOL    HW114936   0.868   4.585   5.791 -2.8444 -0.9972 -0.1506
 1159SOL    HW214937   0.987   4.576   5.701 -0.5270  0.8711 -0.1103
 1160SOL     OW14938   0.906   2.698   8.312 -0.7859  0.1885 -0.4519
 1160SOL    HW114939   0.927   2.637   8.241 -0.8817  0.4605 -0.7113
 1160SOL    HW214940   0.816   2.674   8.334 -1.4221  1.4361 -1.6961
 1161SOL     OW14941   3.520   0.756   6.705 -0.3887 -0.2528  0.2515
 1161SOL    HW114942   3.584   0.711   6.649 -0.6071 -1.5239  1.0197
 1161SOL    HW214943   3.447   0.694   6.704  0.9892 -1.8627 -0.7279
 1162SOL     OW14944   0.723   4.555   5.471  0.0185 -0.2159 -0.1033
 1162SOL    HW114945   0.791   4.574   5.406  1.3778  0.8546  1.6435
 1162SOL    HW214946   0.772   4.545   5.552 -0.5508  0.5070  0.3241
 1163SOL     OW14947   3.529   2.921   5.123  0.1250  0.1382  0.5119
 1163SOL    HW114948   3.514   2.835   5.164  2.1957 -0.8645 -0.8757
 1163SOL    HW214949   3.471   2.971   5.180 -2.2405 -1.5115 -0.4326
 1164SOL     OW14950   2.294   0.943  15.188  0.2443 -1.0949  0.9252
 1164SOL    HW114951   2.379   0.984  15.204 -0.4659  0.6377  0.3052
 1164SOL    HW214952   2.257   0.992  15.261  1.2980  1.9718 -0.6100
 1165SOL     OW14953   2.767   3.507   8.806 -0.3701 -0.4805  0.1950
 1165SOL    HW114954   2.676   3.534   8.817 -0.0856  1.0453 -1.1271
 1165SOL    HW214955   2.767   3.521   8.711 -0.5418  1.1974  0.4409
 1166SOL     OW14956   4.082   0.553   7.356  0.1070  0.1252  0.0068
 1166SOL    HW114957   4.114   0.642   7.341  0.8493 -0.6502 -2.9300
 1166SOL    HW214958   4.055   0.566   7.447 -0.6737 -3.3516  0.2560
 1167SOL     OW14959   4.203   2.823  14.390 -0.5976 -0.1004  0.3467
 1167SOL    HW114960   4.283   2.845  14.342 -0.2949  1.7602  1.7102
 1167SOL    HW214961   4.245   2.749  14.435  0.9686  0.7187  0.2025
 1168SOL     OW14962   4.397   1.288   5.452  0.8424 -0.1807  0.1389
 1168SOL    HW114963   4.490   1.269   5.448  0.8429  0.1936 -1.7765
 1168SOL    HW214964   4.370   1.302   5.361 -0.6396 -2.7059  0.1801
 1169SOL     OW14965   0.969   0.500   9.769 -0.5565  0.0939  0.1428
 1169SOL    HW114966   0.996   0.550   9.692 -0.8798 -2.0028 -1.3242
 1169SOL    HW214967   0.879   0.485   9.741 -0.3705  0.3076 -0.5867
 1170SOL     OW14968   0.044   1.304   4.914  0.6501 -0.3497  0.3548
 1170SOL    HW114969   4.712   1.374   4.945  0.8307  0.0127 -0.1358
 1170SOL    HW214970   0.023   1.234   4.976 -0.5821 -0.3738 -0.0832
 1171SOL     OW14971   2.710   2.770   7.528  0.4458 -0.6431 -0.4201
 1171SOL    HW114972   2.782   2.731   7.577 -0.6016 -0.9808  0.8544
 1171SOL    HW214973   2.657   2.778   7.607  0.8160  0.7803 -0.3188
 1172SOL     OW14974   0.968   3.532  15.583  0.1778  0.1809 -0.4304
 1172SOL    HW114975   1.053   3.568  15.558 -0.2325  2.3073  1.2064
 1172SOL    HW214976   0.960   3.446  15.542 -0.4867  0.0470 -0.0128
 1173SOL     OW14977   2.197   1.226   7.217  0.9336  0.0013 -0.3717
 1173SOL    HW114978   2.141   1.159   7.255  1.5786 -1.5466 -2.1522
 1173SOL    HW214979   2.248   1.175   7.153 -1.6441 -0.8351 -1.7535
 1174SOL     OW14980   2.349   1.672  12.457 -0.1578  0.4094  0.1003
 1174SOL    HW114981   2.442   1.656  12.443 -0.3348 -1.3254  0.9027
 1174SOL    HW214982   2.351   1.765  12.437  0.7597  0.5669  0.9576
 1175SOL     OW14983   2.870   3.380  16.489  0.8123  0.0710  0.3713
 1175SOL    HW114984   2.819   3.460  16.475  1.0278  0.1401 -0.0118
 1175SOL    HW214985   2.803   3.326  16.530  0.1382  0.0818 -0.7222
 1176SOL     OW14986   0.184   3.801   4.860  0.2396 -0.2800  0.0237
 1176SOL    HW114987   0.190   3.880   4.914  0.0268  0.2675 -0.7535
 1176SOL    HW214988   0.268   3.812   4.815 -0.7023 -1.8826 -2.1018
 1177SOL     OW14989   2.464   3.325   7.654  0.4263 -0.2455  0.1302
 1177SOL    HW114990   2.474   3.402   7.711 -1.4879 -1.2731  1.8282
 1177SOL    HW214991   2.489   3.253   7.712  0.2346 -0.9401 -0.6514
 1178SOL     OW14992   0.178   4.380  16.583  0.2669 -0.1002  0.2203
 1178SOL    HW114993   0.185   4.405  16.675  1.9920  2.5957 -0.6501
 1178SOL    HW214994   0.166   4.466  16.543  0.5835 -0.2085 -0.1050
 1179SOL     OW14995   2.070   3.083   8.072  0.1889 -0.1944  0.0725
 1179SOL    HW114996   2.130   3.123   8.134  0.0981  0.5068 -0.2953
 1179SOL    HW214997   2.128   3.021   8.029  1.7067  2.1162 -1.1757
 1180SOL     OW14998   3.162   2.083   5.670 -0.3438  0.3254  0.2407
 1180SOL    HW114999   3.183   2.095   5.577 -1.3911  1.3239  0.1240
 1180SOL    HW215000   3.167   1.987   5.668 -0.5965  0.2876  1.5138
 1181SOL     OW15001   3.641   1.147   0.440 -0.1809  0.2284  0.0437
 1181SOL    HW115002   3.647   1.137   0.344 -0.0988  0.5887  0.0120
 1181SOL    HW215003   3.730   1.166   0.469 -0.0815 -0.5094  0.2284
 1182SOL     OW15004   3.920   4.447   1.673  0.2872  0.4798  0.1017
 1182SOL    HW115005   4.011   4.464   1.696  0.3676 -1.3959  1.2655
 1182SOL    HW215006   3.918   4.353   1.693 -1.1190  0.5853  0.5091
 1183SOL     OW15007   1.308   4.407   2.923 -0.5616 -0.8208 -0.4388
 1183SOL    HW115008   1.371   4.366   2.864 -0.6031  1.8980 -2.3680
 1183SOL    HW215009   1.225   4.366   2.897 -1.0783  1.1149 -1.8502
 1184SOL     OW15010   1.605   4.383  13.261 -0.5185 -0.2819  0.2452
 1184SOL    HW115011   1.546   4.444  13.306 -2.1438 -1.1305 -0.7712
 1184SOL    HW215012   1.682   4.440  13.257 -1.3881  0.9764  1.2880
 1185SOL     OW15013   4.215   1.742   6.513 -0.5181 -0.3050 -0.1366
 1185SOL    HW115014   4.158   1.670   6.539  0.4917 -1.4672 -1.1283
 1185SOL    HW215015   4.167   1.768   6.434  1.2220 -0.1788 -1.1387
 1186SOL     OW15016   1.062   1.660   8.350 -0.1758 -0.3262  0.0539
 1186SOL    HW115017   1.056   1.616   8.435  1.5500 -1.0163 -0.1980
 1186SOL    HW215018   1.115   1.729   8.388 -1.0954  0.6575 -0.4324
 1187SOL     OW15019   3.551   3.687   5.726  0.8431 -0.0015 -0.1069
 1187SOL    HW115020   3.559   3.616   5.662  1.3807  0.0855 -0.1366
 1187SOL    HW215021   3.526   3.762   5.672  1.2212  0.1260 -0.1046
 1188SOL     OW15022   0.804   3.369  11.747 -0.2253  0.2431  0.5776
 1188SOL    HW115023   0.809   3.409  11.660 -0.5142  2.1353  1.4295
 1188SOL    HW215024   0.712   3.373  11.773 -0.4679  1.0584 -0.4156
 1189SOL     OW15025   0.943   3.714   5.799  0.4275  0.1319  0.6733
 1189SOL    HW115026   0.901   3.799   5.809  2.0098  1.0794 -0.8294
 1189SOL    HW215027   0.893   3.679   5.725  2.2061  0.5955 -0.7205
 1190SOL     OW15028   2.724   3.619   4.551  0.4091 -0.2510 -0.2445
 1190SOL    HW115029   2.755   3.681   4.485 -0.0072  0.4677  0.2266
 1190SOL    HW215030   2.735   3.538   4.501 -0.1770 -1.3046  1.3404
 1191SOL     OW15031   3.642   1.022   2.434 -0.3269 -0.5870  0.0053
 1191SOL    HW115032   3.646   1.005   2.340  0.2638 -0.0318 -0.0715
 1191SOL    HW215033   3.737   1.029   2.440 -0.5623  2.0882  0.5235
 1192SOL     OW15034   3.417   2.630   1.789  0.0294  0.5438 -0.0381
 1192SOL    HW115035   3.455   2.600   1.872 -0.0917 -0.4826 -0.3456
 1192SOL    HW215036   3.340   2.573   1.776  1.2029 -1.0638  0.0211
 1193SOL     OW15037   4.136   3.247   2.625 -0.0058 -0.2488 -0.5144
 1193SOL    HW115038   4.186   3.252   2.543 -3.0155  2.5782 -2.1456
 1193SOL    HW215039   4.172   3.161   2.648  0.2717  0.0368  0.1029
 1194SOL     OW15040   2.842   4.550  11.790 -0.5862  0.0097 -0.2677
 1194SOL    HW115041   2.828   4.591  11.875 -0.6829 -2.3494  0.8718
 1194SOL    HW215042   2.849   4.616  11.722  0.1696 -0.4107 -0.5941
 1195SOL     OW15043   3.143   1.011   5.042 -0.1739 -0.8329 -0.1129
 1195SOL    HW115044   3.165   0.920   5.063  0.4607 -0.8993 -1.0633
 1195SOL    HW215045   3.067   1.000   4.984 -0.4789 -3.0235  0.7115
 1196SOL     OW15046   0.161   2.204   3.801 -0.4756  0.0080  0.6368
 1196SOL    HW115047   0.148   2.286   3.848 -0.3697  1.1211 -1.2888
 1196SOL    HW215048   0.136   2.141   3.869 -1.2551  0.4040  0.7180
 1197SOL     OW15049   2.614   0.971   8.756 -0.5700 -0.6321  0.0237
 1197SOL    HW115050   2.704   0.993   8.782 -1.1196  0.4003  1.0865
 1197SOL    HW215051   2.597   0.880   8.780 -1.7794 -0.2931  0.4756
 1198SOL     OW15052   0.439   3.147   3.377 -0.1396 -0.3645 -0.7411
 1198SOL    HW115053   0.420   3.201   3.301  0.6207  0.8532 -0.0599
 1198SOL    HW215054   0.389   3.067   3.359 -0.8164 -0.1429  0.1558
 1199SOL     OW15055   1.533   4.224   1.805  0.0215 -0.9071  0.4401
 1199SOL    HW115056   1.586   4.220   1.726 -0.7204 -3.6238  0.0710
 1199SOL    HW215057   1.550   4.313   1.836  0.6887 -0.8524 -0.0867
 1200SOL     OW15058   3.122   4.279  14.059  0.0589  0.2545 -0.0116
 1200SOL    HW115059   3.044   4.225  14.073  1.8242 -2.1600  0.2997
 1200SOL    HW215060   3.174   4.252  14.134 -0.3059  0.2904  0.2571
 1201SOL     OW15061   2.434   1.600  10.154  0.5108 -0.1928  0.0975
 1201SOL    HW115062   2.362   1.583  10.215 -1.3054  0.4834 -1.8463
 1201SOL    HW215063   2.426   1.520  10.103  2.0491 -0.4227  0.2199
 1202SOL     OW15064   3.897   2.883  13.277 -0.1128  0.7068 -0.0916
 1202SOL    HW115065   3.833   2.879  13.207  1.2981 -0.0808 -1.3204
 1202SOL    HW215066   3.921   2.976  13.281  2.1628  0.1398 -0.6725
 1203SOL     OW15067   0.819   3.271   6.388  0.4006 -0.3018 -0.0587
 1203SOL    HW115068   0.870   3.196   6.418  1.5560  1.1223  1.5366
 1203SOL    HW215069   0.792   3.244   6.300 -1.6886 -2.1853  1.1932
 1204SOL     OW15070   4.704   1.857   6.210  0.2698 -0.1169  0.3635
 1204SOL    HW115071   0.029   1.777   6.226 -1.9834 -1.7856 -0.9160
 1204SOL    HW215072   4.627   1.848   6.266  0.5340  1.3758  0.9475
 1205SOL     OW15073   1.958   2.124   1.946  0.2244 -0.3637  0.1870
 1205SOL    HW115074   1.993   2.202   1.988 -0.6232 -0.1738  0.5408
 1205SOL    HW215075   2.017   2.055   1.979  0.7326 -1.0729 -2.2370
 1206SOL     OW15076   0.826   3.963   8.068  0.2293 -0.0446 -0.5790
 1206SOL    HW115077   0.902   3.968   8.126  0.4282 -1.1310 -0.7571
 1206SOL    HW215078   0.771   3.901   8.116 -1.8736 -0.8424 -4.0787
 1207SOL     OW15079   1.382   3.642   7.698  0.0624  0.2407 -0.4011
 1207SOL    HW115080   1.426   3.563   7.731 -0.0070  0.2279 -0.3381
 1207SOL    HW215081   1.431   3.710   7.743  0.8574 -0.5195 -0.1137
 1208SOL     OW15082   1.461   0.108   9.113  0.4176 -0.3297 -0.1547
 1208SOL    HW115083   1.464   0.204   9.108 -2.1092 -0.4150 -4.0408
 1208SOL    HW215084   1.503   0.109   9.199  0.7629  2.1626 -0.3420
 1209SOL     OW15085   1.112   1.941  15.414  0.3254  0.3577 -0.1830
 1209SOL    HW115086   1.075   1.926  15.501 -0.3174 -1.9150 -0.8418
 1209SOL    HW215087   1.137   1.851  15.392  0.4818  0.1805  0.7182
 1210SOL     OW15088   1.601   0.000   7.664 -0.0166 -0.3988 -0.4887
 1210SOL    HW115089   1.535   0.043   7.719  1.6894  0.4653  0.8775
 1210SOL    HW215090   1.559   4.642   7.641 -0.8645 -0.8742  2.8655
 1211SOL     OW15091   1.771   0.723   7.768  0.3773 -0.7543 -0.3221
 1211SOL    HW115092   1.819   0.645   7.795  1.6164 -0.1694 -0.8502
 1211SOL    HW215093   1.804   0.732   7.679  1.5650  1.3092  0.3381
 1212SOL     OW15094   2.135   1.085   1.227 -0.5161  0.3656 -0.4614
 1212SOL    HW115095   2.221   1.127   1.224 -0.0321 -0.6277 -0.5120
 1212SOL    HW215096   2.144   1.005   1.279 -2.0136  0.6668  0.2561
 1213SOL     OW15097   3.339   4.566   1.150  0.5949 -0.3517  0.1284
 1213SOL    HW115098   3.299   4.480   1.138 -0.4484  0.0348  0.8608
 1213SOL    HW215099   3.428   4.548   1.119  0.7472  1.8005 -0.7385
 1214SOL     OW15100   2.102   0.503   2.350  0.3306 -0.1023 -0.2041
 1214SOL    HW115101   2.119   0.549   2.432 -2.7882  3.1113 -1.3450
 1214SOL    HW215102   2.183   0.514   2.301  0.7484  0.0058  0.5226
 1215SOL     OW15103   2.637   4.082   7.575 -0.5992 -0.3107 -0.0488
 1215SOL    HW115104   2.724   4.054   7.605 -0.8131 -0.3890  0.5021
 1215SOL    HW215105   2.648   4.095   7.481  3.1908  1.8584  0.6998
 1216SOL     OW15106   0.032   4.242   2.226 -0.5367  0.1145  0.7040
 1216SOL    HW115107   4.680   4.185   2.222  1.4984 -2.5809  0.6896
 1216SOL    HW215108   0.081   4.222   2.147  0.0413 -0.3461  1.1837
 1217SOL     OW15109   3.131   0.394  12.915 -0.4880  0.1920 -0.6042
 1217SOL    HW115110   3.167   0.315  12.874  0.4004  0.5926 -0.5966
 1217SOL    HW215111   3.095   0.442  12.840  1.9972  1.3293 -1.0799
 1218SOL     OW15112   1.830   2.315   3.427  0.3426  0.1267  0.1159
 1218SOL    HW115113   1.754   2.267   3.395 -1.0700  1.6393  1.1976
 1218SOL    HW215114   1.790   2.401   3.441 -3.3029 -1.4322 -0.5926
 1219SOL     OW15115   4.577   2.710   5.656  0.6764  0.0651  0.2121
 1219SOL    HW115116   4.594   2.734   5.747  1.4751  0.7173 -0.1125
 1219SOL    HW215117   4.511   2.771   5.624 -0.7657 -0.9936  1.1728
 1220SOL     OW15118   4.292   4.546   7.005 -0.5631 -0.3837  0.2106
 1220SOL    HW115119   4.368   4.603   7.015  0.7541 -1.8717 -1.3235
 1220SOL    HW215120   4.225   4.598   7.049  0.7752  1.2797  0.2584
 1221SOL     OW15121   4.152   0.175   4.649 -0.6272  0.2556 -0.2364
 1221SOL    HW115122   4.185   0.264   4.640  3.4498 -1.4170 -1.6417
 1221SOL    HW215123   4.091   0.161   4.577 -0.2508  1.5772 -0.8128
 1222SOL     OW15124   2.475   1.588  16.191  0.1929 -0.0348 -0.4607
 1222SOL    HW115125   2.448   1.533  16.264 -1.0716  0.9383 -0.2046
 1222SOL    HW215126   2.564   1.551  16.193 -0.4306 -1.6445 -2.2730
 1223SOL     OW15127   3.557   4.453   7.228  0.5119  0.0478 -0.0035
 1223SOL    HW115128   3.542   4.387   7.296 -0.5835  2.3828  2.0129
 1223SOL    HW215129   3.481   4.512   7.229  1.1188  0.8384 -0.5450
 1224SOL     OW15130   2.723   2.477  11.450  0.2034 -0.5974 -0.1280
 1224SOL    HW115131   2.792   2.536  11.420  0.1780 -1.2852 -1.5326
 1224SOL    HW215132   2.795   2.419  11.476  1.5029  0.8558 -0.4778
 1225SOL     OW15133   2.733   4.631   6.936  0.0286  0.3761  0.1825
 1225SOL    HW115134   2.650   4.654   6.977 -0.2215  0.6110 -0.4670
 1225SOL    HW215135   2.776   4.598   7.015 -4.0820 -1.4564  1.6592
 1226SOL     OW15136   2.479   1.584   6.697  0.5414 -0.0913 -0.0858
 1226SOL    HW115137   2.554   1.537   6.733 -0.4796 -1.0302  0.8054
 1226SOL    HW215138   2.514   1.671   6.719  0.4837  0.9703 -4.2278
 1227SOL     OW15139   3.921   4.260   9.119 -0.8439  0.0359 -0.2144
 1227SOL    HW115140   3.956   4.287   9.034 -0.7933  1.7411  0.3680
 1227SOL    HW215141   3.912   4.167   9.096  0.1705  0.5692 -2.8222
 1228SOL     OW15142   4.067   3.774  13.976 -0.2695  0.1977  0.3483
 1228SOL    HW115143   3.983   3.728  13.966 -1.7357  2.5663  1.7098
 1228SOL    HW215144   4.099   3.764  13.886  1.4123 -0.3616  1.0138
 1229SOL     OW15145   3.811   1.233   7.249  0.1938  0.2531 -0.1274
 1229SOL    HW115146   3.737   1.224   7.188  1.4973  1.1195 -1.8462
 1229SOL    HW215147   3.822   1.327   7.240  2.2374 -0.0135 -0.3868
 1230SOL     OW15148   0.556   2.969   8.820 -0.2509 -0.2417  0.5839
 1230SOL    HW115149   0.476   2.916   8.818 -0.4169 -0.0447  2.0952
 1230SOL    HW215150   0.541   3.040   8.757 -0.6367 -1.5172 -0.7605
 1231SOL     OW15151   0.113   1.797  13.244 -0.1451 -0.0625  0.5807
 1231SOL    HW115152   0.062   1.716  13.240 -1.4166  0.5912  3.3563
 1231SOL    HW215153   0.059   1.851  13.301  0.0830  2.0504 -1.2061
 1232SOL     OW15154   0.240   3.895   4.090  0.3442  0.4310 -0.4099
 1232SOL    HW115155   0.288   3.814   4.108  0.1071  0.6538  1.2077
 1232SOL    HW215156   0.250   3.898   3.995  0.4765 -1.5631 -0.4494
 1233SOL     OW15157   1.589   3.400   3.883 -0.3192  0.1523  0.4164
 1233SOL    HW115158   1.648   3.336   3.923  0.6905  0.6613 -0.2688
 1233SOL    HW215159   1.596   3.377   3.791 -1.8634 -0.5521  0.4595
 1234SOL     OW15160   3.476   3.215  14.963  0.6866  0.0032  0.1886
 1234SOL    HW115161   3.541   3.286  14.960  0.0285  0.5996 -0.0842
 1234SOL    HW215162   3.492   3.180  14.875 -1.5019 -0.9644  0.1821
 1235SOL     OW15163   1.602   1.762   8.564  0.8910  0.2678 -0.0130
 1235SOL    HW115164   1.630   1.684   8.612 -1.1787 -0.4119  0.0900
 1235SOL    HW215165   1.683   1.792   8.522  1.3520 -0.7363  0.1583
 1236SOL     OW15166   0.570   2.681   5.206 -0.2636  0.3857  0.1326
 1236SOL    HW115167   0.497   2.661   5.264 -0.6756  0.3810 -0.3807
 1236SOL    HW215168   0.526   2.662   5.123 -0.7357 -1.3807  0.7844
 1237SOL     OW15169   2.680   0.669   2.339 -0.3604  0.2779 -0.0673
 1237SOL    HW115170   2.604   0.723   2.359 -0.6136 -0.2360  0.3367
 1237SOL    HW215171   2.738   0.743   2.318  0.2501  0.0158  0.7287
 1238SOL     OW15172   3.125   3.245   7.393 -0.0023  0.8043 -0.0021
 1238SOL    HW115173   3.221   3.249   7.394  0.0010  0.9919 -1.1486
 1238SOL    HW215174   3.101   3.318   7.451 -1.3218 -0.4950  1.0843
 1239SOL     OW15175   0.234   1.852   4.029 -0.3042 -0.6541  0.9275
 1239SOL    HW115176   0.182   1.840   3.949  0.3992 -0.6975  0.4741
 1239SOL    HW215177   0.294   1.918   3.995 -2.7813  1.0207 -0.1926
 1240SOL     OW15178   1.514   1.370   3.420  0.5358  0.1074  0.0885
 1240SOL    HW115179   1.547   1.347   3.333 -1.5091  2.0023 -1.1710
 1240SOL    HW215180   1.485   1.460   3.410  1.9865  0.4328 -1.1801
 1241SOL     OW15181   0.478   1.280   2.362 -0.0642 -0.5143  0.1497
 1241SOL    HW115182   0.416   1.304   2.293 -1.5350 -1.4546  1.1504
 1241SOL    HW215183   0.559   1.284   2.311  1.5402  1.2866  2.8633
 1242SOL     OW15184   4.487   3.667   2.644 -0.2889  0.9442  0.3521
 1242SOL    HW115185   4.412   3.675   2.585 -2.1526 -2.8025  2.1856
 1242SOL    HW215186   4.488   3.571   2.655 -0.3174  0.6583 -2.0939
 1243SOL     OW15187   0.288   2.547   6.428  0.0077  0.4054 -0.1256
 1243SOL    HW115188   0.309   2.603   6.354 -2.1320  1.3368 -0.0364
 1243SOL    HW215189   0.351   2.580   6.492  1.8884 -1.7451 -0.8991
 1244SOL     OW15190   4.610   0.653   8.541  0.1712 -0.4345  0.5073
 1244SOL    HW115191   4.688   0.598   8.531 -1.0365 -2.1267  0.2311
 1244SOL    HW215192   4.596   0.672   8.448  0.6343  1.4662  0.8260
 1245SOL     OW15193   1.586   0.969   4.149 -0.4720 -1.1347  0.3860
 1245SOL    HW115194   1.579   0.875   4.133 -0.0442 -0.8064 -1.6755
 1245SOL    HW215195   1.601   1.000   4.060 -2.1811  1.8501  1.1332
 1246SOL     OW15196   0.868   3.881  11.315 -0.5494 -0.1350  0.2697
 1246SOL    HW115197   0.929   3.848  11.249  0.5064 -0.3083  1.3266
 1246SOL    HW215198   0.921   3.936  11.373 -0.6136 -2.0247  2.1163
 1247SOL     OW15199   0.659   3.842   2.776 -0.2621 -0.3073  0.4200
 1247SOL    HW115200   0.724   3.777   2.804  0.8119 -0.0910 -1.5267
 1247SOL    HW215201   0.629   3.896   2.848  0.7884  1.6393 -0.6017
 1248SOL     OW15202   4.122   1.570  10.609 -0.2856 -0.1765 -0.3457
 1248SOL    HW115203   4.039   1.602  10.573 -1.1432 -2.1504 -0.1479
 1248SOL    HW215204   4.183   1.632  10.570 -0.9837 -0.5230 -1.9794
 1249SOL     OW15205   4.685   4.284   7.252 -0.1660 -0.4023 -0.3332
 1249SOL    HW115206   4.713   4.215   7.312 -1.1228 -0.3323  0.1921
 1249SOL    HW215207   4.668   4.356   7.312 -0.6532 -2.3167  1.8064
 1250SOL     OW15208   4.530   1.040  14.164  0.2517 -0.2602  0.1410
 1250SOL    HW115209   4.607   1.030  14.221 -0.9861  0.1583  1.9036
 1250SOL    HW215210   4.466   1.009  14.228 -1.2448 -2.0512 -2.2141
 1251SOL     OW15211   3.266   0.267  15.222 -0.0541  0.0878  0.2513
 1251SOL    HW115212   3.186   0.320  15.228 -0.8313 -0.6421 -3.2354
 1251SOL    HW215213   3.325   0.327  15.177  0.6280 -1.1398 -0.4856
 1252SOL     OW15214   2.181   1.790   3.011 -0.0636  0.1623  0.3034
 1252SOL    HW115215   2.201   1.702   2.980  1.2135  0.0683  1.3908
 1252SOL    HW215216   2.236   1.796   3.089 -2.3379 -1.9133  2.0748
 1253SOL     OW15217   4.309   3.707   9.155 -0.4792 -0.2635  0.7348
 1253SOL    HW115218   4.283   3.761   9.081 -1.5521 -1.4188  0.2707
 1253SOL    HW215219   4.319   3.771   9.226 -1.0605  1.7169 -0.9743
 1254SOL     OW15220   3.184   4.517   3.875 -0.0903  0.3415 -0.4575
 1254SOL    HW115221   3.259   4.576   3.868  1.5575 -1.6825  0.0114
 1254SOL    HW215222   3.129   4.564   3.937 -1.5113  0.4952 -1.8461
 1255SOL     OW15223   0.375   0.907  14.840  0.2173  0.4163 -0.0704
 1255SOL    HW115224   0.298   0.858  14.869 -0.8856  1.1922 -1.6384
 1255SOL    HW215225   0.346   0.998  14.847  0.0079  0.2743  0.9166
 1256SOL     OW15226   1.047   4.008   6.058 -0.0758  0.0778  0.2536
 1256SOL    HW115227   0.970   3.974   6.104 -0.5596 -0.6401 -1.0606
 1256SOL    HW215228   1.118   3.950   6.088 -0.1740  0.5439  1.3841
 1257SOL     OW15229   0.781   3.605   6.697 -0.0586 -0.1796  0.5394
 1257SOL    HW115230   0.851   3.607   6.762 -2.3112  0.6190  2.9513
 1257SOL    HW215231   0.827   3.589   6.615  0.4714 -1.7856  1.1545
 1258SOL     OW15232   2.773   2.229  14.008 -0.5467 -0.5236  0.7437
 1258SOL    HW115233   2.702   2.165  14.014 -1.0552 -0.0415 -0.3664
 1258SOL    HW215234   2.731   2.306  14.046 -1.6145 -0.1556 -1.2026
 1259SOL     OW15235   0.035   0.452   7.593 -0.5258  0.0401  0.3196
 1259SOL    HW115236   0.086   0.403   7.528  0.8089  0.1358  1.3125
 1259SOL    HW215237   4.670   0.425   7.571 -0.7852 -0.3940  1.9300
 1260SOL     OW15238   2.260   3.731   0.340  0.3981  0.4917 -0.0318
 1260SOL    HW115239   2.269   3.639   0.363  1.2102  0.4374 -0.5602
 1260SOL    HW215240   2.205   3.714   0.264 -0.2053  0.6014  0.3799
 1261SOL     OW15241   3.349   2.166  16.827  0.0919 -0.3324  0.0658
 1261SOL    HW115242   3.424   2.128  16.781  0.2952  1.8912 -1.4368
 1261SOL    HW215243   3.305   2.087  16.857  0.8189 -1.4947 -1.9554
 1262SOL     OW15244   3.637   1.054   6.894 -0.1958  0.7709 -0.5963
 1262SOL    HW115245   3.582   1.010   6.959  3.3897 -1.5672  0.8249
 1262SOL    HW215246   3.576   1.054   6.820 -1.6162  1.9219  0.5767
 1263SOL     OW15247   1.725   1.191  16.059 -0.3962  0.4608  0.0773
 1263SOL    HW115248   1.686   1.113  16.020 -1.5915  1.3372 -0.4556
 1263SOL    HW215249   1.814   1.159  16.074 -0.9695 -1.6822 -1.2352
 1264SOL     OW15250   0.247   0.294   5.551 -0.7850  0.4348  0.1804
 1264SOL    HW115251   0.233   0.388   5.541  4.1924  0.9160 -2.4204
 1264SOL    HW215252   0.322   0.290   5.610 -0.6946 -4.8056 -0.2627
 1265SOL     OW15253   1.467   3.959   6.238  0.2210 -0.1355 -0.0197
 1265SOL    HW115254   1.480   4.002   6.153  0.5054  0.5197  0.3586
 1265SOL    HW215255   1.410   3.883   6.223 -2.0715  1.0218  2.9251
 1266SOL     OW15256   3.161   3.919   8.638 -0.1851  0.5771  0.1003
 1266SOL    HW115257   3.187   3.959   8.721  0.1365  1.2066 -0.3079
 1266SOL    HW215258   3.133   3.997   8.591  1.6042  0.6437 -0.8415
 1267SOL     OW15259   0.640   3.798  10.008 -0.3401  0.0094  0.3752
 1267SOL    HW115260   0.704   3.838   9.949 -1.0938  1.7261  0.7031
 1267SOL    HW215261   0.551   3.822   9.980 -0.1211  1.7750  1.1476
 1268SOL     OW15262   0.455   3.172   5.033  0.0173  0.1967 -0.2260
 1268SOL    HW115263   0.545   3.172   5.001  0.9809 -0.4163  2.4910
 1268SOL    HW215264   0.405   3.148   4.955 -1.1686  1.6203  0.1079
 1269SOL     OW15265   0.361   0.639   3.454 -0.1279 -0.0807  0.2975
 1269SOL    HW115266   0.323   0.696   3.387 -1.0426 -0.2514  0.6597
 1269SOL    HW215267   0.430   0.692   3.492  1.1935  0.8531 -3.4279
 1270SOL     OW15268   0.601   4.391   5.159 -0.2602 -0.4158 -0.5127
 1270SOL    HW115269   0.631   4.324   5.221 -0.0967  0.8740  0.7919
 1270SOL    HW215270   0.613   4.472   5.207 -2.7277 -1.1782  1.3929
 1271SOL     OW15271   4.418   0.880   2.323  0.2826 -0.3717  0.3334
 1271SOL    HW115272   4.427   0.863   2.229 -2.8955 -0.0833 -0.0142
 1271SOL    HW215273   4.508   0.877   2.357  0.3070  0.8257  0.3646
 1272SOL     OW15274   4.588   0.581  15.579 -0.5792  0.4217 -0.1592
 1272SOL    HW115275   4.669   0.632  15.577  0.5352 -1.4337 -1.3813
 1272SOL    HW215276   4.534   0.651  15.542 -2.2032 -0.2871  0.8441
 1273SOL     OW15277   1.210   3.340  11.954 -0.6468 -0.0992  0.2975
 1273SOL    HW115278   1.236   3.424  11.917 -0.6524  0.0640  0.6562
 1273SOL    HW215279   1.291   3.324  12.004 -2.6189 -0.2782  3.4257
 1274SOL     OW15280   0.568   1.220   5.576  0.2231  0.6212  0.0267
 1274SOL    HW115281   0.627   1.186   5.508 -0.1958  2.0854 -1.0767
 1274SOL    HW215282   0.487   1.206   5.528  0.0211 -0.0355  0.5557
 1275SOL     OW15283   4.040   2.702   9.239 -0.0272 -0.0740 -0.1016
 1275SOL    HW115284   4.076   2.694   9.151 -0.5028  1.4781 -0.4337
 1275SOL    HW215285   4.121   2.685   9.287 -0.8028 -1.2251  0.7807
 1276SOL     OW15286   1.078   2.287   9.952 -0.5004  0.2067  0.1874
 1276SOL    HW115287   1.033   2.333  10.023  0.4206  0.6420  0.4929
 1276SOL    HW215288   1.136   2.359   9.927 -1.1037  0.2963 -0.9700
 1277SOL     OW15289   1.302   3.029   3.502 -0.0946  0.0948 -0.0294
 1277SOL    HW115290   1.272   2.971   3.433 -2.9015 -0.8888  2.0140
 1277SOL    HW215291   1.387   2.990   3.525 -0.1486 -0.7996 -1.3355
 1278SOL     OW15292   3.185   4.087   6.905 -0.5818 -0.2472 -0.1739
 1278SOL    HW115293   3.241   4.150   6.949 -0.4783 -0.1885 -0.3926
 1278SOL    HW215294   3.180   4.126   6.818  1.4581  0.8332  0.2056
 1279SOL     OW15295   4.143   4.412   3.811  0.7153  0.8928  0.3438
 1279SOL    HW115296   4.141   4.499   3.773 -1.6249 -0.2110 -2.0537
 1279SOL    HW215297   4.201   4.361   3.755 -0.6142  0.9410 -1.0841
 1280SOL     OW15298   3.590   3.527   2.849 -0.0065 -0.1777  0.3922
 1280SOL    HW115299   3.596   3.523   2.753 -0.4716 -1.1900  0.4198
 1280SOL    HW215300   3.679   3.559   2.869 -0.1685  0.1247  0.6307
 1281SOL     OW15301   3.839   2.820   5.663 -0.3649 -0.0820 -0.1258
 1281SOL    HW115302   3.850   2.901   5.712  1.6491  0.2825 -1.1821
 1281SOL    HW215303   3.913   2.817   5.603 -1.1136  0.4156 -1.0756
 1282SOL     OW15304   4.078   3.603  17.448 -0.7456  0.7450 -0.5412
 1282SOL    HW115305   4.029   3.683  17.431 -2.0066  0.1639  0.4484
 1282SOL    HW215306   4.026   3.542  17.395  1.2103 -0.0479 -1.5691
 1283SOL     OW15307   3.499   3.257  13.016 -0.0556 -0.0868 -0.0506
 1283SOL    HW115308   3.424   3.282  12.962  1.0786  2.1317 -0.6266
 1283SOL    HW215309   3.526   3.172  12.981  1.1417  0.4220 -0.3769
 1284SOL     OW15310   4.091   4.007   3.143  0.2635  0.1700 -0.0769
 1284SOL    HW115311   4.140   4.025   3.223  0.8583 -1.1228 -0.1592
 1284SOL    HW215312   4.092   4.097   3.108  0.3170  0.4248  0.5730
 1285SOL     OW15313   3.785   4.078   5.066 -0.4988  0.5987 -0.5548
 1285SOL    HW115314   3.877   4.100   5.081 -0.3343 -0.2895 -0.2639
 1285SOL    HW215315   3.745   4.117   5.144  1.4117  0.4337  0.5219
 1286SOL     OW15316   3.122   4.506   5.337 -0.1928 -0.2814 -0.0688
 1286SOL    HW115317   3.069   4.532   5.412  2.2348  2.8501  0.5771
 1286SOL    HW215318   3.154   4.418   5.356 -1.1919 -0.8092 -0.7973
 1287SOL     OW15319   2.035   2.272   5.711  0.0451 -0.8245 -0.0367
 1287SOL    HW115320   1.990   2.194   5.743  1.1167 -2.1875 -1.8523
 1287SOL    HW215321   2.096   2.229   5.651  1.1942  0.1134  0.4489
 1288SOL     OW15322   0.971   3.237  15.530 -0.1702  0.2360  0.1926
 1288SOL    HW115323   0.920   3.158  15.514  0.4623 -0.3318  0.9685
 1288SOL    HW215324   0.926   3.278  15.603 -1.0959  2.2606 -1.4981
 1289SOL     OW15325   1.949   4.292   1.557 -0.1023  0.3501 -0.5318
 1289SOL    HW115326   1.981   4.355   1.492 -1.4075 -0.3329 -1.8543
 1289SOL    HW215327   1.983   4.342   1.630  2.8041 -1.1619 -0.8551
 1290SOL     OW15328   1.126   1.872   1.130  0.0720  0.5232  0.4303
 1290SOL    HW115329   1.159   1.937   1.068  2.6308 -1.3299 -0.1990
 1290SOL    HW215330   1.137   1.788   1.085 -0.5177  0.4470  0.4310
 1291SOL     OW15331   4.086   2.629   0.795 -0.4323  0.5648 -0.4573
 1291SOL    HW115332   3.994   2.609   0.783 -0.5560 -1.2158  3.2393
 1291SOL    HW215333   4.094   2.648   0.889 -0.2940  0.3403 -0.4228
 1292SOL     OW15334   2.812   0.525   7.460  0.6758 -0.7478  0.2561
 1292SOL    HW115335   2.850   0.472   7.530 -1.0824 -0.4002  1.4926
 1292SOL    HW215336   2.891   0.545   7.410  0.7382 -0.4094  0.4942
 1293SOL     OW15337   3.430   2.694   5.219  0.2884 -1.0696  0.4143
 1293SOL    HW115338   3.339   2.668   5.210 -0.4818  2.6571 -2.2883
 1293SOL    HW215339   3.469   2.612   5.188 -0.9460 -1.7119  0.5738
 1294SOL     OW15340   0.186   3.046   3.834  0.0706 -0.0634 -0.3819
 1294SOL    HW115341   0.204   3.057   3.741  2.0492 -0.7251 -0.0715
 1294SOL    HW215342   0.091   3.061   3.838  0.0770 -0.4364  1.0778
 1295SOL     OW15343   0.682   2.136  11.223 -0.1466 -0.2321  0.3138
 1295SOL    HW115344   0.764   2.185  11.215 -0.6662  0.8307  1.4547
 1295SOL    HW215345   0.692   2.069  11.156 -1.1501 -0.4613  0.4039
 1296SOL     OW15346   0.993   2.742   7.290  0.1011 -0.0566 -0.1993
 1296SOL    HW115347   0.983   2.755   7.195 -4.3673  0.1007  0.2891
 1296SOL    HW215348   1.059   2.674   7.295  0.3900  0.1821 -0.7810
 1297SOL     OW15349   1.647   1.359  10.456 -0.6144 -0.2241 -0.2414
 1297SOL    HW115350   1.624   1.381  10.365 -0.9593  2.4736  0.4860
 1297SOL    HW215351   1.722   1.418  10.471 -1.6217  1.3430 -1.3366
 1298SOL     OW15352   3.960   3.419  10.661 -0.1468 -0.1179  0.0930
 1298SOL    HW115353   4.022   3.372  10.606 -0.5725 -0.8994  0.2844
 1298SOL    HW215354   3.873   3.400  10.626 -0.7646 -2.1297  2.6899
 1299SOL     OW15355   3.154   2.031   2.234 -0.0873  0.1436  0.0602
 1299SOL    HW115356   3.232   2.067   2.193  1.7353 -0.6972  2.8298
 1299SOL    HW215357   3.097   2.021   2.158  0.8679  0.8860 -0.7468
 1300SOL     OW15358   3.740   2.379   4.012  0.8376  0.4393 -0.2688
 1300SOL    HW115359   3.794   2.452   3.983 -1.8283  2.1424 -0.9432
 1300SOL    HW215360   3.652   2.413   3.992  0.6447 -0.1574 -0.4305
 1301SOL     OW15361   2.130   1.911   2.058 -0.4899  0.2689  0.0827
 1301SOL    HW115362   2.135   1.847   1.987  0.2362  0.1442  0.2418
 1301SOL    HW215363   2.148   1.852   2.132 -2.2982 -1.1765 -0.6247
 1302SOL     OW15364   4.408   1.589   4.206  0.6302 -0.2496 -0.7160
 1302SOL    HW115365   4.377   1.571   4.295  0.9981 -1.0321 -0.7422
 1302SOL    HW215366   4.493   1.550   4.227  0.9895  2.2561  2.4495
 1303SOL     OW15367   2.104   3.597   7.961  0.6487  0.7309 -0.4924
 1303SOL    HW115368   2.140   3.676   8.003 -2.7745  1.0294  1.9271
 1303SOL    HW215369   2.172   3.540   7.997  0.1776 -0.3167 -1.2796
 1304SOL     OW15370   2.333   3.661   2.159 -0.0750  0.4074 -0.6139
 1304SOL    HW115371   2.338   3.748   2.118 -0.6476 -0.5374 -2.6664
 1304SOL    HW215372   2.409   3.672   2.215  0.7472  2.1242 -2.0519
 1305SOL     OW15373   0.292   4.556  17.290  0.3985  0.0668  0.0448
 1305SOL    HW115374   0.283   4.636  17.238  1.9034  0.9675  1.1768
 1305SOL    HW215375   0.373   4.565  17.339  1.8764 -0.4809 -2.2744
 1306SOL     OW15376   0.597   2.154   6.467 -0.2358  0.1048  0.3951
 1306SOL    HW115377   0.531   2.215   6.499  0.1338  0.5787  0.2551
 1306SOL    HW215378   0.565   2.075   6.512  0.5702 -1.2106 -1.3530
 1307SOL     OW15379   1.714   0.493   3.031 -0.0929  0.5471  0.3535
 1307SOL    HW115380   1.654   0.421   3.013 -1.2343  1.1024  1.8916
 1307SOL    HW215381   1.654   0.563   3.058  1.1881  1.4221  0.9421
 1308SOL     OW15382   3.472   3.203   3.990 -0.4138 -0.0746 -0.0044
 1308SOL    HW115383   3.423   3.120   3.994  0.0071 -0.3927 -1.7295
 1308SOL    HW215384   3.495   3.214   3.898 -0.1047  0.1837  0.1061
 1309SOL     OW15385   3.148   1.234   5.869 -0.1702 -0.0106 -0.4539
 1309SOL    HW115386   3.093   1.213   5.945  1.1211  1.1669  0.8161
 1309SOL    HW215387   3.166   1.325   5.894 -2.7962 -0.5146  3.4125
 1310SOL     OW15388   3.482   1.554   0.046 -0.0545 -0.7402  0.4739
 1310SOL    HW115389   3.473   1.641   0.007 -0.5899 -0.1455  1.9123
 1310SOL    HW215390   3.512   1.563   0.136 -1.1107  0.0376  0.7528
 1311SOL     OW15391   2.685   1.951   7.036  0.7077  0.1843  0.8089
 1311SOL    HW115392   2.727   1.876   6.995 -1.8007  0.2037 -1.8288
 1311SOL    HW215393   2.724   2.001   6.964 -2.6764 -0.8952 -1.7616
 1312SOL     OW15394   0.535   0.204   6.249 -0.3722 -0.2852 -0.2439
 1312SOL    HW115395   0.445   0.220   6.276 -1.2028 -0.3150 -2.9825
 1312SOL    HW215396   0.571   0.222   6.336 -0.3716  2.2426 -0.7635
 1313SOL     OW15397   2.716   3.478   8.537 -0.5010  0.0840  0.1035
 1313SOL    HW115398   2.759   3.468   8.452 -1.6519  1.6733 -0.6706
 1313SOL    HW215399   2.646   3.540   8.518  0.8004  0.6437 -2.8450
 1314SOL     OW15400   3.847   3.649   7.337  0.2280 -0.1875  0.1065
 1314SOL    HW115401   3.932   3.670   7.376  1.0038 -2.0529 -0.6167
 1314SOL    HW215402   3.811   3.732   7.370 -0.9639 -0.5993 -0.1720
 1315SOL     OW15403   2.687   0.781   0.781 -0.3557 -0.3802 -0.2363
 1315SOL    HW115404   2.636   0.861   0.767 -0.3566 -0.1624  0.9900
 1315SOL    HW215405   2.635   0.734   0.845 -1.1937  0.0738 -0.5933
 1316SOL     OW15406   3.687   0.567   0.748 -0.3200 -0.0309  0.0010
 1316SOL    HW115407   3.598   0.569   0.713 -0.6582  3.1300  1.0693
 1316SOL    HW215408   3.684   0.644   0.805 -2.7304 -0.2570  0.1649
 1317SOL     OW15409   3.781   0.854   3.584 -0.3318  0.0846  0.2440
 1317SOL    HW115410   3.876   0.865   3.587 -0.4823  1.9325 -2.0434
 1317SOL    HW215411   3.774   0.768   3.543  0.1246  0.6149 -0.9433
 1318SOL     OW15412   0.336   4.452   4.037  0.3259  0.3554 -0.1983
 1318SOL    HW115413   0.329   4.369   3.991 -1.4965  0.5128 -0.2071
 1318SOL    HW215414   0.417   4.482   3.997  1.2331 -0.8821  0.7293
 1319SOL     OW15415   2.242   4.682  15.408  0.4252  0.2709  0.3876
 1319SOL    HW115416   2.336   4.665  15.406  0.4776  0.5738  0.2312
 1319SOL    HW215417   2.220   4.631  15.486 -0.2577 -0.8543 -0.5273
 1320SOL     OW15418   0.580   0.321   3.037 -0.0888 -0.0955 -0.5146
 1320SOL    HW115419   0.499   0.273   3.055  0.3136 -1.0592 -1.2903
 1320SOL    HW215420   0.649   0.260   3.062 -0.4548 -1.2404 -2.3284
 1321SOL     OW15421   0.965   3.321   0.577 -0.5792  0.0772 -0.3906
 1321SOL    HW115422   1.034   3.372   0.619 -0.5296 -1.1352  1.0001
 1321SOL    HW215423   0.975   3.348   0.486 -0.7332 -1.5478 -0.8923
 1322SOL     OW15424   1.477   1.230   6.890  0.5394 -0.4431 -0.1843
 1322SOL    HW115425   1.478   1.215   6.795 -0.6272  1.7866 -0.5514
 1322SOL    HW215426   1.408   1.296   6.902 -0.7624 -2.0293  1.1282
 1323SOL     OW15427   1.184   4.644  14.758  0.6027 -0.4330  0.4201
 1323SOL    HW115428   1.200   4.627  14.851  0.8650  0.5252  0.5466
 1323SOL    HW215429   1.091   4.664  14.763  0.7176  0.1415  0.2756
 1324SOL     OW15430   3.010   3.634   6.061  0.1426 -0.2395 -0.4295
 1324SOL    HW115431   2.939   3.581   6.098  0.1125 -0.2261 -0.4682
 1324SOL    HW215432   3.073   3.563   6.051 -0.9063 -1.3518  0.8479
 1325SOL     OW15433   4.171   1.805   5.469 -0.1380 -0.1612 -0.2271
 1325SOL    HW115434   4.247   1.841   5.514  1.2851 -0.6115 -2.2937
 1325SOL    HW215435   4.104   1.837   5.529  0.6731  1.7954 -0.3584
 1326SOL     OW15436   2.565   3.756   3.439 -0.3594  0.2091  0.1480
 1326SOL    HW115437   2.513   3.831   3.410  0.0585  1.4393  2.5073
 1326SOL    HW215438   2.509   3.729   3.512  0.1836 -1.9051 -0.2279
 1327SOL     OW15439   3.343   1.971   3.479 -0.1014  0.1239 -0.7946
 1327SOL    HW115440   3.368   1.879   3.478 -2.0810 -0.4670  2.2842
 1327SOL    HW215441   3.424   2.012   3.452 -0.6366  1.7874  0.1340
 1328SOL     OW15442   3.114   4.143   7.661 -0.5301  0.0557 -0.2753
 1328SOL    HW115443   3.199   4.164   7.699 -2.1951  0.2020  3.3853
 1328SOL    HW215444   3.141   4.077   7.598  0.6819  1.0821 -0.8205
 1329SOL     OW15445   0.432   4.609   1.191  0.0178  0.5246  0.0515
 1329SOL    HW115446   0.424   4.517   1.219 -1.0704  0.4095 -0.6249
 1329SOL    HW215447   0.356   4.645   1.238  0.8007  0.7411  1.1433
 1330SOL     OW15448   3.514   0.689   7.590  0.2814 -0.1361  0.5525
 1330SOL    HW115449   3.579   0.709   7.657  1.6616 -1.9244 -0.2727
 1330SOL    HW215450   3.577   0.684   7.519  0.7763 -1.8225  1.1088
 1331SOL     OW15451   2.309   3.674   1.235  0.3871 -0.5815  0.2519
 1331SOL    HW115452   2.241   3.718   1.287  0.8929  0.4256  0.0684
 1331SOL    HW215453   2.366   3.652   1.309  0.5540  2.0909  0.9178
 1332SOL     OW15454   4.716   1.193   8.316  0.2534  0.0370  0.2347
 1332SOL    HW115455   0.064   1.249   8.343  0.4311  0.4761 -1.1683
 1332SOL    HW215456   0.038   1.114   8.343  0.3436 -0.1244 -0.3799
 1333SOL     OW15457   4.194   2.278  17.147 -0.4124  0.2563  0.1536
 1333SOL    HW115458   4.104   2.247  17.155 -0.6725  0.9308 -0.1094
 1333SOL    HW215459   4.185   2.364  17.189  0.7855 -0.1856  1.3401
 1334SOL     OW15460   2.367   0.739   8.637  0.3009 -0.4621 -0.0247
 1334SOL    HW115461   2.453   0.723   8.676 -0.0099  2.3722  1.8714
 1334SOL    HW215462   2.354   0.659   8.587 -0.9223 -0.0253 -0.4116
 1335SOL     OW15463   1.937   3.483   9.439 -0.5258 -0.0805 -0.3324
 1335SOL    HW115464   1.969   3.406   9.391 -1.6347  0.6535 -2.2762
 1335SOL    HW215465   1.977   3.555   9.390 -0.7080  0.3807  0.1979
 1336SOL     OW15466   3.863   4.637   3.678  0.2355  0.1837 -0.5072
 1336SOL    HW115467   3.951   4.616   3.649  0.6603  0.6840  0.4222
 1336SOL    HW215468   3.837   4.712   3.625  0.2976  0.7668  0.2833
 1337SOL     OW15469   3.106   4.645   0.764 -0.0419 -0.5191  0.2892
 1337SOL    HW115470   3.047   4.665   0.691  1.0501 -0.3598 -0.5611
 1337SOL    HW215471   3.174   4.711   0.749 -2.0648  1.6649  0.8026
 1338SOL     OW15472   3.520   3.799   8.925  0.3226 -0.1219  0.3117
 1338SOL    HW115473   3.514   3.725   8.984 -2.4298  0.3518  0.6544
 1338SOL    HW215474   3.556   3.860   8.989 -1.1861  0.6376  0.4423
 1339SOL     OW15475   3.911   2.800   4.277  0.1414 -0.2720  0.4079
 1339SOL    HW115476   3.816   2.804   4.282  0.0680 -1.5357 -0.1273
 1339SOL    HW215477   3.934   2.866   4.343  1.0086  0.3979 -0.5491
 1340SOL     OW15478   3.086   2.923   7.894 -0.2780  0.2434 -0.4337
 1340SOL    HW115479   3.147   2.864   7.938 -2.2357 -0.1392  1.7620
 1340SOL    HW215480   3.131   3.006   7.907 -1.4810  0.8173  0.0466
 1341SOL     OW15481   1.374   3.702   5.803  0.7041  0.0729 -0.3162
 1341SOL    HW115482   1.359   3.628   5.745  4.0097 -3.0614  2.7918
 1341SOL    HW215483   1.442   3.740   5.748  1.7070  1.5791  1.9715
 1342SOL     OW15484   1.522   0.865   5.005  0.5745 -0.4712  0.2031
 1342SOL    HW115485   1.497   0.952   5.037 -1.1685 -0.7172 -0.5091
 1342SOL    HW215486   1.491   0.865   4.915 -0.7069  2.4030  0.6552
 1343SOL     OW15487   0.548   1.399  13.882 -0.4098 -0.2170  0.2469
 1343SOL    HW115488   0.567   1.357  13.798  0.0711 -1.3367  0.9199
 1343SOL    HW215489   0.566   1.490  13.859 -1.8802  0.2746  1.0505
 1344SOL     OW15490   2.083   3.919   2.312 -0.0864 -0.0679  0.1455
 1344SOL    HW115491   2.122   3.941   2.397 -0.3808  1.8305 -0.2112
 1344SOL    HW215492   2.080   4.004   2.268  1.1967 -0.4577 -0.7139
 1345SOL     OW15493   4.419   1.826   5.635  0.0927  0.0522 -0.4580
 1345SOL    HW115494   4.351   1.828   5.701 -0.5864 -1.9541 -1.1152
 1345SOL    HW215495   4.495   1.863   5.680 -0.4066 -1.4590  1.6043
 1346SOL     OW15496   1.139   0.200   8.615  0.7116  0.2259  0.2139
 1346SOL    HW115497   1.051   0.162   8.622  0.9023 -0.5773 -1.9395
 1346SOL    HW215498   1.196   0.127   8.640 -0.1653 -0.5605 -0.0398
 1347SOL     OW15499   2.414   4.566   3.045  0.6067 -0.1245 -0.1379
 1347SOL    HW115500   2.507   4.544   3.034  1.0626  2.3260 -1.1412
 1347SOL    HW215501   2.404   4.552   3.139  1.4855  2.1906  0.2986
 1348SOL     OW15502   1.613   2.880  16.276 -0.0078 -0.6507  0.3982
 1348SOL    HW115503   1.696   2.927  16.275 -1.0488  1.1585 -0.1371
 1348SOL    HW215504   1.643   2.791  16.258 -0.4437 -0.6429 -0.3904
 1349SOL     OW15505   1.327   1.940   7.460 -0.3489  0.1429 -0.0839
 1349SOL    HW115506   1.264   1.999   7.419  1.4560  1.3813 -1.0850
 1349SOL    HW215507   1.407   1.986   7.436 -0.1307  0.3791  1.0912
 1350SOL     OW15508   4.576   2.228   7.762  0.3853  0.2345 -0.2436
 1350SOL    HW115509   4.560   2.142   7.802 -3.9295  1.0350 -0.2755
 1350SOL    HW215510   4.517   2.220   7.687  3.2677  1.7201 -2.6778
 1351SOL     OW15511   2.218   0.835   7.049 -0.0668  0.1635  0.1838
 1351SOL    HW115512   2.211   0.831   6.954 -0.7263  0.8187  0.2066
 1351SOL    HW215513   2.142   0.886   7.076  0.5846  0.4961  1.4030
 1352SOL     OW15514   4.246   1.954   4.267  0.1347 -0.1135  0.8728
 1352SOL    HW115515   4.330   1.910   4.272  0.5983  0.4228 -2.2104
 1352SOL    HW215516   4.282   2.041   4.283  0.6520  0.3668 -2.8990
 1353SOL     OW15517   0.133   0.352   3.609 -0.0485 -0.7001  0.0282
 1353SOL    HW115518   0.196   0.394   3.669  0.9634 -3.9010  1.2059
 1353SOL    HW215519   0.070   0.331   3.679  0.3673 -3.2280 -0.3508
 1354SOL     OW15520   4.334   3.421   6.154 -0.0759 -0.1795  0.3067
 1354SOL    HW115521   4.417   3.419   6.106  0.6490  1.1975  1.5009
 1354SOL    HW215522   4.353   3.364   6.229  0.3222  0.8808  1.0156
 1355SOL     OW15523   2.817   0.066  11.232 -0.4260  0.5402 -0.5226
 1355SOL    HW115524   2.843   0.046  11.142 -4.0576  1.3580 -1.7531
 1355SOL    HW215525   2.758   0.140  11.217 -1.1784 -0.1056 -0.7671
 1356SOL     OW15526   0.030   3.071  14.659 -0.0131  0.0262  0.0481
 1356SOL    HW115527   0.028   3.123  14.740  1.3196  1.3984 -0.8177
 1356SOL    HW215528   0.021   2.981  14.691 -0.7544  0.5724  1.3747
 1357SOL     OW15529   3.715   0.955   3.927  0.3663 -0.4579  0.3220
 1357SOL    HW115530   3.773   0.896   3.974  0.1785  1.0103  2.4403
 1357SOL    HW215531   3.785   0.992   3.873  1.8855 -2.4027  0.9694
 1358SOL     OW15532   3.726   3.431  10.497 -0.5400 -0.5671  0.1171
 1358SOL    HW115533   3.639   3.470  10.502  0.3530  1.8614 -2.9578
 1358SOL    HW215534   3.759   3.510  10.453  0.0395  0.6697  2.7923
 1359SOL     OW15535   2.708   4.025   2.024 -0.1425  0.1033  0.4420
 1359SOL    HW115536   2.665   4.094   1.975  4.0164  1.1294 -1.8371
 1359SOL    HW215537   2.755   3.985   1.951 -0.6767  1.0625 -0.4136
 1360SOL     OW15538   0.765   3.276   9.419  0.6195  0.1228 -0.1086
 1360SOL    HW115539   0.784   3.321   9.501 -2.0738 -0.3693  0.7652
 1360SOL    HW215540   0.788   3.184   9.430  3.6440  0.7463 -0.9629
 1361SOL     OW15541   0.490   3.598   2.707 -0.5832 -0.2389  0.7480
 1361SOL    HW115542   0.483   3.573   2.799  1.1473  0.2940  1.0246
 1361SOL    HW215543   0.535   3.522   2.669 -1.0089  0.8285 -1.9339
 1362SOL     OW15544   0.153   4.021   1.105  0.1020 -0.3166  0.0441
 1362SOL    HW115545   0.179   4.004   1.015 -0.0639  2.0927 -0.4513
 1362SOL    HW215546   0.236   4.048   1.144 -0.3491  2.5669 -0.9465
 1363SOL     OW15547   2.854   3.479   6.980 -0.0489  0.3744  0.1948
 1363SOL    HW115548   2.813   3.458   6.897  0.9068 -1.1231  0.0983
 1363SOL    HW215549   2.940   3.442   6.960 -0.0029  0.8767 -0.5382
 1364SOL     OW15550   1.740   0.038   8.190  0.0609  0.4065 -0.2409
 1364SOL    HW115551   1.822   0.032   8.240 -0.2938  0.8016  0.3810
 1364SOL    HW215552   1.752   4.718   8.106  0.0421 -0.2826  0.1239
 1365SOL     OW15553   2.077   2.499   6.857  0.4048  0.5107 -0.2917
 1365SOL    HW115554   2.043   2.479   6.944  2.1164 -1.9841 -0.2100
 1365SOL    HW215555   2.036   2.434   6.800  3.0629 -0.3275 -1.2287
 1366SOL     OW15556   0.600   3.078   9.132  0.1985  0.4951 -0.0473
 1366SOL    HW115557   0.558   3.060   9.215 -0.2119 -0.9857 -0.5858
 1366SOL    HW215558   0.531   3.048   9.073  0.9987  0.1581 -0.8098
 1367SOL     OW15559   4.264   3.596   6.451 -0.6616 -0.1070 -0.1655
 1367SOL    HW115560   4.338   3.577   6.509 -1.3078 -0.0098  0.7076
 1367SOL    HW215561   4.303   3.578   6.366 -0.9934  0.8702 -0.5321
 1368SOL     OW15562   0.350   1.748  17.170  0.1890  0.5122 -0.0139
 1368SOL    HW115563   0.416   1.772  17.105  1.4080  0.3886  1.1704
 1368SOL    HW215564   0.266   1.755  17.124 -1.4597  1.2947  3.1314
 1369SOL     OW15565   2.908   1.360   2.269 -0.7281 -0.0876  0.3391
 1369SOL    HW115566   2.847   1.353   2.342 -1.8451  1.9871 -0.3717
 1369SOL    HW215567   2.837   1.375   2.206 -0.3238  3.3424  0.6899
 1370SOL     OW15568   2.355   4.210   8.593  0.1281  0.1092 -0.6022
 1370SOL    HW115569   2.261   4.190   8.593  0.1757 -0.1419 -1.6767
 1370SOL    HW215570   2.383   4.142   8.655  3.4216  1.6432 -0.4106
 1371SOL     OW15571   2.760   2.999   5.561 -0.2310  0.1160  0.4352
 1371SOL    HW115572   2.794   3.055   5.491  1.2893  0.0982  1.1655
 1371SOL    HW215573   2.784   2.908   5.547 -1.5664  0.1949 -2.2881
 1372SOL     OW15574   0.490   1.677   8.637 -0.0880  0.4011  0.2173
 1372SOL    HW115575   0.408   1.693   8.591  0.2647 -1.7367 -1.1478
 1372SOL    HW215576   0.474   1.596   8.683  3.5656 -0.6014 -0.2278
 1373SOL     OW15577   0.958   1.171   9.115  0.2608 -0.3165 -0.2480
 1373SOL    HW115578   0.940   1.204   9.204  0.5797  0.0580 -0.3219
 1373SOL    HW215579   1.026   1.236   9.095 -0.6852 -0.0480 -2.5464
 1374SOL     OW15580   2.574   3.484   7.846  0.5014 -0.1359 -0.0393
 1374SOL    HW115581   2.612   3.462   7.931  0.7776  1.3287  0.2116
 1374SOL    HW215582   2.609   3.572   7.837  2.9039 -1.1480 -0.5517
 1375SOL     OW15583   4.348   4.567  15.909  0.4897  0.1716 -0.3737
 1375SOL    HW115584   4.312   4.552  15.996  1.9725  1.8421  0.5400
 1375SOL    HW215585   4.341   4.478  15.875  1.6312 -1.0992  2.6601
 1376SOL     OW15586   1.823   2.550   8.444 -0.2056 -0.1445 -0.2944
 1376SOL    HW115587   1.881   2.473   8.437 -0.4874 -0.4541  0.7734
 1376SOL    HW215588   1.741   2.505   8.423  0.0520 -0.8504  0.1901
 1377SOL     OW15589   0.415   1.280   9.639  0.3666  0.2520 -0.4147
 1377SOL    HW115590   0.454   1.344   9.579  0.5014 -0.9021 -1.5524
 1377SOL    HW215591   0.422   1.337   9.716  0.8236  0.1552 -0.3834
 1378SOL     OW15592   3.309   2.294   3.134 -0.0288 -0.1876 -0.3263
 1378SOL    HW115593   3.259   2.219   3.169  0.4918 -0.1396  0.5068
 1378SOL    HW215594   3.399   2.263   3.145  0.1742  0.0493 -1.3808
 1379SOL     OW15595   0.846   0.002   7.361 -0.6454  0.2060 -0.4267
 1379SOL    HW115596   0.902   4.665   7.315 -0.4716 -1.0656  1.5084
 1379SOL    HW215597   0.906   0.067   7.398  1.9514 -0.5805 -3.3035
 1380SOL     OW15598   3.452   3.431   1.652  0.8507 -0.0857 -0.1938
 1380SOL    HW115599   3.410   3.499   1.705  1.6463 -0.0078  0.3357
 1380SOL    HW215600   3.502   3.485   1.591  0.5101  0.8779  0.3668
 1381SOL     OW15601   0.412   0.437   0.481  0.2784  0.2636  0.4090
 1381SOL    HW115602   0.398   0.434   0.575 -0.8654 -0.3603  0.2220
 1381SOL    HW215603   0.357   0.508   0.449  1.9637  1.1057 -0.6434
 1382SOL     OW15604   2.915   2.655   7.185  0.6395 -0.5821 -0.1324
 1382SOL    HW115605   2.994   2.623   7.228 -0.1064 -0.4958  1.2757
 1382SOL    HW215606   2.936   2.747   7.172 -0.9797  0.0556  1.9278
 1383SOL     OW15607   0.042   0.279   8.351 -0.4794  0.4522 -0.1158
 1383SOL    HW115608   0.030   0.196   8.399  0.7170  0.6882  0.5950
 1383SOL    HW215609   0.101   0.321   8.413 -2.5584 -0.0588  2.2274
 1384SOL     OW15610   2.757   4.439   9.402 -0.1581 -0.5276 -0.3898
 1384SOL    HW115611   2.790   4.480   9.483 -0.3389  2.2165 -1.6960
 1384SOL    HW215612   2.663   4.439   9.419 -0.1996  2.1949 -0.4905
 1385SOL     OW15613   3.293   2.550   3.070  0.0938 -1.4974 -1.0049
 1385SOL    HW115614   3.367   2.532   3.014  0.3627  0.3487 -1.2477
 1385SOL    HW215615   3.293   2.464   3.112  3.0266 -0.7043  0.6037
 1386SOL     OW15616   2.572   3.029   2.240  0.2472  0.2092 -0.3091
 1386SOL    HW115617   2.501   3.000   2.183  0.8478 -0.5735 -0.6541
 1386SOL    HW215618   2.518   3.075   2.304  1.9658 -1.1044  2.1151
 1387SOL     OW15619   2.905   2.427   6.521  0.1465  0.0402 -0.8039
 1387SOL    HW115620   2.902   2.412   6.426  1.5025 -0.1080 -0.8238
 1387SOL    HW215621   2.831   2.378   6.557 -0.0776 -0.7525 -2.3189
 1388SOL     OW15622   4.442   0.271   7.309  0.3037  0.1290  0.3883
 1388SOL    HW115623   4.431   0.314   7.393  0.1410  0.3633  0.2482
 1388SOL    HW215624   4.390   0.317   7.243  0.9753  1.0222  0.4873
 1389SOL     OW15625   4.351   1.894   7.457 -0.2450  0.4798  0.4574
 1389SOL    HW115626   4.393   1.977   7.432 -0.5673  0.3539 -0.4664
 1389SOL    HW215627   4.266   1.922   7.490  0.8804  2.4270  1.7554
 1390SOL     OW15628   1.433   4.665   6.900 -0.1617 -0.0919  0.0899
 1390SOL    HW115629   1.427   4.679   6.806  1.9777 -0.1442 -0.0714
 1390SOL    HW215630   1.437   0.032   6.927 -0.7869  0.1189 -0.5239
 1391SOL     OW15631   3.339   1.199   4.339 -0.2722 -0.2616 -0.1461
 1391SOL    HW115632   3.428   1.201   4.372 -0.5724  0.6445  0.6170
 1391SOL    HW215633   3.299   1.135   4.397  1.7336 -0.3784  1.0687
 1392SOL     OW15634   2.618   2.895  16.662 -0.0533 -0.1452 -0.4832
 1392SOL    HW115635   2.593   2.971  16.714  0.1985  0.3709 -1.1102
 1392SOL    HW215636   2.671   2.859  16.733  1.1381  0.3576 -1.1187
 1393SOL     OW15637   2.420   0.958   2.397 -0.5463 -0.8710 -0.0377
 1393SOL    HW115638   2.425   0.929   2.488  0.8188 -0.0969  0.1364
 1393SOL    HW215639   2.332   0.995   2.394 -0.0578  0.4086  1.2569
 1394SOL     OW15640   1.875   4.710   9.857  0.1167 -0.0595 -0.0323
 1394SOL    HW115641   1.817   4.639   9.884 -1.2326  0.0226 -2.7238
 1394SOL    HW215642   1.950   4.704   9.916  1.1569 -1.1107 -1.4370
 1395SOL     OW15643   3.401   2.693  14.026  0.3621 -0.1375 -0.4551
 1395SOL    HW115644   3.368   2.665  13.941  0.4003 -1.3174 -0.0755
 1395SOL    HW215645   3.395   2.788  14.016  0.0392  0.1543  2.2623
 1396SOL     OW15646   1.696   1.611   2.777 -0.2267  0.3739 -0.0402
 1396SOL    HW115647   1.643   1.660   2.840  0.9862  2.4092 -0.6184
 1396SOL    HW215648   1.654   1.642   2.697 -0.1532 -2.0809 -1.0300
 1397SOL     OW15649   1.306   1.962   3.616  0.3248 -0.3701 -0.3529
 1397SOL    HW115650   1.288   1.870   3.596  2.0907 -0.9024  0.5226
 1397SOL    HW215651   1.333   1.960   3.708  1.4435  0.0509 -0.6758
 1398SOL     OW15652   3.636   0.899   1.601 -0.3494  0.7846  0.1321
 1398SOL    HW115653   3.656   0.953   1.677 -0.5348 -2.2012  2.2729
 1398SOL    HW215654   3.616   0.969   1.539  1.5860  1.1834 -0.0439
 1399SOL     OW15655   3.976   2.137   6.609 -0.4476  0.0404  0.0497
 1399SOL    HW115656   3.916   2.160   6.538 -1.3803  2.1425  1.5384
 1399SOL    HW215657   4.059   2.176   6.581 -0.7694 -0.2012 -1.2219
 1400SOL     OW15658   4.042   1.227   7.791  0.3069 -0.2532 -0.2069
 1400SOL    HW115659   4.126   1.271   7.783 -1.0782  2.5316  0.7149
 1400SOL    HW215660   3.977   1.284   7.750 -1.2481  0.4643  3.3154
 1401SOL     OW15661   1.798   0.664  14.544 -0.4776 -0.0581 -0.3733
 1401SOL    HW115662   1.763   0.714  14.470  1.2808  0.8019 -0.6339
 1401SOL    HW215663   1.830   0.735  14.599 -0.5184 -2.4368  2.6945
 1402SOL     OW15664   4.308   2.498   7.012  0.4757 -0.4769  1.2166
 1402SOL    HW115665   4.354   2.552   7.076  2.9397 -2.0360  0.7570
 1402SOL    HW215666   4.339   2.410   7.031  2.3569  0.8868  4.3942
 1403SOL     OW15667   3.127   1.550   6.420 -0.0740  0.0221 -0.1549
 1403SOL    HW115668   3.208   1.528   6.466  2.4615  3.9195 -2.7150
 1403SOL    HW215669   3.087   1.597   6.494 -0.4382  0.0039 -0.3421
 1404SOL     OW15670   2.159   0.071   6.302  0.5986  0.6247  0.1388
 1404SOL    HW115671   2.190   0.039   6.387  1.8386 -0.8806 -0.8733
 1404SOL    HW215672   2.116   4.716   6.270  2.1787  0.1747 -0.8529
 1405SOL     OW15673   2.979   2.804  13.528  0.4417 -0.2962  0.4470
 1405SOL    HW115674   2.929   2.758  13.460  1.4212  2.7025 -2.3010
 1405SOL    HW215675   2.907   2.864  13.548  0.1449 -1.3685  2.5987
 1406SOL     OW15676   1.694   0.787  10.655 -0.5975  0.0345  0.3271
 1406SOL    HW115677   1.783   0.753  10.661 -0.2825  0.9935  1.1412
 1406SOL    HW215678   1.638   0.720  10.694  2.9842 -1.4969  2.8786
 1407SOL     OW15679   0.447   0.484   5.275  0.1816 -0.4509 -0.5585
 1407SOL    HW115680   0.378   0.489   5.208  0.1516  2.6249 -0.3273
 1407SOL    HW215681   0.445   0.393   5.302  0.8431 -0.3477 -0.1490
 1408SOL     OW15682   1.925   0.562   5.558  0.2087  0.6914  0.0999
 1408SOL    HW115683   1.983   0.635   5.578  0.8830  1.1798 -3.6261
 1408SOL    HW215684   1.982   0.492   5.589 -1.6839 -0.7520  0.2695
 1409SOL     OW15685   1.105   3.991   8.169 -0.4190  0.2742  0.0107
 1409SOL    HW115686   1.130   4.075   8.131 -1.8252  0.6216 -0.1777
 1409SOL    HW215687   1.157   3.936   8.111 -2.2201  0.5333 -1.8941
 1410SOL     OW15688   0.974   4.474  12.903  0.0353 -0.3394 -0.9666
 1410SOL    HW115689   0.926   4.470  12.986  0.0350  3.6275 -0.7753
 1410SOL    HW215690   0.931   4.541  12.850  1.9381  1.4798 -0.1972
 1411SOL     OW15691   0.609   0.953   7.822  0.0355  0.3453 -0.0267
 1411SOL    HW115692   0.626   1.046   7.835 -0.0300  0.3428  0.0787
 1411SOL    HW215693   0.527   0.943   7.870  0.2070 -0.6525  0.0711
 1412SOL     OW15694   0.790   0.951   3.448  0.1757  0.0677 -0.2353
 1412SOL    HW115695   0.791   1.047   3.456 -1.6143 -0.1161  2.1268
 1412SOL    HW215696   0.697   0.929   3.440  0.0134 -0.1059  2.0932
 1413SOL     OW15697   1.532   2.828   9.920 -0.7835 -0.4333 -0.1071
 1413SOL    HW115698   1.532   2.917   9.882 -1.8122 -1.2052 -1.9400
 1413SOL    HW215699   1.550   2.848  10.012  0.7512 -0.8679 -0.3307
 1414SOL     OW15700   1.674   3.378  14.362  0.0859  0.3254 -0.3896
 1414SOL    HW115701   1.643   3.361  14.450 -0.1031 -0.0463 -0.5287
 1414SOL    HW215702   1.606   3.443  14.342 -1.8405 -1.8891 -0.9918
 1415SOL     OW15703   3.939   0.319   7.887  0.4081 -0.1316 -0.0052
 1415SOL    HW115704   3.936   0.225   7.868  0.8070 -0.1815  0.1778
 1415SOL    HW215705   3.905   0.358   7.807  0.8867  2.4616  1.0687
 1416SOL     OW15706   1.090   3.981  16.761 -0.2042 -0.3169 -0.2426
 1416SOL    HW115707   1.170   3.980  16.709  0.9854  2.3047  1.5438
 1416SOL    HW215708   1.083   3.887  16.779 -1.2232  0.1661  1.9415
 1417SOL     OW15709   0.441   0.823   7.601  0.4023  0.3807 -0.0847
 1417SOL    HW115710   0.364   0.824   7.658  1.7010 -0.9323  1.6719
 1417SOL    HW215711   0.505   0.856   7.664  0.0547  1.1720 -0.1396
 1418SOL     OW15712   2.306   3.834   0.993  0.9967 -0.2799 -0.0872
 1418SOL    HW115713   2.315   3.791   1.078  1.7463 -3.4037 -1.7353
 1418SOL    HW215714   2.365   3.910   0.991  0.2878  0.2685  0.0732
 1419SOL     OW15715   3.210   0.064   5.569 -0.8779 -0.2387  0.1638
 1419SOL    HW115716   3.215   4.696   5.589  0.8009 -0.2804 -0.4029
 1419SOL    HW215717   3.304   0.086   5.571 -0.9669  0.2191 -0.9559
 1420SOL     OW15718   3.834   2.921  16.281  0.4935 -0.2260 -0.1775
 1420SOL    HW115719   3.911   2.961  16.242 -0.6120  1.3603 -0.7554
 1420SOL    HW215720   3.775   2.996  16.291  0.3032 -0.3332 -0.5147
 1421SOL     OW15721   0.825   0.419   2.427 -0.7668 -0.4442  1.4946
 1421SOL    HW115722   0.913   0.426   2.392 -1.6456  2.2713 -0.2119
 1421SOL    HW215723   0.766   0.440   2.354  3.2985  1.5889 -1.1809
 1422SOL     OW15724   4.250   4.086   8.058 -0.0406 -0.4385 -0.2369
 1422SOL    HW115725   4.229   4.154   7.993  0.3523  1.4341  1.5840
 1422SOL    HW215726   4.227   4.139   8.135 -0.5748  2.4105 -2.3412
 1423SOL     OW15727   3.791   2.868   8.222 -0.3221 -0.0481 -0.1058
 1423SOL    HW115728   3.815   2.828   8.306 -0.1745  2.3900  1.0088
 1423SOL    HW215729   3.872   2.913   8.202 -0.4345 -0.0746 -0.6055
 1424SOL     OW15730   1.705   1.417   8.483 -0.2092 -0.1475  0.4572
 1424SOL    HW115731   1.644   1.350   8.512  3.1655 -2.8370  1.3513
 1424SOL    HW215732   1.658   1.456   8.410  0.0685 -0.1896  0.2576
 1425SOL     OW15733   3.923   1.069  16.238 -0.2403 -0.5959 -0.4995
 1425SOL    HW115734   3.881   1.097  16.157  1.3752  0.9324 -0.7990
 1425SOL    HW215735   4.004   1.119  16.246 -0.2633 -0.3222 -2.0271
 1426SOL     OW15736   3.257   2.816  15.806 -0.0489  0.0198 -0.1677
 1426SOL    HW115737   3.221   2.737  15.846  2.4610 -1.3526 -0.6105
 1426SOL    HW215738   3.295   2.787  15.723  1.4329  1.4095  0.0380
 1427SOL     OW15739   3.532   0.633   6.256  0.3117  0.0674 -0.7977
 1427SOL    HW115740   3.441   0.631   6.227  0.1104  1.8433 -0.2813
 1427SOL    HW215741   3.554   0.716   6.214 -1.5151  0.4145 -1.0506
 1428SOL     OW15742   3.686   3.574   2.192 -0.2952 -0.2791  0.4196
 1428SOL    HW115743   3.696   3.508   2.123  3.9740  0.1389  0.6820
 1428SOL    HW215744   3.594   3.568   2.218 -0.0460 -0.9501  1.1626
 1429SOL     OW15745   2.889   2.408   9.047 -0.0333 -0.4555 -0.1194
 1429SOL    HW115746   2.862   2.392   8.956 -0.1126  1.8500 -0.5085
 1429SOL    HW215747   2.806   2.440   9.082  0.3573  0.6684 -0.2137
 1430SOL     OW15748   0.694   4.186  11.777 -0.7506 -0.0642 -0.3810
 1430SOL    HW115749   0.639   4.136  11.838  2.0347 -2.4372  0.1588
 1430SOL    HW215750   0.638   4.233  11.715 -0.0277 -0.5180 -1.3779
 1431SOL     OW15751   2.172   1.795  11.320 -0.0176  0.1672  0.2667
 1431SOL    HW115752   2.267   1.803  11.322 -0.0205 -0.0529  1.3379
 1431SOL    HW215753   2.147   1.873  11.369 -0.0605 -0.3523  1.0703
 1432SOL     OW15754   2.205   4.446   7.631  0.4782  0.4701  0.1237
 1432SOL    HW115755   2.173   4.476   7.546 -0.3875  0.2528  0.3717
 1432SOL    HW215756   2.196   4.350   7.631 -0.8111  0.5933 -0.7772
 1433SOL     OW15757   0.771   1.057   5.480 -0.3556 -0.8752  0.7666
 1433SOL    HW115758   0.778   1.125   5.412  2.5541 -0.6485  1.2866
 1433SOL    HW215759   0.862   1.033   5.495 -0.5165 -1.7262  0.3653
 1434SOL     OW15760   3.314   1.494  15.281  0.3356 -1.1536  0.1254
 1434SOL    HW115761   3.404   1.515  15.306  0.6457 -3.4230  0.9784
 1434SOL    HW215762   3.335   1.473  15.190 -0.8947 -0.2606 -0.3561
 1435SOL     OW15763   0.099   0.977  13.139  0.3799 -0.0573  0.7161
 1435SOL    HW115764   0.062   0.967  13.226 -0.8250  1.2142  0.3501
 1435SOL    HW215765   0.091   0.885  13.116  0.2351 -0.0383  0.6923
 1436SOL     OW15766   2.308   4.116   3.838  0.0257 -0.3386  0.2956
 1436SOL    HW115767   2.345   4.187   3.786  0.4237 -1.1719 -0.5536
 1436SOL    HW215768   2.269   4.066   3.766  2.3577  0.4787 -1.5119
 1437SOL     OW15769   3.671   4.445   6.962 -0.2433 -0.7327  0.4723
 1437SOL    HW115770   3.636   4.357   6.948  0.9870 -0.9292 -1.3304
 1437SOL    HW215771   3.639   4.462   7.051 -3.1359 -3.4790 -0.0644
 1438SOL     OW15772   4.643   0.255   6.925  0.3699 -0.5821 -0.3812
 1438SOL    HW115773   4.641   0.225   7.016 -1.8042 -0.0972 -0.2550
 1438SOL    HW215774   4.722   0.220   6.883 -0.1401 -0.7993 -1.1605
 1439SOL     OW15775   1.564   1.513   3.097 -0.1000 -0.0573  0.1340
 1439SOL    HW115776   1.489   1.547   3.048  0.5742 -1.0789 -1.6240
 1439SOL    HW215777   1.615   1.590   3.123 -1.2031 -0.0466  2.2210
 1440SOL     OW15778   0.722   1.574   9.921  0.3539 -0.4273  0.5603
 1440SOL    HW115779   0.767   1.557   9.838  1.4998  1.5311  0.7637
 1440SOL    HW215780   0.740   1.668   9.925 -1.0697 -0.2374  2.3462
 1441SOL     OW15781   1.799   3.992   9.384  0.1409 -0.0007 -1.3487
 1441SOL    HW115782   1.839   4.034   9.308 -1.4073  1.9038 -1.0962
 1441SOL    HW215783   1.873   3.984   9.445 -0.2757  2.2057 -0.5689
 1442SOL     OW15784   2.548   4.032   3.538 -0.6307  0.6060  0.2534
 1442SOL    HW115785   2.549   3.985   3.622 -0.8900 -0.1425 -0.1600
 1442SOL    HW215786   2.632   4.006   3.499 -0.1579  3.9604 -0.9128
 1443SOL     OW15787   3.693   2.931  14.588 -0.6035 -0.2471  0.1226
 1443SOL    HW115788   3.774   2.981  14.596  0.4861 -2.0746  0.4702
 1443SOL    HW215789   3.716   2.851  14.636  1.3438 -0.1818 -0.6789
 1444SOL     OW15790   1.386   0.641   4.278  0.0351 -0.0271 -0.0998
 1444SOL    HW115791   1.454   0.689   4.231 -1.3343  0.7350 -1.3169
 1444SOL    HW215792   1.426   0.554   4.281 -0.7655 -0.2744  3.2713
 1445SOL     OW15793   3.507   1.353   1.984  0.3280 -0.3779 -0.2329
 1445SOL    HW115794   3.586   1.328   2.032  0.3198 -0.9374 -0.5124
 1445SOL    HW215795   3.527   1.443   1.957 -0.2549 -0.2217 -0.1276
 1446SOL     OW15796   2.035   2.128   4.748 -0.7528  0.0875 -0.3577
 1446SOL    HW115797   2.090   2.053   4.769  0.7972  1.2302 -0.3006
 1446SOL    HW215798   1.970   2.119   4.817 -0.5676  0.1713 -0.1745
 1447SOL     OW15799   4.348   3.033   6.810 -0.5476  0.1372  0.1098
 1447SOL    HW115800   4.263   2.995   6.831 -2.3860  5.0735  1.3319
 1447SOL    HW215801   4.320   3.072   6.728 -2.5618  3.1098  2.2446
 1448SOL     OW15802   1.676   0.355   7.112  0.1224  1.0575 -0.5899
 1448SOL    HW115803   1.754   0.339   7.059  0.8538 -1.3895  1.2485
 1448SOL    HW215804   1.644   0.436   7.071 -0.4050  0.1399 -2.0236
 1449SOL     OW15805   0.759   4.283   9.143 -0.5832 -0.3317  0.4443
 1449SOL    HW115806   0.681   4.235   9.172 -1.7780  2.7824  2.3305
 1449SOL    HW215807   0.808   4.229   9.080  0.2236  0.8412  0.0753
 1450SOL     OW15808   4.167   2.981   8.741 -0.1725 -0.3013  0.1712
 1450SOL    HW115809   4.234   3.031   8.788 -0.0515  0.3318 -0.6979
 1450SOL    HW215810   4.200   2.893   8.760  1.5055  0.3166  0.1178
 1451SOL     OW15811   1.603   4.037   9.571 -0.4542 -0.0344 -0.6081
 1451SOL    HW115812   1.665   4.030   9.498  0.1823 -1.7819  0.1153
 1451SOL    HW215813   1.597   4.133   9.579  3.5118  0.2047 -0.3694
 1452SOL     OW15814   1.262   2.129  10.056 -0.3541  0.4306  0.1555
 1452SOL    HW115815   1.206   2.140  10.132 -2.8052  1.7189 -1.8238
 1452SOL    HW215816   1.204   2.180   9.999  1.0744  1.5801 -0.2643
 1453SOL     OW15817   4.332   3.879   2.760  0.4859  0.0641  0.5757
 1453SOL    HW115818   4.398   3.828   2.713  0.6515 -0.0388  0.9197
 1453SOL    HW215819   4.251   3.872   2.711  1.4467 -2.1102 -0.6954
 1454SOL     OW15820   0.402   0.188  14.495  0.0677  0.7404  0.1806
 1454SOL    HW115821   0.490   0.185  14.531 -0.5047 -1.6387  1.4340
 1454SOL    HW215822   0.411   0.217  14.404 -2.2966  0.0995 -0.2619
 1455SOL     OW15823   3.486   4.241   4.076 -0.1406  0.2432  0.0116
 1455SOL    HW115824   3.544   4.170   4.050 -0.7400 -0.2396 -0.0333
 1455SOL    HW215825   3.455   4.256   3.987 -0.8788 -2.2774 -0.1665
 1456SOL     OW15826   3.864   0.663  16.175 -0.6678  0.3582 -0.1947
 1456SOL    HW115827   3.867   0.580  16.221 -1.9390 -1.0466 -2.6503
 1456SOL    HW215828   3.910   0.633  16.096 -1.7270 -1.1556 -0.2262
 1457SOL     OW15829   0.881   2.636   4.793  0.1528  0.5644  0.0884
 1457SOL    HW115830   0.904   2.548   4.763 -0.7290 -0.3283  1.9604
 1457SOL    HW215831   0.914   2.697   4.728  0.7294  0.1514 -0.0084
 1458SOL     OW15832   1.209   2.073  15.668  0.3221 -0.5030  0.2006
 1458SOL    HW115833   1.160   2.146  15.706  0.2618 -1.4712  1.9690
 1458SOL    HW215834   1.180   2.068  15.577  2.1541 -0.4866 -0.3717
 1459SOL     OW15835   1.882   1.138   8.562 -0.0132  0.0479 -0.5277
 1459SOL    HW115836   1.828   1.158   8.638 -1.6188 -1.3889 -1.2725
 1459SOL    HW215837   1.821   1.096   8.500  0.1334 -0.4376 -0.3406
 1460SOL     OW15838   1.648   2.774   8.993 -0.0735  0.1214  0.0248
 1460SOL    HW115839   1.592   2.817   9.057 -0.4949  0.7215 -0.7364
 1460SOL    HW215840   1.736   2.773   9.030  0.8330 -1.2203 -2.1243
 1461SOL     OW15841   2.717   3.130   6.157 -0.3233 -0.0441  0.4349
 1461SOL    HW115842   2.786   3.180   6.201  1.9719 -3.4401  0.7283
 1461SOL    HW215843   2.671   3.087   6.229 -0.9893  1.1486  0.7179
 1462SOL     OW15844   3.442   0.227  14.591  0.1778 -0.1554 -0.1257
 1462SOL    HW115845   3.438   0.218  14.686 -0.4697  0.9659 -0.0436
 1462SOL    HW215846   3.370   0.166  14.577 -0.1062  0.5215 -1.6037
 1463SOL     OW15847   0.158   2.203   5.407  0.3153  0.1763  0.1505
 1463SOL    HW115848   0.102   2.199   5.485  0.2159 -2.8119 -0.0755
 1463SOL    HW215849   0.137   2.294   5.386  1.5105 -0.2943 -3.0682
 1464SOL     OW15850   3.325   4.318   6.982  0.2789 -0.5102  0.3583
 1464SOL    HW115851   3.247   4.361   6.946  1.0080  0.2672 -0.2964
 1464SOL    HW215852   3.373   4.384   7.032  0.2624 -0.3899  0.2173
 1465SOL     OW15853   1.966   0.557   6.281 -0.4145 -0.1001  0.0140
 1465SOL    HW115854   2.029   0.566   6.352 -1.4641  0.4064  0.8801
 1465SOL    HW215855   1.948   0.650   6.269  1.0721  0.2181  0.3114
 1466SOL     OW15856   2.926   3.634   7.463 -0.3078  0.0433 -0.2574
 1466SOL    HW115857   2.875   3.656   7.385 -1.5007  0.3209  0.5884
 1466SOL    HW215858   3.010   3.613   7.424  0.0243  0.9248 -0.0228
 1467SOL     OW15859   4.720   1.654   4.726  0.4050  0.0592  0.1476
 1467SOL    HW115860   4.651   1.593   4.702  1.9710 -1.1884 -1.2473
 1467SOL    HW215861   0.052   1.647   4.649  0.5456  0.1389  0.2446
 1468SOL     OW15862   2.045   1.292   0.634 -0.6033  0.0721 -0.0170
 1468SOL    HW115863   2.042   1.370   0.579 -3.3232 -0.7703 -1.0664
 1468SOL    HW215864   2.085   1.332   0.711  2.3194 -1.6123 -0.6530
 1469SOL     OW15865   3.456   4.720  15.363 -0.2255 -0.0994 -0.3511
 1469SOL    HW115866   3.446   4.704  15.269  0.3062 -1.9935 -0.0952
 1469SOL    HW215867   3.377   0.046  15.384  0.2395  0.8030 -0.7678
 1470SOL     OW15868   1.072   3.987   1.448 -0.2286 -0.3944 -0.3133
 1470SOL    HW115869   1.154   4.007   1.403  0.3951 -0.7313  0.6921
 1470SOL    HW215870   1.062   3.896   1.419 -0.2820 -0.8949  1.2977
 1471SOL     OW15871   3.366   2.308   4.036  0.5917  0.2878  0.9052
 1471SOL    HW115872   3.411   2.385   4.000  2.8077 -2.3770 -1.9797
 1471SOL    HW215873   3.295   2.292   3.974  3.4097 -3.8072 -1.2562
 1472SOL     OW15874   3.262   3.856  13.736  0.2540  0.2330 -0.3254
 1472SOL    HW115875   3.262   3.939  13.783  1.2702  0.9154 -1.5288
 1472SOL    HW215876   3.231   3.888  13.651  1.1206  0.2799 -0.6219
 1473SOL     OW15877   1.282   1.878   7.113  0.0378 -0.4254 -0.1796
 1473SOL    HW115878   1.189   1.868   7.092  0.2756 -1.0947 -0.9247
 1473SOL    HW215879   1.291   1.960   7.161 -3.0051  0.1738 -0.6212
 1474SOL     OW15880   0.342   1.985   9.469  0.0159  0.5388  0.2565
 1474SOL    HW115881   0.430   2.020   9.481 -0.1351  1.0008  0.0388
 1474SOL    HW215882   0.304   2.061   9.424 -0.1962 -0.4434 -1.2335
 1475SOL     OW15883   1.442   2.776   2.422  0.5001  0.3220  0.3144
 1475SOL    HW115884   1.528   2.786   2.381  0.7054  1.4986  1.0234
 1475SOL    HW215885   1.426   2.855   2.475 -0.7950 -0.9628  1.8275
 1476SOL     OW15886   3.913   1.457   8.428 -0.4395 -0.0394 -0.0643
 1476SOL    HW115887   3.857   1.534   8.423  0.9089  0.8040 -2.0724
 1476SOL    HW215888   3.848   1.397   8.467  2.4124 -2.4096  1.0708
 1477SOL     OW15889   3.020   4.361  13.811 -0.1622 -0.2213  0.1851
 1477SOL    HW115890   3.075   4.411  13.871 -3.1211  1.3532  1.5342
 1477SOL    HW215891   3.070   4.279  13.817  0.2536 -0.1042 -1.6294
 1478SOL     OW15892   3.603   1.222   4.412  0.3944  0.4604 -0.1455
 1478SOL    HW115893   3.606   1.159   4.484  0.4140  1.7633  0.9916
 1478SOL    HW215894   3.685   1.198   4.368  0.3854  0.4752 -0.1703
 1479SOL     OW15895   1.632   4.253  10.940 -0.0356  0.0314  0.0527
 1479SOL    HW115896   1.615   4.249  10.846  0.9778  2.5412 -0.2314
 1479SOL    HW215897   1.725   4.275  10.942 -0.3138  1.3420 -1.5203
 1480SOL     OW15898   1.061   3.769   6.570  0.4685 -0.3033 -0.0784
 1480SOL    HW115899   1.031   3.682   6.545 -3.0942  0.4374  1.6452
 1480SOL    HW215900   1.118   3.745   6.644 -1.3943 -4.2713  0.0953
 1481SOL     OW15901   0.138   3.321  14.307  0.5226 -0.7860  0.1545
 1481SOL    HW115902   0.157   3.405  14.265 -0.1923 -1.4938 -1.5873
 1481SOL    HW215903   0.156   3.256  14.240  2.0603  1.0676 -1.2118
 1482SOL     OW15904   3.332   1.544   2.345 -0.2086  0.7900  0.0993
 1482SOL    HW115905   3.350   1.609   2.276  2.1469 -0.0462 -0.0703
 1482SOL    HW215906   3.413   1.495   2.361 -1.0445 -1.1840 -1.7403
 1483SOL     OW15907   0.923   4.063   8.685 -0.8485  0.3217 -0.4964
 1483SOL    HW115908   0.986   3.997   8.716 -1.6060  0.5455  1.4849
 1483SOL    HW215909   0.932   4.050   8.591 -2.7596 -0.3345 -0.5761
 1484SOL     OW15910   1.871   1.500  14.148 -0.1220  0.0819 -0.1030
 1484SOL    HW115911   1.805   1.478  14.082  0.4426 -1.3240 -0.1866
 1484SOL    HW215912   1.827   1.493  14.233 -1.0589 -3.6220 -0.9180
 1485SOL     OW15913   2.940   0.835  15.037 -0.3861 -0.2276 -0.2291
 1485SOL    HW115914   3.026   0.875  15.028 -0.7650  0.3831 -1.0719
 1485SOL    HW215915   2.940   0.769  14.968 -0.9397  0.6155 -1.0237
 1486SOL     OW15916   2.114   1.235   5.643 -0.4765  0.2600  0.0955
 1486SOL    HW115917   2.091   1.260   5.732 -1.6942 -0.5612  0.0037
 1486SOL    HW215918   2.065   1.299   5.591  0.4490 -0.9081 -2.2015
 1487SOL     OW15919   4.706   1.231   7.829  0.0133  0.3955  0.1491
 1487SOL    HW115920   4.668   1.145   7.813  3.3175 -0.9664 -0.3345
 1487SOL    HW215921   4.667   1.282   7.758  1.5687 -0.1591 -1.0876
 1488SOL     OW15922   2.716   4.262   2.349  0.1056 -0.0165  0.3161
 1488SOL    HW115923   2.768   4.338   2.322  0.3181 -0.4161 -0.3804
 1488SOL    HW215924   2.651   4.266   2.279  1.7256  0.6807 -1.1180
 1489SOL     OW15925   1.517   1.523   0.604 -0.5206 -0.2286  0.4751
 1489SOL    HW115926   1.452   1.454   0.593 -0.9807  0.5959 -2.0363
 1489SOL    HW215927   1.562   1.522   0.519  0.4085  0.5887  0.9586
 1490SOL     OW15928   1.976   1.062   1.003  0.8631  0.3047  0.3123
 1490SOL    HW115929   2.027   1.067   1.084  0.8995  3.2415  0.1277
 1490SOL    HW215930   1.903   1.010   1.036 -0.7531  0.7229 -2.6674
 1491SOL     OW15931   0.426   2.132  14.371 -0.3559  0.6138  0.3231
 1491SOL    HW115932   0.504   2.080  14.354 -1.4586 -0.8750 -0.2046
 1491SOL    HW215933   0.387   2.129  14.284  0.7641 -1.4331 -0.0944
 1492SOL     OW15934   1.479   4.081   7.632 -0.1522  0.7191  0.0916
 1492SOL    HW115935   1.456   4.007   7.575  1.5940  1.5562 -1.6992
 1492SOL    HW215936   1.393   4.120   7.649 -1.2413 -0.3516 -2.8391
 1493SOL     OW15937   3.561   2.935   8.610  0.0798  0.5685  0.1102
 1493SOL    HW115938   3.483   2.894   8.647 -1.0947  1.9655 -0.8627
 1493SOL    HW215939   3.539   3.026   8.627 -1.1276  0.5967 -1.5934
 1494SOL     OW15940   4.216   0.305   7.910 -0.2280 -0.3315  0.1939
 1494SOL    HW115941   4.200   0.289   7.817 -1.7450 -3.3290  0.9770
 1494SOL    HW215942   4.127   0.335   7.925 -0.5361  0.3125 -2.9128
 1495SOL     OW15943   2.990   2.238   4.874  0.0032 -0.2100  0.1802
 1495SOL    HW115944   2.913   2.290   4.895 -0.3670 -0.0329 -1.6177
 1495SOL    HW215945   2.991   2.189   4.957  0.7475 -0.2141  0.1674
 1496SOL     OW15946   0.997   3.659   4.639 -0.0898 -0.3586  0.4327
 1496SOL    HW115947   0.907   3.663   4.670  0.4788  1.2295  1.8792
 1496SOL    HW215948   1.039   3.601   4.703  0.7330  1.3436  1.4249
 1497SOL     OW15949   1.808   0.224   8.460 -0.3353  0.1311  0.0819
 1497SOL    HW115950   1.842   0.140   8.428  0.8826 -0.6736  3.4656
 1497SOL    HW215951   1.714   0.207   8.461 -0.4725  1.0396  1.5598
 1498SOL     OW15952   0.306   0.774   0.678  0.1527 -0.1829  0.6842
 1498SOL    HW115953   0.222   0.733   0.698 -0.1626 -0.7370 -1.7074
 1498SOL    HW215954   0.300   0.858   0.724 -2.5363  1.3361 -2.4630
 1499SOL     OW15955   2.597   1.827  16.657 -0.2163 -0.3481 -0.4300
 1499SOL    HW115956   2.579   1.734  16.651 -1.3268 -0.2214  0.8845
 1499SOL    HW215957   2.522   1.866  16.612  0.8072 -0.1026 -1.9349
 1500SOL     OW15958   0.865   1.609   4.771 -0.1021 -0.0205  0.0898
 1500SOL    HW115959   0.815   1.630   4.849 -2.1153 -1.7558 -0.7347
 1500SOL    HW215960   0.817   1.669   4.714  0.4434 -0.4536 -0.8459
 1501SOL     OW15961   4.133   1.343   6.056 -0.2798  0.1119 -0.4961
 1501SOL    HW115962   4.121   1.407   6.127 -2.9554 -1.6706  0.6327
 1501SOL    HW215963   4.210   1.387   6.019  0.6641 -2.8821 -2.0950
 1502SOL     OW15964   0.814   4.166   0.559 -0.1569 -0.0597  0.1741
 1502SOL    HW115965   0.783   4.110   0.488  0.6684  3.3808 -2.9075
 1502SOL    HW215966   0.735   4.219   0.573 -1.0327 -0.7482 -2.2659
 1503SOL     OW15967   0.513   0.635   7.978 -0.4653  0.1767  0.0761
 1503SOL    HW115968   0.508   0.699   7.908 -1.3576  1.9820  1.7793
 1503SOL    HW215969   0.445   0.575   7.948  0.4166 -0.1323 -1.2949
 1504SOL     OW15970   4.478   0.269   5.852  0.4285 -0.3404  0.1893
 1504SOL    HW115971   4.406   0.249   5.792  0.1535 -1.7319  0.9710
 1504SOL    HW215972   4.451   0.217   5.928  0.6993 -0.6702  0.0590
 1505SOL     OW15973   4.530   0.965   7.809  0.2749  0.1768  0.1988
 1505SOL    HW115974   4.455   0.904   7.811 -0.8939  1.5737 -0.9500
 1505SOL    HW215975   4.535   0.991   7.901 -1.2432  1.0866  0.0258
 1506SOL     OW15976   0.017   3.764   4.666  0.2715  0.1225  0.1937
 1506SOL    HW115977   0.069   3.778   4.745  1.1510 -0.9919 -0.1932
 1506SOL    HW215978   4.716   3.855   4.654 -1.1941 -0.1705  1.0886
 1507SOL     OW15979   4.139   1.511  15.750 -0.2094 -0.2228  0.4719
 1507SOL    HW115980   4.175   1.496  15.663  0.5419 -0.2327  0.7888
 1507SOL    HW215981   4.069   1.571  15.723  2.7026  2.9208  0.0139
 1508SOL     OW15982   3.434   4.423   8.255  0.0957 -0.4075 -0.0138
 1508SOL    HW115983   3.482   4.352   8.299  1.5022  0.5840  0.0495
 1508SOL    HW215984   3.498   4.474   8.206  0.2198  0.6443  1.2368
 1509SOL     OW15985   3.621   3.856   2.904 -0.1329 -0.1007 -0.0159
 1509SOL    HW115986   3.695   3.798   2.888  0.6560  1.0317 -0.4872
 1509SOL    HW215987   3.632   3.895   2.991 -0.9904 -1.0968  0.5317
 1510SOL     OW15988   4.304   3.980  13.924 -0.2839 -0.0936  0.0826
 1510SOL    HW115989   4.272   4.008  13.839 -0.6829 -0.2767  0.1730
 1510SOL    HW215990   4.239   3.910  13.937  0.4321 -0.6414  0.7755
 1511SOL     OW15991   3.019   0.093   8.880 -0.0417  0.7206 -0.1936
 1511SOL    HW115992   2.974   0.132   8.805 -0.3252  0.9251  0.0834
 1511SOL    HW215993   2.966   0.015   8.894  1.6771 -0.2199  1.0605
 1512SOL     OW15994   1.153   3.708   2.897 -0.0762 -0.5756  0.1995
 1512SOL    HW115995   1.218   3.778   2.896 -2.0128  1.1836 -2.6949
 1512SOL    HW215996   1.166   3.681   2.988  3.0033 -0.0192 -0.0790
 1513SOL     OW15997   2.425   4.188   9.188  0.0523 -0.1871 -0.2053
 1513SOL    HW115998   2.506   4.229   9.219  0.7225  0.2833 -2.5911
 1513SOL    HW215999   2.460   4.105   9.156  0.2074  0.7919 -2.5550
 1514SOL     OW16000   1.815   0.461   8.928 -0.2494 -0.3134 -0.0763
 1514SOL    HW116001   1.836   0.370   8.946  2.1086 -0.1194 -1.8785
 1514SOL    HW216002   1.903   0.497   8.917 -0.1113 -0.5462  0.2711
 1515SOL     OW16003   2.849   4.230   1.690 -0.1401 -0.5605 -0.0223
 1515SOL    HW116004   2.789   4.267   1.753 -1.1889 -0.8935 -0.8249
 1515SOL    HW216005   2.931   4.231   1.739 -1.5058 -1.5986  2.2889
 1516SOL     OW16006   1.724   3.974   6.653  0.0356 -0.0414 -0.1172
 1516SOL    HW116007   1.704   3.939   6.566 -2.5523  0.4051  0.2925
 1516SOL    HW216008   1.767   3.902   6.700 -0.3916 -1.2476 -1.5631
 1517SOL     OW16009   2.020   4.545   8.495  0.5636  0.3802  0.7883
 1517SOL    HW116010   1.990   4.483   8.562  0.5752  1.7265  2.0488
 1517SOL    HW216011   2.057   4.479   8.437 -0.8823 -1.6918  2.2341
 1518SOL     OW16012   2.198   0.808  14.770  0.0633  0.3562  0.0395
 1518SOL    HW116013   2.235   0.808  14.682 -0.4777  0.4625 -0.1851
 1518SOL    HW216014   2.137   0.734  14.766  0.1016  0.3973 -1.2849
 1519SOL     OW16015   0.678   2.996   3.697  0.0574  0.0736 -0.5641
 1519SOL    HW116016   0.752   2.982   3.638  0.2992  0.9253 -0.4669
 1519SOL    HW216017   0.714   2.942   3.768 -0.4996  0.3390 -0.0881
 1520SOL     OW16018   4.469   0.269   6.492  0.4041  0.6939  0.3727
 1520SOL    HW116019   4.440   0.294   6.579 -0.0034 -1.4101  0.8409
 1520SOL    HW216020   4.391   0.226   6.455 -0.4367 -0.2582  3.2575
 1521SOL     OW16021   2.473   0.280   5.231 -0.1297 -0.0259  0.4461
 1521SOL    HW116022   2.499   0.251   5.319  1.6764 -0.2243 -0.1564
 1521SOL    HW216023   2.548   0.253   5.178 -1.5380  0.5840 -1.8383
 1522SOL     OW16024   4.582   3.644   9.827  0.2761  0.3134  0.0782
 1522SOL    HW116025   4.628   3.587   9.765  2.3529  1.5152  0.5201
 1522SOL    HW216026   4.648   3.713   9.835  0.0889  0.2053  2.4968
 1523SOL     OW16027   2.511   1.726   2.138  0.8220  0.7910 -0.6071
 1523SOL    HW116028   2.524   1.726   2.044  1.7552  0.2360 -0.4758
 1523SOL    HW216029   2.599   1.699   2.165  0.2680  0.8269  1.2693
 1524SOL     OW16030   3.764   1.222   6.224 -0.1032 -0.2309 -0.2113
 1524SOL    HW116031   3.706   1.296   6.207  0.5444  0.3817  0.2248
 1524SOL    HW216032   3.785   1.198   6.134 -0.7690 -0.1749 -0.3819
 1525SOL     OW16033   0.171   3.985   3.214  0.1944  0.3055 -0.1330
 1525SOL    HW116034   0.086   3.952   3.242  1.2109 -0.5698  1.9921
 1525SOL    HW216035   0.139   4.056   3.159 -1.5667  0.4195  1.0288
 1526SOL     OW16036   0.011   0.485   6.043  0.1237 -0.5341  0.6443
 1526SOL    HW116037   4.665   0.463   6.103 -0.6665 -0.4580 -0.2658
 1526SOL    HW216038   4.691   0.538   5.977 -0.8253 -2.1088  0.0223
 1527SOL     OW16039   3.777   1.032   2.726  0.5169  0.2968 -0.3881
 1527SOL    HW116040   3.712   0.969   2.695  0.2183  0.9860 -1.1477
 1527SOL    HW216041   3.738   1.062   2.808  1.8528 -3.7163  1.7686
 1528SOL     OW16042   3.465   3.214   8.606 -0.0825  0.5213  0.0270
 1528SOL    HW116043   3.505   3.277   8.666  1.2687 -0.8362  0.5515
 1528SOL    HW216044   3.371   3.232   8.617 -0.0667  0.4624  0.2559
 1529SOL     OW16045   2.847   3.777  17.321  0.2446 -0.1385 -0.3414
 1529SOL    HW116046   2.839   3.713  17.249  1.0957 -0.4735 -0.1427
 1529SOL    HW216047   2.941   3.792  17.322  0.1832  0.1530  0.9693
 1530SOL     OW16048   4.453   4.245  10.727  0.0067 -0.6047 -0.7006
 1530SOL    HW116049   4.425   4.336  10.719  1.3626 -0.0593  0.8419
 1530SOL    HW216050   4.380   4.213  10.780  0.3349  0.5076  0.4039
 1531SOL     OW16051   3.479   2.343   2.443 -0.7908  0.3173  0.4689
 1531SOL    HW116052   3.501   2.435   2.427 -4.9151  1.1787 -0.0035
 1531SOL    HW216053   3.394   2.364   2.480 -1.6112 -0.6117 -0.8674
 1532SOL     OW16054   2.232   0.267  15.410  0.1302  0.1402  0.0003
 1532SOL    HW116055   2.288   0.227  15.477  0.5910  1.0395  0.1410
 1532SOL    HW216056   2.228   0.359  15.437  1.0487  0.4791 -1.0332
 1533SOL     OW16057   1.957   1.872   6.899 -0.5005  0.0550  0.1738
 1533SOL    HW116058   1.973   1.881   6.805 -1.3406  0.5893  0.0746
 1533SOL    HW216059   2.037   1.904   6.940 -1.3480  1.3083  0.8840
 1534SOL     OW16060   3.302   4.428   5.926  0.3238  0.2345  0.0563
 1534SOL    HW116061   3.239   4.458   5.991 -0.7502  0.3293 -1.0141
 1534SOL    HW216062   3.378   4.413   5.981 -0.0166 -0.5677  0.2976
 1535SOL     OW16063   3.246   3.484   8.584 -0.0426 -0.2655  0.1233
 1535SOL    HW116064   3.154   3.491   8.558  0.0507 -2.2107 -0.7924
 1535SOL    HW216065   3.247   3.422   8.657 -1.3092 -0.8392 -0.3406
 1536SOL     OW16066   0.834   3.940   1.567  0.2886  0.2300 -0.3048
 1536SOL    HW116067   0.770   4.010   1.554 -1.0301 -1.0644 -0.8481
 1536SOL    HW216068   0.914   3.982   1.534 -0.6127  1.2522 -1.1996
 1537SOL     OW16069   0.160   0.903   2.297 -0.3645 -0.2713 -0.1245
 1537SOL    HW116070   0.179   0.873   2.208  2.4981  2.2688 -0.3815
 1537SOL    HW216071   0.155   0.817   2.339  1.5177  0.3480  1.3681
 1538SOL     OW16072   0.311   4.000   9.267  0.3455 -0.0191  0.0571
 1538SOL    HW116073   0.374   3.929   9.271 -0.9341 -1.1531  0.0745
 1538SOL    HW216074   0.229   3.959   9.297  0.8790 -0.7561  0.4942
 1539SOL     OW16075   1.377   4.129   6.426  0.2225 -0.6431  0.3238
 1539SOL    HW116076   1.412   4.060   6.369 -0.1200 -1.7853  1.4896
 1539SOL    HW216077   1.291   4.095   6.449 -0.4644  1.4946  0.9022
 1540SOL     OW16078   1.107   2.513   2.345 -0.2907  0.0532 -0.2329
 1540SOL    HW116079   1.013   2.522   2.365 -0.0360  0.9152  0.5709
 1540SOL    HW216080   1.125   2.574   2.273 -0.8254 -0.5377 -0.8762
 1541SOL     OW16081   4.352   4.312  12.149 -0.1381  0.2873 -0.3252
 1541SOL    HW116082   4.371   4.388  12.094 -0.0896  0.0397 -0.6535
 1541SOL    HW216083   4.365   4.338  12.240  1.9930  0.0562 -0.5597
 1542SOL     OW16084   2.455   1.299  13.536  0.0843 -0.0825 -0.1668
 1542SOL    HW116085   2.548   1.321  13.527 -0.2808  1.1037 -1.1371
 1542SOL    HW216086   2.463   1.206  13.556  0.9064 -0.1153 -0.6136
 1543SOL     OW16087   2.817   1.487   4.909 -0.0946  0.0044  0.3254
 1543SOL    HW116088   2.868   1.406   4.903 -0.8587 -0.3128 -1.7464
 1543SOL    HW216089   2.810   1.507   4.815  1.7821  1.7074  0.5446
 1544SOL     OW16090   0.005   0.142   6.164  0.1756 -0.0850 -0.0715
 1544SOL    HW116091   4.687   0.214   6.211 -1.2364 -1.2440  0.3913
 1544SOL    HW216092   0.045   0.196   6.095  0.5391 -0.7475 -0.3805
 1545SOL     OW16093   4.022   1.429   5.783 -0.5935 -0.3811  0.1456
 1545SOL    HW116094   4.037   1.392   5.870  0.2849 -0.1326  0.1023
 1545SOL    HW216095   4.093   1.388   5.733 -0.8547 -0.4971 -0.1325
 1546SOL     OW16096   2.953   4.178   3.258 -0.1545  0.5369 -0.0181
 1546SOL    HW116097   3.047   4.183   3.270 -0.4116  2.5896  1.1637
 1546SOL    HW216098   2.943   4.201   3.166  1.3545  0.0757 -0.2907
 1547SOL     OW16099   3.193   1.621  17.232 -0.0991  0.0563  0.6469
 1547SOL    HW116100   3.189   1.528  17.208  2.1670 -0.0950  0.8995
 1547SOL    HW216101   3.131   1.660  17.170 -1.4310 -2.4352  0.3791
 1548SOL     OW16102   0.770   2.254  16.164 -0.5958 -0.1949 -0.2950
 1548SOL    HW116103   0.813   2.320  16.219  1.6283 -2.1018  0.2556
 1548SOL    HW216104   0.744   2.301  16.085 -1.3597  2.0606  1.3033
 1549SOL     OW16105   0.672   3.178   6.165 -0.1687 -0.1920 -0.2267
 1549SOL    HW116106   0.582   3.197   6.139 -0.4958 -0.0148  1.0329
 1549SOL    HW216107   0.663   3.088   6.194  1.7416 -0.5332 -0.7234
 1550SOL     OW16108   1.759   0.476  10.540 -0.0553  0.5560  0.2765
 1550SOL    HW116109   1.751   0.421  10.618 -0.9446  0.5411  0.1780
 1550SOL    HW216110   1.816   0.419  10.489  1.7360  2.4263  0.1852
 1551SOL     OW16111   1.978   2.015   7.203 -0.0582  0.0293 -0.0481
 1551SOL    HW116112   1.890   2.017   7.165  0.1784 -0.3036 -0.6140
 1551SOL    HW216113   1.985   1.920   7.192 -1.4429 -0.1827  0.9227
 1552SOL     OW16114   2.891   0.376  10.945  0.0323  0.5181 -0.0884
 1552SOL    HW116115   2.820   0.313  10.957  0.1624  0.5539  0.8853
 1552SOL    HW216116   2.862   0.414  10.862 -2.2942 -1.4500 -0.1612
 1553SOL     OW16117   2.488   3.258   5.760  0.5765  0.2744  0.0453
 1553SOL    HW116118   2.560   3.229   5.816  0.9555  1.6776  0.2586
 1553SOL    HW216119   2.424   3.186   5.768  1.4302 -0.1545  2.9953
 1554SOL     OW16120   1.874   2.139   5.992  0.2347  0.2558  0.4943
 1554SOL    HW116121   1.861   2.233   5.986  0.9442  0.3351  0.1510
 1554SOL    HW216122   1.822   2.119   6.070  1.0497 -1.2584  0.6630
 1555SOL     OW16123   1.020   4.188  13.993 -0.0828 -0.1941 -0.3045
 1555SOL    HW116124   1.106   4.215  13.963 -0.2861  0.3563 -0.4027
 1555SOL    HW216125   1.002   4.106  13.947  0.6205  0.5589 -1.9079
 1556SOL     OW16126   0.178   4.269  10.118  0.6015  0.1568 -0.2952
 1556SOL    HW116127   0.253   4.297  10.170 -2.0694  2.0276  2.4947
 1556SOL    HW216128   0.109   4.327  10.148 -1.0928 -1.2789 -1.4706
 1557SOL     OW16129   2.347   4.219   1.011 -0.7770 -0.7246  0.7367
 1557SOL    HW116130   2.285   4.288   0.989  1.2585  0.4522 -1.3036
 1557SOL    HW216131   2.299   4.174   1.081 -1.9543 -0.2008  0.2663
 1558SOL     OW16132   2.790   2.208  14.289 -0.4502  0.4760  0.2854
 1558SOL    HW116133   2.783   2.153  14.367 -0.3843 -0.9529 -0.7168
 1558SOL    HW216134   2.879   2.177  14.273 -0.3195  0.4572  1.0526
 1559SOL     OW16135   1.896   4.194   6.516  0.5694  0.5312  0.2601
 1559SOL    HW116136   1.853   4.142   6.448 -0.5574  1.0413  0.5870
 1559SOL    HW216137   1.873   4.149   6.598  1.1249  0.9586  0.6556
 1560SOL     OW16138   4.100   1.919   8.141 -0.2188 -0.0173  0.1544
 1560SOL    HW116139   4.114   1.826   8.162 -1.1954 -0.3575 -0.6883
 1560SOL    HW216140   4.010   1.922   8.109 -0.1303 -1.0260 -0.1983
 1561SOL     OW16141   3.112   4.501   5.080  0.4787  0.0890  0.1029
 1561SOL    HW116142   3.142   4.584   5.044  2.1512 -0.3859  0.4394
 1561SOL    HW216143   3.129   4.499   5.174  0.7320  0.1511  0.0565
 1562SOL     OW16144   0.073   3.957   7.749 -0.2036 -0.0532  0.2645
 1562SOL    HW116145   0.141   3.947   7.682  0.2561  0.1028  0.7101
 1562SOL    HW216146   0.121   3.919   7.822 -0.7963  0.8996  1.1379
 1563SOL     OW16147   0.093   0.105   4.266  0.6821  0.2422 -0.0418
 1563SOL    HW116148   0.059   0.194   4.272  0.4677  0.1961 -0.5915
 1563SOL    HW216149   0.017   0.047   4.279  0.5732  0.1797 -0.9750
 1564SOL     OW16150   3.354   4.472   1.865 -0.1557 -0.4342  0.4963
 1564SOL    HW116151   3.343   4.552   1.815  0.1941  0.8426  2.4362
 1564SOL    HW216152   3.433   4.492   1.915  0.0390  3.2486 -1.3515
 1565SOL     OW16153   3.953   3.625   4.205  0.2039  0.2232  0.1004
 1565SOL    HW116154   3.923   3.537   4.229 -1.7490  1.2974  1.5748
 1565SOL    HW216155   3.925   3.678   4.279 -1.8768 -0.2464 -0.3483
 1566SOL     OW16156   0.781   3.723  11.934 -0.4144  0.3340 -0.0914
 1566SOL    HW116157   0.787   3.800  11.990 -0.8957 -0.3171  0.8634
 1566SOL    HW216158   0.784   3.762  11.847  0.8900 -2.6178 -1.3717
 1567SOL     OW16159   0.361   3.462   7.019 -0.5526 -0.1246  0.1872
 1567SOL    HW116160   0.424   3.463   6.948 -0.5736  0.1233  0.1725
 1567SOL    HW216161   0.416   3.447   7.096 -0.6142 -2.2699 -0.1851
 1568SOL     OW16162   3.477   2.359   8.046 -0.0761 -0.1523  0.5902
 1568SOL    HW116163   3.543   2.410   8.093  0.7963  1.8258 -2.7317
 1568SOL    HW216164   3.441   2.416   7.977 -0.8924 -1.2138  0.1343
 1569SOL     OW16165   2.862   2.733   8.880  0.2556 -0.1833 -0.1049
 1569SOL    HW116166   2.881   2.757   8.789  0.9755 -0.8277 -0.1143
 1569SOL    HW216167   2.940   2.772   8.918  1.6050 -0.3574 -2.7191
 1570SOL     OW16168   2.435   1.792  11.377  0.0630 -0.7311  0.3084
 1570SOL    HW116169   2.469   1.870  11.421 -2.8399  0.0887  1.0952
 1570SOL    HW216170   2.518   1.748  11.361 -0.3095 -0.8649 -1.2303
 1571SOL     OW16171   2.552   3.083   3.695  0.5631 -0.4336  0.6824
 1571SOL    HW116172   2.573   3.058   3.785  1.8858  1.5986  0.9423
 1571SOL    HW216173   2.510   3.008   3.654  0.8849 -1.9761  3.1355
 1572SOL     OW16174   3.295   3.481   7.516 -0.1702  0.1844  0.9736
 1572SOL    HW116175   3.220   3.490   7.575  0.7131 -0.1428  2.1489
 1572SOL    HW216176   3.289   3.566   7.473 -1.2350 -0.9085 -1.0633
 1573SOL     OW16177   3.600   3.581   5.474  0.4793  0.0395  0.5795
 1573SOL    HW116178   3.694   3.589   5.490  0.4464  0.7935  0.3764
 1573SOL    HW216179   3.594   3.503   5.419 -2.4320  0.8932 -0.3469
 1574SOL     OW16180   1.576   3.091   8.031 -0.5857 -0.0596 -0.0020
 1574SOL    HW116181   1.668   3.065   8.023 -0.2907  1.0374 -0.1087
 1574SOL    HW216182   1.577   3.113   8.125  1.0109 -1.1001  0.2318
 1575SOL     OW16183   2.713   4.310  12.705  0.0746  0.1439 -0.2314
 1575SOL    HW116184   2.688   4.352  12.623  0.2903 -0.8221 -0.7845
 1575SOL    HW216185   2.719   4.221  12.671 -2.7295 -1.3049  3.0705
 1576SOL     OW16186   1.552   3.964   4.178 -1.0968 -0.4386  0.0752
 1576SOL    HW116187   1.645   3.982   4.165 -1.3758 -0.0106 -1.2780
 1576SOL    HW216188   1.559   3.906   4.255  0.0845 -1.0412 -0.4763
 1577SOL     OW16189   0.104   2.807  15.510 -0.6270 -0.4870  0.0282
 1577SOL    HW116190   0.094   2.821  15.604  2.1633 -0.4411  0.3084
 1577SOL    HW216191   0.161   2.730  15.506 -1.2315 -0.9291 -0.0088
 1578SOL     OW16192   3.010   1.025   8.596 -0.3373 -0.0219 -0.0128
 1578SOL    HW116193   2.955   1.103   8.586 -0.6197 -0.4612 -1.7976
 1578SOL    HW216194   3.000   1.014   8.691 -0.7821 -0.9380 -0.1700
 1579SOL     OW16195   4.607   4.055   3.807  0.1873  0.4769  0.1447
 1579SOL    HW116196   4.628   4.038   3.898 -1.0011  1.3272  0.5799
 1579SOL    HW216197   4.684   4.068   3.752  2.1363 -2.0934  2.2767
 1580SOL     OW16198   3.314   1.101   5.405  0.1884 -0.0919 -0.1612
 1580SOL    HW116199   3.333   1.084   5.313 -0.2895 -0.5124 -0.1840
 1580SOL    HW216200   3.298   1.012   5.438 -1.0498  0.4940  0.8143
 1581SOL     OW16201   0.096   1.665   4.444 -0.3146 -0.2048 -0.3133
 1581SOL    HW116202   0.171   1.605   4.435  0.4851  0.6358  0.8202
 1581SOL    HW216203   0.124   1.734   4.384 -0.1455  1.4870  1.7273
 1582SOL     OW16204   3.086   4.247   0.371  0.4001  0.3494  0.0646
 1582SOL    HW116205   3.171   4.226   0.411  0.4033  0.3616  0.0642
 1582SOL    HW216206   3.025   4.182   0.404  1.7021  0.5315  2.9042
 1583SOL     OW16207   1.793   0.939   2.710 -0.0970  0.5348 -0.1974
 1583SOL    HW116208   1.731   0.895   2.769  0.5862 -0.1227  0.0289
 1583SOL    HW216209   1.765   0.895   2.629  2.0777 -0.1440 -0.5941
 1584SOL     OW16210   4.267   2.122   2.747 -0.5348 -0.3185 -0.1185
 1584SOL    HW116211   4.173   2.108   2.733 -0.9948  2.0990  0.4819
 1584SOL    HW216212   4.296   2.035   2.770  1.8960  0.3948 -0.5392
 1585SOL     OW16213   0.247   2.337  11.010  0.5812 -0.1846 -0.4800
 1585SOL    HW116214   0.170   2.333  10.953  0.7598 -1.2678 -0.6293
 1585SOL    HW216215   0.302   2.389  10.952  1.0593 -0.5621 -0.3639
 1586SOL     OW16216   2.539   2.749   2.403 -0.5761  0.1016  0.0195
 1586SOL    HW116217   2.562   2.680   2.465  1.7226  0.1087 -0.7902
 1586SOL    HW216218   2.593   2.728   2.326  2.8972  3.1617  1.6296
 1587SOL     OW16219   3.688   2.084   1.952  0.2329 -0.0774  0.3047
 1587SOL    HW116220   3.771   2.133   1.951  1.2478 -1.7822  0.5417
 1587SOL    HW216221   3.696   2.028   1.874 -0.1195 -2.1143  1.7424
 1588SOL     OW16222   3.707   4.532   8.245  0.1050 -0.0822 -0.7048
 1588SOL    HW116223   3.736   4.593   8.177  0.6145  0.1950 -0.2370
 1588SOL    HW216224   3.677   4.588   8.317 -0.4698 -1.4058  0.0679
 1589SOL     OW16225   3.338   0.877  14.052 -0.1434 -0.2096 -0.7200
 1589SOL    HW116226   3.403   0.810  14.030  0.3288 -0.3366  1.0862
 1589SOL    HW216227   3.379   0.920  14.127  0.6635 -0.7696 -0.8433
 1590SOL     OW16228   4.538   1.571  11.426  0.5623  0.3282  0.3158
 1590SOL    HW116229   4.610   1.575  11.489 -0.6095  2.7830  1.5541
 1590SOL    HW216230   4.507   1.661  11.416 -1.2788 -0.2923  0.4539
 1591SOL     OW16231   1.197   2.531   9.919  0.2541  0.4149 -0.3613
 1591SOL    HW116232   1.185   2.599   9.985 -0.2736  2.4928 -2.5836
 1591SOL    HW216233   1.221   2.582   9.842  0.3495  1.7070  0.5319
 1592SOL     OW16234   3.002   2.163   2.462 -0.0808 -0.1270 -0.0780
 1592SOL    HW116235   3.063   2.136   2.393 -0.4255  0.6708 -0.6960
 1592SOL    HW216236   3.000   2.077   2.504 -1.4707 -1.2687 -2.5065
 1593SOL     OW16237   2.427   2.070  11.752  0.5819 -0.0854 -0.2177
 1593SOL    HW116238   2.437   2.087  11.659 -0.9549 -1.0635 -0.5704
 1593SOL    HW216239   2.336   2.041  11.759  1.1705 -1.8644 -0.0932
 1594SOL     OW16240   2.993   4.678   9.239  0.3016 -0.1883 -0.4018
 1594SOL    HW116241   2.982   0.019   9.308  1.3546 -0.1728 -0.2449
 1594SOL    HW216242   2.916   4.622   9.227  0.0349 -0.0200  0.5459
 1595SOL     OW16243   3.795   4.127   0.635  0.1657  0.2993  0.2994
 1595SOL    HW116244   3.835   4.188   0.572 -0.0004 -0.4056 -0.4818
 1595SOL    HW216245   3.868   4.073   0.665  0.6400 -0.1760 -1.6711
 1596SOL     OW16246   2.334   2.033   4.463 -0.5006 -0.2203  0.0300
 1596SOL    HW116247   2.370   2.084   4.390 -2.9032 -0.5846 -1.4031
 1596SOL    HW216248   2.344   1.941   4.437 -0.1229 -0.7623  2.1062
 1597SOL     OW16249   0.364   2.418   3.886  0.0134  0.0181 -0.2377
 1597SOL    HW116250   0.273   2.441   3.903  0.9076  1.1664  2.8671
 1597SOL    HW216251   0.404   2.502   3.908 -0.6118  0.6066 -1.3387
 1598SOL     OW16252   2.713   2.860  13.482 -0.5202  1.0311  0.2357
 1598SOL    HW116253   2.688   2.951  13.465  0.2436  0.9527 -1.3362
 1598SOL    HW216254   2.627   2.825  13.505  0.5569 -0.3138  2.1985
 1599SOL     OW16255   4.598   2.859   4.253  0.5621  0.1186  0.4747
 1599SOL    HW116256   4.690   2.862   4.225  0.1279  1.0550 -0.8717
 1599SOL    HW216257   4.563   2.944   4.225  0.7632  0.5212  1.4275
 1600SOL     OW16258   2.941   1.977   2.063 -0.2181 -0.1045 -0.3342
 1600SOL    HW116259   2.909   1.892   2.033  0.4615 -0.1718 -0.8695
 1600SOL    HW216260   2.871   1.995   2.125 -1.4755 -0.3073 -1.7092
 1601SOL     OW16261   2.764   3.926   4.579 -0.1087  0.1145  0.2645
 1601SOL    HW116262   2.716   3.983   4.640 -0.9912 -2.3308  1.8335
 1601SOL    HW216263   2.710   3.942   4.502  0.7862  3.3962  0.2992
 1602SOL     OW16264   0.213   0.628   8.705 -0.4553 -0.1024 -0.5559
 1602SOL    HW116265   0.266   0.571   8.760 -2.3385 -1.5829 -0.2531
 1602SOL    HW216266   0.146   0.644   8.771  0.8173 -0.2081  0.7621
 1603SOL     OW16267   4.226   2.075   5.601  0.3251 -0.7714  0.5606
 1603SOL    HW116268   4.156   2.139   5.614 -0.9090 -1.8826 -0.6296
 1603SOL    HW216269   4.291   2.125   5.552 -0.0627 -1.2472 -0.4465
 1604SOL     OW16270   2.559   3.713   8.504 -0.2443 -0.1649  0.5754
 1604SOL    HW116271   2.606   3.792   8.530  0.7485 -0.9477  1.1554
 1604SOL    HW216272   2.471   3.742   8.478 -1.2530 -0.5874  3.5119
 1605SOL     OW16273   1.217   0.686   4.837 -0.4337 -0.1248  0.0459
 1605SOL    HW116274   1.208   0.657   4.928  0.7016 -1.2481 -0.1948
 1605SOL    HW216275   1.221   0.603   4.790 -2.0710 -0.1736 -0.0241
 1606SOL     OW16276   0.929   3.777   3.073 -0.1997 -0.4239  0.1222
 1606SOL    HW116277   0.949   3.748   2.984  0.2110 -1.5314  0.5743
 1606SOL    HW216278   0.887   3.861   3.056  1.7207  0.3659 -0.6671
 1607SOL     OW16279   2.185   2.466   8.587  0.1615  0.1602 -0.0386
 1607SOL    HW116280   2.125   2.499   8.654  0.7251 -2.0099  1.5179
 1607SOL    HW216281   2.264   2.514   8.612 -0.8775  1.1850  1.2695
 1608SOL     OW16282   2.095   4.239   6.859  0.0617 -0.4262 -0.6329
 1608SOL    HW116283   2.135   4.168   6.910  3.0923  1.4195 -0.4120
 1608SOL    HW216284   2.165   4.269   6.800  0.5934 -3.0944 -1.3818
 1609SOL     OW16285   2.612   4.533   2.080  0.0012 -0.3675 -0.7363
 1609SOL    HW116286   2.565   4.449   2.086 -1.3303  0.4533  0.0990
 1609SOL    HW216287   2.528   4.577   2.089 -1.1345 -2.4762 -0.9718
 1610SOL     OW16288   3.201   4.478  11.698 -0.5409  0.2788 -0.4113
 1610SOL    HW116289   3.289   4.516  11.702 -0.1908 -0.6758  1.1300
 1610SOL    HW216290   3.174   4.503  11.787  2.0538  0.8515  0.2203
 1611SOL     OW16291   2.879   3.325  17.051  0.0718 -0.1946  0.2754
 1611SOL    HW116292   2.959   3.321  17.103  0.6619 -0.1457 -0.6305
 1611SOL    HW216293   2.913   3.342  16.963  0.5189 -0.5823  0.3774
 1612SOL     OW16294   0.617   3.137  12.452  0.0348  0.0411 -0.4809
 1612SOL    HW116295   0.526   3.109  12.442  1.2665 -3.3912 -2.3681
 1612SOL    HW216296   0.624   3.164  12.543 -4.1267  1.1118 -0.5007
 1613SOL     OW16297   2.285   2.712   7.665  0.8163  0.2297  0.0748
 1613SOL    HW116298   2.255   2.717   7.574  0.3582  1.3122  0.2827
 1613SOL    HW216299   2.277   2.617   7.676 -1.9752  0.3043 -1.5298
 1614SOL     OW16300   2.109   2.333   3.921  0.3373  0.4073  0.4055
 1614SOL    HW116301   2.085   2.399   3.987  0.7153 -1.0168  1.9784
 1614SOL    HW216302   2.028   2.284   3.926  0.3104  0.4883  0.7661
 1615SOL     OW16303   2.421   2.281   1.435  0.2707  0.9255  0.1849
 1615SOL    HW116304   2.421   2.251   1.344 -0.3707  1.5376 -0.0146
 1615SOL    HW216305   2.454   2.205   1.483 -0.8988  0.3213  0.0327
 1616SOL     OW16306   3.901   3.137  14.258 -0.0653 -0.0128 -0.0334
 1616SOL    HW116307   3.903   3.192  14.180 -3.1269  2.0902  1.3615
 1616SOL    HW216308   3.994   3.129  14.277 -0.2141 -2.3937 -0.3295
 1617SOL     OW16309   1.219   3.111   7.254  0.4385 -0.3947  0.5680
 1617SOL    HW116310   1.152   3.069   7.200  2.6610 -1.7225 -1.1542
 1617SOL    HW216311   1.279   3.137   7.184  0.8698 -0.1627  1.0295
 1618SOL     OW16312   3.384   2.383  15.792 -0.2703 -0.4957 -0.1783
 1618SOL    HW116313   3.472   2.421  15.801 -0.4467  0.0344 -0.6664
 1618SOL    HW216314   3.356   2.436  15.717  0.9084  1.0499  0.4566
 1619SOL     OW16315   3.176   1.625   8.627 -0.1168 -0.2340  0.2835
 1619SOL    HW116316   3.168   1.530   8.621  0.9123 -0.2566 -0.7110
 1619SOL    HW216317   3.232   1.648   8.553 -1.1289 -2.3032 -1.1388
 1620SOL     OW16318   4.044   3.639   8.256  0.1012 -0.5447 -0.4908
 1620SOL    HW116319   4.059   3.613   8.347  0.9685 -1.2846 -0.8407
 1620SOL    HW216320   4.106   3.711   8.247 -1.3091  0.5544 -1.3320
 1621SOL     OW16321   2.716   4.579   6.428  0.4905  0.1343 -0.2568
 1621SOL    HW116322   2.660   4.548   6.498  1.2154 -0.3968  0.0926
 1621SOL    HW216323   2.696   4.521   6.354 -1.9746  2.1388 -1.1470
 1622SOL     OW16324   2.817   1.185   7.612  0.0106  0.3223  0.3525
 1622SOL    HW116325   2.784   1.272   7.633 -0.1794 -0.1888  2.1939
 1622SOL    HW216326   2.739   1.147   7.572  0.4158 -0.9363  0.7451
 1623SOL     OW16327   1.439   3.040   8.417 -0.2729 -0.2227  0.0851
 1623SOL    HW116328   1.404   3.062   8.503  1.4816  2.8944 -0.0133
 1623SOL    HW216329   1.362   3.069   8.366 -0.7614  0.7348  1.3865
 1624SOL     OW16330   0.811   3.179   6.907  0.4580  0.2209 -0.1731
 1624SOL    HW116331   0.771   3.166   6.822 -1.2744 -0.6686  0.7808
 1624SOL    HW216332   0.904   3.174   6.885  0.5427  0.4286  0.1246
 1625SOL     OW16333   3.961   4.275   3.955 -0.6041  0.2433 -0.4357
 1625SOL    HW116334   4.019   4.343   3.922 -2.0269  1.5856 -0.2100
 1625SOL    HW216335   3.913   4.263   3.873 -0.0354  1.2617 -0.9193
 1626SOL     OW16336   0.819   3.096   0.799 -0.3874  0.0387  0.1973
 1626SOL    HW116337   0.847   3.068   0.886  0.6318 -0.5836 -0.3233
 1626SOL    HW216338   0.799   3.012   0.757 -0.2726 -0.3050  0.8245
 1627SOL     OW16339   2.954   1.305  14.601 -0.5748 -0.4005  0.8219
 1627SOL    HW116340   2.991   1.328  14.516 -0.4022  0.2039  1.0559
 1627SOL    HW216341   2.977   1.384  14.651 -1.0471 -0.1576  0.6551
 1628SOL     OW16342   3.043   0.576  12.731  0.2168  0.6016 -0.2651
 1628SOL    HW116343   3.100   0.619  12.667  0.4056 -1.8725 -1.7188
 1628SOL    HW216344   2.982   0.525  12.679 -1.8779  0.9891  1.8225
 1629SOL     OW16345   0.155   0.536   5.453  0.5252 -0.3968 -0.3693
 1629SOL    HW116346   0.064   0.507   5.454  0.5434 -0.4820 -1.1536
 1629SOL    HW216347   0.150   0.595   5.528 -1.5069 -0.0055 -0.8216
 1630SOL     OW16348   0.783   2.034   8.587 -0.2212  0.4132 -0.0847
 1630SOL    HW116349   0.772   2.110   8.530 -0.6840  0.2864 -0.1713
 1630SOL    HW216350   0.875   2.037   8.611 -0.8903  2.0238  2.3321
 1631SOL     OW16351   3.472   2.502   6.073 -0.6848  0.0390  0.2923
 1631SOL    HW116352   3.447   2.575   6.017  2.3413  0.0919 -1.0021
 1631SOL    HW216353   3.545   2.537   6.123  0.0275 -1.2189  0.1383
 1632SOL     OW16354   2.809   1.494  16.161  0.1758 -0.2693  0.3442
 1632SOL    HW116355   2.841   1.583  16.150 -1.8662  0.6868  1.9817
 1632SOL    HW216356   2.802   1.475  16.068 -1.6680 -1.5900  0.7464
 1633SOL     OW16357   3.590   0.550   7.988 -0.7187  0.4382 -0.3360
 1633SOL    HW116358   3.496   0.569   7.989 -0.8249 -0.1011 -0.1280
 1633SOL    HW216359   3.621   0.631   8.028 -1.4831  1.8424 -2.5645
 1634SOL     OW16360   3.673   2.957  10.882  0.0416  0.7497 -0.6174
 1634SOL    HW116361   3.618   2.886  10.849 -1.9800  1.0877  1.9846
 1634SOL    HW216362   3.622   3.032  10.851 -0.5353  0.7535  0.3403
 1635SOL     OW16363   3.814   2.563   9.364  0.6568  0.0394  1.1338
 1635SOL    HW116364   3.889   2.591   9.312 -0.6898  1.2799 -0.1616
 1635SOL    HW216365   3.773   2.646   9.391  1.2810  0.8422 -0.3910
 1636SOL     OW16366   2.608   0.591   1.791  0.2490  0.4843  0.6316
 1636SOL    HW116367   2.701   0.610   1.780 -0.1711  1.9510 -0.4757
 1636SOL    HW216368   2.566   0.677   1.781 -1.1539 -0.1258  1.2264
 1637SOL     OW16369   4.602   3.887  10.130  0.8415 -0.2624  0.0178
 1637SOL    HW116370   4.645   3.914  10.049 -0.6730 -0.4304 -0.8620
 1637SOL    HW216371   4.573   3.971  10.165  0.1677 -0.8216  0.8038
 1638SOL     OW16372   2.411   2.905   4.963  0.7298 -0.4080  0.1098
 1638SOL    HW116373   2.411   2.949   4.879 -1.3143 -1.9806 -0.7340
 1638SOL    HW216374   2.470   2.966   5.007  1.7391 -3.5171  3.1009
 1639SOL     OW16375   2.156   4.549  11.900  0.0214  0.2936  0.0295
 1639SOL    HW116376   2.224   4.615  11.917  0.6847 -0.0044 -1.3962
 1639SOL    HW216377   2.154   4.544  11.804  3.0253  0.8171 -0.0630
 1640SOL     OW16378   4.691   0.148   2.216 -0.2381  0.0268 -0.0783
 1640SOL    HW116379   0.031   0.146   2.286  0.8714  1.7176 -1.0758
 1640SOL    HW216380   4.647   0.067   2.242 -1.9441  0.6519 -1.0167
 1641SOL     OW16381   3.053   1.391   7.517  0.4238  0.0186 -0.5025
 1641SOL    HW116382   3.145   1.417   7.512  0.3800  0.4765  1.1353
 1641SOL    HW216383   3.029   1.374   7.608  0.5448 -0.9754 -0.6656
 1642SOL     OW16384   3.463   1.840  10.228 -0.0086  0.1163  0.2877
 1642SOL    HW116385   3.395   1.786  10.188 -1.1071  2.4886 -1.0968
 1642SOL    HW216386   3.422   1.864  10.311 -1.9511 -0.7145 -0.4242
 1643SOL     OW16387   3.825   1.593  17.122  0.1938 -0.0071 -0.1733
 1643SOL    HW116388   3.907   1.586  17.171  1.6729  1.4741 -2.4096
 1643SOL    HW216389   3.847   1.659  17.056 -1.9763  0.7041 -0.1897
 1644SOL     OW16390   0.495   4.497  11.699 -0.3704 -0.5189  0.0467
 1644SOL    HW116391   0.422   4.535  11.651 -0.0669 -1.0695 -0.8601
 1644SOL    HW216392   0.505   4.410  11.660 -0.8582 -0.9822  0.9491
 1645SOL     OW16393   2.414   0.852   9.677 -0.0625  0.3467 -0.3331
 1645SOL    HW116394   2.319   0.847   9.671  0.0807 -1.8376 -0.5744
 1645SOL    HW216395   2.431   0.843   9.771 -0.0503 -0.2415 -0.3965
 1646SOL     OW16396   3.965   3.398   5.076 -0.4070 -0.0713  0.0482
 1646SOL    HW116397   3.918   3.448   5.010 -0.2087  0.8809  0.6420
 1646SOL    HW216398   3.920   3.431   5.154 -1.7162  0.2592 -0.8415
 1647SOL     OW16399   0.997   2.704   2.950  0.1330  0.5283  0.4600
 1647SOL    HW116400   0.970   2.614   2.968 -1.6021  1.0664  0.5191
 1647SOL    HW216401   1.081   2.679   2.911  0.0125  1.5050 -0.4142
 1648SOL     OW16402   1.819   2.720  12.769  0.3686 -0.0696  0.8548
 1648SOL    HW116403   1.854   2.631  12.769  2.6625  0.8226 -1.4983
 1648SOL    HW216404   1.828   2.734  12.863 -1.3240  2.1275  0.6857
 1649SOL     OW16405   1.742   1.618   3.569 -0.2063  0.5319 -0.3182
 1649SOL    HW116406   1.723   1.712   3.563  1.4644  0.6775 -3.3166
 1649SOL    HW216407   1.718   1.585   3.483 -2.0374  1.2684 -0.0776
 1650SOL     OW16408   1.989   3.266   6.279 -0.3841  0.2771  0.0185
 1650SOL    HW116409   1.980   3.275   6.184  1.8092  1.4758 -0.0670
 1650SOL    HW216410   2.024   3.352   6.302 -0.8522  1.1310 -2.4267
 1651SOL     OW16411   3.405   1.562   4.140 -0.5287 -0.1663  0.2297
 1651SOL    HW116412   3.457   1.614   4.079  0.5241  1.1106  2.2048
 1651SOL    HW216413   3.463   1.506   4.192 -0.0153 -0.7277 -0.9508
 1652SOL     OW16414   4.108   4.039   6.438  0.2822  0.4610 -0.2561
 1652SOL    HW116415   4.095   3.977   6.510 -0.4956  0.0179 -0.7796
 1652SOL    HW216416   4.042   4.107   6.449 -1.6684 -1.5736  0.7477
 1653SOL     OW16417   4.300   1.386   1.135 -0.6712 -0.1737 -0.6888
 1653SOL    HW116418   4.384   1.385   1.089  0.2836 -2.7154  1.1166
 1653SOL    HW216419   4.244   1.327   1.084  1.4162  0.2497 -3.5012
 1654SOL     OW16420   1.027   1.602  10.865  0.4235  0.0106  0.4431
 1654SOL    HW116421   1.033   1.512  10.832 -0.9724  0.0802 -0.0022
 1654SOL    HW216422   1.086   1.602  10.940 -0.0736 -1.1323  0.8366
 1655SOL     OW16423   1.671   1.996   6.484 -0.6611 -0.1410 -0.2383
 1655SOL    HW116424   1.593   1.942   6.476 -0.2366 -0.8895  0.6757
 1655SOL    HW216425   1.670   2.013   6.578 -2.6539 -1.6849  0.0294
 1656SOL     OW16426   1.752   3.096   6.748  0.1952 -0.2261 -0.3091
 1656SOL    HW116427   1.832   3.124   6.791  1.3964 -2.3747 -1.1610
 1656SOL    HW216428   1.728   3.175   6.698  0.5134 -0.8197 -1.3912
 1657SOL     OW16429   2.097   2.950   6.626  0.5007  0.0715 -0.1618
 1657SOL    HW116430   2.101   2.887   6.698 -0.6381 -0.3529 -0.4765
 1657SOL    HW216431   2.017   2.928   6.578  1.0818 -0.4736 -0.8830
 1658SOL     OW16432   3.656   0.751  16.579  0.0211 -0.1975 -0.1815
 1658SOL    HW116433   3.710   0.782  16.506 -1.6306  1.2912 -0.7648
 1658SOL    HW216434   3.722   0.705  16.631 -1.2738 -1.9857 -0.1358
 1659SOL     OW16435   3.494   2.955   5.493  0.0481 -0.1595  0.3451
 1659SOL    HW116436   3.478   2.861   5.506 -0.8308 -0.3419 -2.1261
 1659SOL    HW216437   3.511   2.979   5.584 -0.8582  0.0843  0.4483
 1660SOL     OW16438   2.919   2.210   8.329 -0.1897 -0.5820 -0.1265
 1660SOL    HW116439   2.861   2.286   8.330  1.5962  0.7748  0.3327
 1660SOL    HW216440   3.003   2.254   8.339 -1.1554  1.5534 -1.1838
 1661SOL     OW16441   2.725   3.483  14.345  0.4636  0.4984 -0.1377
 1661SOL    HW116442   2.634   3.494  14.375  0.0177  2.0589 -2.0435
 1661SOL    HW216443   2.740   3.566  14.300  1.2230  0.9187  0.9121
 1662SOL     OW16444   0.582   2.587   3.135 -0.1167  0.6890  0.1431
 1662SOL    HW116445   0.493   2.558   3.155  0.4172  0.0252  1.5682
 1662SOL    HW216446   0.617   2.627   3.215  0.5470 -0.4037  0.3998
 1663SOL     OW16447   0.449   0.659  11.044  0.1721 -0.1263 -0.1008
 1663SOL    HW116448   0.517   0.597  11.071  1.3594  0.8912 -0.7473
 1663SOL    HW216449   0.400   0.668  11.126 -0.4634  0.6241 -0.5566
 1664SOL     OW16450   3.381   3.620   4.964 -0.1905 -0.1303  0.4787
 1664SOL    HW116451   3.439   3.571   5.022 -0.7880 -1.8045 -0.3460
 1664SOL    HW216452   3.346   3.674   5.035  0.0815 -0.2476  0.6998
 1665SOL     OW16453   3.607   1.053   5.646 -0.3648 -0.3507 -0.5082
 1665SOL    HW116454   3.664   0.985   5.683  1.0216 -0.7398 -3.3292
 1665SOL    HW216455   3.620   1.031   5.554 -2.1713 -0.2518 -0.7774
 1666SOL     OW16456   1.755   3.059   7.135 -0.2116  0.7955 -0.6919
 1666SOL    HW116457   1.785   3.078   7.223 -3.8068 -1.1906  0.9746
 1666SOL    HW216458   1.692   3.126   7.108 -0.2994 -0.0023 -2.5228
 1667SOL     OW16459   3.701   0.073  10.279  0.7203 -0.0445  0.4110
 1667SOL    HW116460   3.675   0.113  10.196  2.0897 -1.9678 -0.9564
 1667SOL    HW216461   3.629   0.084  10.340  0.3820  3.1967 -0.5541
 1668SOL     OW16462   3.612   4.473   3.700 -0.3250  0.2492 -0.1363
 1668SOL    HW116463   3.642   4.382   3.708 -0.2434  0.1212 -1.8348
 1668SOL    HW216464   3.696   4.518   3.701 -0.0630 -0.2550  0.6041
 1669SOL     OW16465   2.459   0.318  17.457  0.6191  0.3971 -0.2844
 1669SOL    HW116466   2.490   0.345  17.371  0.7704  0.9363 -0.0597
 1669SOL    HW216467   2.468   0.402  17.502  0.1370 -0.0815  0.6963
 1670SOL     OW16468   4.435   0.166   3.124  0.1127 -0.0725 -0.2459
 1670SOL    HW116469   4.452   0.076   3.151  0.2065  0.6421  2.0712
 1670SOL    HW216470   4.352   0.157   3.076 -1.0364 -1.2881  1.9439
 1671SOL     OW16471   0.215   2.881   8.216  0.3700 -0.9989  0.0563
 1671SOL    HW116472   0.284   2.868   8.150  0.9803  0.2424  0.4536
 1671SOL    HW216473   0.220   2.811   8.282  0.3056  0.4008  1.5448
 1672SOL     OW16474   0.918   3.559  16.274  0.1518 -0.3525  0.3919
 1672SOL    HW116475   0.932   3.651  16.295 -2.0949  0.0020  0.3294
 1672SOL    HW216476   0.932   3.551  16.180  1.2439 -1.7476  0.6798
 1673SOL     OW16477   1.024   1.524   6.099 -0.1510 -0.5421 -0.4224
 1673SOL    HW116478   1.067   1.484   6.024 -0.3600 -1.7316  0.0948
 1673SOL    HW216479   1.081   1.511   6.175 -0.2289  0.0130 -0.2633
 1674SOL     OW16480   4.178   0.964   2.462  0.5847  0.0891  0.1574
 1674SOL    HW116481   4.240   1.017   2.512 -0.3003 -2.0329  3.4540
 1674SOL    HW216482   4.232   0.945   2.386  1.4567 -0.1942  0.8518
 1675SOL     OW16483   2.052   0.738  10.348  0.1070  0.0605 -0.2037
 1675SOL    HW116484   1.964   0.719  10.314  1.5765  0.7086 -4.4587
 1675SOL    HW216485   2.031   0.772  10.434 -0.2964  2.1037 -1.1070
 1676SOL     OW16486   2.369   4.663   0.105 -0.6807  0.2759  0.1264
 1676SOL    HW116487   2.423   4.709   0.041 -1.0330 -0.9316 -1.0353
 1676SOL    HW216488   2.429   4.631   0.172  0.0564  0.0296 -0.6569
 1677SOL     OW16489   2.912   1.668   6.565  0.5380  0.3762  0.1498
 1677SOL    HW116490   2.847   1.615   6.610  0.4293  1.5396  1.3795
 1677SOL    HW216491   2.885   1.645   6.476 -1.5936 -1.0608  1.1713
 1678SOL     OW16492   3.648   0.559  15.802 -0.2224 -0.7543  0.1766
 1678SOL    HW116493   3.628   0.596  15.716  0.8586 -3.5572 -1.3046
 1678SOL    HW216494   3.595   0.608  15.864  0.8196  1.8789 -1.0090
 1679SOL     OW16495   2.023   2.525   3.746 -0.2502  0.8889  0.3855
 1679SOL    HW116496   2.102   2.576   3.728  0.9010 -0.3230  1.9475
 1679SOL    HW216497   2.062   2.452   3.794 -0.8117 -0.4471 -1.1572
 1680SOL     OW16498   4.344   1.125   2.678  0.3602 -0.1424  0.0766
 1680SOL    HW116499   4.383   1.147   2.762  1.7271  4.1836 -1.7022
 1680SOL    HW216500   4.254   1.131   2.710  0.7743  2.5629  0.6995
 1681SOL     OW16501   3.576   2.385  17.081 -0.0496  0.1307 -0.1893
 1681SOL    HW116502   3.654   2.441  17.075 -1.3223  1.7357 -1.6077
 1681SOL    HW216503   3.616   2.299  17.065  0.0650  0.1525 -0.0158
 1682SOL     OW16504   3.185   1.967  16.630  0.1948 -0.3909 -0.0792
 1682SOL    HW116505   3.149   2.055  16.621  0.7232 -0.1466  0.1633
 1682SOL    HW216506   3.229   1.956  16.546 -3.1091 -2.3296 -1.5476
 1683SOL     OW16507   1.442   4.165   8.553  0.6410  0.2982  0.1024
 1683SOL    HW116508   1.470   4.075   8.567 -1.6785 -0.7203 -1.8374
 1683SOL    HW216509   1.490   4.201   8.628  1.4303 -1.0046  0.2142
 1684SOL     OW16510   3.938   0.077   4.409 -0.4060  0.1016 -0.3755
 1684SOL    HW116511   3.935   4.714   4.371  1.4725  0.0178 -0.3028
 1684SOL    HW216512   3.889   0.067   4.491 -1.1267  0.1578 -0.7939
 1685SOL     OW16513   3.988   2.152   8.472 -0.6957 -0.0556 -0.1026
 1685SOL    HW116514   3.990   2.241   8.507  1.6338  0.2029 -0.8869
 1685SOL    HW216515   3.903   2.120   8.503  0.3367 -0.3262  2.4317
 1686SOL     OW16516   4.314   0.597   5.339 -0.2286  0.1950 -0.4794
 1686SOL    HW116517   4.403   0.622   5.362 -0.0861  1.2116 -2.1489
 1686SOL    HW216518   4.320   0.623   5.248  1.1028  0.3854 -0.3249
 1687SOL     OW16519   1.265   3.124   8.218  0.9661  0.4797 -0.1755
 1687SOL    HW116520   1.209   3.062   8.171  1.2211 -0.2690  0.4926
 1687SOL    HW216521   1.262   3.197   8.156  2.6394 -1.3209 -2.3911
 1688SOL     OW16522   1.112   4.685   2.678  0.1966  0.4043  0.2528
 1688SOL    HW116523   1.185   4.652   2.625 -0.1199 -0.0895  0.1248
 1688SOL    HW216524   1.064   0.015   2.617 -0.4301 -0.9073 -0.4387
 1689SOL     OW16525   3.866   2.711   8.423 -0.0831 -0.4648  0.1897
 1689SOL    HW116526   3.953   2.714   8.464 -0.2606  1.3132  0.4094
 1689SOL    HW216527   3.815   2.701   8.504  0.0525  1.3987  0.4958
 1690SOL     OW16528   3.385   1.351   0.412  0.2883 -0.0629 -0.1876
 1690SOL    HW116529   3.469   1.378   0.450  1.2244 -1.6140 -1.1902
 1690SOL    HW216530   3.388   1.262   0.446  1.4879  0.0560  0.0213
 1691SOL     OW16531   3.682   4.443   1.383  0.3505  0.9437  0.3131
 1691SOL    HW116532   3.707   4.408   1.298  0.7681  1.7929  0.0783
 1691SOL    HW216533   3.654   4.531   1.355  0.0721  1.2596  1.5493
 1692SOL     OW16534   2.154   0.179   1.233  0.2987  0.6531 -0.4256
 1692SOL    HW116535   2.109   0.169   1.149 -1.3328 -1.1170  0.6563
 1692SOL    HW216536   2.230   0.231   1.208  0.5881 -0.6712 -2.2660
 1693SOL     OW16537   0.007   3.044  17.486  0.3633  0.6915  0.6689
 1693SOL    HW116538   4.691   2.973  17.535  0.3810  0.7904  0.8289
 1693SOL    HW216539   4.665   3.113  17.493 -0.7630 -0.1171 -2.3797
 1694SOL     OW16540   3.637   4.195   9.183  0.3653  0.6887 -0.2061
 1694SOL    HW116541   3.558   4.196   9.236 -1.3781 -0.8580 -2.7529
 1694SOL    HW216542   3.649   4.284   9.150  1.3539  0.2735 -0.9981
 1695SOL     OW16543   1.374   1.457   1.372  0.2918 -0.3521  0.3491
 1695SOL    HW116544   1.283   1.483   1.387  0.2522  0.9718 -2.2282
 1695SOL    HW216545   1.425   1.527   1.413 -0.4088 -0.2380  1.0390
 1696SOL     OW16546   1.637   0.872   1.454  0.3283  0.1865  0.4522
 1696SOL    HW116547   1.596   0.810   1.515  0.6873 -2.1654 -1.6982
 1696SOL    HW216548   1.576   0.944   1.469 -0.6056 -0.1742 -1.6234
 1697SOL     OW16549   0.434   1.482   8.805 -0.1455 -0.4134 -0.2167
 1697SOL    HW116550   0.444   1.508   8.897 -0.7380  1.2733 -0.6257
 1697SOL    HW216551   0.344   1.450   8.806 -0.9141  1.7132 -2.7123
 1698SOL     OW16552   2.595   0.463   3.617  0.5025 -0.5067  0.6562
 1698SOL    HW116553   2.611   0.554   3.643  1.8295 -0.4907 -0.2313
 1698SOL    HW216554   2.599   0.460   3.521 -0.9666  1.1182  0.5338
 1699SOL     OW16555   2.325   2.321   5.714 -0.3665 -0.3125 -0.3647
 1699SOL    HW116556   2.275   2.320   5.795  0.6028 -0.8958  0.2348
 1699SOL    HW216557   2.302   2.395   5.659  0.2889  0.7107  0.7252
 1700SOL     OW16558   3.587   1.574   5.035 -0.0557 -0.2729 -0.3172
 1700SOL    HW116559   3.514   1.533   4.988 -0.5149 -0.5638  0.6371
 1700SOL    HW216560   3.656   1.572   4.969 -0.2241 -2.5658 -0.4519
 1701SOL     OW16561   1.192   2.342   3.556 -0.2962  0.1366  0.7663
 1701SOL    HW116562   1.226   2.432   3.550  1.1645 -0.4466  0.3315
 1701SOL    HW216563   1.160   2.325   3.468  2.3759  1.4172 -0.4509
 1702SOL     OW16564   1.330   0.362   6.339 -0.1428  0.0727  0.0914
 1702SOL    HW116565   1.244   0.362   6.381  0.1365 -2.6875  0.6199
 1702SOL    HW216566   1.341   0.457   6.335 -4.5014  0.5563  0.3571
 1703SOL     OW16567   3.421   1.293   7.909 -0.0866 -0.1653 -0.0657
 1703SOL    HW116568   3.470   1.337   7.840 -1.7953 -1.0484 -1.8460
 1703SOL    HW216569   3.371   1.227   7.861 -1.3102  0.3974  0.4494
 1704SOL     OW16570   0.520   0.571   4.390  0.2228  0.3513 -0.1672
 1704SOL    HW116571   0.606   0.608   4.371 -0.1532  1.0492 -0.5012
 1704SOL    HW216572   0.552   0.512   4.459  0.4481  0.8585  0.1554
 1705SOL     OW16573   1.576   0.524   8.434 -0.2938 -0.3833 -0.7649
 1705SOL    HW116574   1.582   0.482   8.520 -1.8460  0.5058 -0.2243
 1705SOL    HW216575   1.566   0.455   8.369  0.5166 -0.5244 -0.7371
 1706SOL     OW16576   0.119   2.338   6.349  0.4426 -0.3228 -0.0286
 1706SOL    HW116577   0.188   2.400   6.373 -0.0770  0.0442  0.5227
 1706SOL    HW216578   0.074   2.318   6.432  1.0167  0.9043  0.5792
 1707SOL     OW16579   3.082   0.447   9.232 -0.3924  0.1150  0.0785
 1707SOL    HW116580   3.047   0.466   9.145  1.1108 -0.6189 -0.6955
 1707SOL    HW216581   3.066   0.532   9.272 -0.3133  0.5678 -0.8505
 1708SOL     OW16582   2.751   1.646   4.262  0.1470  0.1166 -0.1011
 1708SOL    HW116583   2.720   1.735   4.280 -0.8813 -0.7839  2.5532
 1708SOL    HW216584   2.844   1.648   4.239  0.3514  1.2913  0.8137
 1709SOL     OW16585   4.185   1.370   3.376  0.3157  0.2247 -0.1541
 1709SOL    HW116586   4.260   1.420   3.346 -0.9387  1.4192 -1.2839
 1709SOL    HW216587   4.123   1.438   3.404  0.7644  0.2613  0.7509
 1710SOL     OW16588   1.641   4.481   2.545  0.0736  0.0831  0.2909
 1710SOL    HW116589   1.577   4.412   2.523 -0.0745  0.3581 -0.1296
 1710SOL    HW216590   1.726   4.437   2.552 -1.0833 -1.7336  2.9517
 1711SOL     OW16591   1.167   3.023  12.354 -0.4613 -0.1572  0.2217
 1711SOL    HW116592   1.115   2.996  12.430  1.4498 -0.6028  1.3554
 1711SOL    HW216593   1.143   3.115  12.343  1.0921  0.2420  0.2247
 1712SOL     OW16594   0.604   1.515   5.565 -0.0145 -0.0026  0.7422
 1712SOL    HW116595   0.637   1.486   5.650 -0.6218  0.4556  1.1315
 1712SOL    HW216596   0.555   1.440   5.530 -3.3130  1.5721  1.9854
 1713SOL     OW16597   2.996   0.060  13.784  0.3637  0.5486 -0.4429
 1713SOL    HW116598   3.087   0.029  13.789  1.3126  3.2108 -1.0398
 1713SOL    HW216599   2.958   4.718  13.726  0.7124  3.5189 -4.1005
 1714SOL     OW16600   3.006   2.305   6.785  0.2768 -0.1492 -0.0209
 1714SOL    HW116601   2.931   2.328   6.840 -1.8601 -3.4995 -1.5535
 1714SOL    HW216602   2.962   2.264   6.710 -0.3724 -0.3658  0.4804
 1715SOL     OW16603   3.966   3.200  12.331  0.3943  0.1576  0.4292
 1715SOL    HW116604   3.922   3.150  12.400  0.5983  1.8730  1.7945
 1715SOL    HW216605   4.060   3.191  12.345  0.3405 -1.1492 -0.0842
 1716SOL     OW16606   0.459   3.617   7.880  0.1267 -0.5319 -0.8247
 1716SOL    HW116607   0.476   3.667   7.801 -1.2621 -0.2297 -0.9379
 1716SOL    HW216608   0.539   3.630   7.930 -1.9578 -0.6486  2.5244
 1717SOL     OW16609   0.593   3.921   3.033 -0.2736  0.0626 -0.3661
 1717SOL    HW116610   0.673   3.973   3.036  0.1640 -0.4361 -3.2693
 1717SOL    HW216611   0.520   3.982   3.040 -0.7092 -0.3807 -1.1173
 1718SOL     OW16612   1.899   3.348   2.932 -0.3262 -0.0472 -0.2417
 1718SOL    HW116613   1.908   3.377   2.841 -2.2572  0.7505 -0.1601
 1718SOL    HW216614   1.818   3.298   2.935  0.9840 -2.1066  1.3873
 1719SOL     OW16615   1.919   2.504   1.719 -0.2179  0.2155 -0.0872
 1719SOL    HW116616   1.905   2.430   1.661  1.6480 -0.5780  0.4898
 1719SOL    HW216617   1.924   2.468   1.808 -3.2646  1.2210  0.4855
 1720SOL     OW16618   1.517   3.332  14.609  0.6573 -0.2008 -0.3798
 1720SOL    HW116619   1.423   3.317  14.596  0.1821  0.9681  1.6811
 1720SOL    HW216620   1.526   3.287  14.693  0.4251 -0.3455 -0.4336
 1721SOL     OW16621   3.127   1.961   7.217  0.2254 -0.2613 -0.1336
 1721SOL    HW116622   3.073   2.030   7.179 -1.5845 -0.9751  1.1196
 1721SOL    HW216623   3.148   2.009   7.297  0.4743  1.0504 -0.9828
 1722SOL     OW16624   2.130   2.100   1.264 -0.1109  0.1143  0.2694
 1722SOL    HW116625   2.193   2.028   1.265 -2.1433 -1.6673  0.8577
 1722SOL    HW216626   2.052   2.057   1.300  0.4310 -0.1675  1.1327
 1723SOL     OW16627   1.179   1.265   6.227 -0.0012  1.1864  0.0899
 1723SOL    HW116628   1.163   1.274   6.133 -1.4045 -0.4429  0.1633
 1723SOL    HW216629   1.173   1.170   6.243  3.7793  0.8158 -0.7897
 1724SOL     OW16630   1.700   1.859   3.474 -0.1250 -0.2790 -0.4344
 1724SOL    HW116631   1.631   1.867   3.408 -0.7781  0.2625  0.3284
 1724SOL    HW216632   1.705   1.948   3.509 -0.1224 -0.7488  0.7699
 1725SOL     OW16633   4.363   3.071   3.048 -0.1348  0.1961  0.6500
 1725SOL    HW116634   4.367   3.165   3.064  0.7756  0.7507 -3.0912
 1725SOL    HW216635   4.412   3.036   3.123  1.4113 -2.0527 -1.4500
 1726SOL     OW16636   1.036   2.621   4.196 -0.4585 -1.1605  0.5188
 1726SOL    HW116637   1.118   2.590   4.158 -0.9330 -1.3134 -0.4014
 1726SOL    HW216638   1.043   2.717   4.197  1.8803 -1.3218 -0.8492
 1727SOL     OW16639   0.587   0.605  13.846  0.0877 -0.6274 -0.1888
 1727SOL    HW116640   0.589   0.683  13.901  0.3694  0.2377 -1.4273
 1727SOL    HW216641   0.630   0.638  13.767 -0.8331 -1.2993 -0.9660
 1728SOL     OW16642   2.412   4.303   3.626 -0.2656 -0.0008  0.2606
 1728SOL    HW116643   2.461   4.233   3.584 -1.2667 -0.4068 -0.2375
 1728SOL    HW216644   2.478   4.372   3.632 -1.2654  0.8184  1.9819
 1729SOL     OW16645   1.405   1.668  13.544 -0.0553 -0.0191 -0.0954
 1729SOL    HW116646   1.404   1.727  13.469 -0.7471 -2.9143 -2.3360
 1729SOL    HW216647   1.488   1.623  13.528 -0.9596 -2.0262  0.8407
 1730SOL     OW16648   3.166   4.396  11.273 -0.1273 -0.3217  0.2171
 1730SOL    HW116649   3.076   4.387  11.304 -0.7645  2.2629 -0.9147
 1730SOL    HW216650   3.162   4.344  11.194 -0.6242 -0.5861  0.4202
 1731SOL     OW16651   0.414   0.962  13.185 -0.1141  0.2180 -0.8088
 1731SOL    HW116652   0.448   0.936  13.099 -0.0172 -1.1451 -0.3605
 1731SOL    HW216653   0.324   0.930  13.183  0.2506 -0.6709 -2.5809
 1732SOL     OW16654   3.594   3.457  15.214  0.1318 -0.0531 -0.4342
 1732SOL    HW116655   3.647   3.388  15.255  2.1516  0.6709 -1.8418
 1732SOL    HW216656   3.645   3.529  15.251 -2.7505  2.6237 -1.6705
 1733SOL     OW16657   1.446   1.776   6.172  0.0281 -0.0401  0.3650
 1733SOL    HW116658   1.435   1.720   6.095 -0.7598 -0.3520  0.7096
 1733SOL    HW216659   1.450   1.863   6.132  1.8933 -0.7932 -1.1283
 1734SOL     OW16660   4.393   2.759   6.736 -0.2210 -0.4606 -0.1121
 1734SOL    HW116661   4.347   2.675   6.731 -1.1453 -0.0414  1.1976
 1734SOL    HW216662   4.318   2.820   6.731 -0.4031 -0.6394  0.4601
 1735SOL     OW16663   4.482   0.059   4.329  0.0609  0.0741  0.5023
 1735SOL    HW116664   4.499   4.721   4.259 -1.2241 -0.3653  0.5895
 1735SOL    HW216665   4.428   0.000   4.382 -1.4109  0.5672 -0.4596
 1736SOL     OW16666   0.015   3.757   8.460 -0.5429  0.0236  0.3758
 1736SOL    HW116667   4.716   3.817   8.389 -0.0174  0.9353  0.9668
 1736SOL    HW216668   0.057   3.692   8.403  1.2765 -0.9029  2.7487
 1737SOL     OW16669   2.176   1.519   2.057 -0.3543  0.1849  0.0790
 1737SOL    HW116670   2.165   1.601   2.008  1.4471 -0.8289 -2.0499
 1737SOL    HW216671   2.095   1.513   2.107  0.0683 -2.3649  0.4380
 1738SOL     OW16672   4.267   1.571  16.859 -0.1905  0.4259  0.4741
 1738SOL    HW116673   4.246   1.502  16.923 -0.9819 -0.1809 -0.4227
 1738SOL    HW216674   4.182   1.591  16.820 -0.0396 -0.7574 -0.4487
 1739SOL     OW16675   1.920   0.341   4.642 -0.2529 -0.0077 -0.4255
 1739SOL    HW116676   1.971   0.291   4.578 -0.0881 -0.6497  0.2003
 1739SOL    HW216677   1.983   0.409   4.666 -1.3580  0.5549  0.8870
 1740SOL     OW16678   0.760   4.288   5.536  0.2464 -0.7983 -0.3043
 1740SOL    HW116679   0.777   4.278   5.629 -3.3660  1.4976  0.6064
 1740SOL    HW216680   0.750   4.383   5.533 -0.5729 -0.8173  2.1749
 1741SOL     OW16681   2.840   1.325   1.273  0.6414  0.0075 -0.1349
 1741SOL    HW116682   2.862   1.392   1.338  1.1755  1.8055 -2.1544
 1741SOL    HW216683   2.807   1.383   1.204  0.9088  1.4670  0.9432
 1742SOL     OW16684   2.533   3.206  12.307 -0.1000  0.1027 -0.3366
 1742SOL    HW116685   2.462   3.176  12.251 -1.0240  1.6851 -0.0221
 1742SOL    HW216686   2.485   3.184  12.387  1.7044 -1.3206  0.3537
 1743SOL     OW16687   2.439   3.790   0.534  0.0064  0.4705  0.0872
 1743SOL    HW116688   2.440   3.886   0.530 -0.4576  0.4604 -0.3226
 1743SOL    HW216689   2.381   3.781   0.458  1.7428 -1.4931 -1.0199
 1744SOL     OW16690   3.889   1.382   6.408 -0.4264 -0.1181 -0.0036
 1744SOL    HW116691   3.854   1.327   6.338 -1.3039  0.7381 -0.2431
 1744SOL    HW216692   3.824   1.360   6.474  1.0984 -3.5451  0.3285
 1745SOL     OW16693   2.906   0.443   8.390 -0.5350  0.1199 -0.7173
 1745SOL    HW116694   2.859   0.456   8.308  2.7330 -1.1462 -2.8377
 1745SOL    HW216695   2.936   0.354   8.369  0.1442  0.3805 -0.8512
 1746SOL     OW16696   1.424   0.037  11.707  0.0044  0.1575 -0.0613
 1746SOL    HW116697   1.410   0.130  11.690  1.5031 -0.0613 -2.5614
 1746SOL    HW216698   1.511   0.020  11.670  0.6521  2.3297  0.4370
 1747SOL     OW16699   0.064   2.158   8.902  0.4932 -0.1683 -0.1901
 1747SOL    HW116700   0.148   2.112   8.910 -0.2392 -1.4683 -0.0191
 1747SOL    HW216701   0.001   2.112   8.957 -0.8353 -0.2825 -1.8204
 1748SOL     OW16702   2.252   1.438   6.881  0.3116  0.0900  0.3159
 1748SOL    HW116703   2.244   1.532   6.863  0.1613 -0.0598 -0.4023
 1748SOL    HW216704   2.342   1.422   6.855  1.1951  0.7386  2.8932
 1749SOL     OW16705   0.910   1.170   4.171 -0.4562 -0.1503 -0.0468
 1749SOL    HW116706   0.957   1.237   4.122 -1.3932  0.8093  0.3793
 1749SOL    HW216707   0.822   1.206   4.179 -0.2019  0.8578 -2.0594
 1750SOL     OW16708   1.398   2.049   6.887  0.0757  0.2810  0.0958
 1750SOL    HW116709   1.339   2.006   6.949 -0.2447  0.5706 -0.0074
 1750SOL    HW216710   1.483   2.011   6.908 -0.5951 -1.1226  0.3536
 1751SOL     OW16711   1.120   1.489   7.716 -0.9621  0.0030 -0.3806
 1751SOL    HW116712   1.146   1.541   7.640 -1.8691  0.7369 -0.1887
 1751SOL    HW216713   1.161   1.539   7.787 -0.9054 -0.4781 -0.0771
 1752SOL     OW16714   2.964   1.462   9.712 -0.8943 -0.2920 -0.1322
 1752SOL    HW116715   2.985   1.502   9.796 -0.3827 -0.6355 -0.0953
 1752SOL    HW216716   3.010   1.379   9.728 -0.3915  0.0600  0.2349
 1753SOL     OW16717   4.097   2.639   0.388  0.3614 -0.6591 -0.5277
 1753SOL    HW116718   4.171   2.634   0.449 -0.4210 -0.9071  0.3940
 1753SOL    HW216719   4.027   2.635   0.454  0.6814 -0.4552 -0.1730
 1754SOL     OW16720   4.111   0.357   3.253  0.1320 -0.7757 -0.4979
 1754SOL    HW116721   4.166   0.379   3.178  2.4167  1.1041  1.7178
 1754SOL    HW216722   4.158   0.385   3.332 -0.3395 -0.3655 -0.3602
 1755SOL     OW16723   4.333   1.024   8.267 -0.0986 -0.1584  0.2309
 1755SOL    HW116724   4.397   1.001   8.199 -0.1388  0.6429 -0.0736
 1755SOL    HW216725   4.248   1.020   8.224 -0.1093  1.4247  0.1126
 1756SOL     OW16726   4.224   0.676   2.860 -0.1466  0.3221 -0.1988
 1756SOL    HW116727   4.217   0.731   2.937  2.6115  1.9035 -1.0972
 1756SOL    HW216728   4.147   0.706   2.812 -0.7486 -2.4809 -1.0077
 1757SOL     OW16729   0.815   2.374   2.804 -0.1194  0.0795 -0.2861
 1757SOL    HW116730   0.756   2.324   2.748 -0.2554 -1.1662  0.9613
 1757SOL    HW216731   0.770   2.365   2.888  1.5638 -0.4233  0.5700
 1758SOL     OW16732   4.408   0.262  16.193 -0.7786 -0.2594 -0.7712
 1758SOL    HW116733   4.437   0.192  16.135 -0.4538 -1.4052  0.7864
 1758SOL    HW216734   4.336   0.306  16.147 -0.9743  2.0557  1.7044
 1759SOL     OW16735   4.214   2.506   3.614  0.2706 -0.3194 -0.2618
 1759SOL    HW116736   4.301   2.478   3.586  0.1229 -1.4644  0.4257
 1759SOL    HW216737   4.168   2.512   3.531 -1.6006 -0.7349  0.7455
 1760SOL     OW16738   0.895   1.979   4.527 -0.3271 -0.8096  0.0448
 1760SOL    HW116739   0.929   2.068   4.524 -2.6051  0.0109 -0.6599
 1760SOL    HW216740   0.837   1.982   4.603 -0.1266 -0.3029  0.1788
 1761SOL     OW16741   1.704   4.029   8.922  0.2141  0.0934  0.0175
 1761SOL    HW116742   1.648   3.959   8.956  1.3787 -1.2976 -0.9380
 1761SOL    HW216743   1.780   3.978   8.894 -0.4758  0.1243 -1.8934
 1762SOL     OW16744   0.820   2.170  14.632 -0.0922  0.2341 -0.1101
 1762SOL    HW116745   0.836   2.084  14.671 -2.7098  1.1379  3.0050
 1762SOL    HW216746   0.781   2.152  14.547 -2.6158 -3.6077  1.8724
 1763SOL     OW16747   1.880   3.997   4.198 -0.2289 -0.2332  0.7109
 1763SOL    HW116748   1.946   4.055   4.236 -0.0236  0.6417 -0.9809
 1763SOL    HW216749   1.885   3.915   4.247  1.1736 -1.2617 -1.1291
 1764SOL     OW16750   1.270   3.673  11.406  1.2033 -0.5305  0.3641
 1764SOL    HW116751   1.321   3.710  11.334  0.3674  0.3138  0.2045
 1764SOL    HW216752   1.197   3.638  11.356  0.4806 -2.2898  2.6435
 1765SOL     OW16753   1.857   0.579   2.474 -0.4970  0.9433 -0.6248
 1765SOL    HW116754   1.894   0.522   2.542 -0.3131  0.6197 -0.9939
 1765SOL    HW216755   1.912   0.559   2.399  1.3218  0.3821  0.8468
 1766SOL     OW16756   2.366   2.297   4.317  0.2962 -0.2465 -0.5788
 1766SOL    HW116757   2.433   2.248   4.271  1.3283  0.4878  0.1398
 1766SOL    HW216758   2.364   2.372   4.258 -0.3398 -1.0839 -1.6056
 1767SOL     OW16759   3.067   1.682   8.047 -0.3569  0.3298  0.0467
 1767SOL    HW116760   3.135   1.619   8.068  0.8616  1.8101  0.5330
 1767SOL    HW216761   3.107   1.714   7.966 -0.0876  0.6165  0.2933
 1768SOL     OW16762   3.472   0.034   4.905  0.5498  0.0593  0.7453
 1768SOL    HW116763   3.402   0.074   4.854  0.4608 -0.9458  0.0715
 1768SOL    HW216764   3.505   0.103   4.963  1.8855 -0.4168  0.5628
 1769SOL     OW16765   2.211   2.985   1.386 -0.2219 -0.2130  0.1337
 1769SOL    HW116766   2.291   2.932   1.385 -0.7585 -1.0081 -0.8619
 1769SOL    HW216767   2.241   3.054   1.328 -2.5845  0.2280 -0.5480
 1770SOL     OW16768   0.397   4.136   8.310 -0.0193  0.1817  0.5411
 1770SOL    HW116769   0.366   4.219   8.346  0.0586  0.4316  0.0305
 1770SOL    HW216770   0.457   4.113   8.381  0.9531 -1.2297 -0.7377
 1771SOL     OW16771   0.395   1.153   8.312  0.7652  0.1273 -0.1159
 1771SOL    HW116772   0.381   1.160   8.407  0.8673 -2.4016  0.0832
 1771SOL    HW216773   0.376   1.060   8.300 -1.7320  0.8490 -1.7027
 1772SOL     OW16774   1.088   2.393   3.072 -0.8791  0.0263 -0.0516
 1772SOL    HW116775   1.002   2.406   3.112 -0.1137  1.3099  1.1748
 1772SOL    HW216776   1.099   2.299   3.076  2.8466  0.5291  0.9149
 1773SOL     OW16777   3.257   0.923  11.109 -0.2970  0.5721  0.1055
 1773SOL    HW116778   3.316   0.991  11.142  2.7329 -1.2708 -1.5276
 1773SOL    HW216779   3.173   0.967  11.097 -0.5480 -0.2618 -1.1668
 1774SOL     OW16780   2.961   0.560  14.970 -0.2962  0.1927  0.0831
 1774SOL    HW116781   2.884   0.532  15.020 -0.0220 -0.7064  0.0131
 1774SOL    HW216782   2.924   0.561  14.882  1.7159  1.6898 -0.7336
 1775SOL     OW16783   2.637   0.627   3.387  0.3294 -0.5043 -0.0670
 1775SOL    HW116784   2.694   0.686   3.434  1.6045  0.1372 -2.4447
 1775SOL    HW216785   2.550   0.666   3.393  0.5896 -0.1803  1.5004
 1776SOL     OW16786   0.014   4.131  11.323 -0.1155  0.0100  0.6199
 1776SOL    HW116787   0.046   4.065  11.261 -0.9870 -0.2048  0.3951
 1776SOL    HW216788   4.647   4.106  11.311  0.7709 -1.8256 -2.4245
 1777SOL     OW16789   1.492   1.463   7.563 -0.3166 -0.2170 -0.1817
 1777SOL    HW116790   1.581   1.496   7.557  0.0780 -1.9023 -3.1606
 1777SOL    HW216791   1.453   1.538   7.608  0.2874  1.1917 -2.0118
 1778SOL     OW16792   2.497   1.648   7.592  0.5883  0.0352  0.2294
 1778SOL    HW116793   2.529   1.736   7.611  0.7978  0.0399 -0.1360
 1778SOL    HW216794   2.415   1.672   7.549  0.3466 -3.0147 -1.0227
 1779SOL     OW16795   0.389   3.849   3.839 -0.2287  0.4687  0.1516
 1779SOL    HW116796   0.429   3.881   3.759 -0.3936 -1.4033 -0.6809
 1779SOL    HW216797   0.428   3.764   3.858 -1.5399 -0.3668 -0.9252
 1780SOL     OW16798   0.575   1.852   5.562  0.1563 -0.6469 -0.0327
 1780SOL    HW116799   0.536   1.882   5.644  0.9956 -0.6214  0.3666
 1780SOL    HW216800   0.661   1.823   5.594  0.4220  0.4293  0.2222
 1781SOL     OW16801   3.368   3.164   9.419  0.1781  0.4178 -0.1682
 1781SOL    HW116802   3.381   3.149   9.325  1.0073 -2.9031  0.4581
 1781SOL    HW216803   3.291   3.114   9.446  0.7265  1.0615  2.5845
 1782SOL     OW16804   3.636   0.107   1.582 -0.2733  0.2332  0.1958
 1782SOL    HW116805   3.690   0.182   1.559 -1.7923  1.2805  0.0397
 1782SOL    HW216806   3.612   0.070   1.497 -0.6364  0.8618  0.0236
 1783SOL     OW16807   0.525   2.661   5.643  0.3541  0.2332 -0.2911
 1783SOL    HW116808   0.502   2.742   5.598 -3.0981 -0.3105  0.4897
 1783SOL    HW216809   0.565   2.608   5.574  2.4041  3.1807 -1.3679
 1784SOL     OW16810   0.684   3.731   5.035  0.6435 -0.0666 -0.6491
 1784SOL    HW116811   0.738   3.798   5.075  1.3582 -0.2841 -1.2503
 1784SOL    HW216812   0.616   3.731   5.103  0.1760 -2.2046 -1.0972
 1785SOL     OW16813   3.947   4.251   6.581 -0.1008 -0.1713 -0.0113
 1785SOL    HW116814   4.019   4.311   6.564  1.2217 -1.0896  2.4182
 1785SOL    HW216815   3.927   4.280   6.670 -1.5795 -0.3563 -0.2686
 1786SOL     OW16816   0.533   4.244   2.513 -0.1859 -0.2206 -0.6915
 1786SOL    HW116817   0.547   4.290   2.430 -1.6610  1.6986  0.1257
 1786SOL    HW216818   0.594   4.171   2.504  1.2221  1.0216 -1.2419
 1787SOL     OW16819   3.333   2.302  17.160  0.4434 -0.1295 -0.4721
 1787SOL    HW116820   3.316   2.262  17.074  0.6369 -0.9680 -0.1180
 1787SOL    HW216821   3.422   2.337  17.146  1.1080 -1.5062  0.3584
 1788SOL     OW16822   3.354   4.235   8.079  0.1166  0.1051 -0.7285
 1788SOL    HW116823   3.352   4.312   8.135 -0.9027  0.8631 -1.8018
 1788SOL    HW216824   3.364   4.152   8.126  0.0172  1.7285  2.1036
 1789SOL     OW16825   0.389   2.690   6.637 -0.4147 -0.0860 -0.5051
 1789SOL    HW116826   0.403   2.785   6.628 -2.8346  0.3890  0.6192
 1789SOL    HW216827   0.464   2.656   6.589  1.3316  1.6485  0.9777
 1790SOL     OW16828   1.577   2.039   7.365  0.3448 -0.4717 -0.1013
 1790SOL    HW116829   1.617   2.103   7.425 -0.3393 -2.0941  2.0588
 1790SOL    HW216830   1.605   1.953   7.396  0.1125 -0.8239 -0.8613
 1791SOL     OW16831   2.492   4.471  11.532 -0.5827  0.6219  0.5787
 1791SOL    HW116832   2.435   4.426  11.595 -1.5571  2.0898  0.7429
 1791SOL    HW216833   2.574   4.431  11.561 -0.7597  0.0055  0.2244
 1792SOL     OW16834   0.139   0.724  14.445 -0.2305  0.2198 -0.1419
 1792SOL    HW116835   0.158   0.645  14.394 -0.4958  0.6073 -0.8319
 1792SOL    HW216836   0.225   0.731  14.486 -0.7868 -0.6434  1.1898
 1793SOL     OW16837   4.392   0.193   2.588 -0.1201  0.1218 -0.4195
 1793SOL    HW116838   4.476   0.153   2.612 -1.3117 -1.1068  1.7895
 1793SOL    HW216839   4.389   0.185   2.493  1.5016 -0.3108 -0.4447
 1794SOL     OW16840   1.687   2.805   7.338  0.3388  0.0773 -0.2342
 1794SOL    HW116841   1.600   2.828   7.307  0.6592 -1.8079 -2.5161
 1794SOL    HW216842   1.670   2.785   7.430 -0.6864 -0.3779 -0.5220
 1795SOL     OW16843   0.707   3.303   6.672  0.3552  0.2477 -0.5555
 1795SOL    HW116844   0.755   3.351   6.604  0.1307  1.6510  0.2820
 1795SOL    HW216845   0.663   3.234   6.622  1.1404 -0.7008  0.0607
 1796SOL     OW16846   0.010   2.088   1.658  0.2915  0.4883  0.0755
 1796SOL    HW116847   0.037   2.170   1.617  1.5385  0.5628  1.0498
 1796SOL    HW216848   0.095   2.044   1.661  1.4669  2.5400 -3.7776
 1797SOL     OW16849   2.515   2.857   6.090  0.0347 -0.6152  0.1689
 1797SOL    HW116850   2.572   2.877   6.163  1.1501  1.1855 -1.1981
 1797SOL    HW216851   2.428   2.871   6.127  0.9537 -0.5713  2.2826
 1798SOL     OW16852   2.410   2.548  16.637 -0.1006 -0.6436 -0.5670
 1798SOL    HW116853   2.471   2.593  16.578  0.2550 -1.2725 -0.6856
 1798SOL    HW216854   2.407   2.606  16.712  0.5940 -2.5079  0.8986
 1799SOL     OW16855   2.013   2.744   6.800  0.7178  0.1311  0.2398
 1799SOL    HW116856   2.031   2.651   6.808  2.3720  0.5518  1.4816
 1799SOL    HW216857   1.947   2.749   6.869  0.5393 -0.5089  0.1116
 1800SOL     OW16858   0.146   0.823   3.679  0.2472  0.1221 -0.0843
 1800SOL    HW116859   0.214   0.852   3.618  1.5710 -3.0949 -0.1093
 1800SOL    HW216860   0.207   0.765   3.725  0.9401 -1.1661 -2.6436
 1801SOL     OW16861   0.481   4.666   8.327  0.0750  0.0218 -0.5843
 1801SOL    HW116862   0.527   4.584   8.342  0.2302  0.1911 -0.1505
 1801SOL    HW216863   0.543   0.010   8.349  2.4552 -2.3220  0.0840
 1802SOL     OW16864   4.270   3.711   2.494  0.2744  0.1813  0.8003
 1802SOL    HW116865   4.217   3.791   2.494  0.0147 -0.0001 -0.6103
 1802SOL    HW216866   4.259   3.674   2.407 -0.2870  1.6965  0.2164
 1803SOL     OW16867   3.343   1.610   1.851 -0.4680 -0.0643  0.8415
 1803SOL    HW116868   3.428   1.611   1.893 -0.2456  1.5597  0.3740
 1803SOL    HW216869   3.304   1.527   1.878  1.1102 -1.5976 -1.6173
 1804SOL     OW16870   2.569   0.795  11.438 -0.1882 -0.0429 -0.4523
 1804SOL    HW116871   2.529   0.713  11.465  0.2277  0.0467  0.4486
 1804SOL    HW216872   2.660   0.770  11.423  0.2125  1.2361 -0.1839
 1805SOL     OW16873   3.096   3.419   5.093 -0.2901 -0.0317  0.1312
 1805SOL    HW116874   3.164   3.352   5.089 -0.7096 -0.5040  0.9457
 1805SOL    HW216875   3.050   3.391   5.172 -0.8397 -0.8851 -0.4792
 1806SOL     OW16876   2.127   0.613   2.615  0.0651  0.2189  0.4981
 1806SOL    HW116877   2.060   0.556   2.651 -1.0617  1.2388  0.0059
 1806SOL    HW216878   2.162   0.657   2.692 -0.7687 -0.2808  1.1561
 1807SOL     OW16879   2.568   2.330   2.539  0.2040 -0.2690  0.1821
 1807SOL    HW116880   2.574   2.235   2.552  1.9700 -0.0120  1.2379
 1807SOL    HW216881   2.473   2.346   2.537  0.2077 -0.3709 -0.8504
 1808SOL     OW16882   1.350   1.225   8.795  0.3974  0.6520 -0.4568
 1808SOL    HW116883   1.368   1.135   8.768 -1.7155  0.0118  0.2758
 1808SOL    HW216884   1.344   1.207   8.889  0.4826 -0.6071 -0.6877
 1809SOL     OW16885   2.675   0.727   3.706  0.4616 -0.5036  0.2341
 1809SOL    HW116886   2.758   0.746   3.663  0.6310 -1.8206 -0.0195
 1809SOL    HW216887   2.630   0.811   3.696 -2.1723 -1.6940  1.9573
 1810SOL     OW16888   2.771   1.862  13.891  0.2816 -0.1372 -0.0291
 1810SOL    HW116889   2.706   1.919  13.849  0.3548 -1.3991 -1.8566
 1810SOL    HW216890   2.714   1.824  13.957 -0.8377 -0.7272 -1.3388
 1811SOL     OW16891   1.442   0.460  11.431  0.0355  0.0140 -0.7938
 1811SOL    HW116892   1.447   0.407  11.511 -0.1938  0.2228 -0.6396
 1811SOL    HW216893   1.399   0.542  11.455  0.3006  0.3833 -1.5752
 1812SOL     OW16894   4.432   0.738   9.167 -0.1951 -0.0640  0.4728
 1812SOL    HW116895   4.484   0.660   9.148 -0.4767 -0.6577  2.0728
 1812SOL    HW216896   4.362   0.730   9.103 -1.6511  0.5988  1.9774
 1813SOL     OW16897   0.682   3.335   4.241 -0.5545  0.1659 -1.2371
 1813SOL    HW116898   0.706   3.249   4.208  0.2842  0.0880 -0.4543
 1813SOL    HW216899   0.589   3.315   4.254 -0.3539 -0.5646 -0.9092
 1814SOL     OW16900   1.363   1.628   7.202  0.0407  0.2548 -0.1850
 1814SOL    HW116901   1.334   1.694   7.139  0.4946 -0.4520 -1.1395
 1814SOL    HW216902   1.324   1.647   7.287 -1.3679 -2.0029 -0.3281
 1815SOL     OW16903   2.760   2.556   8.055 -0.0863  0.4921  0.1328
 1815SOL    HW116904   2.851   2.568   8.082  0.2033  2.1805 -1.6499
 1815SOL    HW216905   2.737   2.639   8.013  0.1252  0.7076  0.4384
 1816SOL     OW16906   2.835   1.996   6.787  0.3073  0.1794  0.4552
 1816SOL    HW116907   2.923   1.978   6.753 -0.4920 -1.5609 -0.6473
 1816SOL    HW216908   2.810   2.056   6.717  1.0255 -1.5570 -1.2766
 1817SOL     OW16909   0.304   0.063   5.999 -0.1113 -0.0523  0.2161
 1817SOL    HW116910   0.242   0.043   5.928  0.4099 -1.6466  0.1971
 1817SOL    HW216911   0.288   0.156   6.017  0.5106  0.0138  0.4011
 1818SOL     OW16912   0.290   1.907  11.576 -0.1334  0.6585 -0.9040
 1818SOL    HW116913   0.211   1.863  11.545 -0.7746  0.6033  0.7608
 1818SOL    HW216914   0.360   1.860  11.532  0.7279  1.5261 -0.4687
 1819SOL     OW16915   3.052   3.964   6.220 -0.0525  0.3562  0.2760
 1819SOL    HW116916   3.067   3.880   6.176  0.2679 -0.1057  1.2687
 1819SOL    HW216917   3.101   3.953   6.301 -3.5249 -1.0014  2.2050
 1820SOL     OW16918   3.639   1.666  17.310 -0.2899 -0.0982  0.0469
 1820SOL    HW116919   3.707   1.611  17.271  0.8550 -1.0066  3.2767
 1820SOL    HW216920   3.609   1.715  17.234  0.6051 -0.4620 -0.5490
 1821SOL     OW16921   0.421   0.193   3.614  0.3635 -0.3856  0.1211
 1821SOL    HW116922   0.515   0.212   3.614  0.0502  1.1940  0.7444
 1821SOL    HW216923   0.400   0.216   3.523  2.3716 -0.5977 -0.4008
 1822SOL     OW16924   2.202   1.578   0.843  0.1687 -0.2386  0.1343
 1822SOL    HW116925   2.147   1.505   0.871 -0.3102 -0.1503 -0.5904
 1822SOL    HW216926   2.255   1.576   0.922  0.6655  2.0672 -0.1551
 1823SOL     OW16927   3.838   0.712   8.066  0.4166  0.0587 -0.0743
 1823SOL    HW116928   3.766   0.773   8.081  0.3372 -0.0019 -0.2078
 1823SOL    HW216929   3.911   0.750   8.115 -0.1442 -1.7367  2.1661
 1824SOL     OW16930   4.380   4.723  15.155 -0.2427 -0.7941  0.0940
 1824SOL    HW116931   4.456   0.018  15.100  0.3621  1.6611  1.8016
 1824SOL    HW216932   4.389   0.072  15.216 -0.6390 -2.3839  2.0576
 1825SOL     OW16933   0.593   3.445  12.473  0.1115  0.6340  0.4995
 1825SOL    HW116934   0.579   3.379  12.541 -2.9008  0.7458 -0.0543
 1825SOL    HW216935   0.503   3.472  12.460 -0.8580 -3.3808 -1.1080
 1826SOL     OW16936   4.504   0.599  15.145  0.2875  0.5815 -0.4506
 1826SOL    HW116937   4.484   0.580  15.237 -0.0738  2.6717 -0.0936
 1826SOL    HW216938   4.539   0.688  15.148 -0.0231  0.6298  2.1217
 1827SOL     OW16939   4.205   1.451   7.785 -0.0809  0.0748  0.2263
 1827SOL    HW116940   4.237   1.470   7.874  2.6184  1.0185 -0.9667
 1827SOL    HW216941   4.216   1.534   7.739  1.2792  0.0029  0.4371
 1828SOL     OW16942   3.635   3.485   2.569 -0.0499  0.3691 -0.7582
 1828SOL    HW116943   3.713   3.436   2.596 -0.3798 -1.0124 -2.2780
 1828SOL    HW216944   3.566   3.420   2.565  0.7794 -0.5419 -0.1389
 1829SOL     OW16945   3.347   1.900   8.898  0.8123 -0.0313 -0.3695
 1829SOL    HW116946   3.327   1.975   8.955 -3.4591  0.5855 -2.6590
 1829SOL    HW216947   3.259   1.868   8.879  1.3298 -1.4238 -0.3970
 1830SOL     OW16948   3.609   3.962   1.197  0.2559 -0.1818 -0.4475
 1830SOL    HW116949   3.643   3.939   1.283  0.3230  1.6358  0.0018
 1830SOL    HW216950   3.595   3.874   1.162  3.1189 -0.1516 -1.6695
 1831SOL     OW16951   3.780   4.588   3.059  0.0561  0.3296 -0.7630
 1831SOL    HW116952   3.692   4.601   3.095  0.1015 -0.1374 -0.4841
 1831SOL    HW216953   3.766   4.636   2.978  1.3902  0.5349 -0.8701
 1832SOL     OW16954   4.620   3.811   2.398  0.3486  0.0733 -0.2798
 1832SOL    HW116955   4.596   3.747   2.465  1.8291  0.3897  0.5357
 1832SOL    HW216956   4.711   3.829   2.419 -0.1858  2.9287 -0.4430
 1833SOL     OW16957   2.444   1.983   4.718  0.4023 -0.1880 -0.5855
 1833SOL    HW116958   2.386   1.998   4.644  0.5854  0.3936 -0.6145
 1833SOL    HW216959   2.496   2.063   4.730  0.1578 -0.3739  1.7205
 1834SOL     OW16960   1.860   3.184  14.410 -0.4833 -0.7015 -0.4265
 1834SOL    HW116961   1.771   3.215  14.392  0.3134  1.5399 -0.4936
 1834SOL    HW216962   1.849   3.089  14.406  1.8759 -1.0202  0.6693
 1835SOL     OW16963   4.341   4.551   1.420 -0.4387  0.7323 -0.6888
 1835SOL    HW116964   4.249   4.566   1.398 -0.4024 -0.4575 -1.6886
 1835SOL    HW216965   4.351   4.456   1.426 -3.5852  0.3884 -0.4456
 1836SOL     OW16966   0.481   0.604   5.546  0.2488  0.2114  0.3426
 1836SOL    HW116967   0.510   0.688   5.511  0.5988  0.6725  1.7697
 1836SOL    HW216968   0.442   0.548   5.478 -0.2175  2.4977 -1.2736
 1837SOL     OW16969   0.645   4.526  16.573  0.0075  0.1022 -0.5272
 1837SOL    HW116970   0.631   4.446  16.624  1.0135 -0.2587 -0.8121
 1837SOL    HW216971   0.741   4.533  16.577 -0.0864  1.3043 -0.2992
 1838SOL     OW16972   2.357   4.474   7.208 -0.2845  0.3546 -0.5636
 1838SOL    HW116973   2.408   4.551   7.185 -0.4993  0.1774 -1.5922
 1838SOL    HW216974   2.420   4.440   7.272  0.3075 -0.0363 -1.3584
 1839SOL     OW16975   1.575   3.662  10.437  0.2658  0.1159  0.3672
 1839SOL    HW116976   1.603   3.589  10.381 -1.7346  0.0304 -0.5154
 1839SOL    HW216977   1.504   3.707  10.390 -2.0673 -1.6964  2.1569
 1840SOL     OW16978   4.546   1.958   7.823 -0.3077  0.0437  0.0922
 1840SOL    HW116979   4.488   1.882   7.825 -0.7081  0.3766  1.1571
 1840SOL    HW216980   4.630   1.913   7.819  0.8374  2.1268  0.6624
 1841SOL     OW16981   2.437   0.055   8.428 -0.0387 -0.8390  0.0902
 1841SOL    HW116982   2.343   0.072   8.421 -0.0712 -0.1952  2.1588
 1841SOL    HW216983   2.439   4.696   8.473  1.2564 -1.8665 -1.8415
 1842SOL     OW16984   3.031   3.355   1.794  0.3346  0.2596 -0.1565
 1842SOL    HW116985   3.095   3.291   1.762  1.1210  0.9295  0.0747
 1842SOL    HW216986   3.012   3.331   1.885  1.4323 -2.5759 -0.6771
 1843SOL     OW16987   1.735   3.518   7.645  0.3935  0.3004 -0.3174
 1843SOL    HW116988   1.667   3.503   7.711 -1.6287 -1.7156 -2.8466
 1843SOL    HW216989   1.757   3.610   7.661  0.4129  0.4622 -1.2604
 1844SOL     OW16990   0.515   1.112   1.194 -0.6132  0.2508 -0.1791
 1844SOL    HW116991   0.517   1.079   1.284 -2.3044 -0.4670 -0.4217
 1844SOL    HW216992   0.535   1.206   1.204 -0.0681  0.1090  0.0474
 1845SOL     OW16993   3.088   3.696  14.302 -0.0940 -0.1907 -0.0666
 1845SOL    HW116994   3.067   3.739  14.385  0.5313  0.3578 -0.1922
 1845SOL    HW216995   3.011   3.688  14.245 -0.3047 -0.9819  0.3303
 1846SOL     OW16996   3.741   2.177  16.472 -0.5398  0.2176  0.5000
 1846SOL    HW116997   3.732   2.269  16.445 -0.0955 -1.3009 -4.8273
 1846SOL    HW216998   3.812   2.147  16.415  0.1574 -0.7341  1.8585
 1847SOL     OW16999   4.077   4.064   5.164 -0.9286  0.0962 -0.7091
 1847SOL    HW117000   4.141   4.112   5.216 -0.8373  0.7812 -1.4547
 1847SOL    HW217001   4.114   3.976   5.178  0.9119  0.8752 -0.6958
 1848SOL     OW17002   3.867   3.002  15.966 -0.2650  0.1444  0.1076
 1848SOL    HW117003   3.902   2.966  16.047 -2.8951 -0.3492  1.0148
 1848SOL    HW217004   3.945   2.983  15.914 -1.5599 -3.1041 -0.6381
 1849SOL     OW17005   0.567   2.057   3.093 -0.4846 -0.6024 -0.3812
 1849SOL    HW117006   0.477   2.077   3.119 -0.7056  1.8562 -3.0182
 1849SOL    HW217007   0.551   2.052   2.998 -0.2951 -0.7971 -0.4024
 1850SOL     OW17008   0.908   3.608   0.647  0.7827 -0.0880  0.1889
 1850SOL    HW117009   0.868   3.526   0.675 -0.4811  1.4642  2.8551
 1850SOL    HW217010   0.984   3.586   0.592  0.7138  0.7104 -0.2309
 1851SOL     OW17011   2.761   0.152  16.332  0.8315 -0.2858 -0.0837
 1851SOL    HW117012   2.844   0.147  16.379  1.1475  0.6273 -0.5258
 1851SOL    HW217013   2.759   0.242  16.299 -1.8660 -0.7935 -1.2964
 1852SOL     OW17014   4.443   3.144   7.716  0.3461 -0.5782  0.1264
 1852SOL    HW117015   4.438   3.108   7.804 -0.1076 -1.4774 -0.2687
 1852SOL    HW217016   4.535   3.126   7.695  0.7602  1.8048 -0.0249
 1853SOL     OW17017   2.133   4.096   4.573 -0.2383  0.0947  0.7312
 1853SOL    HW117018   2.080   4.095   4.494 -0.5165  1.0223  0.9135
 1853SOL    HW217019   2.091   4.159   4.631  2.5585  1.6175  1.1218
 1854SOL     OW17020   4.396   1.462   3.739 -0.1114 -0.1328 -0.2907
 1854SOL    HW117021   4.400   1.459   3.835 -0.6812 -1.7135 -0.3127
 1854SOL    HW217022   4.482   1.426   3.717  0.4356 -0.0584  1.6653
 1855SOL     OW17023   4.223   3.366  10.720 -0.4652 -0.4111  0.4114
 1855SOL    HW117024   4.127   3.365  10.722 -0.4485 -3.1192  0.0941
 1855SOL    HW217025   4.243   3.288  10.771 -0.8033  0.1551  1.4345
 1856SOL     OW17026   2.326   2.553   2.949 -0.1400 -0.4545  0.0189
 1856SOL    HW117027   2.319   2.638   2.905 -1.7883 -1.3950 -1.5340
 1856SOL    HW217028   2.249   2.555   3.006 -0.5039  0.1009 -0.4865
 1857SOL     OW17029   1.406   0.423   4.504 -0.5962 -0.0687 -0.5104
 1857SOL    HW117030   1.399   0.517   4.484  2.0239  0.6065  1.8699
 1857SOL    HW217031   1.498   0.415   4.528 -0.5354  1.2623 -0.2847
 1858SOL     OW17032   4.080   0.966   7.683  0.0024 -0.0784  0.5674
 1858SOL    HW117033   4.095   0.998   7.594 -0.3460  0.2129  0.6143
 1858SOL    HW217034   4.084   1.049   7.732  2.5701 -0.1701  0.5472
 1859SOL     OW17035   4.240   0.439   0.671 -0.0011  0.6228  0.2441
 1859SOL    HW117036   4.263   0.416   0.581 -1.0143 -2.3721  0.7493
 1859SOL    HW217037   4.147   0.460   0.664 -0.0105 -0.8968 -4.5178
 1860SOL     OW17038   3.138   2.080   7.928  0.0408  0.3667  0.3650
 1860SOL    HW117039   3.062   2.075   7.987  0.9771  0.1557  1.5605
 1860SOL    HW217040   3.193   2.126   7.992  1.8420  0.4683 -1.2710
 1861SOL     OW17041   0.225   2.180   5.869  0.2275  0.3438 -0.7494
 1861SOL    HW117042   0.254   2.261   5.828 -0.2923  0.2902 -1.2188
 1861SOL    HW217043   0.292   2.177   5.937  1.3590  2.2597 -1.7836
 1862SOL     OW17044   4.351   0.073   0.265  0.7872 -0.1031  0.1472
 1862SOL    HW117045   4.297   4.720   0.251  4.5559 -2.9585  1.3796
 1862SOL    HW217046   4.426   0.032   0.308  1.1699  0.3606 -0.0688
 1863SOL     OW17047   3.246   4.164  12.171 -0.1330  0.0602 -0.6098
 1863SOL    HW117048   3.335   4.133  12.155 -0.6959 -2.2351  0.7362
 1863SOL    HW217049   3.218   4.190  12.083  1.9378  2.2891 -0.6183
 1864SOL     OW17050   0.830   3.498   8.367 -0.1822  0.1710  0.3444
 1864SOL    HW117051   0.849   3.458   8.451 -0.1938  0.1086  0.3170
 1864SOL    HW217052   0.912   3.482   8.320  0.0094 -1.0763  1.1142
 1865SOL     OW17053   1.931   1.610  15.286 -0.0675  0.2164 -0.5224
 1865SOL    HW117054   1.857   1.558  15.256 -0.2385  0.3164 -0.2738
 1865SOL    HW217055   2.003   1.550  15.266 -0.6826 -0.5948 -0.2794
 1866SOL     OW17056   3.329   2.471  16.830  0.8840 -0.1537  0.1538
 1866SOL    HW117057   3.383   2.395  16.807  1.8207 -0.0858  2.0676
 1866SOL    HW217058   3.249   2.433  16.864  0.8596 -1.1337 -0.9904
 1867SOL     OW17059   3.491   3.924   7.774  0.2246  0.3866  0.2777
 1867SOL    HW117060   3.458   3.840   7.805  0.1608  0.0849 -0.6006
 1867SOL    HW217061   3.580   3.920   7.808  0.2417 -0.0456  0.1789
 1868SOL     OW17062   4.087   3.488   0.504 -0.5060  0.3510 -0.2422
 1868SOL    HW117063   4.050   3.405   0.533 -1.3622  0.6020 -0.6277
 1868SOL    HW217064   4.109   3.466   0.414 -3.0158  0.9093 -0.9745
 1869SOL     OW17065   3.018   3.965   5.854  0.5071  0.1756  0.0507
 1869SOL    HW117066   3.062   3.926   5.778 -0.3570 -0.4679 -0.1225
 1869SOL    HW217067   2.930   3.981   5.821  1.0503  1.5901 -0.7156
 1870SOL     OW17068   0.361   4.384   2.974 -0.1248 -0.1871 -0.2549
 1870SOL    HW117069   0.389   4.429   2.895  0.5242  0.6564  0.4521
 1870SOL    HW217070   0.313   4.310   2.938 -1.2037  0.1310  0.5316
 1871SOL     OW17071   2.876   3.644  16.736  0.5730 -0.2117  0.0695
 1871SOL    HW117072   2.781   3.652  16.730  0.5050 -1.2758 -0.2440
 1871SOL    HW217073   2.902   3.710  16.672 -1.7576 -0.0405 -0.6861
 1872SOL     OW17074   1.506   3.983   2.571 -0.2264 -0.6249  0.1870
 1872SOL    HW117075   1.472   3.905   2.527  0.6251 -0.3756 -0.9104
 1872SOL    HW217076   1.474   3.971   2.660 -0.8270 -0.1846  0.0275
 1873SOL     OW17077   0.899   2.971   5.509 -0.7801 -0.3823 -0.0453
 1873SOL    HW117078   0.844   3.012   5.575  0.0004 -0.7361  0.8261
 1873SOL    HW217079   0.827   2.938   5.455 -1.3377  1.4716 -0.4189
 1874SOL     OW17080   3.585   1.796   4.353 -0.1616  0.2524  0.0635
 1874SOL    HW117081   3.611   1.704   4.342  2.8236  1.2965 -1.5542
 1874SOL    HW217082   3.570   1.808   4.447  0.1916 -0.9101  0.2731
 1875SOL     OW17083   0.169   1.390   8.790  0.0216  0.0229  0.7316
 1875SOL    HW117084   0.091   1.368   8.842 -0.0335 -1.2115  0.1229
 1875SOL    HW217085   0.128   1.441   8.720  1.6331  0.7488  0.3318
 1876SOL     OW17086   3.873   0.761   6.144  0.0735  0.0052  0.5741
 1876SOL    HW117087   3.789   0.763   6.099  0.0501  3.3049  0.8022
 1876SOL    HW217088   3.919   0.808   6.074 -2.2684  0.0356 -0.9330
 1877SOL     OW17089   4.139   1.723   7.314  0.2262 -0.1372  0.5669
 1877SOL    HW117090   4.057   1.771   7.325  1.1698  1.4124  0.8177
 1877SOL    HW217091   4.125   1.637   7.354 -1.9147  0.1575  0.4553
 1878SOL     OW17092   1.108   0.496  17.311  0.4349 -0.1418  0.5249
 1878SOL    HW117093   1.020   0.485  17.347 -0.1024  2.7266  0.1046
 1878SOL    HW217094   1.151   0.553  17.375 -1.5113  0.7117  1.0796
 1879SOL     OW17095   3.951   4.213   4.850  0.1166 -0.2603 -0.1072
 1879SOL    HW117096   3.896   4.282   4.812 -0.9795 -0.4400  1.1156
 1879SOL    HW217097   3.901   4.132   4.843 -1.2228  0.7736 -2.3722
 1880SOL     OW17098   0.230   2.496   5.126 -0.4184  0.4428 -0.3516
 1880SOL    HW117099   0.302   2.440   5.098 -0.9401 -0.8267  0.8767
 1880SOL    HW217100   0.239   2.500   5.222 -1.2415  0.2155 -0.2710
 1881SOL     OW17101   1.167   3.052   2.417 -0.6401 -0.1540 -0.3506
 1881SOL    HW117102   1.141   2.966   2.450 -0.5277  0.9843  2.7447
 1881SOL    HW217103   1.104   3.105   2.466 -1.8108 -1.8895  0.0273
 1882SOL     OW17104   3.060   3.874  14.544  0.1525 -0.0140 -0.1438
 1882SOL    HW117105   3.139   3.917  14.510  0.4257 -0.0480  0.4411
 1882SOL    HW217106   3.059   3.916  14.630 -0.6174 -1.1304  0.3901
 1883SOL     OW17107   3.001   3.478  12.515  0.2165  0.1779  0.0890
 1883SOL    HW117108   2.914   3.507  12.544  0.5339 -0.5713  1.7305
 1883SOL    HW217109   2.981   3.434  12.432 -1.8901  3.2127 -1.0340
 1884SOL     OW17110   1.659   0.138   5.564  0.2630 -0.0179  0.2208
 1884SOL    HW117111   1.643   0.233   5.569 -2.1070 -0.2576 -2.9519
 1884SOL    HW217112   1.684   0.130   5.472 -2.2558 -0.1253 -0.4608
 1885SOL     OW17113   4.103   0.056   7.066 -0.1285  0.0283  0.2691
 1885SOL    HW117114   4.037   0.025   7.128  0.6963 -0.2588  1.0159
 1885SOL    HW217115   4.129   0.140   7.104 -0.9002 -0.8167  2.6603
 1886SOL     OW17116   2.216   1.538   2.919 -0.3866 -0.5061  0.1575
 1886SOL    HW117117   2.266   1.505   2.993  0.6839  1.8701  0.4972
 1886SOL    HW217118   2.246   1.477   2.851 -0.8034  0.9636 -1.3589
 1887SOL     OW17119   1.642   1.381   5.866 -0.3023  0.3963  0.3457
 1887SOL    HW117120   1.648   1.419   5.953  0.1939  4.1738 -1.3514
 1887SOL    HW217121   1.727   1.336   5.866  0.1461  1.2547  0.3499
 1888SOL     OW17122   3.991   4.352  10.774  0.0078 -0.2458 -0.8123
 1888SOL    HW117123   3.896   4.351  10.774 -0.0165  3.0076  0.3809
 1888SOL    HW217124   4.013   4.427  10.829 -0.3449 -0.7201 -0.0143
 1889SOL     OW17125   0.295   2.253   9.087 -0.5472 -0.3893 -0.4472
 1889SOL    HW117126   0.227   2.312   9.054 -1.5178 -0.7412  0.9765
 1889SOL    HW217127   0.296   2.195   9.011 -1.8221  1.3402 -1.7929
 1890SOL     OW17128   3.583   0.541   4.413  0.2105 -0.0865  0.4459
 1890SOL    HW117129   3.615   0.497   4.493 -0.0711  1.6283  1.4953
 1890SOL    HW217130   3.517   0.481   4.380  0.1070 -1.1827  2.6089
 1891SOL     OW17131   0.508   2.431   8.724  0.0477  0.2732 -0.1252
 1891SOL    HW117132   0.580   2.492   8.743  1.9337 -1.3287 -2.1454
 1891SOL    HW217133   0.517   2.426   8.629  1.6716 -0.7117  0.0752
 1892SOL     OW17134   0.891   2.468  16.280 -0.0908  0.4966 -0.0557
 1892SOL    HW117135   0.864   2.559  16.294 -1.2757  0.1456 -0.0900
 1892SOL    HW217136   0.986   2.480  16.291 -0.3065  1.5599  0.7779
 1893SOL     OW17137   3.729   3.959   4.142 -0.1409 -0.0827  0.4096
 1893SOL    HW117138   3.782   3.924   4.214 -0.7133 -0.1627  0.7980
 1893SOL    HW217139   3.650   3.906   4.137 -0.8863  1.2270 -1.5626
 1894SOL     OW17140   0.610   2.208   5.946  0.0398  0.6275  0.4425
 1894SOL    HW117141   0.619   2.302   5.930  0.1862  0.3643 -0.9954
 1894SOL    HW217142   0.601   2.206   6.041  2.6818 -1.2563  0.6477
 1895SOL     OW17143   1.709   0.026   0.140  0.2380  0.3476 -0.4211
 1895SOL    HW117144   1.666   0.111   0.134  0.8273  0.6097 -0.8982
 1895SOL    HW217145   1.751   0.031   0.054 -1.2307 -1.6086 -1.2748
 1896SOL     OW17146   3.538   4.099   2.824  0.1726  0.2017  0.1824
 1896SOL    HW117147   3.581   4.126   2.905  0.8788 -0.5777  0.0664
 1896SOL    HW217148   3.556   4.006   2.836  0.3239  0.4037  1.6029
 1897SOL     OW17149   3.041   4.619   6.021  0.0562 -0.1791  0.0664
 1897SOL    HW117150   2.976   4.676   6.063  0.2887 -0.3356  0.6384
 1897SOL    HW217151   2.983   4.554   5.982  2.9316 -2.1466 -0.9556
 1898SOL     OW17152   3.747   2.036   4.548 -0.3707  0.3181 -0.2679
 1898SOL    HW117153   3.769   2.104   4.613 -3.0176  0.8946  0.0316
 1898SOL    HW217154   3.835   2.001   4.535  0.2254  2.1714 -1.2670
 1899SOL     OW17155   1.079   0.322   3.918  0.3489  0.7623 -0.4134
 1899SOL    HW117156   1.149   0.379   3.950 -0.1062 -0.2347  2.3574
 1899SOL    HW217157   1.054   0.277   3.999  2.6636 -0.6883 -0.4934
 1900SOL     OW17158   0.075   2.619   7.649 -0.2174  0.2736  0.4428
 1900SOL    HW117159   0.116   2.624   7.735  2.4211 -0.2620 -0.7621
 1900SOL    HW217160   0.113   2.536   7.622  0.4013  0.5079  0.5788
 1901SOL     OW17161   0.949   4.080   7.336  0.7945  0.0467  0.1001
 1901SOL    HW117162   0.936   3.990   7.308 -0.7951  0.4767 -0.4886
 1901SOL    HW217163   0.883   4.088   7.405 -0.0432 -1.0474 -0.5918
 1902SOL     OW17164   0.803   3.996   9.076  0.2177  0.0797 -0.5763
 1902SOL    HW117165   0.874   4.029   9.021 -1.0845  3.2272 -0.4220
 1902SOL    HW217166   0.843   4.006   9.162 -0.2086  0.0324 -0.3708
 1903SOL     OW17167   2.994   0.223  11.411 -0.4554 -0.1029 -0.0616
 1903SOL    HW117168   2.937   0.162  11.365 -0.9605  1.5886 -1.6636
 1903SOL    HW217169   2.932   0.295  11.426 -1.2979 -0.3528 -2.3682
 1904SOL     OW17170   2.774   4.432   9.098  0.4585  0.7011 -0.6846
 1904SOL    HW117171   2.718   4.460   9.170  0.4236 -0.1658 -0.3664
 1904SOL    HW217172   2.791   4.342   9.128 -2.4678  0.9267  1.6792
 1905SOL     OW17173   2.688   1.231  17.072 -0.6672  0.1686  0.0308
 1905SOL    HW117174   2.620   1.187  17.021  0.4395  0.6581 -1.8737
 1905SOL    HW217175   2.693   1.173  17.148  2.1886 -0.7791 -0.9000
 1906SOL     OW17176   2.405   0.818   2.619  0.1897  0.2164 -0.4015
 1906SOL    HW117177   2.320   0.783   2.591  1.1239 -2.0667 -0.4043
 1906SOL    HW217178   2.449   0.742   2.657  0.5166  1.1359  1.0852
 1907SOL     OW17179   4.162   0.698  15.499 -0.2331  0.2031  0.3648
 1907SOL    HW117180   4.099   0.639  15.541  2.0056 -1.0024  2.0679
 1907SOL    HW217181   4.122   0.705  15.413  1.7448 -0.4180 -0.5899
 1908SOL     OW17182   3.677   1.400   6.835 -0.0291 -0.0442 -0.4587
 1908SOL    HW117183   3.593   1.354   6.826  0.3751 -1.1505  1.3107
 1908SOL    HW217184   3.656   1.491   6.851 -0.1452 -0.5045  1.9215
 1909SOL     OW17185   4.160   1.483   2.471 -0.2423 -0.3950 -0.4887
 1909SOL    HW117186   4.183   1.517   2.385 -0.7868  1.2904  0.0412
 1909SOL    HW217187   4.187   1.391   2.464 -3.0671 -1.4067  1.9643
 1910SOL     OW17188   2.741   1.810   3.906  0.4763 -0.2282 -0.5464
 1910SOL    HW117189   2.764   1.825   3.814 -0.4003 -0.5817 -0.8224
 1910SOL    HW217190   2.691   1.729   3.902  0.2609 -0.1613  0.6286
 1911SOL     OW17191   3.219   2.987   1.245  0.5094 -0.3211 -0.3125
 1911SOL    HW117192   3.250   2.932   1.316 -1.1869  1.7395  2.0382
 1911SOL    HW217193   3.197   3.058   1.305  0.8682 -1.1516  0.7904
 1912SOL     OW17194   2.348   0.190   8.738  0.5103 -0.0165  0.1554
 1912SOL    HW117195   2.266   0.143   8.722  0.4763 -0.7939  2.5086
 1912SOL    HW217196   2.309   0.268   8.775  1.0306  0.5146 -0.4030
 1913SOL     OW17197   3.223   3.091   2.647 -0.3041  0.3018 -0.3780
 1913SOL    HW117198   3.180   3.112   2.730  1.0897  1.5087  0.0350
 1913SOL    HW217199   3.261   3.005   2.666 -0.0629 -0.3183 -3.7440
 1914SOL     OW17200   4.392   2.024   5.184  0.1651  0.0824 -0.0319
 1914SOL    HW117201   4.347   1.940   5.193  1.6416 -1.0166 -2.9213
 1914SOL    HW217202   4.423   2.047   5.271  2.6058 -1.2073 -0.5460
 1915SOL     OW17203   0.219   1.364   3.156 -0.3607  0.1140 -0.2434
 1915SOL    HW117204   0.151   1.341   3.219  1.8423 -0.9453  1.7588
 1915SOL    HW217205   0.221   1.297   3.088 -1.8281 -0.6090  0.4470
 1916SOL     OW17206   3.330   4.417  13.559  0.5187  0.2900 -0.3584
 1916SOL    HW117207   3.378   4.400  13.640  0.9525  0.3440 -0.6060
 1916SOL    HW217208   3.268   4.345  13.571 -1.7930  2.1360 -1.1744
 1917SOL     OW17209   1.121   4.514  13.197 -0.4469 -0.4947  0.2644
 1917SOL    HW117210   1.091   4.560  13.275 -0.0011  1.4156 -0.6851
 1917SOL    HW217211   1.044   4.465  13.167 -0.0783  0.5874 -2.4764
 1918SOL     OW17212   1.312   2.274   3.919 -0.9292 -0.1022 -0.0910
 1918SOL    HW117213   1.297   2.197   3.974 -0.6982  0.0330  0.1573
 1918SOL    HW217214   1.263   2.239   3.845  0.4416  0.1185 -1.0845
 1919SOL     OW17215   0.426   2.365   3.620  0.2685  0.1610  0.1022
 1919SOL    HW117216   0.343   2.374   3.573  0.2086  2.4215  0.6388
 1919SOL    HW217217   0.414   2.424   3.694  1.2446 -0.3772  0.6835
 1920SOL     OW17218   0.743   0.333   2.673  0.1525  0.2715  0.3160
 1920SOL    HW117219   0.824   0.336   2.725 -0.2943  0.1273  1.0106
 1920SOL    HW217220   0.782   0.365   2.592  0.0251  0.7355  0.4427
 1921SOL     OW17221   1.234   2.198   2.474 -0.5636 -0.3230 -0.2382
 1921SOL    HW117222   1.241   2.284   2.431 -3.6139  0.8808  1.6927
 1921SOL    HW217223   1.138   2.198   2.475 -0.5608 -0.2351 -0.0707
 1922SOL     OW17224   1.738   2.195  10.961  0.2697  0.4785 -0.0864
 1922SOL    HW117225   1.795   2.260  10.921  0.1062  2.5501  3.0176
 1922SOL    HW217226   1.658   2.244  10.939 -1.0233 -2.2524 -1.4457
 1923SOL     OW17227   4.172   0.124   0.646 -0.6724 -0.2014  1.0534
 1923SOL    HW117228   4.122   0.085   0.574 -1.7823  1.8263  0.7161
 1923SOL    HW217229   4.212   0.200   0.604 -0.5375 -1.6679 -1.4463
 1924SOL     OW17230   2.553   3.002   8.765  0.0405  0.5090  0.0590
 1924SOL    HW117231   2.616   2.950   8.714 -1.5869 -0.0868 -1.3353
 1924SOL    HW217232   2.557   3.087   8.722  0.5458 -0.2457 -1.4242
 1925SOL     OW17233   3.973   3.329   8.357 -0.1168 -0.6321 -0.1972
 1925SOL    HW117234   4.039   3.267   8.327  0.3317 -0.1844 -0.1355
 1925SOL    HW217235   4.024   3.387   8.412 -0.4993  0.5466 -1.0856
 1926SOL     OW17236   3.767   2.487  13.119 -0.5819 -0.4160 -0.3110
 1926SOL    HW117237   3.795   2.464  13.208 -0.3228 -2.4165 -0.9027
 1926SOL    HW217238   3.740   2.401  13.086 -1.2572 -0.5139  0.4847
 1927SOL     OW17239   4.490   4.596   0.390  0.0963 -0.2489 -0.0950
 1927SOL    HW117240   4.572   4.617   0.436  0.1338  1.5598 -1.0006
 1927SOL    HW217241   4.456   4.529   0.450 -0.3385  0.0685  0.0097
 1928SOL     OW17242   1.872   0.867  16.681  0.0786 -0.1703 -0.2691
 1928SOL    HW117243   1.842   0.908  16.600  0.5265  0.4486 -0.1213
 1928SOL    HW217244   1.921   0.942  16.716 -0.2960 -0.4761  0.9199
 1929SOL     OW17245   1.950   2.806   1.196 -0.0202 -0.4180  0.1188
 1929SOL    HW117246   1.906   2.835   1.276  1.1910  0.7423  0.3706
 1929SOL    HW217247   1.873   2.785   1.144  0.4322 -1.0938 -0.2747
 1930SOL     OW17248   4.536   4.549   8.886 -0.5268  0.0977  0.1748
 1930SOL    HW117249   4.565   4.512   8.803  3.3365  2.3218  0.5204
 1930SOL    HW217250   4.536   4.468   8.937 -1.1802 -1.0565 -1.6597
 1931SOL     OW17251   2.601   0.906   6.760  0.2963 -0.1540  0.2263
 1931SOL    HW117252   2.551   0.843   6.708 -0.3733  1.2003 -0.7775
 1931SOL    HW217253   2.574   0.903   6.852  0.1192 -0.9220  0.1515
 1932SOL     OW17254   3.317   3.334   7.114 -0.5080  0.0802  0.1502
 1932SOL    HW117255   3.328   3.277   7.190  2.2010 -0.3497 -0.5805
 1932SOL    HW217256   3.370   3.405   7.150 -1.1430  0.7700 -0.2881
 1933SOL     OW17257   2.531   4.716   7.135  0.1855  0.2326 -0.3769
 1933SOL    HW117258   2.457   0.045   7.105 -0.9080 -0.0172  1.8137
 1933SOL    HW217259   2.552   0.038   7.216  1.4450 -1.4374  0.2661
 1934SOL     OW17260   4.383   4.380   1.184 -0.5026 -0.5139  0.1787
 1934SOL    HW117261   4.413   4.417   1.100 -0.2749 -1.5679 -0.2127
 1934SOL    HW217262   4.425   4.436   1.249  2.3566 -0.0051 -2.0884
 1935SOL     OW17263   0.703   3.834  15.922  0.1553  0.2491  0.3759
 1935SOL    HW117264   0.632   3.773  15.899 -0.4957  1.6740 -1.3840
 1935SOL    HW217265   0.655   3.895  15.978 -0.2942 -0.0618  0.3329
 1936SOL     OW17266   3.074   4.150   9.079 -0.5122  0.4464  0.1289
 1936SOL    HW117267   2.989   4.142   9.123 -1.8558 -1.4144 -2.8396
 1936SOL    HW217268   3.129   4.150   9.157 -0.8176  1.2052  0.3441
 1937SOL     OW17269   2.958   1.436   8.985 -0.1023  0.0341 -0.1591
 1937SOL    HW117270   2.935   1.528   8.979 -0.4715 -0.0144  0.5393
 1937SOL    HW217271   3.052   1.452   8.990  0.1743 -0.5568 -3.2693
 1938SOL     OW17272   2.574   3.131   5.019  0.3652  0.1038 -0.0064
 1938SOL    HW117273   2.541   3.146   4.930  0.1771  2.8376  0.5194
 1938SOL    HW217274   2.563   3.221   5.049  1.6884  0.8292 -1.6707
 1939SOL     OW17275   3.352   2.460   7.802  0.7469 -0.4731 -0.6349
 1939SOL    HW117276   3.397   2.538   7.769  0.1261  1.1558  2.4136
 1939SOL    HW217277   3.308   2.428   7.723 -0.2631  1.6471 -0.9535
 1940SOL     OW17278   2.904   2.655   2.945 -0.1752 -0.3437  0.1817
 1940SOL    HW117279   2.938   2.690   2.862  3.1755 -1.6287  1.0053
 1940SOL    HW217280   2.971   2.679   3.008  0.3455 -0.3980 -0.3518
 1941SOL     OW17281   3.679   4.228   3.737 -0.7245  0.6507 -0.0120
 1941SOL    HW117282   3.728   4.158   3.780 -1.2726  2.3824  3.5301
 1941SOL    HW217283   3.711   4.237   3.647 -0.7359  1.0150  0.0183
 1942SOL     OW17284   0.032   2.506   4.208  0.0482 -0.0637  0.2955
 1942SOL    HW117285   0.085   2.572   4.164 -0.6429  0.4791  0.2957
 1942SOL    HW217286   4.701   2.568   4.254  0.9767  0.9836 -0.0024
 1943SOL     OW17287   3.256   0.862   8.597  0.5786 -0.6677 -0.2455
 1943SOL    HW117288   3.209   0.779   8.591  1.0425 -1.0854  2.1649
 1943SOL    HW217289   3.191   0.932   8.607 -1.6617 -2.4277 -2.2570
 1944SOL     OW17290   4.335   3.986  17.629 -0.3113 -0.0913 -0.3107
 1944SOL    HW117291   4.327   3.891  17.627  0.2694 -0.0730 -4.3845
 1944SOL    HW217292   4.372   4.001  17.542  1.3956 -1.0194  0.2598
 1945SOL     OW17293   3.728   1.747  17.600 -0.1539 -0.0435  0.1955
 1945SOL    HW117294   3.704   1.700  17.520  0.2665  1.1921 -0.6624
 1945SOL    HW217295   3.644   1.765  17.642  0.3633 -0.5335  1.4341
 1946SOL     OW17296   4.133   0.684   4.072  0.1185  0.3657  0.0341
 1946SOL    HW117297   4.171   0.600   4.047 -0.2338  0.4998 -0.9882
 1946SOL    HW217298   4.207   0.732   4.109  0.7008  1.1074 -2.0662
 1947SOL     OW17299   0.624   3.465  12.216 -0.4693  0.1169  0.7511
 1947SOL    HW117300   0.712   3.429  12.204 -1.3933 -2.0249  0.5747
 1947SOL    HW217301   0.613   3.445  12.309  1.0914  0.6096  1.0537
 1948SOL     OW17302   0.021   0.223  12.831  0.2283  0.4083 -0.0134
 1948SOL    HW117303   4.703   0.177  12.904 -1.5568  3.5294  0.9199
 1948SOL    HW217304   0.108   0.236  12.869  1.5895 -0.8491 -2.7018
 1949SOL     OW17305   2.827   4.640   8.027 -0.1053  0.0247  0.2494
 1949SOL    HW117306   2.843   0.007   8.051  1.5460 -0.7167  1.9802
 1949SOL    HW217307   2.893   4.601   8.084 -1.0936 -1.0774  0.6312
 1950SOL     OW17308   3.301   2.039  13.072 -0.3388 -0.5213  0.0087
 1950SOL    HW117309   3.317   1.976  13.001 -0.0331  0.1140 -0.4779
 1950SOL    HW217310   3.217   2.011  13.108 -0.0375 -2.0419 -0.4525
 1951SOL     OW17311   1.165   3.091   5.885 -0.2107  0.4584  0.2538
 1951SOL    HW117312   1.145   3.161   5.823 -0.7214 -0.1905 -0.3030
 1951SOL    HW217313   1.125   3.108   5.970  0.1958 -0.6244  0.6573
 1952SOL     OW17314   0.915   1.295   7.702  0.5619 -0.0282  0.1332
 1952SOL    HW117315   0.972   1.370   7.716  1.4289 -0.1854 -2.4143
 1952SOL    HW217316   0.948   1.271   7.615  0.0569 -2.9738  0.7489
 1953SOL     OW17317   4.205   3.495   0.996 -0.0411  0.1671 -1.0066
 1953SOL    HW117318   4.171   3.494   1.085 -1.1723 -1.5655 -1.4581
 1953SOL    HW217319   4.289   3.454   1.016 -1.0588 -0.6170  1.6043
 1954SOL     OW17320   4.548   0.388   3.337  0.1457  0.2023  0.4385
 1954SOL    HW117321   4.512   0.320   3.280  0.5370 -0.1659  0.6303
 1954SOL    HW217322   4.564   0.459   3.275 -0.4598 -1.1120 -1.2412
 1955SOL     OW17323   2.152   2.953   6.945  0.0600  0.0438 -0.3290
 1955SOL    HW117324   2.175   2.882   7.005  2.9104 -0.9994 -2.6612
 1955SOL    HW217325   2.087   2.903   6.896 -1.4460  2.1275 -0.4568
 1956SOL     OW17326   0.931   3.217   7.328  0.0712  0.5102 -0.6604
 1956SOL    HW117327   0.993   3.286   7.303  0.0455  1.2435  1.3280
 1956SOL    HW217328   0.950   3.159   7.254 -0.9169  0.5887 -0.9735
 1957SOL     OW17329   4.010   1.824   7.032  0.0311  0.3007 -0.6025
 1957SOL    HW117330   3.972   1.818   7.120 -1.4646  0.8910 -1.2095
 1957SOL    HW217331   3.951   1.891   6.997 -1.1508 -0.5701 -0.3003
 1958SOL     OW17332   1.355   4.258   1.497 -0.3483 -0.4522  0.4049
 1958SOL    HW117333   1.296   4.279   1.569 -1.3035  0.2606 -0.5960
 1958SOL    HW217334   1.442   4.265   1.537 -1.1339  0.9528  1.8739
 1959SOL     OW17335   0.985   2.826  11.579 -0.5927 -0.1318  0.0744
 1959SOL    HW117336   0.922   2.897  11.594 -0.3582 -0.0563  0.6969
 1959SOL    HW217337   1.034   2.836  11.660 -1.2645 -2.5283  0.7635
 1960SOL     OW17338   0.419   0.371   6.757 -0.2102  0.3269 -0.4764
 1960SOL    HW117339   0.415   0.464   6.782 -0.3266 -0.1541  1.3223
 1960SOL    HW217340   0.431   0.337   6.846 -0.0537 -0.8034 -0.9361
 1961SOL     OW17341   0.231   4.256   6.686  0.4021  0.6428  0.6596
 1961SOL    HW117342   0.160   4.242   6.624 -0.2830  0.6634  1.4326
 1961SOL    HW217343   0.272   4.171   6.669 -1.1752 -0.1558  0.7841
 1962SOL     OW17344   3.104   3.919   7.388  0.6406 -0.4021  0.0967
 1962SOL    HW117345   3.094   3.839   7.439  0.2139 -0.1705  0.3747
 1962SOL    HW217346   3.108   3.885   7.298  1.2199 -0.1727  0.0323
 1963SOL     OW17347   4.254   1.374   1.616 -0.1576  0.0806 -0.6827
 1963SOL    HW117348   4.257   1.306   1.549 -1.3235  1.2965 -1.9632
 1963SOL    HW217349   4.209   1.450   1.578 -1.1508 -0.4981 -0.6518
 1964SOL     OW17350   0.413   3.716   9.282  0.4756  0.2673  0.0985
 1964SOL    HW117351   0.398   3.692   9.373 -0.4071  2.4487  0.5396
 1964SOL    HW217352   0.428   3.628   9.248  0.4033 -0.3908  1.7951
 1965SOL     OW17353   0.282   2.639   8.395 -0.4192 -0.4715 -0.5325
 1965SOL    HW117354   0.247   2.647   8.484  0.9076 -1.1410  0.0404
 1965SOL    HW217355   0.307   2.547   8.399 -1.2602 -0.7003 -0.3832
 1966SOL     OW17356   3.933   3.882   1.614 -0.4346  0.5673 -0.0113
 1966SOL    HW117357   3.962   3.802   1.570 -2.4973 -0.0475 -0.2549
 1966SOL    HW217358   3.841   3.861   1.631 -0.3809  1.8854  1.8751
 1967SOL     OW17359   0.326   2.844   3.952  0.0188 -0.1737 -0.2110
 1967SOL    HW117360   0.380   2.770   3.924 -0.0748  0.4086 -1.8670
 1967SOL    HW217361   0.322   2.887   3.867  0.1954  1.0734  0.4152
 1968SOL     OW17362   0.922   3.363   0.306  0.7907  0.4888 -0.0019
 1968SOL    HW117363   1.015   3.373   0.287  0.5813 -0.9592 -1.7426
 1968SOL    HW217364   0.887   3.290   0.256 -1.9293  0.9714  1.1804
 1969SOL     OW17365   4.680   1.332   2.408  0.3043  0.0843 -0.1285
 1969SOL    HW117366   4.698   1.319   2.315  1.2621  0.8536 -0.0498
 1969SOL    HW217367   4.634   1.249   2.423  1.4727 -0.4588  0.4872
 1970SOL     OW17368   1.218   0.608   5.190  0.4354  0.0670  1.0928
 1970SOL    HW117369   1.215   0.617   5.286  3.1413 -1.6224  1.3283
 1970SOL    HW217370   1.193   0.697   5.164 -1.4119 -1.4395 -2.2656
 1971SOL     OW17371   3.736   0.318   4.865 -0.0736  0.0313  0.0752
 1971SOL    HW117372   3.810   0.260   4.881 -0.3761 -0.0598  1.1565
 1971SOL    HW217373   3.682   0.285   4.937 -3.7567  0.7827 -2.3259
 1972SOL     OW17374   2.171   0.650  16.331 -0.3519  0.8398 -0.8859
 1972SOL    HW117375   2.207   0.570  16.292 -0.1893 -0.0800  1.1801
 1972SOL    HW217376   2.132   0.685  16.251 -1.2373  0.7225 -0.5057
 1973SOL     OW17377   2.292   3.015   7.916  0.0563 -0.0443  0.1369
 1973SOL    HW117378   2.368   3.060   7.953 -1.3177  2.1706  0.2662
 1973SOL    HW217379   2.250   3.088   7.871 -1.4781 -2.5907 -2.5908
 1974SOL     OW17380   1.600   3.716   5.627  0.0977  0.5144  0.0222
 1974SOL    HW117381   1.583   3.698   5.535  0.7131 -1.0514  0.2303
 1974SOL    HW217382   1.577   3.809   5.620  0.3339  0.5616 -0.1361
 1975SOL     OW17383   0.134   1.820  12.242 -1.2097 -0.1605 -0.2861
 1975SOL    HW117384   0.135   1.913  12.222  0.4807 -0.3950 -1.2373
 1975SOL    HW217385   0.133   1.788  12.152 -3.4416 -0.0625 -0.3052
 1976SOL     OW17386   1.161   1.000   2.683 -0.0260  0.0574  0.3100
 1976SOL    HW117387   1.145   0.907   2.697 -0.1387  0.0136 -0.1108
 1976SOL    HW217388   1.232   1.000   2.618 -0.4184  1.9514 -0.1195
 1977SOL     OW17389   3.300   1.829  15.729 -0.2545 -0.7839  0.5461
 1977SOL    HW117390   3.218   1.790  15.760 -0.6321 -0.2622  0.2105
 1977SOL    HW217391   3.293   1.808  15.636 -0.1549  1.6644 -0.0253
 1978SOL     OW17392   3.669   3.494  13.011  0.8175  0.7006  0.4496
 1978SOL    HW117393   3.719   3.413  12.999  0.0719  0.7476 -3.1025
 1978SOL    HW217394   3.586   3.447  13.022 -0.5141  2.6266 -1.3667
 1979SOL     OW17395   4.542   3.046   9.382 -0.3746  0.0761 -0.5458
 1979SOL    HW117396   4.614   3.106   9.400 -1.7911  1.0593  1.8392
 1979SOL    HW217397   4.474   3.111   9.399 -1.3039 -1.7317  2.7039
 1980SOL     OW17398   1.668   1.200   3.189 -0.2224  0.0321  0.0232
 1980SOL    HW117399   1.647   1.117   3.232 -0.3033  0.1179  0.1441
 1980SOL    HW217400   1.624   1.193   3.104 -1.9421  2.8972  0.7097
 1981SOL     OW17401   1.529   4.132   3.325  0.9585  0.1128 -1.0756
 1981SOL    HW117402   1.453   4.189   3.323 -0.2199 -1.3139  2.2906
 1981SOL    HW217403   1.497   4.050   3.289  2.0130 -1.3805  1.3649
 1982SOL     OW17404   3.630   2.284   5.753 -0.0536  0.5862  0.0922
 1982SOL    HW117405   3.688   2.359   5.769  0.6604 -0.2605  1.4943
 1982SOL    HW217406   3.568   2.315   5.688  0.3944 -3.0330 -2.0297
 1983SOL     OW17407   3.556   1.692   9.021  1.0497  0.1909 -0.1562
 1983SOL    HW117408   3.563   1.758   9.090 -0.6544 -0.0189  0.2095
 1983SOL    HW217409   3.482   1.732   8.975  0.6129  1.4326  1.6245
 1984SOL     OW17410   3.677   3.144  16.223  0.1226  0.0523 -0.3494
 1984SOL    HW117411   3.653   3.116  16.135 -1.6128  1.4672 -0.3203
 1984SOL    HW217412   3.594   3.136  16.270  0.9803 -1.2297  0.9469
 1985SOL     OW17413   0.761   0.438   4.179  0.1753  0.1104 -0.2384
 1985SOL    HW117414   0.760   0.506   4.246  1.8836  0.0478 -0.1593
 1985SOL    HW217415   0.852   0.455   4.155  0.4460 -1.1547 -0.0916
 1986SOL     OW17416   1.941   2.341  10.882 -0.4241 -0.1405  0.5392
 1986SOL    HW117417   2.021   2.325  10.832 -2.9454  1.7323 -4.0923
 1986SOL    HW217418   1.932   2.436  10.881  2.5857  0.1467  0.2555
 1987SOL     OW17419   0.452   3.137  16.911  0.3780 -0.2000  0.3167
 1987SOL    HW117420   0.365   3.103  16.895  0.8383 -1.9844  1.5785
 1987SOL    HW217421   0.503   3.092  16.844 -2.1506  2.3305 -3.2877
 1988SOL     OW17422   2.965   3.171   6.349  0.0172  0.1911  0.0956
 1988SOL    HW117423   3.057   3.180   6.324  0.1217 -4.1732 -1.0436
 1988SOL    HW217424   2.979   3.104   6.416 -1.4125 -0.2984 -0.0941
 1989SOL     OW17425   2.376   0.673   6.832  0.6246 -0.9734  0.3963
 1989SOL    HW117426   2.344   0.584   6.814 -0.1787 -0.3216 -1.3050
 1989SOL    HW217427   2.302   0.724   6.799  2.0889 -0.8182 -2.6554
 1990SOL     OW17428   1.558   1.045  13.842 -0.0896  0.0215 -0.3190
 1990SOL    HW117429   1.598   0.976  13.896 -0.4206  0.6935  0.7853
 1990SOL    HW217430   1.491   1.082  13.900  0.7408  0.8170  0.1320
 1991SOL     OW17431   0.355   2.063   7.640 -0.3284  0.2205  0.6931
 1991SOL    HW117432   0.425   2.079   7.576  0.4951  0.7019  1.6924
 1991SOL    HW217433   0.324   2.153   7.654  0.8475  0.6637  0.4772
 1992SOL     OW17434   2.048   3.144   3.060  0.0854 -0.2094 -0.4172
 1992SOL    HW117435   2.136   3.151   3.022 -0.4970  1.4482 -1.4648
 1992SOL    HW217436   1.989   3.199   3.007 -1.4352 -1.9580 -0.5565
 1993SOL     OW17437   1.881   4.302  11.295 -0.0800  0.3551 -0.1650
 1993SOL    HW117438   1.909   4.247  11.222 -0.7623  1.5181 -1.3115
 1993SOL    HW217439   1.959   4.353  11.319  0.0661  0.4969 -0.9257
 1994SOL     OW17440   3.240   0.585   4.184  0.6191 -0.0035  0.4133
 1994SOL    HW117441   3.281   0.660   4.142  2.9851 -1.6908 -0.2501
 1994SOL    HW217442   3.148   0.588   4.155  0.1936  0.4761  1.7941
 1995SOL     OW17443   3.163   2.037   4.632  0.1989 -0.1573 -0.1130
 1995SOL    HW117444   3.247   2.062   4.594  0.6393 -4.4355 -1.9051
 1995SOL    HW217445   3.185   1.945   4.624 -0.0646 -0.3487  1.2948
 1996SOL     OW17446   2.163   3.773  16.127 -0.4387 -0.3881 -0.1423
 1996SOL    HW117447   2.197   3.771  16.038  2.8218  3.1138  1.0197
 1996SOL    HW217448   2.238   3.788  16.184  1.2939 -0.8968 -2.2877
 1997SOL     OW17449   2.484   4.532   8.552  0.2959  0.1458  0.6855
 1997SOL    HW117450   2.548   4.558   8.619  0.2680 -1.3836  1.3065
 1997SOL    HW217451   2.422   4.490   8.611 -0.3465 -1.3428 -1.0464
 1998SOL     OW17452   2.856   3.147   5.338 -0.5890 -0.4094  0.2665
 1998SOL    HW117453   2.815   3.228   5.366  0.4911 -0.9171  3.3160
 1998SOL    HW217454   2.943   3.186   5.328 -0.1927 -1.8413 -1.9336
 1999SOL     OW17455   4.701   3.821   5.679 -0.5020  0.0603 -0.1973
 1999SOL    HW117456   0.069   3.844   5.680 -0.8211  1.3564 -1.9002
 1999SOL    HW217457   4.670   3.866   5.757  0.3819  0.8749 -0.3190
 2000SOL     OW17458   4.142   4.207   4.249 -0.3382 -0.0654 -0.5126
 2000SOL    HW117459   4.180   4.237   4.166  1.9660  0.2336  0.6622
 2000SOL    HW217460   4.140   4.112   4.232  1.7827 -0.2608  0.2534
 2001SOL     OW17461   0.380   0.611   2.393  0.0751 -0.1739 -0.5885
 2001SOL    HW117462   0.331   0.592   2.313 -0.5909 -0.0900 -0.1965
 2001SOL    HW217463   0.413   0.522   2.404  2.4569  0.1632 -4.8314
 2002SOL     OW17464   4.352   2.171  11.866 -0.4846  0.0976 -0.0163
 2002SOL    HW117465   4.436   2.180  11.821  0.3217  2.2811  1.9085
 2002SOL    HW217466   4.295   2.170  11.789 -0.6135 -0.7592  0.0905
 2003SOL     OW17467   4.275   0.650   1.284 -0.3947  0.3161 -0.1124
 2003SOL    HW117468   4.204   0.593   1.312  0.7512  0.2450  2.7005
 2003SOL    HW217469   4.292   0.673   1.376 -0.9978  2.9573 -0.6453
 2004SOL     OW17470   4.124   1.085   6.091  0.1462  0.3151 -0.1970
 2004SOL    HW117471   4.056   1.055   6.030  0.5671  0.5464 -0.7804
 2004SOL    HW217472   4.126   1.179   6.070 -0.8823 -0.4273 -3.5301
 2005SOL     OW17473   4.115   2.881   2.304  0.0614 -0.4447  0.5053
 2005SOL    HW117474   4.201   2.908   2.271 -0.0061 -0.9541 -0.0997
 2005SOL    HW217475   4.072   2.856   2.222 -0.1943 -1.2742  0.8898
 2006SOL     OW17476   1.526   0.552  14.864 -0.1198 -0.1344 -0.3814
 2006SOL    HW117477   1.580   0.474  14.857 -0.4878 -0.4534  0.2567
 2006SOL    HW217478   1.594   0.616  14.844 -1.0039  1.3110  1.2001
 2007SOL     OW17479   4.044   0.234   5.503 -0.3115 -0.3801  0.2628
 2007SOL    HW117480   3.975   0.272   5.449  1.0202  0.8988 -0.5452
 2007SOL    HW217481   4.009   0.259   5.588 -0.0530 -2.3088  0.9504
 2008SOL     OW17482   2.024   4.661   9.602 -0.0331 -0.4300 -0.1085
 2008SOL    HW117483   1.951   4.682   9.660  0.7290 -0.5488  0.9051
 2008SOL    HW217484   2.095   4.706   9.650  1.2682  0.3831 -2.8102
 2009SOL     OW17485   3.326   2.505   4.338 -0.4614 -0.2209 -0.3618
 2009SOL    HW117486   3.298   2.516   4.429 -0.3588 -0.7625 -0.2651
 2009SOL    HW217487   3.420   2.490   4.350 -0.7377 -1.6059  0.0956
 2010SOL     OW17488   2.964   0.968   8.860 -0.2441  0.7384  0.4040
 2010SOL    HW117489   2.929   1.036   8.919  0.6108  0.3791  1.3284
 2010SOL    HW217490   3.033   0.945   8.923 -1.6151 -2.5361  0.6976
 2011SOL     OW17491   4.256   1.542  14.631 -0.8270  0.6244  0.2695
 2011SOL    HW117492   4.329   1.492  14.667 -0.3567 -0.0512 -1.6228
 2011SOL    HW217493   4.211   1.470  14.586  2.2349  1.5077 -4.1999
 2012SOL     OW17494   3.386   2.343   6.917  0.2640 -0.2628  0.4758
 2012SOL    HW117495   3.334   2.268   6.944  0.9200 -0.3848  1.4197
 2012SOL    HW217496   3.324   2.374   6.850  0.1790 -0.1712  0.5970
 2013SOL     OW17497   4.055   3.427   6.139 -0.2743  0.0916  0.0535
 2013SOL    HW117498   4.043   3.442   6.233 -1.6645 -2.3084  0.2712
 2013SOL    HW217499   4.148   3.440   6.124 -0.5954  2.2063 -0.1798
 2014SOL     OW17500   2.080   1.894  12.215 -0.1960 -0.0168  0.3601
 2014SOL    HW117501   2.139   1.836  12.165  1.0992  0.4925  1.2994
 2014SOL    HW217502   1.995   1.850  12.210 -1.6275  2.5059  2.6043
 2015SOL     OW17503   0.180   2.510   9.386  0.1015  0.2907  0.6533
 2015SOL    HW117504   0.198   2.417   9.396  2.4467  0.7003  0.1254
 2015SOL    HW217505   0.184   2.508   9.291 -0.0189  0.8086  0.6383
 2016SOL     OW17506   0.856   3.868   6.195  0.3379 -0.3127 -0.0238
 2016SOL    HW117507   0.772   3.907   6.174 -1.0550 -1.9115  2.5087
 2016SOL    HW217508   0.833   3.783   6.158 -0.4456 -0.9699  1.9475
 2017SOL     OW17509   3.086   0.412   6.591  0.2796  0.1640 -0.0348
 2017SOL    HW117510   3.104   0.474   6.520  0.3181 -0.2099 -0.3492
 2017SOL    HW217511   3.071   0.328   6.548  1.8544 -1.6811  3.0011
 2018SOL     OW17512   3.181   1.929   6.053  0.3260  0.2243  0.1359
 2018SOL    HW117513   3.126   1.989   6.002 -0.2961 -0.4312  0.0367
 2018SOL    HW217514   3.245   1.993   6.084 -1.1365  1.2895  0.9536
 2019SOL     OW17515   2.324   3.852  11.674  0.4089  0.2342 -0.1129
 2019SOL    HW117516   2.281   3.934  11.652  0.2225 -0.1658 -1.2143
 2019SOL    HW217517   2.349   3.820  11.587  3.4642 -1.7035  1.4711
 2020SOL     OW17518   0.190   4.702  11.338 -0.4957 -0.2070 -0.1671
 2020SOL    HW117519   0.242   0.031  11.278  0.1293  0.3991  0.9265
 2020SOL    HW217520   0.109   4.701  11.287 -1.1471  0.1962  0.8535
 2021SOL     OW17521   3.726   1.974  16.740  0.0980 -0.8818 -0.0544
 2021SOL    HW117522   3.768   1.966  16.655  0.6129  1.1708 -0.0081
 2021SOL    HW217523   3.638   1.946  16.718 -1.1271  0.8353  2.6222
 2022SOL     OW17524   0.813   1.493  13.532 -0.1179  0.1478  0.2218
 2022SOL    HW117525   0.883   1.428  13.539 -1.8232 -1.7740 -0.7571
 2022SOL    HW217526   0.773   1.460  13.452 -1.5300 -0.4080  1.1694
 2023SOL     OW17527   2.050   3.118  12.542  0.5886  0.0779 -0.5526
 2023SOL    HW117528   2.007   3.203  12.529 -1.1742 -0.7728 -0.3326
 2023SOL    HW217529   2.138   3.130  12.508  1.2240 -0.1378  1.0670
 2024SOL     OW17530   1.687   0.694  11.380  0.0099 -0.2403  0.2699
 2024SOL    HW117531   1.690   0.598  11.371  0.7419 -0.4098  2.3372
 2024SOL    HW217532   1.762   0.711  11.438 -0.2911  3.2379 -0.3643
 2025SOL     OW17533   2.485   4.407   1.300  0.2527  0.3297 -0.0867
 2025SOL    HW117534   2.426   4.479   1.275 -4.3883 -2.5885  2.3501
 2025SOL    HW217535   2.528   4.394   1.215  0.1793 -0.3700 -0.0149
 2026SOL     OW17536   1.840   4.552   9.397  0.4259 -0.5832  0.4969
 2026SOL    HW117537   1.917   4.581   9.445  0.4502  0.2999 -0.0725
 2026SOL    HW217538   1.839   4.463   9.429 -0.5493 -0.4889  0.7312
 2027SOL     OW17539   2.086   2.810   7.308  0.2415  0.4580 -0.2882
 2027SOL    HW117540   2.138   2.739   7.344 -0.7419 -0.9578 -1.6650
 2027SOL    HW217541   2.145   2.837   7.237  2.6770 -1.2846  1.0827
 2028SOL     OW17542   3.685   3.255   4.999 -0.0357 -0.6301  0.3248
 2028SOL    HW117543   3.670   3.161   4.994 -0.5274 -0.5868  0.8495
 2028SOL    HW217544   3.777   3.265   4.977  0.4803 -0.0389  2.7376
 2029SOL     OW17545   1.141   4.510  10.278  0.4342 -0.6812 -0.4944
 2029SOL    HW117546   1.235   4.510  10.299  0.1463  0.5442  0.7586
 2029SOL    HW217547   1.154   4.460  10.197  0.4003 -0.3159 -0.7259
 2030SOL     OW17548   4.446   4.268   7.600  0.4898  0.2822 -0.3740
 2030SOL    HW117549   4.458   4.236   7.511  1.3740 -0.4674  0.0144
 2030SOL    HW217550   4.536   4.279   7.631  0.6602 -2.4684  0.1387
 2031SOL     OW17551   3.965   3.672  14.328  0.0883  0.5836 -0.2983
 2031SOL    HW117552   3.989   3.656  14.419 -0.4550  2.0961  0.1201
 2031SOL    HW217553   4.050   3.691  14.289  0.5000  1.6099  1.0997
 2032SOL     OW17554   4.324   0.762   3.350  0.0788  0.5330 -0.2264
 2032SOL    HW117555   4.366   0.834   3.397 -0.7256  0.6843  0.2615
 2032SOL    HW217556   4.256   0.735   3.411 -0.9274  0.9277 -1.1680
 2033SOL     OW17557   3.821   1.142   8.398  0.0030  0.2489 -0.5702
 2033SOL    HW117558   3.817   1.048   8.412 -0.4896  0.5215  1.0590
 2033SOL    HW217559   3.866   1.163   8.480 -0.6579  1.6903 -0.5722
 2034SOL     OW17560   2.313   3.979   1.572 -0.1009 -0.4920 -0.0347
 2034SOL    HW117561   2.368   4.042   1.526 -1.4874  0.4656 -0.4037
 2034SOL    HW217562   2.228   4.002   1.533  0.3065  1.1521  0.0513
 2035SOL     OW17563   2.947   3.175   2.301  0.3617 -0.2453  0.0475
 2035SOL    HW117564   3.040   3.170   2.280  0.2610 -1.5111 -0.0720
 2035SOL    HW217565   2.920   3.098   2.252  0.6443  0.1346 -0.7138
 2036SOL     OW17566   2.472   4.692  11.127  0.0823  0.0415  0.1608
 2036SOL    HW117567   2.518   0.019  11.061 -1.7241  0.2749 -0.9053
 2036SOL    HW217568   2.390   0.012  11.150 -1.1856 -3.2662  2.1778
 2037SOL     OW17569   2.126   3.231   9.991 -0.6778  0.3010  0.1846
 2037SOL    HW117570   2.071   3.302  10.024 -1.3734  0.1916 -0.7387
 2037SOL    HW217571   2.113   3.234   9.896  3.5897  1.2362 -0.3629
 2038SOL     OW17572   3.086   3.684   3.428  0.3527  0.5235  0.4634
 2038SOL    HW117573   3.053   3.621   3.363  0.0030  1.3212 -0.1356
 2038SOL    HW217574   3.001   3.725   3.443 -0.5293 -0.3402 -2.0681
 2039SOL     OW17575   3.711   0.889  14.911 -0.0433  0.2124 -0.2761
 2039SOL    HW117576   3.663   0.880  14.828 -1.2091  1.4304  0.2814
 2039SOL    HW217577   3.641   0.925  14.964  0.9991 -0.0827  1.2891
 2040SOL     OW17578   0.796   1.577   7.513 -0.0027  0.0910 -0.0241
 2040SOL    HW117579   0.769   1.498   7.466  0.5991  0.3432 -0.7877
 2040SOL    HW217580   0.796   1.551   7.605  0.9714 -0.0040 -0.0559
 2041SOL     OW17581   4.486   0.184  10.290  0.4029  0.3323 -0.4145
 2041SOL    HW117582   4.452   0.269  10.264 -0.0204  0.8172  1.7005
 2041SOL    HW217583   4.451   0.136  10.215  2.0991 -0.5856 -0.6264
 2042SOL     OW17584   0.786   0.509   4.802  0.4438  0.0901 -0.2461
 2042SOL    HW117585   0.706   0.525   4.751 -0.1983  0.6069  0.9376
 2042SOL    HW217586   0.776   0.590   4.852 -1.4895 -0.2096 -0.1377
 2043SOL     OW17587   3.491   3.766  15.312 -0.4436  0.2854  0.9291
 2043SOL    HW117588   3.543   3.812  15.378 -2.9241 -1.3576  4.0770
 2043SOL    HW217589   3.465   3.684  15.355 -1.8883  0.6277  0.7192
 2044SOL     OW17590   1.989   3.228   5.995  0.1548  0.0061  0.0819
 2044SOL    HW117591   2.067   3.279   5.976  0.0210 -0.3083 -1.3382
 2044SOL    HW217592   1.986   3.162   5.926  1.2984 -0.2281  0.2556
 2045SOL     OW17593   0.827   4.112  16.317  0.4256  0.3475 -0.8356
 2045SOL    HW117594   0.829   4.120  16.412 -1.2333  0.1295 -0.7841
 2045SOL    HW217595   0.732   4.117  16.310  0.2930  0.1806  1.0308
 2046SOL     OW17596   4.177   3.946   4.930 -0.7326  0.6072 -0.1585
 2046SOL    HW117597   4.224   4.002   4.869 -1.2925  1.1538 -0.0821
 2046SOL    HW217598   4.127   4.007   4.984  0.8686  3.8475 -2.3684
 2047SOL     OW17599   1.467   3.100   6.477  0.0157  0.6077  0.2129
 2047SOL    HW117600   1.449   3.038   6.548 -1.6459 -0.8624 -1.4865
 2047SOL    HW217601   1.382   3.132   6.448 -0.6110  0.3260  1.7581
 2048SOL     OW17602   1.528   2.916   1.943  0.1670  0.2629  0.0875
 2048SOL    HW117603   1.620   2.929   1.920  0.0062 -0.8919 -1.2073
 2048SOL    HW217604   1.533   2.971   2.022 -0.8044  0.3062  0.1199
 2049SOL     OW17605   1.823   1.031  16.461  0.0040 -0.7372 -0.7633
 2049SOL    HW117606   1.867   1.016  16.378 -0.2559  0.3784 -1.0975
 2049SOL    HW217607   1.741   1.064  16.425 -0.1835  0.6141  0.8881
 2050SOL     OW17608   3.312   3.241   4.718  0.0197 -0.4158 -0.2488
 2050SOL    HW117609   3.291   3.188   4.796  0.0658  0.7046  0.5262
 2050SOL    HW217610   3.229   3.283   4.696 -0.8625 -0.6665  2.5517
 2051SOL     OW17611   3.493   2.501   3.432  0.6465 -0.1334 -0.0221
 2051SOL    HW117612   3.548   2.441   3.483  1.2211  0.8914  0.5709
 2051SOL    HW217613   3.415   2.447   3.419 -0.3906  1.5620 -0.8470
 2052SOL     OW17614   1.818   0.101   6.827  0.2481 -0.4937  0.7692
 2052SOL    HW117615   1.827   0.097   6.922  1.5866  1.1104  0.7079
 2052SOL    HW217616   1.770   0.021   6.806 -1.9950  0.7117  1.3377
 2053SOL     OW17617   2.702   2.566   7.334  1.0616  0.2505 -0.7699
 2053SOL    HW117618   2.773   2.612   7.289 -0.2915  2.8018 -0.3234
 2053SOL    HW217619   2.670   2.634   7.395 -1.9403  0.1999 -2.2820
 2054SOL     OW17620   0.296   0.630  12.600  0.1566  0.0243  0.4628
 2054SOL    HW117621   0.342   0.677  12.530  1.5025 -0.7718  0.8029
 2054SOL    HW217622   0.245   0.697  12.645  0.1986  0.2814  0.1287
 2055SOL     OW17623   4.402   0.112   5.085  0.6101  0.2810 -0.1067
 2055SOL    HW117624   4.493   0.083   5.090  0.7603  0.5506 -1.2413
 2055SOL    HW217625   4.386   0.102   4.991  0.4456 -2.4986  0.2094
 2056SOL     OW17626   3.339   3.470   6.851 -0.1104 -0.3016 -0.6335
 2056SOL    HW117627   3.396   3.523   6.795 -2.9257  2.0674 -1.2345
 2056SOL    HW217628   3.394   3.461   6.929  0.0094  0.9878 -0.5822
 2057SOL     OW17629   0.986   3.141   9.726 -0.0810 -0.2521  0.1255
 2057SOL    HW117630   1.055   3.196   9.763 -0.0015 -0.0678 -0.3049
 2057SOL    HW217631   0.915   3.202   9.706 -0.3829  0.0607  2.0749
 2058SOL     OW17632   3.980   3.541   9.026  0.3012 -0.1829 -0.3231
 2058SOL    HW117633   4.026   3.534   9.109  0.0642  0.0494 -0.1708
 2058SOL    HW217634   3.976   3.453   8.990 -1.6656  1.5642 -4.4586
 2059SOL     OW17635   1.419   3.156   2.375 -0.0845  0.0973 -0.0708
 2059SOL    HW117636   1.446   3.156   2.466  0.2187 -0.9626 -0.1656
 2059SOL    HW217637   1.326   3.135   2.368  0.1825 -2.0186  3.3619
 2060SOL     OW17638   4.001   3.216   0.519 -0.9934  0.1907  0.5492
 2060SOL    HW117639   3.918   3.182   0.485 -0.7685  0.2809 -0.0890
 2060SOL    HW217640   4.059   3.143   0.500 -0.7730  0.6478 -0.5218
 2061SOL     OW17641   3.263   3.241   1.689  0.2729  0.1641  0.1723
 2061SOL    HW117642   3.325   3.312   1.675  0.0418  0.6646  1.6439
 2061SOL    HW217643   3.319   3.177   1.733  0.8607  0.1392 -0.6223
 2062SOL     OW17644   1.258   4.037   3.473 -0.0658 -0.5219  0.1681
 2062SOL    HW117645   1.191   4.045   3.406  0.0873 -1.2180 -0.0683
 2062SOL    HW217646   1.270   3.942   3.474  1.3788 -0.3377  0.3617
 2063SOL     OW17647   1.617   3.251  15.404 -0.6409  0.3354  0.2876
 2063SOL    HW117648   1.548   3.292  15.456  0.1463 -1.5286  2.8152
 2063SOL    HW217649   1.574   3.192  15.342 -1.6141  1.2388  0.1085
 2064SOL     OW17650   3.802   1.813   1.982 -0.3114 -0.4626  0.5788
 2064SOL    HW117651   3.865   1.826   2.053  0.5524  2.6712 -0.7467
 2064SOL    HW217652   3.860   1.824   1.906 -0.2815  1.0092  0.8163
 2065SOL     OW17653   4.276   1.131   2.106 -0.5388 -0.5503  0.3434
 2065SOL    HW117654   4.259   1.150   2.013 -2.1683 -0.9025  0.5681
 2065SOL    HW217655   4.364   1.095   2.102  0.4832  1.8845  1.0174
 2066SOL     OW17656   0.693   1.957   7.380 -0.4106 -0.3200 -0.0845
 2066SOL    HW117657   0.784   1.981   7.364 -0.9897  0.5132 -2.1528
 2066SOL    HW217658   0.669   1.923   7.294  2.4703  1.9566 -1.7898
 2067SOL     OW17659   2.772   1.600   6.317  0.4405 -0.0065 -0.2118
 2067SOL    HW117660   2.737   1.642   6.239 -0.0661  0.9046  0.5001
 2067SOL    HW217661   2.806   1.516   6.286  1.4834 -0.7356  2.8518
 2068SOL     OW17662   1.477   2.583   0.482 -0.7261 -1.2758 -0.1234
 2068SOL    HW117663   1.433   2.665   0.462  0.7824 -0.6205 -0.8085
 2068SOL    HW217664   1.549   2.605   0.541 -1.0961 -2.9920  0.9695
 2069SOL     OW17665   1.250   2.435   8.319 -0.0733 -0.6585  0.0433
 2069SOL    HW117666   1.244   2.370   8.249 -0.4921  0.5851 -1.0793
 2069SOL    HW217667   1.238   2.379   8.396 -2.8492 -0.1184  0.0163
 2070SOL     OW17668   2.989   0.808   2.629  0.0221  0.2064 -0.7158
 2070SOL    HW117669   3.025   0.792   2.542 -0.9400 -2.7476 -0.5813
 2070SOL    HW217670   2.921   0.741   2.636  0.2321  0.0266 -0.3855
 2071SOL     OW17671   2.984   3.261   8.067 -0.6548 -0.3687  0.1995
 2071SOL    HW117672   3.077   3.276   8.082 -0.8443 -1.0348  2.1152
 2071SOL    HW217673   2.963   3.329   8.003  0.8838 -3.2940 -3.4139
 2072SOL     OW17674   1.223   0.567   6.536  0.6360 -0.2152  0.4847
 2072SOL    HW117675   1.201   0.657   6.512  2.0630 -0.6158 -2.3631
 2072SOL    HW217676   1.195   0.556   6.626  0.4091 -0.4784  0.3831
 2073SOL     OW17677   3.333   1.719   5.963 -0.3322  0.2673 -0.0518
 2073SOL    HW117678   3.415   1.764   5.942 -0.9156  2.3795  2.0893
 2073SOL    HW217679   3.280   1.793   5.995 -0.7757 -0.5957  1.2180
 2074SOL     OW17680   2.256   0.843   8.230 -0.1246  0.2983  0.7476
 2074SOL    HW117681   2.320   0.901   8.272  1.0795 -0.4237 -0.0835
 2074SOL    HW217682   2.192   0.910   8.202 -0.1786 -0.8375 -1.8974
 2075SOL     OW17683   4.360   3.554   0.716  0.3166  0.6012 -0.0625
 2075SOL    HW117684   4.379   3.468   0.754  0.0019  0.4980 -0.1372
 2075SOL    HW217685   4.391   3.619   0.779  1.0374  2.2101 -2.0699
 2076SOL     OW17686   4.405   3.954   7.375  0.1302  0.6766  0.7251
 2076SOL    HW117687   4.471   3.909   7.428 -0.1193  1.0446  1.3551
 2076SOL    HW217688   4.330   3.939   7.433  1.9412 -2.4353  2.2662
 2077SOL     OW17689   0.619   3.184   3.888  0.2871 -0.8388 -0.0022
 2077SOL    HW117690   0.660   3.125   3.825 -1.1050  0.0417 -1.7146
 2077SOL    HW217691   0.566   3.243   3.835  0.8172  1.9993  2.5776
 2078SOL     OW17692   0.364   0.764   0.997 -0.2868  0.4818 -0.3277
 2078SOL    HW117693   0.367   0.829   0.927  4.5349  1.2421  0.5642
 2078SOL    HW217694   0.274   0.737   0.978  0.5694 -1.6658 -1.3592
 2079SOL     OW17695   0.344   3.773  10.329 -0.1322  0.1533  0.0167
 2079SOL    HW117696   0.296   3.851  10.358 -2.8716 -1.9981  1.3536
 2079SOL    HW217697   0.434   3.776  10.362 -0.5392 -1.2755  1.2188
 2080SOL     OW17698   0.146   1.514   4.134  0.0765  0.2225 -0.3215
 2080SOL    HW117699   0.241   1.530   4.136  0.5741 -2.7387 -1.2155
 2080SOL    HW217700   0.139   1.569   4.055  0.6341  3.6441  2.0045
 2081SOL     OW17701   2.406   0.776   9.940  0.5949  0.2409 -0.2718
 2081SOL    HW117702   2.445   0.689   9.930 -0.7580 -0.3433 -0.5498
 2081SOL    HW217703   2.482   0.823   9.973  0.2438  0.1289  0.6900
 2082SOL     OW17704   1.661   0.074   1.242  0.2805  0.3458 -0.2157
 2082SOL    HW117705   1.631   0.121   1.164 -1.8278 -0.1565  0.3180
 2082SOL    HW217706   1.584   0.034   1.282 -0.0500  1.5925  0.4074
 2083SOL     OW17707   1.490   3.327  15.117 -0.4686  0.3071  0.2456
 2083SOL    HW117708   1.444   3.312  15.200 -2.7774 -0.4121 -1.1592
 2083SOL    HW217709   1.444   3.409  15.104 -0.1110  0.5555  0.5359
 2084SOL     OW17710   2.183   2.488   0.632 -0.3005  0.2543  0.1032
 2084SOL    HW117711   2.128   2.523   0.702  0.7321  0.9561  0.5660
 2084SOL    HW217712   2.266   2.532   0.647  0.5272 -1.6423  1.1812
 2085SOL     OW17713   0.287   1.341   5.759 -0.1945 -0.1407 -0.4890
 2085SOL    HW117714   0.238   1.422   5.776 -0.0657  0.0106 -0.8553
 2085SOL    HW217715   0.271   1.334   5.665  1.1592 -0.5284 -0.6886
 2086SOL     OW17716   0.712   3.396   3.022  0.2018  0.0583 -0.3029
 2086SOL    HW117717   0.769   3.419   3.096  0.7832 -0.8199 -0.4736
 2086SOL    HW217718   0.671   3.482   3.010  0.8793  0.3678 -0.3826
 2087SOL     OW17719   3.911   2.328   6.025 -0.2059  0.0465 -0.3730
 2087SOL    HW117720   3.822   2.316   6.059 -0.6593  0.6256 -1.3584
 2087SOL    HW217721   3.949   2.367   6.104  1.6164 -3.6292  0.5351
 2088SOL     OW17722   0.316   1.856   7.328 -0.2266 -0.5031 -0.3055
 2088SOL    HW117723   0.261   1.933   7.313 -2.0739 -1.5164  1.1693
 2088SOL    HW217724   0.288   1.840   7.419 -0.6473  0.4712 -0.2636
 2089SOL     OW17725   1.947   1.672   2.441 -0.0931 -0.4512 -0.0245
 2089SOL    HW117726   1.904   1.588   2.458 -0.5059 -0.3678 -0.6664
 2089SOL    HW217727   2.013   1.649   2.375  0.4251  2.1766 -0.4096
 2090SOL     OW17728   3.377   4.594   6.891  0.0021 -0.2830 -0.0079
 2090SOL    HW117729   3.424   4.604   6.808  0.4679 -1.8052  0.0776
 2090SOL    HW217730   3.411   4.674   6.932  0.1697  0.5163 -1.7271
 2091SOL     OW17731   4.152   1.081   6.870  0.0662 -0.2111 -1.0054
 2091SOL    HW117732   4.060   1.072   6.891  0.4529 -0.3345  0.5939
 2091SOL    HW217733   4.191   1.005   6.913  1.2956 -1.0228 -3.4954
 2092SOL     OW17734   2.941   3.486   1.581 -0.4332 -0.1931 -0.7325
 2092SOL    HW117735   2.984   3.465   1.498 -1.8908 -2.6405 -0.8556
 2092SOL    HW217736   2.968   3.422   1.647 -2.0970 -1.2511 -1.0736
 2093SOL     OW17737   2.275   4.088   3.359  0.2076 -0.5035 -0.4457
 2093SOL    HW117738   2.328   4.015   3.328 -0.4480 -1.0663 -0.2264
 2093SOL    HW217739   2.336   4.162   3.358 -1.0701  0.5743  2.3360
 2094SOL     OW17740   1.707   4.432   8.030  0.0124  0.0586 -0.1159
 2094SOL    HW117741   1.722   4.508   7.973  1.0849  0.0059  0.1039
 2094SOL    HW217742   1.692   4.369   7.960 -2.6077  0.7382 -0.1891
 2095SOL     OW17743   3.110   4.333   4.858  0.2799  0.4618  0.1263
 2095SOL    HW117744   3.078   4.255   4.905  3.4634 -0.1238  1.3218
 2095SOL    HW217745   3.090   4.400   4.924  4.3005  0.4520  1.3546
 2096SOL     OW17746   0.640   4.260   4.105 -0.2205 -0.3640  0.1184
 2096SOL    HW117747   0.657   4.310   4.185 -0.2177  0.7558 -0.5807
 2096SOL    HW217748   0.601   4.334   4.058 -0.4491  0.7823  2.1033
 2097SOL     OW17749   2.226   2.931   8.991 -0.3033  0.0578 -0.3646
 2097SOL    HW117750   2.316   2.899   8.984 -1.1448 -2.2404 -0.5058
 2097SOL    HW217751   2.180   2.864   8.941 -0.6581 -0.1518  0.2477
 2098SOL     OW17752   3.670   4.510  14.318 -0.0326 -0.0977  0.4178
 2098SOL    HW117753   3.623   4.467  14.390 -0.3964 -0.8009 -0.2450
 2098SOL    HW217754   3.759   4.476  14.318  0.4646  1.1919 -1.3220
 2099SOL     OW17755   3.973   2.260   2.227 -0.1164 -0.2594 -0.2747
 2099SOL    HW117756   3.975   2.249   2.132 -2.1657  1.2787 -0.4968
 2099SOL    HW217757   3.934   2.180   2.261 -1.2355  0.4683  0.1640
 2100SOL     OW17758   3.811   1.954   5.112  0.0816  0.4102  0.2597
 2100SOL    HW117759   3.793   1.867   5.148 -1.2284  1.0671  1.1754
 2100SOL    HW217760   3.880   1.930   5.050 -1.0511  0.4281 -1.0163
 2101SOL     OW17761   3.138   1.238   6.863 -0.4419 -0.2190  0.6921
 2101SOL    HW117762   3.086   1.314   6.889 -0.7256  0.3288 -1.4480
 2101SOL    HW217763   3.114   1.174   6.930 -3.5394  0.7611  0.5398
 2102SOL     OW17764   2.834   0.583   7.788 -0.0129 -0.1794 -0.2004
 2102SOL    HW117765   2.856   0.495   7.757  0.5236 -0.0543 -0.1765
 2102SOL    HW217766   2.898   0.600   7.858  0.5185  0.0766 -0.7481
 2103SOL     OW17767   2.189   3.736   5.614  0.3339 -0.0550  0.0383
 2103SOL    HW117768   2.165   3.659   5.665 -0.6270 -0.1737 -0.5862
 2103SOL    HW217769   2.257   3.707   5.553  1.3034  0.6936  0.7755
 2104SOL     OW17770   3.638   3.500   4.088  0.2130 -0.6403  0.1569
 2104SOL    HW117771   3.552   3.514   4.047  0.1551  0.1255  0.5363
 2104SOL    HW217772   3.623   3.522   4.180  3.6084 -1.0220  0.8069
 2105SOL     OW17773   1.089   2.661  12.255 -0.1101  0.0657  0.0209
 2105SOL    HW117774   1.177   2.651  12.220  0.0166  0.3640  0.2536
 2105SOL    HW217775   1.064   2.570  12.265  0.2054 -0.3395 -3.0960
 2106SOL     OW17776   3.565   2.581  14.273  0.0549  0.1076 -0.2798
 2106SOL    HW117777   3.625   2.531  14.217 -1.5447 -2.4773  0.3088
 2106SOL    HW217778   3.631   2.625  14.327 -0.9178 -0.6838  1.5400
 2107SOL     OW17779   3.716   2.376  14.108  0.2589  0.6247 -0.3976
 2107SOL    HW117780   3.640   2.376  14.050  0.0712  0.3705 -0.1518
 2107SOL    HW217781   3.762   2.302  14.068 -1.7074 -0.9573  0.2544
 2108SOL     OW17782   0.308   1.689   2.724  0.4078  0.3426 -0.3489
 2108SOL    HW117783   0.288   1.770   2.770 -1.7958  0.8579 -2.2399
 2108SOL    HW217784   0.273   1.712   2.638  2.2780  2.4216 -0.5490
 2109SOL     OW17785   1.955   4.684   3.185  0.0260 -0.1198  0.2348
 2109SOL    HW117786   2.003   4.661   3.106 -1.4840  1.2138 -1.0789
 2109SOL    HW217787   1.870   4.648   3.158 -0.7747  0.5374  1.8850
 2110SOL     OW17788   3.893   1.194   3.758 -0.6639 -0.0269 -0.2658
 2110SOL    HW117789   3.963   1.148   3.803  0.5875 -0.3890 -2.5579
 2110SOL    HW217790   3.943   1.222   3.681  0.1820 -2.3553 -0.5472
 2111SOL     OW17791   2.795   1.522  14.572 -0.5808 -0.5618  0.0694
 2111SOL    HW117792   2.713   1.547  14.528 -1.5619 -1.9255  1.1251
 2111SOL    HW217793   2.852   1.533  14.495  0.2008  2.3269  1.0828
 2112SOL     OW17794   3.736   4.637   6.759  0.3654 -0.6585  0.1589
 2112SOL    HW117795   3.725   4.566   6.822 -0.1478 -1.5460 -0.9425
 2112SOL    HW217796   3.827   4.657   6.781  0.1974  1.0884 -0.7145
 2113SOL     OW17797   1.303   3.047   9.800  0.4113  0.2190 -0.3403
 2113SOL    HW117798   1.396   3.055   9.819  0.3525 -1.0782  0.5279
 2113SOL    HW217799   1.269   3.005   9.879 -1.0372  0.1119 -1.0047
 2114SOL     OW17800   1.228   3.162  14.800 -0.1020  0.1415 -0.0913
 2114SOL    HW117801   1.230   3.144  14.706 -0.2559 -0.2645 -0.0180
 2114SOL    HW217802   1.226   3.258  14.803 -1.8144  0.0924  0.6584
 2115SOL     OW17803   1.444   0.985  14.842 -0.1227  0.1222 -0.0192
 2115SOL    HW117804   1.508   0.988  14.913 -0.8918  2.9446  0.5495
 2115SOL    HW217805   1.501   1.023  14.775  0.0794 -0.1137  0.0177
 2116SOL     OW17806   0.131   0.069  12.617  0.0108 -0.4712  0.0487
 2116SOL    HW117807   0.150   0.134  12.684 -5.1729  1.6092 -0.4741
 2116SOL    HW217808   0.160   4.716  12.665  0.1240  0.6089  1.7358
 2117SOL     OW17809   1.160   0.711   3.956 -0.0826 -0.8037  0.4791
 2117SOL    HW117810   1.175   0.687   3.865  0.7707  1.1827  0.0910
 2117SOL    HW217811   1.205   0.648   4.012  3.4702  1.7334  0.4779
 2118SOL     OW17812   3.539   0.386   2.756 -0.1537 -0.2682  0.0078
 2118SOL    HW117813   3.582   0.356   2.676  0.4151 -0.0208  0.2217
 2118SOL    HW217814   3.466   0.324   2.757  0.5866 -1.1444 -0.1423
 2119SOL     OW17815   3.193   3.822   4.805 -0.3341 -0.4346 -0.2532
 2119SOL    HW117816   3.242   3.889   4.853 -0.9362  0.9572 -1.6018
 2119SOL    HW217817   3.121   3.874   4.769  0.7926  1.3765  0.0924
 2120SOL     OW17818   4.207   2.632   5.778 -0.5390  0.4328  0.2734
 2120SOL    HW117819   4.204   2.583   5.696 -2.2997 -2.0926  1.8275
 2120SOL    HW217820   4.217   2.723   5.751 -0.4599  0.5035  0.5341
 2121SOL     OW17821   0.453   2.699   8.997 -0.1645 -0.2932  0.3533
 2121SOL    HW117822   0.525   2.743   9.042  0.8486 -1.0815 -0.4912
 2121SOL    HW217823   0.499   2.677   8.916  4.5239  1.4871  2.5336
 2122SOL     OW17824   3.654   3.206   9.041  0.3505 -0.5743 -0.4363
 2122SOL    HW117825   3.733   3.153   9.056  0.8769  0.2490 -0.3051
 2122SOL    HW217826   3.697   3.274   8.990  1.4474 -0.1410  1.0586
 2123SOL     OW17827   3.035   0.217   2.800 -0.4879 -0.1314  0.6191
 2123SOL    HW117828   3.058   0.170   2.881  1.7680  0.1107  0.1239
 2123SOL    HW217829   2.941   0.212   2.814 -0.9203  1.1578 -1.9697
 2124SOL     OW17830   1.617   3.555   6.651 -0.2801 -0.1697  0.6292
 2124SOL    HW117831   1.695   3.587   6.607 -0.8376  1.4750  0.8392
 2124SOL    HW217832   1.620   3.460   6.638 -0.9525 -0.1436  0.2620
 2125SOL     OW17833   3.046   0.656   8.485  0.2659 -0.2023 -0.0874
 2125SOL    HW117834   3.020   0.566   8.465  0.2373 -0.6113  1.7991
 2125SOL    HW217835   2.972   0.692   8.535  0.5478 -1.2956  1.1058
 2126SOL     OW17836   2.893   1.931   2.891  0.0262 -0.0993  0.1316
 2126SOL    HW117837   2.912   2.024   2.884  0.2752 -0.1095  0.6888
 2126SOL    HW217838   2.961   1.887   2.841 -0.0950  0.5456 -0.5997
 2127SOL     OW17839   0.303   0.818  10.859  0.3017  0.0088  0.1355
 2127SOL    HW117840   0.343   0.787  10.940 -1.7843 -1.5599  0.5637
 2127SOL    HW217841   0.376   0.868  10.822  1.8489 -0.1489  3.0297
 2128SOL     OW17842   3.557   4.189   8.410 -0.2000  0.2889  0.4442
 2128SOL    HW117843   3.564   4.155   8.499 -2.7121 -1.0642  0.1356
 2128SOL    HW217844   3.644   4.227   8.407 -0.1926  0.1752 -0.7447
 2129SOL     OW17845   2.315   1.898   7.840  0.0661 -0.9535 -0.5250
 2129SOL    HW117846   2.223   1.911   7.816 -0.7119 -1.7214  2.0443
 2129SOL    HW217847   2.302   1.854   7.924 -1.2108 -1.5003 -1.0110
 2130SOL     OW17848   3.863   2.917   3.332  0.0721  0.8175 -0.2114
 2130SOL    HW117849   3.843   2.859   3.258  3.2500 -1.2519  0.5019
 2130SOL    HW217850   3.945   2.874   3.359 -0.4388 -0.7067 -1.0781
 2131SOL     OW17851   2.396   3.974   6.390  0.0769 -0.1024 -0.1461
 2131SOL    HW117852   2.462   3.937   6.448 -1.8061 -0.1095  2.0136
 2131SOL    HW217853   2.322   3.965   6.450  0.5730 -0.5008  0.3903
 2132SOL     OW17854   3.094   2.892  15.162  0.7652  0.3136  0.3156
 2132SOL    HW117855   3.110   2.911  15.070  2.9187  1.1508  0.8771
 2132SOL    HW217856   3.115   2.974  15.207  0.4097  0.2819  0.5467
 2133SOL     OW17857   2.597   3.406  11.557 -0.1651 -0.2614 -0.6862
 2133SOL    HW117858   2.559   3.318  11.562  0.2550 -0.4004  0.1408
 2133SOL    HW217859   2.548   3.457  11.492  0.1408 -1.0789 -1.5429
 2134SOL     OW17860   2.311   0.838   3.158 -0.3171  0.1808 -0.0034
 2134SOL    HW117861   2.301   0.750   3.195 -0.9659  0.7795  1.2463
 2134SOL    HW217862   2.402   0.829   3.131 -0.4710  1.5544 -0.9708
 2135SOL     OW17863   3.461   1.585   7.228 -0.4773  0.1834  0.1058
 2135SOL    HW117864   3.454   1.497   7.192  3.4499 -0.3408  0.5814
 2135SOL    HW217865   3.442   1.572   7.321 -0.4595  1.2303  0.2545
 2136SOL     OW17866   0.026   2.164  10.911  0.2977  0.2865 -0.4736
 2136SOL    HW117867   0.012   2.182  10.818 -1.2392  2.2467  0.1250
 2136SOL    HW217868   4.697   2.085  10.915  1.1895 -0.3271 -0.6560
 2137SOL     OW17869   2.784   0.370   6.909 -1.1378  0.0439 -0.3523
 2137SOL    HW117870   2.715   0.413   6.859 -2.2176 -2.4554 -0.9836
 2137SOL    HW217871   2.735   0.393   6.989  0.2409  0.8100  0.2737
 2138SOL     OW17872   1.817   3.252   7.495  0.1808 -0.5867  0.7866
 2138SOL    HW117873   1.839   3.162   7.470  0.9722 -0.1820  0.0320
 2138SOL    HW217874   1.726   3.237   7.520 -0.9987  0.0077 -3.0886
 2139SOL     OW17875   1.517   0.496  16.834 -0.1862 -0.2801  0.2063
 2139SOL    HW117876   1.571   0.573  16.816 -0.4109 -0.0099  0.6712
 2139SOL    HW217877   1.520   0.500  16.930  0.3834 -0.9478  0.2141
 2140SOL     OW17878   0.112   2.943  15.249  0.2176 -0.4409  0.2852
 2140SOL    HW117879   0.073   2.876  15.305  0.3241  0.1683  1.0813
 2140SOL    HW217880   0.189   2.970  15.300 -0.7929  1.9360  0.5577
 2141SOL     OW17881   1.179   1.929   5.727 -0.8173  0.6241 -0.4087
 2141SOL    HW117882   1.142   1.986   5.661  0.4077  2.4947  0.5007
 2141SOL    HW217883   1.109   1.936   5.792 -1.6372 -1.0867 -1.1212
 2142SOL     OW17884   3.416   3.688  14.052 -0.4087  0.1624 -0.3504
 2142SOL    HW117885   3.387   3.616  14.108  0.5392 -0.7400 -1.0167
 2142SOL    HW217886   3.465   3.745  14.111  0.8051  0.2443 -1.4369
 2143SOL     OW17887   3.739   3.468  12.466 -0.0310 -0.6090  0.2775
 2143SOL    HW117888   3.815   3.440  12.517 -0.0121  3.2560  2.3311
 2143SOL    HW217889   3.693   3.388  12.442 -1.9347  0.5319  0.1604
 2144SOL     OW17890   1.597   2.751   4.996 -0.0088 -0.1170  0.2238
 2144SOL    HW117891   1.511   2.783   4.969  0.1413 -1.6268 -2.0654
 2144SOL    HW217892   1.650   2.829   5.009 -0.5078  0.6313 -2.2546
 2145SOL     OW17893   3.815   1.998   4.207  0.0806  0.4476 -0.3740
 2145SOL    HW117894   3.842   1.967   4.121  0.7723  1.4389 -0.5069
 2145SOL    HW217895   3.849   2.087   4.215  0.3031  0.4387 -1.3122
 2146SOL     OW17896   4.033   3.054   8.216 -0.9114 -0.4673  0.1263
 2146SOL    HW117897   4.045   3.062   8.310  1.4925  0.6609 -0.2745
 2146SOL    HW217898   4.128   3.050   8.201 -0.6525 -1.2775  1.9721
 2147SOL     OW17899   0.546   1.448   9.459  0.0146 -0.6668  0.1187
 2147SOL    HW117900   0.533   1.542   9.462  1.4699 -0.4754  0.3707
 2147SOL    HW217901   0.637   1.437   9.489  0.3251  0.3995 -0.4438
 2148SOL     OW17902   0.796   0.207   1.376 -0.1137 -0.1010 -0.8956
 2148SOL    HW117903   0.881   0.163   1.378 -0.8845 -1.5121  0.4437
 2148SOL    HW217904   0.753   0.125   1.352  1.3894 -0.1699 -3.3748
 2149SOL     OW17905   2.969   0.798   5.520 -0.2791 -0.0497 -0.5435
 2149SOL    HW117906   2.986   0.704   5.531 -0.4573  0.0684  0.6872
 2149SOL    HW217907   2.877   0.799   5.545  0.0975 -1.9005  0.9007
 2150SOL     OW17908   4.285   0.353   9.955  0.2994 -0.0938 -0.6548
 2150SOL    HW117909   4.319   0.364   9.866 -0.5891  1.8892 -0.7454
 2150SOL    HW217910   4.200   0.394   9.937  0.4024  0.1715 -0.5349
 2151SOL     OW17911   1.529   2.387   2.121 -1.0583 -0.0588 -0.1732
 2151SOL    HW117912   1.524   2.428   2.207  0.3405  0.1599 -0.2070
 2151SOL    HW217913   1.596   2.322   2.141  0.5674  0.9063 -2.4744
 2152SOL     OW17914   1.599   2.353   8.983  0.3222 -0.4756  0.0614
 2152SOL    HW117915   1.672   2.378   9.039  0.4675  0.2373 -0.4443
 2152SOL    HW217916   1.647   2.316   8.909 -0.4012 -0.3007 -0.4945
 2153SOL     OW17917   4.476   1.118   4.701  0.0518  0.3159  0.0539
 2153SOL    HW117918   4.454   1.059   4.629 -0.8709  0.6463  0.0578
 2153SOL    HW217919   4.414   1.094   4.770 -0.8625  3.5518  0.4059
 2154SOL     OW17920   4.574   3.116   9.709 -0.7288 -0.0855 -0.9164
 2154SOL    HW117921   4.632   3.167   9.653  0.7343 -0.9192 -0.1406
 2154SOL    HW217922   4.503   3.181   9.711 -1.1321 -0.5343 -0.5431
 2155SOL     OW17923   0.156   4.717   2.921 -0.6045 -0.0016 -0.3509
 2155SOL    HW117924   0.092   4.686   2.856  0.2530 -0.8692 -0.7794
 2155SOL    HW217925   0.100   0.008   2.997  0.8472  2.4871  0.1987
 2156SOL     OW17926   0.410   1.437   6.343 -0.0176 -0.1607  0.4089
 2156SOL    HW117927   0.503   1.413   6.342 -0.2168 -0.9427  0.4015
 2156SOL    HW217928   0.377   1.430   6.253 -0.0686 -0.1791  0.4292
 2157SOL     OW17929   2.338   0.785   3.677  0.5535  0.3303 -0.1181
 2157SOL    HW117930   2.372   0.700   3.650  1.5252  0.2760  1.2573
 2157SOL    HW217931   2.280   0.801   3.603  2.2109  0.1156 -1.4742
 2158SOL     OW17932   3.591   4.470   9.487  0.8444  0.5355  0.2112
 2158SOL    HW117933   3.508   4.423   9.495  1.3179 -0.2226  0.6719
 2158SOL    HW217934   3.636   4.452   9.569  0.5875  0.2589  0.2913
 2159SOL     OW17935   2.278   1.601   2.456  0.2424  0.4001 -0.0727
 2159SOL    HW117936   2.218   1.561   2.519  1.5826  0.7366  1.4215
 2159SOL    HW217937   2.353   1.630   2.508  2.2628  0.1856 -2.9224
 2160SOL     OW17938   2.872   4.429   5.900  0.0746 -0.4098  0.4554
 2160SOL    HW117939   2.892   4.349   5.949 -0.7049 -1.1130 -0.3842
 2160SOL    HW217940   2.777   4.433   5.894  0.2588  3.2485  0.1415
 2161SOL     OW17941   2.888   1.220   4.886 -0.3924 -0.1081 -0.5100
 2161SOL    HW117942   2.856   1.139   4.924 -0.5919 -0.7448 -2.0207
 2161SOL    HW217943   2.839   1.220   4.804  0.9926  1.6171 -1.3640
 2162SOL     OW17944   3.828   0.782   6.413 -0.4662  0.2409  0.1556
 2162SOL    HW117945   3.826   0.795   6.318  1.3978 -1.4124 -0.1206
 2162SOL    HW217946   3.814   0.873   6.439 -0.1795  0.5443 -0.7725
 2163SOL     OW17947   0.289   4.593  11.048 -0.3465  0.8130 -0.2731
 2163SOL    HW117948   0.320   4.661  10.987  1.4953  1.1551  1.0427
 2163SOL    HW217949   0.212   4.556  11.005  0.7431 -1.2732 -0.3978
 2164SOL     OW17950   0.239   4.439   4.973 -0.4816 -0.4252 -0.0216
 2164SOL    HW117951   0.199   4.417   5.057 -0.3233 -0.0783  0.1459
 2164SOL    HW217952   0.218   4.532   4.982  1.2068  0.1076 -1.4390
 2165SOL     OW17953   2.996   4.565   7.335  0.6199  0.7170  0.0617
 2165SOL    HW117954   2.906   4.597   7.340  0.5301  0.1053  2.1548
 2165SOL    HW217955   3.010   4.565   7.240 -1.8173  1.4071 -0.2930
 2166SOL     OW17956   2.702   0.412   2.700  0.5096  0.2658  0.5426
 2166SOL    HW117957   2.707   0.329   2.747 -1.4056  1.0077  2.0512
 2166SOL    HW217958   2.751   0.392   2.621  1.3679  0.8998  0.9105
 2167SOL     OW17959   3.432   0.262  11.944  0.2499 -0.1922 -0.5841
 2167SOL    HW117960   3.513   0.283  11.991  2.4489 -0.0785 -4.4652
 2167SOL    HW217961   3.456   0.176  11.908 -0.8533 -0.0971 -1.5288
 2168SOL     OW17962   1.096   3.557   1.591 -0.9775  0.1412  0.0527
 2168SOL    HW117963   1.047   3.523   1.666 -1.3793  0.0010 -0.2734
 2168SOL    HW217964   1.179   3.512   1.606 -0.0422  1.4058 -1.2351
 2169SOL     OW17965   1.263   1.454   2.585  0.5692 -0.1325  0.0756
 2169SOL    HW117966   1.357   1.441   2.573  0.8113  1.4127  0.2404
 2169SOL    HW217967   1.258   1.427   2.676 -1.2472 -0.7971 -0.2318
 2170SOL     OW17968   2.151   2.270  10.711 -0.2980 -0.0311 -0.1271
 2170SOL    HW117969   2.150   2.221  10.629 -1.3450  3.3861 -2.1767
 2170SOL    HW217970   2.244   2.282  10.730 -0.1701 -0.1014 -0.7015
 2171SOL     OW17971   4.253   4.526  13.149 -0.0874 -0.4228  0.2403
 2171SOL    HW117972   4.300   4.572  13.218  0.4231 -0.6027  0.0155
 2171SOL    HW217973   4.197   4.464  13.194  0.8217 -0.4781  1.2943
 2172SOL     OW17974   3.618   3.095  15.944  0.2634  0.4650 -0.0902
 2172SOL    HW117975   3.707   3.063  15.958  0.0991  0.3885  0.7881
 2172SOL    HW217976   3.624   3.170  15.886  0.1349 -0.3074 -1.0893
 2173SOL     OW17977   0.260   3.787   4.488  0.0962 -0.0405  0.2489
 2173SOL    HW117978   0.188   3.736   4.525  2.4283 -0.9038  3.6466
 2173SOL    HW217979   0.258   3.873   4.530 -0.5727 -0.1962  0.5306
 2174SOL     OW17980   2.239   3.278   4.864  0.5783 -0.6901 -0.2816
 2174SOL    HW117981   2.282   3.362   4.881  0.2636 -0.2682 -1.5593
 2174SOL    HW217982   2.311   3.233   4.820  2.4216  2.6088 -0.6526
 2175SOL     OW17983   0.951   0.647   6.598  0.0973 -0.1681 -0.1735
 2175SOL    HW117984   0.931   0.716   6.535  0.5780 -0.5471 -0.7370
 2175SOL    HW217985   0.993   0.683   6.677  1.1054 -1.4208 -0.1274
 2176SOL     OW17986   4.464   2.071  10.601 -0.4908  0.4945 -0.4248
 2176SOL    HW117987   4.555   2.045  10.618  0.2184  1.8601 -2.0832
 2176SOL    HW217988   4.453   2.029  10.515 -1.0108 -0.3710  0.0713
 2177SOL     OW17989   4.241   2.323   7.918 -0.0610  0.0699 -0.1261
 2177SOL    HW117990   4.185   2.321   7.995 -1.1776  0.3025 -0.9294
 2177SOL    HW217991   4.264   2.231   7.916  0.4540  0.2070 -0.8142
 2178SOL     OW17992   2.361   1.543   1.084 -1.0358 -0.3432 -0.0813
 2178SOL    HW117993   2.292   1.596   1.122 -1.4301 -1.0690  0.2102
 2178SOL    HW217994   2.430   1.564   1.147 -0.7604 -0.3488 -0.3807
 2179SOL     OW17995   3.054   0.597  14.185  0.6043 -0.1942 -0.5069
 2179SOL    HW117996   3.145   0.586  14.212  0.5738  1.5532  0.3417
 2179SOL    HW217997   3.048   0.683  14.145  0.2599 -0.0934 -0.2458
 2180SOL     OW17998   0.882   3.078   0.447  0.3663 -0.6268  0.8380
 2180SOL    HW117999   0.854   3.155   0.397  0.0064  0.1797  2.2980
 2180SOL    HW218000   0.887   3.004   0.386  0.4921 -1.6270  2.0629
 2181SOL     OW18001   4.518   2.122   7.319  0.2731 -0.6750  0.0974
 2181SOL    HW118002   4.583   2.067   7.276  0.4411 -0.8458  0.5615
 2181SOL    HW218003   4.472   2.164   7.247  0.4057  0.2022  0.5201
 2182SOL     OW18004   3.570   1.790  17.077  0.2140  0.2130 -0.0192
 2182SOL    HW118005   3.552   1.732  17.003 -1.3252  0.6234  0.0323
 2182SOL    HW218006   3.649   1.838  17.052  0.9248  0.2938  2.4269
 2183SOL     OW18007   4.320   4.322  15.775  0.0950 -0.0729  0.3852
 2183SOL    HW118008   4.318   4.330  15.679  1.5525  0.7869  0.4121
 2183SOL    HW218009   4.249   4.260  15.787  0.6951 -0.8154  0.1277
 2184SOL     OW18010   2.566   1.626   7.034 -0.3887 -0.2911  0.4693
 2184SOL    HW118011   2.630   1.658   7.098  3.0618 -0.0043 -3.1495
 2184SOL    HW218012   2.515   1.704   7.011  2.5662  1.4303 -0.3092
 2185SOL     OW18013   0.813   4.271   3.270  0.1054  0.5003 -0.0474
 2185SOL    HW118014   0.803   4.339   3.336  0.6528  0.7205 -0.1919
 2185SOL    HW218015   0.754   4.306   3.202  1.4066  1.3156 -0.7424
 2186SOL     OW18016   0.634   4.465  16.931  0.0299 -0.3319 -0.0553
 2186SOL    HW118017   0.545   4.448  16.962 -0.0498 -0.2024 -0.2104
 2186SOL    HW218018   0.654   4.545  16.981  0.7517 -0.8281  0.4501
 2187SOL     OW18019   1.375   1.307   6.582 -0.1337  0.3417  0.3806
 2187SOL    HW118020   1.436   1.310   6.508 -2.0511  0.5915 -1.1912
 2187SOL    HW218021   1.339   1.394   6.599 -2.0714 -0.2475 -0.6687
 2188SOL     OW18022   0.947   2.935   3.110  0.3483  0.3491 -0.2219
 2188SOL    HW118023   0.857   2.953   3.084  0.1834  2.6910  1.9196
 2188SOL    HW218024   0.952   2.858   3.055 -1.0799  1.8163 -2.4304
 2189SOL     OW18025   0.472   0.986   1.446 -0.4625  0.3758 -0.3914
 2189SOL    HW118026   0.446   1.039   1.522 -0.8480 -0.5973  0.1506
 2189SOL    HW218027   0.395   0.980   1.389 -1.2133 -0.9127  0.7554
 2190SOL     OW18028   4.302   2.421   4.002  0.3173 -0.0593  0.4573
 2190SOL    HW118029   4.360   2.483   4.046 -0.0548  0.5502  0.0984
 2190SOL    HW218030   4.288   2.449   3.911  1.2995 -0.3904  0.2049
 2191SOL     OW18031   3.409   1.700   3.477  0.3000 -0.6752  0.2843
 2191SOL    HW118032   3.352   1.625   3.461 -1.8537  1.6100 -2.8013
 2191SOL    HW218033   3.467   1.694   3.402  0.3243  1.3390  0.1415
 2192SOL     OW18034   3.246   0.547   2.681  0.0786  0.3771  0.5793
 2192SOL    HW118035   3.160   0.532   2.642 -0.2701 -1.1925  1.9279
 2192SOL    HW218036   3.232   0.543   2.776 -0.0860 -0.6192  0.5213
 2193SOL     OW18037   1.381   0.229  16.035  0.0356 -0.4096  0.4278
 2193SOL    HW118038   1.421   0.234  16.121  0.2592  0.6373  0.2638
 2193SOL    HW218039   1.446   0.278  15.985 -0.9324 -0.3742 -0.8213
 2194SOL     OW18040   2.107   2.071  17.447  0.5234 -0.0948  0.6847
 2194SOL    HW118041   2.158   1.996  17.417  1.3279  0.6275  0.2366
 2194SOL    HW218042   2.182   2.100  17.498  0.1868  2.1358 -0.0763
 2195SOL     OW18043   3.618   2.177   8.200  0.0629 -0.8662  0.3675
 2195SOL    HW118044   3.543   2.201   8.145  0.2194 -1.0163  0.0925
 2195SOL    HW218045   3.690   2.235   8.177 -2.1257  1.1211 -1.5317
 2196SOL     OW18046   4.723   3.136   7.239 -0.1563 -0.4768  0.0641
 2196SOL    HW118047   0.038   3.215   7.202 -1.2516 -0.6863 -1.5811
 2196SOL    HW218048   4.656   3.182   7.289 -0.6330 -0.3724 -0.6754
 2197SOL     OW18049   2.169   1.741   9.462 -0.4087  0.2148 -0.3554
 2197SOL    HW118050   2.143   1.817   9.513  0.9796 -0.9225  2.0551
 2197SOL    HW218051   2.202   1.784   9.383  1.1889 -0.6403 -0.1479
 2198SOL     OW18052   1.678   3.764  14.673 -0.4217  0.3168 -0.6760
 2198SOL    HW118053   1.642   3.688  14.719  0.8632 -0.1180 -0.3889
 2198SOL    HW218054   1.631   3.836  14.715  0.5805  1.5004 -1.5550
 2199SOL     OW18055   1.571   2.533   5.852 -0.0681 -0.3993 -0.1980
 2199SOL    HW118056   1.559   2.438   5.848  2.0645 -0.5629 -3.3261
 2199SOL    HW218057   1.656   2.538   5.895 -0.6600 -0.3832  0.9695
 2200SOL     OW18058   0.595   4.445  16.324  0.0097  0.2937  0.4979
 2200SOL    HW118059   0.504   4.469  16.342 -0.1156 -0.4642  0.8847
 2200SOL    HW218060   0.644   4.455  16.405  0.9125  1.6568 -0.2233
 2201SOL     OW18061   2.060   2.545   5.991  0.0120  0.1201 -0.0976
 2201SOL    HW118062   2.088   2.592   6.070  0.1193 -0.0932 -0.0097
 2201SOL    HW218063   2.111   2.465   6.002  0.9591  1.0919  2.6536
 2202SOL     OW18064   1.952   2.497  10.154 -0.1362 -0.2366 -0.4194
 2202SOL    HW118065   1.960   2.440  10.077  0.8027 -1.1574  0.3416
 2202SOL    HW218066   1.870   2.476  10.197  1.6679 -0.2226  3.0343
 2203SOL     OW18067   2.178   3.601   8.373 -0.1243 -0.4348 -0.0448
 2203SOL    HW118068   2.221   3.521   8.342  0.3530 -0.5553  0.9396
 2203SOL    HW218069   2.188   3.584   8.466  4.1381  1.6823 -0.1016
 2204SOL     OW18070   3.219   0.729  12.570 -0.6434  0.3065  0.1455
 2204SOL    HW118071   3.181   0.762  12.489  1.5752  2.3990 -0.0424
 2204SOL    HW218072   3.298   0.690  12.534 -0.5579  0.7321 -0.1276
 2205SOL     OW18073   3.347   3.296  15.196 -0.7549 -0.2594  0.1619
 2205SOL    HW118074   3.421   3.354  15.217 -0.2409 -0.8935  0.1222
 2205SOL    HW218075   3.378   3.260  15.113 -1.4932 -0.2381 -0.1148
 2206SOL     OW18076   0.202   3.536   7.686 -0.5737  0.4928 -0.0687
 2206SOL    HW118077   0.119   3.575   7.715  0.4984  0.4034  3.1209
 2206SOL    HW218078   0.206   3.552   7.591  0.1839  1.4771  0.1316
 2207SOL     OW18079   3.764   2.719  14.729  0.0090  0.0788 -0.3206
 2207SOL    HW118080   3.707   2.673  14.790  0.3395  2.3607  1.7225
 2207SOL    HW218081   3.834   2.735  14.793 -1.4369  1.8687  0.8357
 2208SOL     OW18082   2.750   1.422   2.495  0.5888 -0.3274  0.5843
 2208SOL    HW118083   2.796   1.427   2.579 -1.4718  1.3112  1.6010
 2208SOL    HW218084   2.656   1.420   2.514  0.4767 -0.9868  0.0018
 2209SOL     OW18085   2.001   3.321   4.719 -0.3052  0.0179  0.8069
 2209SOL    HW118086   2.087   3.298   4.754 -0.1017 -2.0349 -1.0652
 2209SOL    HW218087   1.999   3.409   4.756  1.7559  1.1641 -1.8385
 2210SOL     OW18088   1.104   3.497  15.274 -0.2182  0.0052 -0.1808
 2210SOL    HW118089   1.170   3.525  15.211  0.6588 -1.0850  0.2550
 2210SOL    HW218090   1.106   3.402  15.263  0.8735  0.0272 -0.2282
 2211SOL     OW18091   2.537   2.206   6.039 -0.0999  0.1647  0.1332
 2211SOL    HW118092   2.489   2.134   5.997  0.2954 -0.0633  0.0705
 2211SOL    HW218093   2.624   2.167   6.027 -0.5534 -0.4327 -1.2513
 2212SOL     OW18094   1.697   4.685   3.411 -0.3107 -0.2350 -0.2746
 2212SOL    HW118095   1.677   4.594   3.386 -1.7623 -0.0273  0.0991
 2212SOL    HW218096   1.656   4.724   3.333 -1.4893 -0.5020  0.2093
 2213SOL     OW18097   1.882   2.732   2.163  0.2441  0.2756 -0.1887
 2213SOL    HW118098   1.955   2.672   2.153  0.2744  0.1390  0.8561
 2213SOL    HW218099   1.932   2.814   2.157  2.1693 -1.1453 -3.3914
 2214SOL     OW18100   3.770   3.188   8.460  0.6743  0.2162 -0.1830
 2214SOL    HW118101   3.832   3.247   8.417  1.8837  0.7500  2.2547
 2214SOL    HW218102   3.719   3.145   8.392  1.3291 -0.4358 -0.2521
 2215SOL     OW18103   2.081   0.299   2.849  0.0387  0.4606  0.5620
 2215SOL    HW118104   2.082   0.342   2.934 -3.9434  2.2726 -0.3500
 2215SOL    HW218105   2.144   0.228   2.865 -0.2264 -0.4525 -2.3476
 2216SOL     OW18106   3.176   3.915   1.683  0.4561  0.3261  0.0338
 2216SOL    HW118107   3.180   3.927   1.778  0.6527 -2.2064  0.3335
 2216SOL    HW218108   3.248   3.974   1.660 -0.8890  2.5232  1.4771
 2217SOL     OW18109   1.848   0.971   5.581 -0.1016  0.7033 -0.2485
 2217SOL    HW118110   1.878   0.946   5.494  2.5527 -0.3471  0.9438
 2217SOL    HW218111   1.781   0.903   5.586  0.7766 -0.2186 -1.0030
 2218SOL     OW18112   2.996   3.096  12.383 -0.3911  0.1160 -0.3455
 2218SOL    HW118113   2.997   3.182  12.342 -0.3792  0.5013  0.4732
 2218SOL    HW218114   3.065   3.053  12.331  0.5169  0.5523  0.5126
 2219SOL     OW18115   4.524   1.463   4.696 -0.3599 -0.0219  0.7244
 2219SOL    HW118116   4.456   1.489   4.634  0.5657  1.3799  0.2931
 2219SOL    HW218117   4.541   1.374   4.666  1.6386 -0.1247  2.1412
 2220SOL     OW18118   3.069   3.421   6.598  0.4655  0.3701  0.1947
 2220SOL    HW118119   3.157   3.408   6.562  0.5034 -0.9772  0.7846
 2220SOL    HW218120   3.017   3.444   6.521  1.4297 -0.1823 -0.6437
 2221SOL     OW18121   2.100   1.105   8.152 -0.0958  0.5037  0.2685
 2221SOL    HW118122   2.118   1.143   8.066 -1.1336  1.2524  0.3805
 2221SOL    HW218123   2.007   1.089   8.133  0.1316 -0.2377 -0.2148
 2222SOL     OW18124   3.242   4.247   5.418  0.5225 -0.4769  0.0962
 2222SOL    HW118125   3.207   4.220   5.503 -0.1513 -0.6013 -0.2205
 2222SOL    HW218126   3.331   4.274   5.441  0.0840  1.7760 -0.8884
 2223SOL     OW18127   3.003   2.602   8.146  0.7057 -0.2026  0.1269
 2223SOL    HW118128   3.058   2.574   8.072  1.7657  0.6678  0.5925
 2223SOL    HW218129   3.078   2.606   8.205  1.6969 -0.6753 -1.0693
 2224SOL     OW18130   2.795   0.143  10.746 -0.3489  0.9462  0.2974
 2224SOL    HW118131   2.889   0.128  10.736 -0.8463 -0.8962 -1.4858
 2224SOL    HW218132   2.769   0.110  10.660  1.1890 -1.1013  0.6248
 2225SOL     OW18133   0.228   2.077  11.770 -0.0631  0.1457  0.8095
 2225SOL    HW118134   0.298   2.140  11.755 -0.4057 -0.1589 -2.1174
 2225SOL    HW218135   0.256   2.013  11.705 -0.2368  0.8224  0.0713
 2226SOL     OW18136   0.619   2.667  15.497  0.2679 -0.1512 -0.2267
 2226SOL    HW118137   0.660   2.639  15.415  0.7735 -1.4268  0.4650
 2226SOL    HW218138   0.655   2.756  15.506  0.0703 -0.1778  0.7729
 2227SOL     OW18139   0.737   2.844   6.114 -0.1484  0.0386 -0.3164
 2227SOL    HW118140   0.802   2.801   6.058 -0.6152  1.4894 -1.9899
 2227SOL    HW218141   0.667   2.864   6.052  0.3391  0.4248 -0.7492
 2228SOL     OW18142   0.523   1.944   8.719  0.4223 -0.2057  0.3985
 2228SOL    HW118143   0.524   1.849   8.710 -0.7932 -0.2861  1.1002
 2228SOL    HW218144   0.616   1.965   8.714  0.4223 -0.3710 -0.3165
 2229SOL     OW18145   3.007   2.464   7.477 -0.4862  0.3258 -0.4626
 2229SOL    HW118146   3.038   2.535   7.421  0.8573  0.1028  0.0118
 2229SOL    HW218147   2.955   2.415   7.414 -1.4468  0.7635 -0.0304
 2230SOL     OW18148   2.418   4.185   7.096 -0.1325 -0.4941 -0.1131
 2230SOL    HW118149   2.378   4.132   7.165 -1.6053  1.3544  0.4557
 2230SOL    HW218150   2.376   4.269   7.115  0.8291  0.1132 -0.6826
 2231SOL     OW18151   1.268   0.706   8.437  0.0311  0.0615  0.1476
 2231SOL    HW118152   1.176   0.704   8.463 -0.2911 -0.6275 -1.0118
 2231SOL    HW218153   1.277   0.619   8.398  1.7837 -0.4794  1.7900
 2232SOL     OW18154   0.223   0.027   3.708  0.4304 -0.0193  0.4780
 2232SOL    HW118155   0.239   0.038   3.802 -3.5809  1.8404  0.9608
 2232SOL    HW218156   0.264   0.105   3.671  0.7416 -0.2542  0.3373
 2233SOL     OW18157   4.462   0.003   9.103 -0.2824 -0.0010  0.2394
 2233SOL    HW118158   4.369   0.002   9.126 -0.7250  2.3835 -1.5175
 2233SOL    HW218159   4.473   4.708   9.010 -1.6416  0.6234 -0.0584
 2234SOL     OW18160   0.466   3.586   3.859 -0.3333 -0.6029  0.1431
 2234SOL    HW118161   0.556   3.576   3.828 -0.2166  0.6863  0.0641
 2234SOL    HW218162   0.418   3.563   3.779  2.5749  0.0598 -1.7737
 2235SOL     OW18163   4.498   2.073   4.931  0.1013  0.0805  0.3787
 2235SOL    HW118164   4.531   1.983   4.931 -0.5028 -0.1379  0.5884
 2235SOL    HW218165   4.464   2.068   5.020  1.3531  1.3763  0.9436
 2236SOL     OW18166   1.471   0.578   3.858  0.9164 -0.3481  0.3250
 2236SOL    HW118167   1.431   0.535   3.782  2.9997  0.9284 -1.5116
 2236SOL    HW218168   1.553   0.610   3.820  0.0890  0.8963 -0.4164
 2237SOL     OW18169   0.014   0.386   6.618 -0.4287 -0.3261 -0.3702
 2237SOL    HW118170   4.675   0.334   6.570  1.6506 -3.1077 -0.1703
 2237SOL    HW218171   0.049   0.319   6.677  0.6230 -1.5090 -2.3329
 2238SOL     OW18172   4.421   4.162  16.468 -0.0620 -0.5399  0.1657
 2238SOL    HW118173   4.504   4.208  16.470 -0.6300  0.4450  1.7401
 2238SOL    HW218174   4.401   4.153  16.375 -0.8531 -0.6166  0.3352
 2239SOL     OW18175   0.588   4.476   3.927  0.7471 -0.2302  0.1079
 2239SOL    HW118176   0.634   4.460   3.845  1.7741 -0.1366  0.6604
 2239SOL    HW218177   0.631   4.551   3.969 -1.5224 -0.1401  2.3123
 2240SOL     OW18178   4.177   4.144   5.474  0.1189 -0.3017  0.0968
 2240SOL    HW118179   4.162   4.234   5.443  1.1811 -0.1628 -0.0215
 2240SOL    HW218180   4.270   4.137   5.451 -0.1387  1.8794 -1.6641
 2241SOL     OW18181   0.275   1.550   1.834  0.2362  0.1007 -0.3486
 2241SOL    HW118182   0.218   1.602   1.777  1.3290 -0.6448 -2.1286
 2241SOL    HW218183   0.212   1.483   1.861 -1.3429  1.5791 -0.3619
 2242SOL     OW18184   1.359   1.914   3.896 -0.2234 -0.0205  0.0400
 2242SOL    HW118185   1.338   1.960   3.978 -2.4773  1.2448 -1.2567
 2242SOL    HW218186   1.454   1.927   3.902 -0.1313  0.3897 -2.4726
 2243SOL     OW18187   1.019   4.250  17.674  0.0458 -0.1377 -0.1023
 2243SOL    HW118188   1.038   4.180  17.611  0.1663 -0.1102 -0.0966
 2243SOL    HW218189   0.948   4.218   0.029  0.1754  2.9880  1.8369
 2244SOL     OW18190   2.762   1.565   6.782  0.1281 -0.4418  0.2312
 2244SOL    HW118191   2.819   1.491   6.803  0.6523  0.0104  0.3915
 2244SOL    HW218192   2.774   1.613   6.864 -1.0532  0.2440  0.0162
 2245SOL     OW18193   2.540   0.237   0.559 -0.2105 -0.0856  0.0242
 2245SOL    HW118194   2.463   0.205   0.514 -0.1924  0.2681 -0.2610
 2245SOL    HW218195   2.600   0.269   0.492 -0.9683  1.5430  0.0973
 2246SOL     OW18196   2.977   0.900   7.362 -0.4539 -0.8526 -0.2487
 2246SOL    HW118197   2.892   0.883   7.320 -0.3134 -0.0408 -0.8463
 2246SOL    HW218198   2.976   0.989   7.328  0.5589 -0.5331  0.5760
 2247SOL     OW18199   3.516   2.098   3.694  0.0440 -0.0456  0.0937
 2247SOL    HW118200   3.590   2.072   3.749 -0.0706 -0.0606  0.2406
 2247SOL    HW218201   3.442   2.060   3.741  1.4636 -3.2873 -0.2521
 2248SOL     OW18202   0.420   3.586   5.240  0.2127 -0.1417  0.6877
 2248SOL    HW118203   0.352   3.646   5.207 -0.0004 -1.5247 -1.3298
 2248SOL    HW218204   0.383   3.498   5.238 -0.5835  0.2341 -0.8498
 2249SOL     OW18205   1.000   4.084   2.485 -0.2861  0.4056  0.5363
 2249SOL    HW118206   0.912   4.048   2.479 -0.6061  0.7007  3.4363
 2249SOL    HW218207   1.055   4.019   2.441 -0.6411  0.5077 -0.0562
 2250SOL     OW18208   4.645   0.656   3.841  0.2924  0.0815  0.7988
 2250SOL    HW118209   4.657   0.582   3.781 -0.2102  0.5384  0.1472
 2250SOL    HW218210   0.010   0.685   3.857  0.4560 -0.0767  0.1771
 2251SOL     OW18211   4.065   3.837   9.330  0.4534 -0.1468 -0.0192
 2251SOL    HW118212   4.038   3.746   9.337 -0.4937  0.0993 -0.5004
 2251SOL    HW218213   4.024   3.871   9.409  0.8555 -1.2325  0.6546
 2252SOL     OW18214   3.085   0.471   6.861 -0.2094 -0.1496  0.5632
 2252SOL    HW118215   3.006   0.453   6.912 -0.5571  0.6651  0.3073
 2252SOL    HW218216   3.069   0.420   6.781 -0.0892  1.8547 -0.7306
 2253SOL     OW18217   0.151   4.534   8.300 -0.4711 -0.2127  0.3076
 2253SOL    HW118218   0.222   4.568   8.245  0.6617  0.5060  2.2519
 2253SOL    HW218219   0.180   4.447   8.331  1.8420  0.3003 -0.3826
 2254SOL     OW18220   2.627   1.990   5.683  0.0425 -0.4129  0.0461
 2254SOL    HW118221   2.650   2.065   5.739 -1.0329 -0.2495  0.2701
 2254SOL    HW218222   2.561   2.026   5.625  0.7112  0.7184 -0.0122
 2255SOL     OW18223   0.099   3.959   9.092  0.9331  0.3065  0.0631
 2255SOL    HW118224   0.048   3.881   9.068 -0.0425  0.1716  2.4943
 2255SOL    HW218225   0.168   3.939   9.029  0.1683 -1.1952 -0.3032
 2256SOL     OW18226   2.811   2.444   2.779 -0.0826 -0.1406 -0.6884
 2256SOL    HW118227   2.764   2.373   2.822 -0.4511  0.2099 -0.5143
 2256SOL    HW218228   2.830   2.509   2.846 -1.7140 -1.6660  1.2343
 2257SOL     OW18229   4.583   1.046   8.083  0.4212  0.1418  0.2468
 2257SOL    HW118230   4.653   1.002   8.131  2.4630  0.8767 -2.0945
 2257SOL    HW218231   4.605   1.137   8.105  0.1438  0.2824 -0.0616
 2258SOL     OW18232   1.059   2.748   2.508  0.2722 -0.5941  0.0163
 2258SOL    HW118233   1.057   2.653   2.495  0.1790 -0.5844 -0.0445
 2258SOL    HW218234   1.113   2.755   2.586  0.2539 -0.8105  0.0463
 2259SOL     OW18235   3.043   4.342   5.679  0.5432  0.0449  0.4206
 2259SOL    HW118236   2.971   4.350   5.616 -0.1928 -1.9849  1.0235
 2259SOL    HW218237   2.997   4.332   5.763  0.7893  1.4021  0.7227
 2260SOL     OW18238   3.467   1.747  16.830 -0.0137  0.0498 -0.3356
 2260SOL    HW118239   3.415   1.802  16.888  0.2400  0.0085 -0.0695
 2260SOL    HW218240   3.399   1.680  16.821 -0.3106  0.1171  1.5265
 2261SOL     OW18241   0.803   3.023   9.361  0.1912  0.5140  0.2579
 2261SOL    HW118242   0.814   3.040   9.267  2.9780 -1.3558  0.2381
 2261SOL    HW218243   0.841   2.937   9.376 -0.8012  0.1314  0.5651
 2262SOL     OW18244   2.406   0.440   2.286 -0.4376  0.0279 -0.0596
 2262SOL    HW118245   2.372   0.412   2.201 -0.1526  2.6896 -1.0460
 2262SOL    HW218246   2.423   0.533   2.268  0.0062 -0.2638 -1.1445
 2263SOL     OW18247   2.867   2.051   8.796 -0.1352 -0.3359  0.0685
 2263SOL    HW118248   2.952   2.035   8.753  0.2665  2.7936 -0.2869
 2263SOL    HW218249   2.870   2.004   8.879 -2.2159  0.4237  0.5481
 2264SOL     OW18250   1.160   3.586   8.512 -0.1977  0.3937 -0.7210
 2264SOL    HW118251   1.163   3.564   8.419 -0.7591 -0.5919 -0.5123
 2264SOL    HW218252   1.252   3.576   8.535 -0.6495 -2.5126 -0.1909
 2265SOL     OW18253   2.069   2.189   6.740  0.0943  0.3619  0.3326
 2265SOL    HW118254   2.138   2.159   6.799  1.7698  0.3882 -1.5746
 2265SOL    HW218255   2.001   2.214   6.801 -0.9870  1.9728 -1.5182
 2266SOL     OW18256   3.860   4.215   4.202 -0.7293 -0.5160 -0.2749
 2266SOL    HW118257   3.828   4.130   4.174 -0.0134 -0.5369 -1.0319
 2266SOL    HW218258   3.905   4.245   4.123 -1.5897  0.7423 -0.2989
 2267SOL     OW18259   3.065   4.619   2.740  0.1078  0.4337 -0.2459
 2267SOL    HW118260   3.100   4.695   2.694  1.0876  0.3626  0.3919
 2267SOL    HW218261   3.095   4.547   2.685  0.4323 -1.5876  2.5576
 2268SOL     OW18262   3.478   2.134  12.796 -0.2541  0.2089 -0.2157
 2268SOL    HW118263   3.443   2.045  12.797 -0.3968  0.3162  2.3760
 2268SOL    HW218264   3.418   2.165  12.728  2.2777  0.7960 -2.2061
 2269SOL     OW18265   3.727   4.016  15.174 -0.1448 -0.4617  0.0278
 2269SOL    HW118266   3.762   3.928  15.185 -3.2840 -2.0292 -2.5832
 2269SOL    HW218267   3.655   4.001  15.113  0.7136 -1.5567 -0.6905
 2270SOL     OW18268   4.719   2.839   2.838 -0.0829 -0.0073  0.3050
 2270SOL    HW118269   0.050   2.785   2.783 -0.8461 -0.6071  0.1302
 2270SOL    HW218270   4.668   2.887   2.773 -0.5770 -0.1406  0.5898
 2271SOL     OW18271   4.069   0.754  10.112  0.2496  0.3837  0.2908
 2271SOL    HW118272   4.048   0.754  10.018 -0.2550 -2.1603  0.4033
 2271SOL    HW218273   4.059   0.846  10.137  0.1950 -0.0339  1.7817
 2272SOL     OW18274   3.161   2.184   6.965  0.8008 -0.0602  0.2207
 2272SOL    HW118275   3.106   2.189   6.887  0.1024  3.2026  0.9086
 2272SOL    HW218276   3.175   2.090   6.957  2.3273  0.0438  1.5397
 2273SOL     OW18277   0.052   3.819   6.245  0.0052 -0.4389  0.3286
 2273SOL    HW118278   4.695   3.839   6.291 -0.4138 -3.7754  1.0066
 2273SOL    HW218279   0.096   3.904   6.253 -1.3114  0.3965 -1.4245
 2274SOL     OW18280   3.102   3.427   1.383  0.0979 -0.1051  0.1172
 2274SOL    HW118281   3.054   3.474   1.316 -0.7566 -0.9185  0.1539
 2274SOL    HW218282   3.140   3.490   1.444 -0.1668  0.7120 -0.5616
 2275SOL     OW18283   3.657   2.468   8.223  0.3743 -0.5120 -0.5392
 2275SOL    HW118284   3.636   2.439   8.312 -0.4658  0.8124 -0.3131
 2275SOL    HW218285   3.746   2.501   8.237  0.7413 -2.2507  1.3163
 2276SOL     OW18286   2.783   1.870   5.452 -0.0370  0.4100  0.0928
 2276SOL    HW118287   2.813   1.948   5.405 -0.7364  0.0437 -0.9603
 2276SOL    HW218288   2.745   1.913   5.528 -0.5245  2.5367 -1.3460
 2277SOL     OW18289   4.481   2.948   1.483 -0.2570 -0.2625 -0.2464
 2277SOL    HW118290   4.489   2.854   1.462  0.1714 -0.5803  1.3380
 2277SOL    HW218291   4.385   2.950   1.489 -0.2956  1.5373 -1.6351
 2278SOL     OW18292   3.242   0.177  11.553 -0.2474  0.3795  0.1123
 2278SOL    HW118293   3.325   0.209  11.517 -0.4923  0.0241 -0.7880
 2278SOL    HW218294   3.177   0.214  11.493 -1.4356  0.0653  1.2193
 2279SOL     OW18295   3.193   0.028   8.340 -0.3196 -0.2551  0.5742
 2279SOL    HW118296   3.284   0.028   8.310 -0.4039  1.3384  0.3169
 2279SOL    HW218297   3.185   4.661   8.366  1.4169 -0.9758 -1.3876
 2280SOL     OW18298   2.975   0.357   0.530 -0.5710 -0.4614 -0.1216
 2280SOL    HW118299   2.981   0.314   0.615 -0.0749 -2.1738 -0.9969
 2280SOL    HW218300   2.983   0.447   0.560  0.9452 -0.9071  0.8246
 2281SOL     OW18301   2.695   1.419  13.235 -0.0954 -0.2011 -0.0417
 2281SOL    HW118302   2.691   1.373  13.151 -1.5730 -0.1033 -0.0184
 2281SOL    HW218303   2.780   1.462  13.226  0.5684 -1.9652 -2.1738
 2282SOL     OW18304   2.556   3.509   6.365 -0.0992 -0.3687  0.2608
 2282SOL    HW118305   2.513   3.565   6.301  0.7686 -2.9213 -2.5871
 2282SOL    HW218306   2.516   3.542   6.446  2.2466 -1.9435  2.0663
 2283SOL     OW18307   2.803   1.173   2.915  0.3707  0.6072  1.2632
 2283SOL    HW118308   2.863   1.099   2.903  0.0955  1.0659 -3.0420
 2283SOL    HW218309   2.744   1.165   2.840  0.0988  0.6305  1.4797
 2284SOL     OW18310   2.787   3.673   4.820  0.2269  0.0315  0.1206
 2284SOL    HW118311   2.825   3.588   4.797 -2.0150 -1.0829  0.5308
 2284SOL    HW218312   2.754   3.710   4.738  1.8973 -1.4433 -1.2019
 2285SOL     OW18313   2.660   0.059  13.605  0.2022 -0.4600 -0.0063
 2285SOL    HW118314   2.704   0.079  13.523 -0.0193  3.2471  0.7844
 2285SOL    HW218315   2.694   4.694  13.600  3.4619  0.8068 -0.7205
 2286SOL     OW18316   0.709   3.434   2.665 -0.0248  0.0882  0.2486
 2286SOL    HW118317   0.684   3.348   2.698  0.6461 -0.3201 -0.3090
 2286SOL    HW218318   0.745   3.418   2.578 -1.5218 -2.5451  0.1096
 2287SOL     OW18319   1.952   4.517   7.004 -0.2797  0.7725  0.9163
 2287SOL    HW118320   1.942   4.548   6.914  2.5190  1.7152  0.9096
 2287SOL    HW218321   1.920   4.588   7.060 -1.3496 -0.1912  1.5077
 2288SOL     OW18322   2.581   0.971  10.034  0.2210 -0.3681  0.1302
 2288SOL    HW118323   2.600   0.909  10.104 -0.6119  3.2289  3.4931
 2288SOL    HW218324   2.519   1.034  10.069 -0.2844 -0.1840 -1.0943
 2289SOL     OW18325   0.251   2.398   4.694 -0.1660 -0.0818 -0.2978
 2289SOL    HW118326   0.188   2.470   4.693  0.7203  0.7645  3.1800
 2289SOL    HW218327   0.239   2.354   4.610  0.3657 -1.3162  0.2794
 2290SOL     OW18328   4.017   1.302   4.986 -0.0578 -0.5411 -0.1791
 2290SOL    HW118329   3.941   1.306   5.044  0.3401  1.9358  0.1593
 2290SOL    HW218330   4.027   1.393   4.958 -0.8974 -0.6182 -0.7306
 2291SOL     OW18331   0.318   2.476  15.719  0.0018 -0.3384  0.1399
 2291SOL    HW118332   0.349   2.385  15.716  0.7348 -0.0817 -0.1198
 2291SOL    HW218333   0.302   2.486  15.812 -1.1901 -3.2247  0.2701
 2292SOL     OW18334   1.754   0.689  10.285  0.0747  0.3562 -0.0373
 2292SOL    HW118335   1.691   0.631  10.326  0.7824 -0.0423  0.4859
 2292SOL    HW218336   1.742   0.672  10.192 -1.7489 -0.2383  0.3290
 2293SOL     OW18337   3.805   3.937   3.203 -0.0841  0.0957 -0.0061
 2293SOL    HW118338   3.887   3.956   3.156 -0.2487  1.5615  0.2971
 2293SOL    HW218339   3.823   3.843   3.203 -2.5301 -0.3527 -0.6950
 2294SOL     OW18340   3.170   1.490   5.975  0.3275  0.1805 -0.1485
 2294SOL    HW118341   3.206   1.579   5.968  1.0979 -0.0850  0.4430
 2294SOL    HW218342   3.241   1.454   6.028 -0.0121  2.6613  2.0147
 2295SOL     OW18343   1.902   0.397  17.404 -0.5479  0.1157 -0.6619
 2295SOL    HW118344   1.975   0.420  17.347  1.3681 -1.4435  1.1597
 2295SOL    HW218345   1.941   0.418  17.489  0.5099  0.2065 -1.1710
 2296SOL     OW18346   3.886   0.986   6.940  0.2523 -0.1104  0.4139
 2296SOL    HW118347   3.791   0.993   6.948  0.2259 -0.5731  0.4783
 2296SOL    HW218348   3.900   0.979   6.846  0.5782 -1.7137  0.5854
 2297SOL     OW18349   2.845   2.249  11.934 -0.4822  0.1374 -0.3313
 2297SOL    HW118350   2.838   2.154  11.928 -0.1885  0.0673  0.4697
 2297SOL    HW218351   2.776   2.269  11.872  1.1409 -1.6961 -2.7385
 2298SOL     OW18352   1.197   0.055   8.932 -0.2513  0.4505 -0.1689
 2298SOL    HW118353   1.285   0.086   8.912 -0.5885 -0.8188 -3.5933
 2298SOL    HW218354   1.219   4.714   8.998 -1.5065  0.7232  0.5254
 2299SOL     OW18355   3.542   3.568   3.151 -0.1245 -0.3654 -0.8803
 2299SOL    HW118356   3.561   3.550   3.059 -0.5654 -0.3603 -0.9709
 2299SOL    HW218357   3.452   3.598   3.141  0.8918  2.2709 -2.0253
 2300SOL     OW18358   3.507   1.116   8.121  0.0918  0.0022 -0.0293
 2300SOL    HW118359   3.535   1.195   8.073  2.1443 -0.8002 -0.1631
 2300SOL    HW218360   3.424   1.136   8.163  0.9641  1.5878  0.9442
 2301SOL     OW18361   3.536   0.017   2.201  0.2496  0.5537 -1.0584
 2301SOL    HW118362   3.442   0.014   2.218  0.6483 -0.1879  0.9662
 2301SOL    HW218363   3.557   0.107   2.225  0.1834  0.7817 -1.8566
 2302SOL     OW18364   0.589   1.663   3.006  0.0623 -0.2058 -0.4513
 2302SOL    HW118365   0.502   1.700   3.018  0.4395  0.8078 -0.8821
 2302SOL    HW218366   0.578   1.624   2.919 -2.4087 -0.9152  0.1780
 2303SOL     OW18367   2.741   0.051  14.647  0.4134 -0.6375 -0.4050
 2303SOL    HW118368   2.744   0.136  14.691 -0.0399 -0.4682 -0.7054
 2303SOL    HW218369   2.696   4.720  14.712 -1.6261  0.6184 -0.7402
 2304SOL     OW18370   4.014   0.817   2.739 -0.2973 -0.6688  0.0994
 2304SOL    HW118371   4.062   0.881   2.686 -1.8147  0.0518 -0.3928
 2304SOL    HW218372   3.962   0.882   2.787  2.3129  1.1349  0.5421
 2305SOL     OW18373   2.200   3.503   9.177  0.6257 -0.2613 -0.2023
 2305SOL    HW118374   2.137   3.446   9.220 -0.5310 -0.2802 -1.9397
 2305SOL    HW218375   2.167   3.510   9.088 -1.5013 -0.1394  0.6157
 2306SOL     OW18376   3.340   4.161   7.819 -0.1325 -0.1516 -0.2211
 2306SOL    HW118377   3.343   4.169   7.914  1.7375  0.4507 -0.3379
 2306SOL    HW218378   3.383   4.076   7.815  0.1448  0.0262 -0.9076
 2307SOL     OW18379   0.020   0.454   7.880 -0.1919  0.0628  0.5284
 2307SOL    HW118380   4.650   0.461   7.894 -0.1679 -0.4417  0.9305
 2307SOL    HW218381   0.021   0.443   7.785  0.7230 -0.7084  0.6317
 2308SOL     OW18382   3.984   3.641   8.727 -0.5708 -0.0889  0.3953
 2308SOL    HW118383   4.004   3.571   8.664  1.3342 -0.3013  1.2213
 2308SOL    HW218384   3.953   3.708   8.667 -1.6895 -0.0204  1.0531
 2309SOL     OW18385   0.324   4.223   3.871 -0.1419  0.4672 -0.3219
 2309SOL    HW118386   0.265   4.230   3.796 -0.0485 -3.4424 -0.7519
 2309SOL    HW218387   0.403   4.176   3.846  0.0480 -0.1760  1.4931
 2310SOL     OW18388   0.591   1.908   2.304 -0.4784  0.0683 -0.4085
 2310SOL    HW118389   0.629   1.996   2.301 -0.8774  0.2064 -1.3753
 2310SOL    HW218390   0.656   1.842   2.281 -0.0522  0.8859 -1.5183
 2311SOL     OW18391   4.294   1.819   2.457 -0.3555  0.1739 -0.2317
 2311SOL    HW118392   4.384   1.831   2.427  0.7729 -0.0804  3.0794
 2311SOL    HW218393   4.264   1.758   2.390 -0.9225 -1.1882  1.2753
 2312SOL     OW18394   4.701   3.212   3.453 -0.5079  0.3854 -0.3975
 2312SOL    HW118395   4.705   3.299   3.493 -0.8954  0.7635 -1.1913
 2312SOL    HW218396   0.044   3.225   3.387 -1.2150  0.0460 -1.1834
 2313SOL     OW18397   0.175   3.366   7.236  0.4620  0.3730  0.0391
 2313SOL    HW118398   0.263   3.360   7.273  0.8303  0.4400 -0.8399
 2313SOL    HW218399   0.199   3.377   7.144  0.0442 -0.3262 -0.1544
 2314SOL     OW18400   0.609   4.334   0.495 -0.1752  0.2578  0.4561
 2314SOL    HW118401   0.602   4.422   0.458 -1.0585  0.4949  1.2050
 2314SOL    HW218402   0.520   4.315   0.524 -0.3681  3.7785  2.2117
 2315SOL     OW18403   2.518   1.365   0.870  0.2190  0.3546  0.0242
 2315SOL    HW118404   2.446   1.398   0.925  0.8999 -1.7606  2.1586
 2315SOL    HW218405   2.469   1.326   0.798  0.7974 -2.1971  1.0400
 2316SOL     OW18406   1.062   2.378   7.041 -0.2266  0.1566 -0.4928
 2316SOL    HW118407   1.139   2.328   7.015 -0.7992 -1.6712  1.3683
 2316SOL    HW218408   1.091   2.422   7.120  1.1316  0.0754 -0.9456
 2317SOL     OW18409   1.213   1.289   1.683 -0.2841  0.1223  0.4061
 2317SOL    HW118410   1.132   1.241   1.697 -1.1838  0.4166 -3.7038
 2317SOL    HW218411   1.188   1.339   1.605 -0.2443 -0.7570 -0.1722
 2318SOL     OW18412   4.087   0.640   6.394 -0.5745  0.4177  0.8145
 2318SOL    HW118413   4.112   0.699   6.323 -0.9656 -1.0431 -0.5659
 2318SOL    HW218414   4.002   0.674   6.420 -0.6652 -0.4319  1.6304
 2319SOL     OW18415   2.042   4.094  10.883 -0.1307 -0.1354  0.5323
 2319SOL    HW118416   1.981   4.151  10.929  0.3094  1.5331 -0.9550
 2319SOL    HW218417   1.994   4.097  10.800  1.1635 -0.6110 -0.2386
 2320SOL     OW18418   2.931   3.972  11.276  0.1786  0.3302  0.5865
 2320SOL    HW118419   2.980   4.030  11.218  0.5701 -0.4841  0.1085
 2320SOL    HW218420   2.910   4.039  11.342  3.0458  1.9549 -0.1845
 2321SOL     OW18421   0.044   3.662  15.586  0.9319  0.0564 -0.4294
 2321SOL    HW118422   0.013   3.752  15.581  2.5250  0.7884  3.1414
 2321SOL    HW218423   0.083   3.655  15.499  0.1446 -0.7566 -0.7205
 2322SOL     OW18424   0.290   3.157  16.058 -0.0135  0.6038  0.2363
 2322SOL    HW118425   0.297   3.116  15.972  0.7216  1.9112 -0.3304
 2322SOL    HW218426   0.364   3.218  16.062  0.1440  0.5020 -1.1289
 2323SOL     OW18427   2.185   3.185   4.439 -0.1525 -0.0835  0.5536
 2323SOL    HW118428   2.090   3.174   4.447  0.1637 -0.3983  4.1750
 2323SOL    HW218429   2.208   3.091   4.437 -1.2991 -0.4239  3.2795
 2324SOL     OW18430   1.057   4.196   3.000 -0.3662  0.2300  0.0137
 2324SOL    HW118431   1.079   4.173   2.909  1.5268 -0.3964  0.6237
 2324SOL    HW218432   1.039   4.290   2.999 -1.6275 -0.0090  0.5345
 2325SOL     OW18433   2.067   2.316   9.380  0.2751 -0.3562  0.3201
 2325SOL    HW118434   2.024   2.401   9.368 -0.6226 -0.8324  0.1509
 2325SOL    HW218435   2.019   2.262   9.316  0.6371 -1.6165  1.1115
 2326SOL     OW18436   0.821   2.924   6.609 -0.3300 -0.1213  0.4638
 2326SOL    HW118437   0.856   2.883   6.530  0.1593 -1.1648  1.2262
 2326SOL    HW218438   0.760   2.991   6.576  0.8963  0.0133 -1.5149
 2327SOL     OW18439   4.165   2.658   8.148  0.4324 -0.1376  0.4598
 2327SOL    HW118440   4.104   2.713   8.099 -1.0968 -1.2617  1.0891
 2327SOL    HW218441   4.243   2.687   8.101 -1.3102  1.3121 -1.5548
 2328SOL     OW18442   1.957   4.142   2.907  0.6180 -0.9908  0.1767
 2328SOL    HW118443   1.961   4.052   2.874  0.3165  0.2746 -3.2725
 2328SOL    HW218444   2.027   4.138   2.971  1.6739  1.3909 -0.8428
 2329SOL     OW18445   2.673   1.914   4.191  0.3864 -0.1106  0.4614
 2329SOL    HW118446   2.768   1.919   4.204  0.7787 -0.0159 -2.3348
 2329SOL    HW218447   2.663   1.878   4.103  0.0586 -1.3420  1.0155
 2330SOL     OW18448   2.379   0.666  12.105 -0.1861  0.5613 -0.4522
 2330SOL    HW118449   2.440   0.593  12.113  0.5612  0.9864 -2.2462
 2330SOL    HW218450   2.439   0.738  12.126 -0.2149  0.8575 -1.3745
 2331SOL     OW18451   4.588   0.752  17.606 -0.3122 -0.1345  0.6779
 2331SOL    HW118452   4.654   0.746  17.675 -0.6709  1.8320  1.1856
 2331SOL    HW218453   4.633   0.811  17.545  0.6147 -1.0365  0.4944
 2332SOL     OW18454   1.667   0.611   6.892 -0.0657 -0.9295  0.2686
 2332SOL    HW118455   1.651   0.704   6.877 -1.0435 -0.8986  1.5198
 2332SOL    HW218456   1.584   0.583   6.931 -1.2228  0.7863 -1.0043
 2333SOL     OW18457   2.132   4.082   8.179 -0.1080  0.0619 -0.0704
 2333SOL    HW118458   2.117   3.997   8.219  1.4757 -1.7132 -3.1901
 2333SOL    HW218459   2.040   4.100   8.158 -0.2742 -0.4468  0.2314
 2334SOL     OW18460   3.986   0.595  13.294 -0.2617 -0.0674  0.1520
 2334SOL    HW118461   4.057   0.537  13.321 -0.7635 -1.1166 -0.7672
 2334SOL    HW218462   4.023   0.643  13.220 -1.9485 -0.4477 -0.9490
 2335SOL     OW18463   0.263   0.021   4.019 -0.3240  0.2374 -0.6190
 2335SOL    HW118464   0.233   4.655   4.011  1.3219 -0.2544 -1.3037
 2335SOL    HW218465   0.207   0.063   4.084  2.1280  0.4319  1.3419
 2336SOL     OW18466   1.966   2.600   5.071 -0.0082 -0.3101  0.1772
 2336SOL    HW118467   1.965   2.624   5.163 -0.2139  0.1769  0.0460
 2336SOL    HW218468   1.877   2.564   5.066 -0.0667 -0.1597  0.1226
 2337SOL     OW18469   2.982   1.239   6.544 -0.2868 -0.0723 -0.1851
 2337SOL    HW118470   2.938   1.207   6.623  1.5714 -1.8246  0.1396
 2337SOL    HW218471   3.073   1.217   6.565 -0.6370 -2.8255 -1.5455
 2338SOL     OW18472   2.752   3.863   0.235  0.6596  0.0754  0.0458
 2338SOL    HW118473   2.823   3.865   0.171 -0.3993 -0.8024 -1.1282
 2338SOL    HW218474   2.792   3.832   0.317  1.3047  0.0684 -0.2682
 2339SOL     OW18475   2.395   0.368   0.171 -0.2520  0.1780 -0.2282
 2339SOL    HW118476   2.435   0.454   0.188  1.4265 -0.2327 -2.0760
 2339SOL    HW218477   2.330   0.382   0.102 -1.6172  0.2051  1.0565
 2340SOL     OW18478   1.279   3.055   5.020 -0.0046  0.2666 -0.3918
 2340SOL    HW118479   1.333   3.047   4.941 -0.7901  2.4147 -1.1635
 2340SOL    HW218480   1.211   3.119   4.999  0.5968  0.8129 -0.7024
 2341SOL     OW18481   4.612   2.722  14.617  0.1064  0.1081  0.6098
 2341SOL    HW118482   4.593   2.643  14.667  0.5660 -0.8355 -0.7109
 2341SOL    HW218483   4.691   2.752  14.664  0.6509  0.0274 -0.2438
 2342SOL     OW18484   4.093   0.648  12.791 -0.3608  0.7909 -0.3261
 2342SOL    HW118485   4.144   0.617  12.866 -0.4156  1.0818 -0.1701
 2342SOL    HW218486   4.047   0.724  12.827 -2.2215  0.3376 -1.7834
 2343SOL     OW18487   1.380   1.675   7.710  0.1934  0.0469  0.4976
 2343SOL    HW118488   1.443   1.745   7.722 -0.3939  0.4893  1.0023
 2343SOL    HW218489   1.308   1.715   7.759 -0.9127 -1.7065  0.3194
 2344SOL     OW18490   2.916   4.154   8.830 -0.0686  0.5564  0.4739
 2344SOL    HW118491   2.998   4.155   8.878  1.1052 -0.4853 -1.5126
 2344SOL    HW218492   2.911   4.060   8.811  0.6821  0.8351 -1.1279
 2345SOL     OW18493   1.970   4.458   6.522  0.4026 -0.5196  0.5078
 2345SOL    HW118494   1.949   4.366   6.533 -0.8258 -0.1902  0.8916
 2345SOL    HW218495   1.908   4.477   6.452 -0.7551  0.7395  1.8883
 2346SOL     OW18496   1.116   2.659  15.079 -0.3766 -0.1594  0.6630
 2346SOL    HW118497   1.127   2.569  15.050 -0.1420 -0.4096  1.5622
 2346SOL    HW218498   1.136   2.706  14.998  0.8322  0.4471  1.3140
 2347SOL     OW18499   2.052   4.123   5.247  0.0641  0.0942  0.5168
 2347SOL    HW118500   1.959   4.143   5.234  0.2760 -1.5433 -3.5704
 2347SOL    HW218501   2.111   4.161   5.182  0.7001 -0.5597  0.7084
 2348SOL     OW18502   0.212   3.439  10.614  0.1511  0.3912  0.0351
 2348SOL    HW118503   0.213   3.344  10.599 -1.2876  0.4257 -0.2612
 2348SOL    HW218504   0.218   3.467  10.523 -1.2332 -0.2120 -0.2425
 2349SOL     OW18505   1.671   2.997  14.727  0.3139  0.4591 -0.0442
 2349SOL    HW118506   1.732   2.939  14.773 -1.4052 -0.8094  0.5876
 2349SOL    HW218507   1.641   2.945  14.653 -1.4818 -0.0008  1.0161
 2350SOL     OW18508   4.456   4.080  11.215 -0.5374 -0.1499 -0.3559
 2350SOL    HW118509   4.508   4.055  11.139 -1.4422 -0.3982 -0.9006
 2350SOL    HW218510   4.376   4.033  11.190 -1.4782  2.4150 -2.1554
 2351SOL     OW18511   4.048   4.476   6.282 -0.0145  0.0737  0.4199
 2351SOL    HW118512   3.989   4.464   6.207 -0.8432 -1.4725  1.3096
 2351SOL    HW218513   3.999   4.440   6.355 -0.9095  0.4267 -0.0045
 2352SOL     OW18514   4.510   0.861   3.950  0.5392 -0.2772  0.5339
 2352SOL    HW118515   4.520   0.830   4.040 -0.9065  0.9762  1.1109
 2352SOL    HW218516   4.558   0.788   3.911  1.1158  0.3898 -0.0099
 2353SOL     OW18517   4.511   2.850  11.143  0.4182 -0.1965 -0.3781
 2353SOL    HW118518   4.573   2.922  11.137  1.3037 -1.0579 -1.7322
 2353SOL    HW218519   4.476   2.855  11.054 -2.7706  1.3474  0.9792
 2354SOL     OW18520   3.468   4.039   6.867  0.2570  0.2991  0.2811
 2354SOL    HW118521   3.379   4.018   6.898 -0.1856  0.9701 -0.5607
 2354SOL    HW218522   3.474   4.019   6.774 -1.5956  0.0557  0.2056
 2355SOL     OW18523   1.839   2.863  15.390  0.1926 -1.2072 -0.7307
 2355SOL    HW118524   1.746   2.858  15.366 -0.2907 -0.6814  1.0227
 2355SOL    HW218525   1.853   2.957  15.393 -2.5162 -0.7732 -1.0239
 2356SOL     OW18526   3.373   4.315   8.792 -0.0371  0.0431 -0.7024
 2356SOL    HW118527   3.405   4.383   8.732 -0.4903 -1.0626 -2.1974
 2356SOL    HW218528   3.362   4.362   8.875  0.7078  1.3908 -1.3559
 2357SOL     OW18529   0.581   0.830   8.674  0.0806 -0.5933 -0.1832
 2357SOL    HW118530   0.592   0.876   8.757 -0.3458  0.6048 -0.7956
 2357SOL    HW218531   0.609   0.904   8.620 -1.8475  1.3974  1.5994
 2358SOL     OW18532   4.055   4.263   2.551 -0.2102  0.4299 -0.1866
 2358SOL    HW118533   4.039   4.170   2.536  0.8235  0.1598  0.3779
 2358SOL    HW218534   3.976   4.300   2.590 -1.3791  2.0615 -4.1391
 2359SOL     OW18535   2.682   1.384   6.070 -0.0416  0.4917 -0.6487
 2359SOL    HW118536   2.609   1.322   6.073  0.5747 -0.1960  0.2029
 2359SOL    HW218537   2.662   1.423   5.985 -2.0840  0.7149 -0.0729
 2360SOL     OW18538   0.733   0.279  16.602  0.0297 -0.3793 -0.7289
 2360SOL    HW118539   0.809   0.337  16.600  0.2421 -0.6529 -0.6481
 2360SOL    HW218540   0.681   0.338  16.656  0.8246 -1.5482  1.3296
 2361SOL     OW18541   0.339   2.553   5.970 -0.9073 -0.1600 -0.7277
 2361SOL    HW118542   0.343   2.520   5.881 -3.1849 -2.8250  0.1309
 2361SOL    HW218543   0.341   2.473   6.023 -3.7968  0.6023  0.5809
 2362SOL     OW18544   1.854   2.683   4.621 -0.1529 -0.2639  0.6286
 2362SOL    HW118545   1.839   2.590   4.640 -2.0768  0.3015  1.8318
 2362SOL    HW218546   1.901   2.700   4.703  1.0577 -1.2541  0.1413
 2363SOL     OW18547   0.733   2.720   1.725  0.0272  0.3832  0.2112
 2363SOL    HW118548   0.674   2.790   1.698 -0.5868  0.7257  2.4050
 2363SOL    HW218549   0.721   2.718   1.820 -1.2324  3.5411  0.1327
 2364SOL     OW18550   1.369   4.324  15.064  0.0524 -0.3788  0.0738
 2364SOL    HW118551   1.360   4.332  15.159  1.7286 -2.5128  0.4211
 2364SOL    HW218552   1.459   4.291  15.055  0.4343 -0.1649  2.9936
 2365SOL     OW18553   3.278   1.579   7.677 -0.1077  0.3133  0.2167
 2365SOL    HW118554   3.275   1.621   7.762 -1.2105  0.5156  0.0783
 2365SOL    HW218555   3.213   1.629   7.627  0.1285 -1.3176 -1.7121
 2366SOL     OW18556   4.424   4.373  11.752 -0.4361 -0.3177  0.0018
 2366SOL    HW118557   4.466   4.416  11.828 -1.7532 -0.8676  1.0358
 2366SOL    HW218558   4.494   4.395  11.690  0.4587  1.2871  1.5632
 2367SOL     OW18559   2.489   0.832   1.794 -0.3677  0.0326 -0.4069
 2367SOL    HW118560   2.420   0.800   1.853 -0.6711  1.8958  0.2437
 2367SOL    HW218561   2.445   0.897   1.739 -1.1931 -0.4250 -0.2907
 2368SOL     OW18562   3.398   4.709   6.601  0.1233 -0.9830  0.0494
 2368SOL    HW118563   3.324   0.027   6.646  1.9819  1.0057  1.2723
 2368SOL    HW218564   3.450   0.060   6.575  0.1935 -0.9749  0.2139
 2369SOL     OW18565   3.603   0.269   8.530  0.1181 -0.2498  0.4769
 2369SOL    HW118566   3.547   0.234   8.599  0.0209  1.1143  1.0817
 2369SOL    HW218567   3.530   0.293   8.473  0.1225  0.6611  0.8649
 2370SOL     OW18568   0.417   0.885   5.952 -0.0896  0.8279 -0.2375
 2370SOL    HW118569   0.411   0.960   5.892 -2.0482  1.4677  0.7614
 2370SOL    HW218570   0.361   0.823   5.905  2.2081 -0.5091 -1.2189
 2371SOL     OW18571   4.402   1.904   2.858 -0.5325  0.2370  0.0190
 2371SOL    HW118572   4.382   1.817   2.826  3.9205 -0.7562 -0.1381
 2371SOL    HW218573   4.483   1.927   2.812  0.7780 -1.0109  1.7085
 2372SOL     OW18574   4.214   0.415   3.992 -0.3335  0.0162 -0.0982
 2372SOL    HW118575   4.171   0.334   4.018  1.2671 -0.6390  0.4965
 2372SOL    HW218576   4.308   0.394   3.994 -0.1735  0.6269 -1.2956
 2373SOL     OW18577   4.241   2.555   9.367 -0.2082  0.3200 -0.3583
 2373SOL    HW118578   4.182   2.568   9.441 -2.0403 -1.4715 -1.4787
 2373SOL    HW218579   4.305   2.616   9.403  0.8921 -1.9016  1.4682
 2374SOL     OW18580   3.769   2.556  17.119 -0.3975  0.1186  0.3000
 2374SOL    HW118581   3.862   2.548  17.101 -0.6279 -0.2074 -0.7397
 2374SOL    HW218582   3.763   2.559  17.215  1.3644  1.4283  0.3556
 2375SOL     OW18583   4.045   3.933   2.645 -0.2972 -0.1649 -0.4461
 2375SOL    HW118584   3.985   3.965   2.577  0.6000  2.4633  0.0237
 2375SOL    HW218585   4.018   3.841   2.652  2.0248 -0.6584  1.8811
 2376SOL     OW18586   2.942   1.785   1.324  0.0276 -0.5675 -0.1883
 2376SOL    HW118587   2.969   1.876   1.316  0.5173 -0.3656  3.6228
 2376SOL    HW218588   2.930   1.768   1.230  1.3969 -0.1556 -0.4423
 2377SOL     OW18589   1.136   1.767   3.922  0.7444 -0.2850 -0.2868
 2377SOL    HW118590   1.204   1.833   3.909 -0.3741  1.1273  1.0326
 2377SOL    HW218591   1.186   1.691   3.951 -1.3600 -2.1845 -1.6060
 2378SOL     OW18592   1.929   0.599  14.250  0.2309 -0.4315 -0.8950
 2378SOL    HW118593   2.004   0.627  14.302 -0.5037 -0.2200  0.0644
 2378SOL    HW218594   1.916   0.674  14.192 -0.7655 -1.4171 -1.9415
 2379SOL     OW18595   1.523   0.129   5.158  0.4200 -0.5201  0.6091
 2379SOL    HW118596   1.489   0.212   5.191 -1.5572 -0.0860 -2.4475
 2379SOL    HW218597   1.498   0.124   5.065 -1.9561 -0.2332  1.2273
 2380SOL     OW18598   2.828   2.439   6.974 -0.0734 -0.0794  0.5126
 2380SOL    HW118599   2.772   2.407   7.044 -1.1300  0.0111 -0.2945
 2380SOL    HW218600   2.905   2.462   7.027  0.6513 -0.1159 -0.5088
 2381SOL     OW18601   3.407   1.295   5.701 -0.7746  0.2422 -0.0833
 2381SOL    HW118602   3.403   1.292   5.797  3.1489  0.7723  0.1226
 2381SOL    HW218603   3.431   1.204   5.686 -0.1489  0.4116 -0.1257
 2382SOL     OW18604   4.237   2.825   3.332 -0.5353 -0.0012 -0.0713
 2382SOL    HW118605   4.167   2.872   3.376  0.5181  1.9506 -0.4884
 2382SOL    HW218606   4.305   2.877   3.373  0.2575  1.9545 -3.8207
 2383SOL     OW18607   3.199   4.154  11.885  0.5405 -0.4487  0.5807
 2383SOL    HW118608   3.158   4.090  11.827 -2.7641  0.4857  1.8597
 2383SOL    HW218609   3.272   4.095  11.906  0.4536 -0.4903  0.7699
 2384SOL     OW18610   2.843   1.357   3.346  0.2874  0.1678 -0.3634
 2384SOL    HW118611   2.769   1.301   3.322  1.7780 -0.6118 -3.1016
 2384SOL    HW218612   2.800   1.439   3.325  2.2489  1.0820 -0.7676
 2385SOL     OW18613   3.058   4.156   0.743 -0.0350  0.2425  0.8833
 2385SOL    HW118614   2.981   4.099   0.737 -0.5328  0.8108  1.9134
 2385SOL    HW218615   3.096   4.159   0.655 -0.2349 -1.2261  0.7499
 2386SOL     OW18616   3.359   1.020   2.568  0.0278  0.0805  0.1053
 2386SOL    HW118617   3.319   0.972   2.496 -1.0845 -1.4294  1.7155
 2386SOL    HW218618   3.448   1.025   2.533 -0.2265 -1.0631 -0.7102
 2387SOL     OW18619   0.437   0.270   7.534 -0.5343  1.0153  1.0131
 2387SOL    HW118620   0.408   0.264   7.625  1.9934  0.9045  1.8025
 2387SOL    HW218621   0.359   0.303   7.489 -0.4447 -0.2289 -0.0696
 2388SOL     OW18622   1.570   1.947   8.344  0.5202  0.9421  0.3256
 2388SOL    HW118623   1.513   1.998   8.402 -0.5384  0.9101 -0.6751
 2388SOL    HW218624   1.638   1.925   8.407  0.6190 -0.7825 -0.3749
 2389SOL     OW18625   1.304   2.314   5.160  0.2946 -0.1340  0.5801
 2389SOL    HW118626   1.301   2.382   5.093  0.4038 -0.5479  0.1532
 2389SOL    HW218627   1.256   2.245   5.113  0.0229  0.9231 -0.6884
 2390SOL     OW18628   1.563   2.333   0.971 -0.4273  0.4003  0.4150
 2390SOL    HW118629   1.510   2.288   0.905 -0.9301 -0.9748  1.7700
 2390SOL    HW218630   1.631   2.267   0.985 -1.2315 -0.8698 -1.6280
 2391SOL     OW18631   3.389   1.056  14.863 -0.1118  0.1940 -0.0121
 2391SOL    HW118632   3.473   1.099  14.881 -1.0952  1.2423  2.0710
 2391SOL    HW218633   3.340   1.131  14.830 -0.3062 -0.0754 -0.3336
 2392SOL     OW18634   2.505   2.436  11.589  0.8858 -0.1161 -0.5081
 2392SOL    HW118635   2.551   2.375  11.647 -0.6830  1.1109  1.9914
 2392SOL    HW218636   2.581   2.457  11.534  1.8793 -1.5947  0.3104
 2393SOL     OW18637   3.067   4.271  10.676  0.3761  0.1384  0.2182
 2393SOL    HW118638   3.091   4.286  10.768  1.2312 -0.4070  0.0824
 2393SOL    HW218639   3.015   4.193  10.692  0.2797 -0.2014 -1.8345
 2394SOL     OW18640   2.798   3.933   1.780  0.8729 -0.5803  0.0725
 2394SOL    HW118641   2.824   3.842   1.762 -1.8532 -0.8664 -2.5165
 2394SOL    HW218642   2.864   3.989   1.739  1.3169 -0.1365  1.3925
 2395SOL     OW18643   2.281   2.985  11.736 -0.2000 -0.1143 -0.1974
 2395SOL    HW118644   2.283   2.961  11.829  1.7682  2.1094  0.3534
 2395SOL    HW218645   2.345   2.923  11.701 -0.8346 -0.6702 -0.3460
 2396SOL     OW18646   0.560   2.973  16.735 -0.0261 -0.3883  0.7721
 2396SOL    HW118647   0.615   2.910  16.781  2.4413 -0.1753 -1.8494
 2396SOL    HW218648   0.612   3.004  16.660  2.0337 -1.7934  1.6342
 2397SOL     OW18649   0.475   0.402   2.626  0.0112  0.0931 -0.4828
 2397SOL    HW118650   0.458   0.461   2.700  0.6057 -0.0598 -0.2256
 2397SOL    HW218651   0.567   0.378   2.638 -0.5233 -1.8532 -0.2794
 2398SOL     OW18652   4.357   2.885  16.497  0.4841 -0.2916  0.0871
 2398SOL    HW118653   4.404   2.965  16.473  0.4070 -0.2058  0.2267
 2398SOL    HW218654   4.420   2.855  16.562 -0.1234  0.7622  1.1502
 2399SOL     OW18655   4.146   1.925   3.064 -0.4360  0.1793 -0.4517
 2399SOL    HW118656   4.193   1.936   2.981 -0.3759 -0.3853 -0.4938
 2399SOL    HW218657   4.103   2.009   3.075  2.2320  1.6559 -1.4214
 2400SOL     OW18658   1.802   2.017   7.903 -0.2373  0.0046  0.0415
 2400SOL    HW118659   1.732   2.009   7.968 -0.5964 -0.5920 -0.4258
 2400SOL    HW218660   1.836   2.107   7.906  1.0711 -0.4385 -2.1476
 2401SOL     OW18661   2.363   3.383   4.503  0.1492 -0.6330  0.4496
 2401SOL    HW118662   2.421   3.373   4.427 -0.6339 -1.5164 -0.0345
 2401SOL    HW218663   2.295   3.316   4.491  0.1138 -0.0623 -2.4197
 2402SOL     OW18664   3.441   2.118   2.045  0.4329  0.0710 -0.2886
 2402SOL    HW118665   3.399   2.069   1.974 -1.0412 -0.7540  1.1698
 2402SOL    HW218666   3.530   2.113   2.009  0.9139  0.7017  0.8266
 2403SOL     OW18667   4.647   3.864   3.265  0.4132 -0.3576 -0.0168
 2403SOL    HW118668   4.614   3.833   3.181 -2.3006 -0.0226  0.9117
 2403SOL    HW218669   4.685   3.785   3.303  1.1455  0.0777  0.1479
 2404SOL     OW18670   3.787   1.392   3.891 -0.5971  0.0221  0.5056
 2404SOL    HW118671   3.829   1.315   3.854  0.9164  0.0205  2.2252
 2404SOL    HW218672   3.694   1.373   3.878 -0.7953  2.6450 -1.8246
 2405SOL     OW18673   2.522   4.702   8.111  0.6708  0.0533  0.8115
 2405SOL    HW118674   2.552   0.029   8.186 -0.9836  0.5264  1.1425
 2405SOL    HW218675   2.598   4.652   8.082  0.1274 -1.1582  1.4581
 2406SOL     OW18676   2.249   4.309  13.369  0.4223  0.3497 -0.0165
 2406SOL    HW118677   2.261   4.226  13.417 -1.1331 -0.2292 -0.6324
 2406SOL    HW218678   2.232   4.367  13.443 -0.0104  1.3996 -0.9423
 2407SOL     OW18679   1.167   3.799   1.111 -0.3387  0.3700 -0.3311
 2407SOL    HW118680   1.161   3.760   1.199  0.0164  3.6663  1.1752
 2407SOL    HW218681   1.261   3.816   1.101 -0.0492 -2.6723 -2.7754
 2408SOL     OW18682   1.142   0.116  13.938 -0.1154 -0.9428 -0.4350
 2408SOL    HW118683   1.184   0.120  13.852 -1.2348 -0.9874 -0.9927
 2408SOL    HW218684   1.055   0.148  13.915 -0.3109 -2.1182 -1.3470
 2409SOL     OW18685   0.436   0.716   7.370 -0.1793  0.1906 -0.1977
 2409SOL    HW118686   0.456   0.749   7.458  3.8339 -0.7195 -0.7317
 2409SOL    HW218687   0.341   0.717   7.380 -0.0998  1.2367  0.4139
 2410SOL     OW18688   2.505   1.177   2.919  0.6289 -0.1936 -0.5952
 2410SOL    HW118689   2.564   1.189   2.845  1.7430  1.9734  0.6623
 2410SOL    HW218690   2.425   1.132   2.891 -0.2878 -0.9630  3.2454
 2411SOL     OW18691   0.633   4.121   3.495 -0.3507  0.4325 -0.4994
 2411SOL    HW118692   0.600   4.181   3.561  0.2550  0.4550 -0.2208
 2411SOL    HW218693   0.671   4.167   3.420 -0.7321  1.7974  0.1578
 2412SOL     OW18694   2.327   0.888   1.038  0.6795 -0.2646  0.0520
 2412SOL    HW118695   2.371   0.839   1.107  1.7351 -2.0497 -1.8985
 2412SOL    HW218696   2.377   0.969   1.030 -0.6020  0.5961  0.9337
 2413SOL     OW18697   3.435   0.757   2.718 -0.6861  0.1095 -0.6077
 2413SOL    HW118698   3.390   0.677   2.689 -1.7420 -0.1164  1.6528
 2413SOL    HW218699   3.439   0.798   2.632  1.9827 -0.5617 -0.8055
 2414SOL     OW18700   2.935   4.563   2.974 -0.5002  0.8191  0.4636
 2414SOL    HW118701   2.979   4.537   2.893 -0.2321  1.6553  0.3385
 2414SOL    HW218702   2.965   4.497   3.036  0.1825  0.9251  0.2415
 2415SOL     OW18703   0.919   4.364  15.070 -0.0189  0.6606 -0.0920
 2415SOL    HW118704   0.937   4.273  15.094  4.1163  1.7207  0.7502
 2415SOL    HW218705   1.001   4.412  15.081 -0.8945  2.0389  0.3915
 2416SOL     OW18706   0.893   3.850   0.728 -0.1111 -0.3346 -0.0923
 2416SOL    HW118707   0.907   3.759   0.702  0.6053 -0.2978  0.1748
 2416SOL    HW218708   0.983   3.878   0.713 -0.1846  0.7595  1.5213
 2417SOL     OW18709   3.769   2.611  14.479 -0.2805  0.0927 -0.2028
 2417SOL    HW118710   3.839   2.669  14.447  0.5870 -0.2664  1.0444
 2417SOL    HW218711   3.754   2.647  14.566  0.6588  1.6104 -0.6536
 2418SOL     OW18712   1.601   0.307   3.973  0.2420 -0.1631 -0.0453
 2418SOL    HW118713   1.582   0.331   3.882 -0.2579 -0.0780  0.0822
 2418SOL    HW218714   1.571   0.216   3.971 -1.4052  0.4250 -1.9541
 2419SOL     OW18715   1.480   0.204  16.274 -0.1581 -0.1974  0.2261
 2419SOL    HW118716   1.443   0.220  16.361 -2.9147 -0.1224 -0.9546
 2419SOL    HW218717   1.481   0.109  16.282 -0.4944 -0.2315 -0.1723
 2420SOL     OW18718   1.428   4.185   4.077  0.0601 -0.5200 -0.0823
 2420SOL    HW118719   1.357   4.146   4.026 -1.1047  0.2003  0.9798
 2420SOL    HW218720   1.457   4.103   4.117  0.9857 -0.6551 -1.0315
 2421SOL     OW18721   0.116   3.315   4.045 -0.2927 -0.6347  0.4150
 2421SOL    HW118722   0.130   3.375   3.972 -1.0928 -2.2963 -1.0991
 2421SOL    HW218723   0.155   3.234   4.012 -0.2390 -0.0672 -0.9030
 2422SOL     OW18724   2.702   2.772   8.542  0.5319 -0.2900 -0.6099
 2422SOL    HW118725   2.769   2.840   8.535 -0.5360  0.6930 -1.2879
 2422SOL    HW218726   2.759   2.697   8.562 -1.2929 -1.5629 -0.2219
 2423SOL     OW18727   1.184   1.686   7.910 -0.1305  0.3271 -0.3179
 2423SOL    HW118728   1.107   1.709   7.962 -0.5068 -2.2000  0.2448
 2423SOL    HW218729   1.246   1.678   7.983 -1.2233 -0.1806  0.5496
 2424SOL     OW18730   2.565   1.049   7.593  0.4452  0.0044 -0.0615
 2424SOL    HW118731   2.528   0.981   7.650  3.0349 -1.9421 -0.7413
 2424SOL    HW218732   2.527   1.127   7.634  0.8931  0.2086 -0.0411
 2425SOL     OW18733   2.636   0.239   0.147 -0.2601  0.1624 -0.8889
 2425SOL    HW118734   2.548   0.259   0.178 -1.0006 -2.6095 -1.2315
 2425SOL    HW218735   2.685   0.271   0.223  0.9521  1.0977 -2.0569
 2426SOL     OW18736   4.294   4.333   1.906  0.1822 -0.2245 -0.3534
 2426SOL    HW118737   4.375   4.335   1.855  0.2283 -0.2528 -0.2809
 2426SOL    HW218738   4.313   4.256   1.960  0.9229 -1.4901 -2.4174
 2427SOL     OW18739   1.542   1.490  12.639 -0.1234 -0.3759  0.2114
 2427SOL    HW118740   1.511   1.420  12.581 -0.0987 -0.4380  0.2726
 2427SOL    HW218741   1.581   1.434  12.705  2.0460  1.8577  0.8132
 2428SOL     OW18742   3.456   1.159  17.120 -0.6349 -0.4572  0.2240
 2428SOL    HW118743   3.534   1.211  17.099 -1.5319  0.9546  0.3131
 2428SOL    HW218744   3.442   1.187  17.210 -1.1560  0.8664 -0.2583
 2429SOL     OW18745   4.624   1.474   4.269  0.2418 -0.4044  0.5451
 2429SOL    HW118746   4.708   1.501   4.232 -0.6121  0.3302 -0.8482
 2429SOL    HW218747   4.650   1.390   4.306 -3.2325 -1.5743  0.3716
 2430SOL     OW18748   2.471   2.887   3.442  0.1446  0.2466 -0.2360
 2430SOL    HW118749   2.555   2.931   3.457 -0.5222  1.5604 -0.3970
 2430SOL    HW218750   2.485   2.834   3.363  1.2146  2.3209 -1.4373
 2431SOL     OW18751   0.629   0.738   3.539 -0.4012 -0.3377  0.5992
 2431SOL    HW118752   0.718   0.755   3.508 -0.6415  1.2726  0.8024
 2431SOL    HW218753   0.644   0.713   3.630  1.0711 -2.4145 -0.2091
 2432SOL     OW18754   4.272   4.482   5.774 -0.0132 -0.7608 -0.2917
 2432SOL    HW118755   4.352   4.490   5.825  0.3133  1.1534 -1.0857
 2432SOL    HW218756   4.310   4.511   5.691  0.1978  2.0383  0.7795
 2433SOL     OW18757   0.319   1.113   3.387  0.0151  0.0128  0.2462
 2433SOL    HW118758   0.340   1.144   3.476 -0.4994 -3.0438  1.4195
 2433SOL    HW218759   0.308   1.193   3.336  0.9157  0.1454  0.2638
 2434SOL     OW18760   3.941   2.191  13.247  0.2040  0.4433 -0.0611
 2434SOL    HW118761   3.863   2.189  13.191  1.3415 -2.9112 -1.5355
 2434SOL    HW218762   3.918   2.271  13.294  2.0966 -0.0769  1.7355
 2435SOL     OW18763   0.126   4.345   5.478  0.4169 -0.3921  0.2523
 2435SOL    HW118764   0.033   4.328   5.491  0.2534  1.9863  2.1090
 2435SOL    HW218765   0.157   4.370   5.565 -0.3814  0.5739  0.2536
 2436SOL     OW18766   1.054   0.674  11.420  0.4539  0.6094  0.2206
 2436SOL    HW118767   1.084   0.655  11.509  0.2629  0.1254  0.1813
 2436SOL    HW218768   1.073   0.767  11.410 -2.6914  1.4291  1.9733
 2437SOL     OW18769   2.062   3.873   9.480 -0.1239 -0.0831 -0.1015
 2437SOL    HW118770   2.049   3.804   9.415 -0.0803 -0.1728 -0.0135
 2437SOL    HW218771   2.124   3.929   9.434  0.5440  1.0964  2.2516
 2438SOL     OW18772   1.158   0.729   9.297 -0.0565  0.3152  0.2349
 2438SOL    HW118773   1.157   0.782   9.376  1.3557  1.2750 -0.3959
 2438SOL    HW218774   1.136   0.786   9.223 -0.4340 -3.4977 -2.5546
 2439SOL     OW18775   3.639   1.135   3.652 -0.2912 -0.1893  0.2831
 2439SOL    HW118776   3.718   1.176   3.688  0.1680 -0.4727 -0.4118
 2439SOL    HW218777   3.679   1.055   3.617  1.8383  1.2517 -0.5922
 2440SOL     OW18778   0.861   0.638   9.210 -0.0252 -0.1644  0.3150
 2440SOL    HW118779   0.799   0.683   9.153  0.2804  1.0725  0.9568
 2440SOL    HW218780   0.846   0.681   9.295  0.2211 -1.7154  1.1515
 2441SOL     OW18781   2.229   2.656   6.180  0.4060 -0.4299 -0.1644
 2441SOL    HW118782   2.247   2.689   6.268 -1.2656 -0.0695  0.0496
 2441SOL    HW218783   2.314   2.622   6.154 -0.2032 -0.2960 -2.3313
 2442SOL     OW18784   4.201   4.202   1.098 -0.0068 -0.1444 -0.9243
 2442SOL    HW118785   4.274   4.245   1.142 -1.0886  0.8125 -0.0516
 2442SOL    HW218786   4.245   4.125   1.062 -1.8170 -0.6813 -1.9914
 2443SOL     OW18787   4.547   0.008   7.960  0.0047 -0.1133  0.6205
 2443SOL    HW118788   4.526   0.093   7.922 -2.6196  0.0404  2.3843
 2443SOL    HW218789   4.502   4.680   7.894  1.6563 -3.4439  2.1574
 2444SOL     OW18790   2.716   3.092   4.490  0.6584 -0.0019 -0.3170
 2444SOL    HW118791   2.689   3.175   4.529 -1.9287 -1.5929  1.3278
 2444SOL    HW218792   2.809   3.113   4.481  0.8710 -0.5839  0.5115
 2445SOL     OW18793   4.058   1.038  12.265  0.2214 -0.7044  0.0789
 2445SOL    HW118794   4.029   0.960  12.217  1.0547 -1.7388  1.2345
 2445SOL    HW218795   4.089   1.002  12.348  0.7629 -1.0450 -0.2700
 2446SOL     OW18796   0.124   1.107   2.020 -0.6826  0.1434 -0.5796
 2446SOL    HW118797   0.091   1.039   1.962 -2.5372 -1.1178  1.9921
 2446SOL    HW218798   0.067   1.076   2.090  0.1699 -0.2714 -0.0763
 2447SOL     OW18799   3.020   3.740   4.031 -0.4727  0.7691 -0.4032
 2447SOL    HW118800   3.023   3.708   3.941  0.2647 -0.7305  0.1672
 2447SOL    HW218801   2.977   3.823   4.008 -0.6863  1.3063  1.8720
 2448SOL     OW18802   3.520   0.951   7.358  0.0954 -0.3640  0.4500
 2448SOL    HW118803   3.532   1.028   7.413  1.4542 -0.6152  0.5030
 2448SOL    HW218804   3.430   0.927   7.381 -0.3619 -0.0098 -0.9395
 2449SOL     OW18805   2.304   2.908   2.512  0.0043 -0.0352 -0.1423
 2449SOL    HW118806   2.369   2.855   2.467  0.3162  0.5620 -0.3911
 2449SOL    HW218807   2.349   2.993   2.515  1.1817 -0.6456 -0.5291
 2450SOL     OW18808   1.162   1.275   0.773  0.2749  0.0580 -0.2369
 2450SOL    HW118809   1.228   1.223   0.819  1.2269 -0.2625 -1.9746
 2450SOL    HW218810   1.178   1.241   0.685 -1.5182 -0.2510 -0.4351
 2451SOL     OW18811   3.217   0.927  10.588  0.3952 -0.0227 -0.1170
 2451SOL    HW118812   3.275   0.937  10.512  0.1556 -1.0254 -0.4301
 2451SOL    HW218813   3.207   1.013  10.630  0.6599 -0.5466  1.0114
 2452SOL     OW18814   1.861   2.381  11.843  0.3415  0.0363  0.2861
 2452SOL    HW118815   1.941   2.399  11.794  0.3546  0.1524  0.3520
 2452SOL    HW218816   1.864   2.442  11.916  0.4009  0.3614  0.0141
 2453SOL     OW18817   3.925   2.519   8.236  0.1969 -0.1629 -0.0098
 2453SOL    HW118818   4.006   2.562   8.207 -0.5850  1.1106 -0.3175
 2453SOL    HW218819   3.895   2.582   8.301 -1.0535  0.8431 -1.5592
 2454SOL     OW18820   1.733   1.783  11.650  0.3695  0.0372 -0.6084
 2454SOL    HW118821   1.787   1.784  11.571 -0.4230  0.7643 -1.1368
 2454SOL    HW218822   1.760   1.697  11.683 -2.6004 -1.3767 -1.9491
 2455SOL     OW18823   1.199   1.327  13.822 -0.1466  0.0834  0.4138
 2455SOL    HW118824   1.266   1.355  13.883 -0.9224 -0.9564  1.7549
 2455SOL    HW218825   1.127   1.307  13.883 -2.1211  0.3401 -1.8287
 2456SOL     OW18826   3.971   0.455   0.736 -0.1414  0.5277  0.3546
 2456SOL    HW118827   3.888   0.500   0.752 -0.2075 -0.0346  1.5755
 2456SOL    HW218828   3.941   0.373   0.696 -1.3585  1.0397  0.2103
 2457SOL     OW18829   1.801   2.017  10.635 -0.4479 -0.8773 -0.2655
 2457SOL    HW118830   1.831   2.108  10.633 -2.2748 -0.2429  1.2016
 2457SOL    HW218831   1.843   2.002  10.720 -0.1085 -0.4171 -0.3496
 2458SOL     OW18832   0.707   3.261   1.166 -0.4595 -0.5498  0.0183
 2458SOL    HW118833   0.795   3.262   1.203 -0.8374  1.8558  0.8601
 2458SOL    HW218834   0.673   3.179   1.203  1.4295 -1.3232  0.0668
 2459SOL     OW18835   3.623   2.764  16.954  0.8573  0.3480 -0.3787
 2459SOL    HW118836   3.690   2.707  16.993  0.3020 -0.5197 -0.6950
 2459SOL    HW218837   3.554   2.744  17.017  1.1568 -0.1089 -0.1953
 2460SOL     OW18838   2.545   4.016   6.142 -0.6239  0.1425 -0.1842
 2460SOL    HW118839   2.482   4.041   6.210 -1.7579  0.0364 -1.1872
 2460SOL    HW218840   2.628   3.996   6.185 -1.4070  0.1368  1.3592
 2461SOL     OW18841   0.866   0.913   7.635  0.2478 -0.3495 -0.1690
 2461SOL    HW118842   0.890   0.978   7.701  0.7569 -1.0227  0.3033
 2461SOL    HW218843   0.807   0.855   7.684  0.3298 -1.4506 -1.4024
 2462SOL     OW18844   3.726   1.901   9.557 -0.2161  0.1590 -0.4988
 2462SOL    HW118845   3.713   1.942   9.642 -0.0189  2.0065 -1.3711
 2462SOL    HW218846   3.822   1.904   9.550 -0.2461  0.4622 -0.7573
 2463SOL     OW18847   3.204   4.491   3.602 -0.3638 -0.0169 -0.5252
 2463SOL    HW118848   3.189   4.506   3.695  0.6570 -2.4553  0.0416
 2463SOL    HW218849   3.112   4.473   3.579 -0.6074  0.1742  0.3086
 2464SOL     OW18850   2.716   3.801   4.301 -0.4925 -0.5900  0.5674
 2464SOL    HW118851   2.655   3.768   4.234  2.6671 -0.7898 -2.1810
 2464SOL    HW218852   2.701   3.894   4.282  0.1867  0.1650  3.7520
 2465SOL     OW18853   3.923   3.056  12.557 -0.1638  0.3750 -0.1058
 2465SOL    HW118854   3.953   2.966  12.548  1.0444  0.6746  0.8577
 2465SOL    HW218855   3.973   3.084  12.634 -2.4740  1.9393  0.8000
 2466SOL     OW18856   2.839   3.294  13.023  0.6400  0.2817  0.2385
 2466SOL    HW118857   2.808   3.337  13.102 -1.7410  2.2411 -1.7320
 2466SOL    HW218858   2.863   3.369  12.969  0.4542 -0.1188 -0.4016
 2467SOL     OW18859   0.910   4.635   4.388 -0.1126 -0.2244  0.8047
 2467SOL    HW118860   0.866   4.707   4.342  0.2205 -0.1884  0.5404
 2467SOL    HW218861   0.991   4.685   4.403 -0.8336  0.8931  0.9949
 2468SOL     OW18862   4.357   2.814   8.408  0.2574  0.5100 -0.4673
 2468SOL    HW118863   4.334   2.740   8.465 -1.0846  1.7858  0.6363
 2468SOL    HW218864   4.414   2.867   8.464 -0.9942  0.6802  0.6511
 2469SOL     OW18865   0.356   3.421  16.825  0.3116  0.1971  0.0195
 2469SOL    HW118866   0.396   3.340  16.856 -0.7590  0.2176  1.4622
 2469SOL    HW218867   0.313   3.454  16.904  1.1412 -1.9252  1.3295
 2470SOL     OW18868   2.505   0.870  14.589 -0.2259  0.7702  0.4159
 2470SOL    HW118869   2.484   0.962  14.607  0.2871  0.7147  1.2745
 2470SOL    HW218870   2.425   0.836  14.549  0.1599 -0.3678  0.6198
 2471SOL     OW18871   2.530   2.814   7.721 -0.4163 -0.3987 -0.1446
 2471SOL    HW118872   2.542   2.754   7.794  0.6286 -0.5701 -0.4561
 2471SOL    HW218873   2.437   2.815   7.701 -0.4901  1.0185  0.2209
 2472SOL     OW18874   3.370   2.970   8.950 -0.1868 -0.1482 -0.0835
 2472SOL    HW118875   3.322   2.979   9.032 -2.8560 -1.8171 -1.4183
 2472SOL    HW218876   3.343   3.045   8.897  1.0366  0.4107  0.0914
 2473SOL     OW18877   4.675   0.005  13.656 -0.0398  0.1872  0.2456
 2473SOL    HW118878   4.710   4.696  13.574  2.3251  1.3786  0.7529
 2473SOL    HW218879   4.661   0.096  13.630  2.5669  0.4461 -0.2553
 2474SOL     OW18880   3.540   3.487   6.430  0.1168 -0.2925 -0.4798
 2474SOL    HW118881   3.521   3.498   6.523 -0.3806  0.0162 -0.6116
 2474SOL    HW218882   3.478   3.555   6.402 -2.2066 -2.6498 -1.0112
 2475SOL     OW18883   1.488   0.252  16.700  0.0333  0.3199 -0.4042
 2475SOL    HW118884   1.539   0.327  16.730  1.3910 -1.0849  0.8400
 2475SOL    HW218885   1.443   0.219  16.778  0.5882 -0.4989 -0.4195
 2476SOL     OW18886   1.615   2.091  15.770  0.0727  0.0806  0.0473
 2476SOL    HW118887   1.541   2.118  15.825  0.8717  0.5883  0.8697
 2476SOL    HW218888   1.679   2.138  15.825  1.0892 -2.9630  1.4495
 2477SOL     OW18889   3.962   4.241  16.058  0.2242 -0.0530 -0.0358
 2477SOL    HW118890   3.998   4.173  16.002 -0.3819 -0.6933  0.3538
 2477SOL    HW218891   3.919   4.301  15.997  1.4658  0.2783 -0.5743
 2478SOL     OW18892   3.525   4.022  12.558  0.1125  0.0415 -0.3821
 2478SOL    HW118893   3.471   4.042  12.482  1.3525 -2.1273 -1.8243
 2478SOL    HW218894   3.521   3.928  12.542  0.3109 -0.2264  1.1406
 2479SOL     OW18895   4.030   2.797   5.452 -0.0296 -0.5029  0.4459
 2479SOL    HW118896   4.073   2.879   5.477 -0.8719  0.3555 -0.9371
 2479SOL    HW218897   3.971   2.827   5.383 -0.2084 -1.1996  0.2959
 2480SOL     OW18898   4.346   3.359   6.911  0.7206  0.6064  0.3560
 2480SOL    HW118899   4.426   3.310   6.894 -0.6835 -0.8758 -2.0660
 2480SOL    HW218900   4.321   3.317   6.993  0.5987  1.0487  0.5465
 2481SOL     OW18901   4.375   3.699  14.405  0.5818  0.2361  0.2420
 2481SOL    HW118902   4.305   3.687  14.470 -0.2024  1.5902 -0.3441
 2481SOL    HW218903   4.328   3.716  14.323 -0.3776  0.0119  0.7367
 2482SOL     OW18904   3.910   0.350  16.108  0.3517 -0.1628  0.2299
 2482SOL    HW118905   3.855   0.336  16.186  0.2188  1.2728  0.3793
 2482SOL    HW218906   3.847   0.316  16.044 -0.3124  2.0445 -0.2613
 2483SOL     OW18907   3.157   1.875  10.288  0.3704  1.2685  0.2370
 2483SOL    HW118908   3.123   1.882  10.377 -2.6142 -0.6535 -0.7290
 2483SOL    HW218909   3.165   1.780  10.276  0.2300  1.5190 -1.9172
 2484SOL     OW18910   4.311   3.546  16.254 -0.2238 -0.0800 -0.4033
 2484SOL    HW118911   4.217   3.532  16.240 -0.1583 -0.7254 -0.2010
 2484SOL    HW218912   4.344   3.461  16.225 -1.3053 -1.0013  1.0303
 2485SOL     OW18913   1.340   2.872   7.373  0.2018 -0.3209 -0.2060
 2485SOL    HW118914   1.278   2.943   7.360  0.8194  0.2994  0.2442
 2485SOL    HW218915   1.299   2.836   7.452  0.0648 -0.8842 -0.5308
 2486SOL     OW18916   0.102   2.900   6.385  0.2541 -0.4234  0.1940
 2486SOL    HW118917   0.047   2.950   6.445 -1.0243 -0.5509 -0.8743
 2486SOL    HW218918   0.039   2.832   6.363  1.5631 -0.9765 -1.8624
 2487SOL     OW18919   0.776   1.635   5.381  0.6728  0.8495  0.0090
 2487SOL    HW118920   0.863   1.607   5.406  0.8341  0.3169 -1.1567
 2487SOL    HW218921   0.723   1.594   5.449  0.2678  0.0689 -0.7831
 2488SOL     OW18922   0.003   2.127   4.785  0.2475 -0.9258  0.2351
 2488SOL    HW118923   4.701   2.193   4.720  2.3560 -1.2604 -0.9882
 2488SOL    HW218924   4.660   2.134   4.851  0.4922 -0.2425  0.4158
 2489SOL     OW18925   0.120   2.085  12.159  0.4674 -0.1108 -0.1831
 2489SOL    HW118926   0.042   2.116  12.204 -1.6867 -0.4733 -3.6490
 2489SOL    HW218927   0.071   2.069  12.079  0.9226  2.1531 -0.9339
 2490SOL     OW18928   4.276   3.453   5.815  0.1979 -0.1984 -0.1100
 2490SOL    HW118929   4.284   3.366   5.777  0.2594 -0.5759  0.7769
 2490SOL    HW218930   4.274   3.417   5.903  1.4186  0.9134  0.3760
 2491SOL     OW18931   2.903   2.224   4.030  0.1781  0.3333  0.6218
 2491SOL    HW118932   2.927   2.316   4.020 -1.0119  0.4193 -1.4636
 2491SOL    HW218933   2.808   2.224   4.022  0.0913  1.7704  1.7083
 2492SOL     OW18934   0.413   0.634   6.914  0.0755  0.0336  0.1127
 2492SOL    HW118935   0.498   0.643   6.872 -0.7519  2.0019 -1.1162
 2492SOL    HW218936   0.371   0.719   6.900  0.8014  0.3819  0.0982
 2493SOL     OW18937   4.592   3.993  14.019 -0.1324 -0.0761  0.1139
 2493SOL    HW118938   4.590   4.080  14.057 -1.4634  0.4827 -1.2070
 2493SOL    HW218939   4.500   3.983  13.992  0.0887  1.6390 -1.2897
 2494SOL     OW18940   0.695   1.132   1.615 -0.2959 -0.0384  0.0623
 2494SOL    HW118941   0.611   1.119   1.658 -0.7467 -1.3760 -1.2360
 2494SOL    HW218942   0.692   1.059   1.553 -3.4437 -0.3139  0.5328
 2495SOL     OW18943   1.035   2.558  13.423  0.3983 -0.4068  0.5899
 2495SOL    HW118944   1.004   2.520  13.341  1.2201 -0.2261  0.1894
 2495SOL    HW218945   0.973   2.631  13.428  0.0674 -0.6976  0.6844
 2496SOL     OW18946   3.889   2.256   8.193  0.4419  0.6646 -0.4383
 2496SOL    HW118947   3.912   2.220   8.279 -0.3644  0.9340 -0.1031
 2496SOL    HW218948   3.887   2.352   8.202 -1.8888  0.4466  1.4991
 2497SOL     OW18949   2.129   1.650   3.567 -0.0149  0.7366  0.3032
 2497SOL    HW118950   2.083   1.566   3.559 -0.5653  1.1389 -0.7398
 2497SOL    HW218951   2.065   1.696   3.513 -0.1867 -0.3661 -0.4379
 2498SOL     OW18952   0.083   4.532   8.958 -0.9518 -0.7841 -0.4530
 2498SOL    HW118953   0.007   4.587   8.936  0.7736  1.3507 -1.0633
 2498SOL    HW218954   0.155   4.578   8.916  0.4000 -1.8090  0.7813
 2499SOL     OW18955   2.933   2.945  17.081  0.5557 -0.2215 -0.0312
 2499SOL    HW118956   2.960   3.034  17.104 -2.6664  0.1549  2.3549
 2499SOL    HW218957   2.908   2.912  17.167  1.6114  1.4145  0.9089
 2500SOL     OW18958   1.273   4.353   9.184 -0.1498 -0.1929  0.1462
 2500SOL    HW118959   1.290   4.259   9.176  0.5409  0.0544 -1.3151
 2500SOL    HW218960   1.290   4.354   9.278  1.6991  1.3165 -0.1971
 2501SOL     OW18961   1.597   1.955  14.293  0.3824 -0.6157 -0.6906
 2501SOL    HW118962   1.661   1.924  14.357  0.6277 -1.1722 -1.2099
 2501SOL    HW218963   1.653   1.955  14.215  1.1998 -0.2861 -0.1021
 2502SOL     OW18964   2.550   3.338   5.234  0.1022 -0.3112 -0.2156
 2502SOL    HW118965   2.586   3.302   5.315 -2.2223 -1.0825  0.4620
 2502SOL    HW218966   2.478   3.395   5.262  0.5425  0.2670 -0.2651
 2503SOL     OW18967   1.583   0.904   8.133 -0.0421 -0.0538  0.0071
 2503SOL    HW118968   1.501   0.906   8.182  0.1528 -0.3429  0.3428
 2503SOL    HW218969   1.605   0.812   8.145 -2.7321 -0.6904 -0.0088
 2504SOL     OW18970   3.924   3.339   5.921 -0.1699 -0.2814 -0.2672
 2504SOL    HW118971   3.988   3.384   5.976 -0.9536 -0.7024  0.9793
 2504SOL    HW218972   3.862   3.317   5.990 -0.9925  0.4176 -0.7679
 2505SOL     OW18973   3.408   4.407   7.655  0.3323 -0.0841 -0.0788
 2505SOL    HW118974   3.412   4.370   7.744  2.3070  0.8566  0.2161
 2505SOL    HW218975   3.327   4.456   7.664 -0.0401 -0.5090 -1.0933
 2506SOL     OW18976   1.503   3.047   8.836  0.4773 -0.2063  0.2230
 2506SOL    HW118977   1.442   3.064   8.764 -0.2399 -0.4322  0.7684
 2506SOL    HW218978   1.489   2.954   8.856  1.4625 -0.5712 -0.7815
 2507SOL     OW18979   4.640   0.285   2.989  0.1916  0.6760 -0.9573
 2507SOL    HW118980   4.557   0.243   3.012  0.5176  1.1581  1.0551
 2507SOL    HW218981   4.702   0.241   3.046  0.3420 -0.5522 -2.0846
 2508SOL     OW18982   1.509   1.500   5.272  0.2485  0.3985  0.3756
 2508SOL    HW118983   1.522   1.593   5.253  0.0292  0.3033 -0.2391
 2508SOL    HW218984   1.546   1.476   5.187  1.0160  1.0997  0.5127
 2509SOL     OW18985   1.121   0.907  14.934 -0.0116  0.5179 -0.2016
 2509SOL    HW118986   1.046   0.953  14.899 -0.0197  0.1927 -0.6112
 2509SOL    HW218987   1.106   0.819  14.899  0.3636  1.3982 -2.5290
 2510SOL     OW18988   0.250   1.137   1.047 -0.3720 -0.2564  0.5449
 2510SOL    HW118989   0.187   1.135   1.119  0.5183  3.1011  1.3994
 2510SOL    HW218990   0.329   1.141   1.101 -0.0965  0.1758  0.1051
 2511SOL     OW18991   0.442   2.337   5.085 -0.4087  0.5492  0.1814
 2511SOL    HW118992   0.396   2.256   5.109  0.9432 -0.7422 -1.5754
 2511SOL    HW218993   0.532   2.309   5.100 -1.4013 -0.9275  3.4129
 2512SOL     OW18994   2.000   3.367  16.865  0.4531 -0.2617 -0.3391
 2512SOL    HW118995   1.940   3.440  16.878  2.5023  1.7025 -1.7102
 2512SOL    HW218996   1.995   3.329  16.952  0.2989  2.1023  0.6842
 2513SOL     OW18997   2.693   2.569  10.288  0.2477  0.6251 -0.8686
 2513SOL    HW118998   2.646   2.570  10.372 -1.0026  2.0813 -1.6027
 2513SOL    HW218999   2.761   2.635  10.290  0.0411  0.8555 -1.5592
 2514SOL     OW19000   1.755   1.327   0.667  0.0221  0.6466  0.5268
 2514SOL    HW119001   1.849   1.319   0.650 -0.6227  0.7577 -3.0748
 2514SOL    HW219002   1.742   1.422   0.656 -0.7705  0.4063 -0.6082
 2515SOL     OW19003   2.296   0.192   5.643 -0.1234  0.4208  0.2489
 2515SOL    HW119004   2.255   0.278   5.642 -0.3540  0.3111  0.1592
 2515SOL    HW219005   2.222   0.131   5.643  0.2500 -0.0334 -0.4876
 2516SOL     OW19006   1.787   1.472   1.486 -0.0659 -0.0095 -0.1005
 2516SOL    HW119007   1.759   1.564   1.491  3.0076  0.9122  0.2218
 2516SOL    HW219008   1.740   1.438   1.561 -0.8167 -2.2015 -1.5779
 2517SOL     OW19009   2.091   0.555  11.751  0.1105  0.3431  0.3202
 2517SOL    HW119010   2.096   0.648  11.731 -1.1083 -0.1783 -2.5251
 2517SOL    HW219011   2.027   0.524  11.686  1.3766 -1.4057 -0.0930
 2518SOL     OW19012   2.631   4.139   3.159 -0.2250  0.0936 -0.1705
 2518SOL    HW119013   2.569   4.177   3.221 -0.4974  1.9658 -1.6120
 2518SOL    HW219014   2.588   4.161   3.077  0.0604  0.2385 -0.2805
 2519SOL     OW19015   2.115   3.206  15.555  0.2472  0.1942  0.0939
 2519SOL    HW119016   2.201   3.198  15.596  0.2418  0.0134  0.0714
 2519SOL    HW219017   2.110   3.298  15.529 -2.0541  0.3100  0.9483
 2520SOL     OW19018   3.447   1.433   8.811 -0.2319  0.2987  0.3996
 2520SOL    HW119019   3.384   1.456   8.879  0.1768  2.4226  0.0464
 2520SOL    HW219020   3.416   1.344   8.793  1.4675 -0.2506  0.1435
 2521SOL     OW19021   1.798   3.213   1.940 -0.5858 -0.0011 -0.4257
 2521SOL    HW119022   1.879   3.258   1.919 -2.6337  2.9123 -2.1348
 2521SOL    HW219023   1.789   3.235   2.033 -1.1952  0.9064 -0.7009
 2522SOL     OW19024   1.947   1.780   3.397  0.4443 -0.1182  0.5858
 2522SOL    HW119025   1.857   1.802   3.422 -0.3098 -2.5348  0.0713
 2522SOL    HW219026   1.935   1.764   3.303 -0.9454 -2.1438  1.0917
 2523SOL     OW19027   2.109   2.447  11.749  0.2615 -0.6807 -0.4804
 2523SOL    HW119028   2.088   2.427  11.658  0.1252  0.9607 -0.8004
 2523SOL    HW219029   2.183   2.508  11.750 -1.3292  1.2002  1.5437
 2524SOL     OW19030   2.935   4.097  14.023 -0.1030  0.0166 -0.3482
 2524SOL    HW119031   2.974   4.088  13.937  0.0035 -2.4836 -0.0312
 2524SOL    HW219032   2.844   4.082  13.997 -0.6754 -0.4682  1.9088
 2525SOL     OW19033   0.610   2.213  12.336 -0.0350 -0.3192 -0.4594
 2525SOL    HW119034   0.571   2.186  12.419  1.0640  0.3679  0.2660
 2525SOL    HW219035   0.692   2.165  12.328  0.0950 -0.1547 -0.0909
 2526SOL     OW19036   1.783   3.129   8.911  0.0993  0.7607  0.6136
 2526SOL    HW119037   1.817   3.097   8.827  0.7407 -0.6667  1.4284
 2526SOL    HW219038   1.688   3.114   8.911  0.0298  1.2280  2.4354
 2527SOL     OW19039   0.171   4.114   8.590 -0.0315 -0.2849  0.2216
 2527SOL    HW119040   0.247   4.076   8.633 -1.1071 -1.1272  1.3777
 2527SOL    HW219041   0.100   4.063   8.629 -1.8347  1.7086 -0.4238
 2528SOL     OW19042   0.200   0.578   8.435  0.8513 -0.1965  0.0184
 2528SOL    HW119043   0.202   0.621   8.520 -2.3441  1.4915 -0.7709
 2528SOL    HW219044   0.275   0.521   8.448  0.9983  0.0245  0.1289
 2529SOL     OW19045   4.452   3.396  15.493  0.1445 -0.5504  0.1937
 2529SOL    HW119046   4.377   3.345  15.463 -0.2590 -0.2049  0.6182
 2529SOL    HW219047   4.514   3.354  15.433  1.0830  0.5844  0.3544
 2530SOL     OW19048   4.325   3.926   9.567  0.5046 -0.1736 -0.5726
 2530SOL    HW119049   4.264   3.854   9.579  1.1074 -0.9235 -2.1166
 2530SOL    HW219050   4.309   3.966   9.653  0.3879 -2.3771  0.4298
 2531SOL     OW19051   3.167   0.226  10.325  0.5277  0.1669 -0.4818
 2531SOL    HW119052   3.201   0.249  10.412  1.2688 -0.4941 -0.5989
 2531SOL    HW219053   3.242   0.188  10.279  1.9617 -0.7523  2.6217
 2532SOL     OW19054   0.317   1.815   5.491 -0.0464 -0.3363  0.5577
 2532SOL    HW119055   0.309   1.738   5.548  0.8561 -0.1631  0.9291
 2532SOL    HW219056   0.413   1.814   5.484 -0.0559  0.5345  0.3553
 2533SOL     OW19057   4.673   3.618  13.330  0.5389 -0.2742 -0.6033
 2533SOL    HW119058   0.033   3.616  13.285  0.3303 -0.8311 -0.9683
 2533SOL    HW219059   4.675   3.687  13.397  0.2983 -0.4794 -0.3857
 2534SOL     OW19060   1.865   4.157   4.852 -0.1544  0.0156  0.0317
 2534SOL    HW119061   1.940   4.212   4.877  0.0970  0.4770 -1.7416
 2534SOL    HW219062   1.810   4.224   4.811 -0.9719 -1.3027 -1.0167
 2535SOL     OW19063   3.696   1.495   8.920 -0.0195  0.1285  0.0803
 2535SOL    HW119064   3.658   1.568   8.969  1.9639  1.2394 -0.0301
 2535SOL    HW219065   3.621   1.492   8.860  1.3102 -0.6254 -1.5603
 2536SOL     OW19066   1.153   2.999   9.574  0.1561  0.0936  0.0765
 2536SOL    HW119067   1.079   3.039   9.620 -0.8694 -0.6659 -0.9260
 2536SOL    HW219068   1.225   3.023   9.633  0.6728  1.9694 -1.3345
 2537SOL     OW19069   1.963   0.325   3.340 -0.0989  0.2317 -0.2054
 2537SOL    HW119070   1.976   0.232   3.354  0.8507  0.0505 -2.3650
 2537SOL    HW219071   1.963   0.351   3.248 -2.8048  1.9069  0.2355
 2538SOL     OW19072   1.994   0.606   3.387  0.2629 -0.4091 -0.3409
 2538SOL    HW119073   1.908   0.644   3.405  1.0281  0.3084  1.8260
 2538SOL    HW219074   1.972   0.514   3.375 -2.8996  0.4485 -1.1664
 2539SOL     OW19075   3.645   0.740   5.929 -0.4676  0.1076  0.0600
 2539SOL    HW119076   3.663   0.714   5.839 -0.0878 -0.3882  0.2789
 2539SOL    HW219077   3.660   0.654   5.969 -1.3870 -0.6087 -1.1374
 2540SOL     OW19078   3.603   1.714   3.697  0.5308 -0.0003 -0.5130
 2540SOL    HW119079   3.527   1.736   3.643  0.7970 -0.8913 -1.2528
 2540SOL    HW219080   3.605   1.619   3.684  3.0058 -0.1053  0.5642
 2541SOL     OW19081   0.882   3.909   3.579 -0.3252  0.3665 -0.0601
 2541SOL    HW119082   0.856   3.991   3.537 -0.2183  1.0002  1.1212
 2541SOL    HW219083   0.862   3.856   3.501 -0.4345  0.8075 -0.3337
 2542SOL     OW19084   2.748   2.473  12.800 -0.2034 -0.5748 -0.0731
 2542SOL    HW119085   2.692   2.450  12.874 -0.2858  2.5858  0.8529
 2542SOL    HW219086   2.700   2.551  12.772 -0.1643  0.1354  1.8100
 2543SOL     OW19087   0.784   1.070   6.532 -0.9918  0.3457  0.1953
 2543SOL    HW119088   0.852   1.134   6.554 -0.1301 -0.8214  0.8775
 2543SOL    HW219089   0.735   1.075   6.614 -1.4243  1.5185 -0.1312
 2544SOL     OW19090   2.676   2.745   3.904  0.0444  0.1582  0.6874
 2544SOL    HW119091   2.721   2.829   3.901  1.1038 -0.3961  1.0921
 2544SOL    HW219092   2.634   2.746   3.990 -1.2024 -0.3967  0.0892
 2545SOL     OW19093   4.054   0.514   9.892 -0.6693  0.1007  0.0434
 2545SOL    HW119094   3.970   0.491   9.852  1.3080 -0.6266 -3.7251
 2545SOL    HW219095   4.081   0.595   9.848 -2.0854  0.2224 -0.6094
 2546SOL     OW19096   2.898   1.535  17.080 -0.1364 -0.1676  0.2416
 2546SOL    HW119097   2.849   1.519  17.161  1.3525 -1.5113  0.8645
 2546SOL    HW219098   2.971   1.474  17.092  1.0935  1.0321 -1.2952
 2547SOL     OW19099   0.245   1.455   5.476  0.0213 -0.0603  0.9094
 2547SOL    HW119100   0.238   1.371   5.430 -4.4395  0.5303  0.4530
 2547SOL    HW219101   0.245   1.516   5.402  0.7976 -0.4462  0.5880
 2548SOL     OW19102   3.701   2.097   3.928 -0.1010  0.6617 -0.5508
 2548SOL    HW119103   3.793   2.069   3.928 -1.0986 -2.5885 -1.8890
 2548SOL    HW219104   3.714   2.190   3.913  1.2543  0.8108  1.4758
 2549SOL     OW19105   2.457   0.574  10.291 -0.3840 -0.5276 -0.1473
 2549SOL    HW119106   2.480   0.541  10.378 -0.0464 -0.3140 -0.1538
 2549SOL    HW219107   2.383   0.517  10.272 -0.0303 -1.1810  0.4319
 2550SOL     OW19108   3.608   1.627   2.510 -0.4257  0.2096  0.5307
 2550SOL    HW119109   3.673   1.587   2.568  0.0038 -1.7951 -1.3342
 2550SOL    HW219110   3.601   1.715   2.548 -1.8715  0.7856 -1.0760
 2551SOL     OW19111   4.114   0.664  14.425  0.1651  0.2241 -0.1848
 2551SOL    HW119112   4.062   0.731  14.470  1.5645 -0.7504  2.8856
 2551SOL    HW219113   4.077   0.676  14.338 -0.8282 -0.0802  0.1992
 2552SOL     OW19114   0.909   0.997  14.813 -0.2696  0.1536 -0.5752
 2552SOL    HW119115   0.887   1.028  14.725  0.5082 -0.6435 -1.0421
 2552SOL    HW219116   0.826   0.971  14.854 -0.5505  0.6910 -0.7947
 2553SOL     OW19117   4.493   1.126   8.671  0.3533  0.3236  0.3613
 2553SOL    HW119118   4.493   1.212   8.628 -1.0337  0.0463 -0.2168
 2553SOL    HW219119   4.430   1.076   8.618 -1.3243  1.9981  0.7584
 2554SOL     OW19120   1.584   2.539  10.383 -0.2679 -0.0296 -0.6343
 2554SOL    HW119121   1.533   2.477  10.435 -0.1868 -0.0863 -0.6228
 2554SOL    HW219122   1.572   2.508  10.294  1.0899  0.1121 -0.8674
 2555SOL     OW19123   0.099   2.456   6.606 -0.5265 -0.2981 -0.1468
 2555SOL    HW119124   0.170   2.470   6.543 -0.1203  0.1047  0.3968
 2555SOL    HW219125   0.056   2.541   6.608  0.0017  0.0022 -1.5789
 2556SOL     OW19126   2.288   1.440   5.317  0.2279  0.3726 -0.2750
 2556SOL    HW119127   2.259   1.353   5.290  0.0614  1.4202 -3.5266
 2556SOL    HW219128   2.228   1.461   5.388  2.8990 -0.4251  2.2104
 2557SOL     OW19129   1.699   2.236   7.034 -0.3588 -0.0326 -0.1028
 2557SOL    HW119130   1.633   2.248   6.966  0.0330  1.0768 -0.2760
 2557SOL    HW219131   1.673   2.144   7.046 -1.9703  0.7964  2.8644
 2558SOL     OW19132   0.602   4.266   7.052 -0.1520 -0.2061 -0.3368
 2558SOL    HW119133   0.509   4.283   7.066 -0.4223 -2.0205  0.0327
 2558SOL    HW219134   0.626   4.357   7.031 -2.2489  0.4074 -0.1094
 2559SOL     OW19135   2.570   0.980   4.051 -0.4640 -0.6052 -0.4643
 2559SOL    HW119136   2.665   0.970   4.040 -0.5100 -0.2462 -1.2139
 2559SOL    HW219137   2.530   0.974   3.964 -0.8203 -0.4046 -0.3109
 2560SOL     OW19138   2.868   3.043  13.138  0.1039 -0.3781  0.4775
 2560SOL    HW119139   2.820   3.123  13.117  1.8175  0.3812 -0.4750
 2560SOL    HW219140   2.835   2.980  13.074  0.1146  0.2314 -0.1226
 2561SOL     OW19141   1.146   0.434   8.445  0.6358 -0.0638  0.5058
 2561SOL    HW119142   1.055   0.462   8.448  0.2795 -1.1121 -0.3362
 2561SOL    HW219143   1.137   0.348   8.486  0.5647  0.3883  1.4299
 2562SOL     OW19144   1.482   2.190  12.616  0.1132 -0.5197 -0.2101
 2562SOL    HW119145   1.463   2.200  12.523  2.4659 -1.0651 -0.7440
 2562SOL    HW219146   1.576   2.207  12.617 -0.4660  2.8584 -1.2608
 2563SOL     OW19147   4.303   3.002   6.033  0.5485 -0.0635  0.1135
 2563SOL    HW119148   4.240   3.063   6.071  0.7501 -2.2123  3.9137
 2563SOL    HW219149   4.288   2.931   6.096 -2.2374  0.6649  0.2523
 2564SOL     OW19150   0.547   4.682   9.123 -0.0008 -0.4595 -0.1334
 2564SOL    HW119151   0.598   4.663   9.202  0.0730 -0.8770 -0.2816
 2564SOL    HW219152   0.489   4.607   9.139 -0.4597 -0.0159  0.2692
 2565SOL     OW19153   1.059   4.382   2.748 -0.4185 -0.3411 -0.1096
 2565SOL    HW119154   1.059   4.456   2.688 -1.1936  0.4603  0.8773
 2565SOL    HW219155   1.055   4.434   2.829 -0.7862 -1.5809  0.6770
 2566SOL     OW19156   0.559   2.650   3.675 -0.2298 -0.3601  0.2988
 2566SOL    HW119157   0.572   2.658   3.769 -1.7951 -0.0525  0.4875
 2566SOL    HW219158   0.572   2.556   3.663  0.6845 -0.4699  2.1144
 2567SOL     OW19159   3.268   1.607   3.179  0.1077  0.2645 -0.2156
 2567SOL    HW119160   3.290   1.692   3.141  0.3144  0.8196  1.1426
 2567SOL    HW219161   3.355   1.577   3.205  1.0610  2.9759 -0.2717
 2568SOL     OW19162   1.630   2.760   2.245 -0.2661 -0.7349  0.1471
 2568SOL    HW119163   1.718   2.755   2.209  0.2858  0.7586  1.2605
 2568SOL    HW219164   1.579   2.807   2.179  1.5355 -0.4840 -1.0666
 2569SOL     OW19165   0.038   4.430   9.838 -0.4571  0.2964  0.1112
 2569SOL    HW119166   0.096   4.504   9.860 -1.5631  0.5623  2.1757
 2569SOL    HW219167   4.687   4.485   9.818 -0.7007  0.2468  0.8712
 2570SOL     OW19168   4.453   3.565   7.185 -0.1757 -0.0332 -0.0479
 2570SOL    HW119169   4.420   3.568   7.095 -0.0636 -0.1957 -0.0931
 2570SOL    HW219170   4.371   3.552   7.233 -0.9618  2.1018 -0.7949
 2571SOL     OW19171   0.022   1.647   3.933 -0.2530 -0.4852  0.0325
 2571SOL    HW119172   0.038   1.727   3.882  2.6044  0.2140  2.0116
 2571SOL    HW219173   4.665   1.679   3.972  0.2135 -1.7908  2.0483
 2572SOL     OW19174   3.577   1.816   5.697  0.5067  0.2321 -1.0706
 2572SOL    HW119175   3.526   1.750   5.650 -0.8698 -0.1787  1.0346
 2572SOL    HW219176   3.563   1.895   5.644  1.3549 -0.6416 -2.6047
 2573SOL     OW19177   0.473   0.530  12.134 -0.4905 -0.1885 -0.4123
 2573SOL    HW119178   0.404   0.588  12.166 -0.0378  0.3112 -0.3635
 2573SOL    HW219179   0.458   0.511  12.041 -1.0060 -3.9098  0.4185
 2574SOL     OW19180   4.350   2.645   3.113  0.3541 -0.0418  0.0160
 2574SOL    HW119181   4.338   2.700   3.190  1.4283  2.8479 -1.8666
 2574SOL    HW219182   4.420   2.696   3.072  0.1768  0.5123  0.4128
 2575SOL     OW19183   4.591   1.875   8.116 -0.4712  0.0742  0.3234
 2575SOL    HW119184   4.562   1.930   8.188 -1.1913  1.1735 -0.7923
 2575SOL    HW219185   4.554   1.930   8.047  1.0861 -0.2587 -0.7763
 2576SOL     OW19186   3.038   4.103   8.472 -1.1314 -0.3998  0.1570
 2576SOL    HW119187   2.947   4.091   8.500 -1.7846  0.1922 -1.7004
 2576SOL    HW219188   3.068   4.185   8.512  1.6078 -0.1685 -2.3601
 2577SOL     OW19189   0.615   0.784   8.180 -0.1645  0.0960  0.1587
 2577SOL    HW119190   0.602   0.725   8.105 -1.1335  4.1037 -2.8515
 2577SOL    HW219191   0.704   0.814   8.163  0.3330 -2.7738 -2.4096
 2578SOL     OW19192   2.668   1.153  12.557 -0.1216 -0.0993  0.3447
 2578SOL    HW119193   2.679   1.065  12.594  2.7552  0.4119  0.7453
 2578SOL    HW219194   2.681   1.137  12.463 -1.4155 -2.3309  0.5589
 2579SOL     OW19195   1.682   0.605   4.713 -0.3852 -0.1154 -0.9157
 2579SOL    HW119196   1.602   0.648   4.685 -2.1693 -2.8642  0.0325
 2579SOL    HW219197   1.701   0.580   4.622 -1.7433  2.4282 -1.8813
 2580SOL     OW19198   1.553   2.091   6.085  0.0963  0.4577  0.4700
 2580SOL    HW119199   1.567   2.150   6.011 -1.5390  0.6282  0.3102
 2580SOL    HW219200   1.466   2.063   6.058  0.0670 -0.1351  1.1840
 2581SOL     OW19201   1.047   3.217   8.403  0.1280  0.1911 -0.6479
 2581SOL    HW119202   1.061   3.259   8.318 -0.0351 -4.2108 -2.8616
 2581SOL    HW219203   1.113   3.147   8.399 -1.9513 -1.7435 -1.0885
 2582SOL     OW19204   4.067   4.110   4.612 -0.1456 -0.1671  0.0885
 2582SOL    HW119205   4.031   4.154   4.688 -1.2966  0.8334 -1.0371
 2582SOL    HW219206   4.099   4.180   4.556  0.9035  0.0655  0.9792
 2583SOL     OW19207   0.161   2.793   9.922  0.4717  0.5110  0.1995
 2583SOL    HW119208   0.092   2.832   9.868  0.3837 -1.2320 -0.9498
 2583SOL    HW219209   0.161   2.847  10.001 -1.7061 -0.8266  1.1175
 2584SOL     OW19210   4.263   0.047   1.120  0.2737 -0.3955  1.3735
 2584SOL    HW119211   4.233   0.005   1.039 -2.4450  3.4423  0.3943
 2584SOL    HW219212   4.358   0.048   1.111  0.1310 -2.0301 -0.2985
 2585SOL     OW19213   1.373   1.719   8.115  0.5509  0.5086  0.2342
 2585SOL    HW119214   1.376   1.696   8.208 -0.3088 -2.3138 -0.4651
 2585SOL    HW219215   1.452   1.677   8.083 -0.2143 -2.1737  1.9083
 2586SOL     OW19216   2.815   0.467   4.455  0.3356  0.2877  0.2821
 2586SOL    HW119217   2.761   0.423   4.520 -0.0938  3.6070  2.1717
 2586SOL    HW219218   2.744   0.515   4.412  0.7030  0.8797  0.3415
 2587SOL     OW19219   3.588   3.822   8.465 -0.2657  0.0775  0.0607
 2587SOL    HW119220   3.556   3.890   8.524 -2.1868 -0.4894 -0.3224
 2587SOL    HW219221   3.637   3.879   8.406  3.8941 -1.6997  1.8048
 2588SOL     OW19222   2.782   0.482   5.008 -0.1646 -0.1898  0.3002
 2588SOL    HW119223   2.831   0.549   5.055  1.2926 -0.0502 -1.4010
 2588SOL    HW219224   2.697   0.493   5.050  0.3664  0.6258  1.1541
 2589SOL     OW19225   1.879   2.468  10.429  0.7382  0.0310  0.3949
 2589SOL    HW119226   1.931   2.525  10.486  0.7865 -0.9466  1.3298
 2589SOL    HW219227   1.953   2.418  10.393 -0.8805 -1.7331 -0.4858
 2590SOL     OW19228   2.626   2.188   4.695  0.2338  0.3757 -0.1189
 2590SOL    HW119229   2.713   2.148   4.701  0.7013  1.6602  1.6708
 2590SOL    HW219230   2.644   2.274   4.733 -1.4476  1.3177 -1.4446
 2591SOL     OW19231   4.429   4.490  17.304  0.0993 -0.0382  0.1732
 2591SOL    HW119232   4.519   4.522  17.303 -0.7031  2.2630  1.8085
 2591SOL    HW219233   4.389   4.539  17.231  0.8204  1.2798  0.6705
 2592SOL     OW19234   1.695   0.053   6.255  0.0515  0.3165 -0.2184
 2592SOL    HW119235   1.696   0.119   6.325 -1.9024  0.6801 -0.5249
 2592SOL    HW219236   1.613   0.071   6.209 -0.6185 -2.4966 -0.0732
 2593SOL     OW19237   1.411   2.352   1.884  1.0255  0.0234 -0.0473
 2593SOL    HW119238   1.444   2.376   1.971  0.8610  1.1611 -0.3013
 2593SOL    HW219239   1.468   2.411   1.835  1.7571 -0.7272 -0.1045
 2594SOL     OW19240   1.376   4.465   2.152 -0.2751 -0.7112 -0.4955
 2594SOL    HW119241   1.471   4.460   2.158 -0.4101 -1.2761  1.0153
 2594SOL    HW219242   1.352   4.534   2.213 -0.3117 -0.4888 -0.7598
 2595SOL     OW19243   4.290   0.995   8.532  0.3319  0.2090 -0.2039
 2595SOL    HW119244   4.294   1.003   8.437 -0.9108 -1.1442 -0.3796
 2595SOL    HW219245   4.196   0.980   8.543  0.8567 -2.5201  0.6701
 2596SOL     OW19246   3.470   1.620   5.278  0.4873  0.2327 -0.1100
 2596SOL    HW119247   3.488   1.600   5.186  2.6682  1.0541  0.1371
 2596SOL    HW219248   3.453   1.530   5.306 -0.8516  0.3816 -0.4241
 2597SOL     OW19249   4.462   2.117   5.838 -0.5885 -0.3982 -0.2207
 2597SOL    HW119250   4.519   2.183   5.798 -1.1350 -0.7809 -1.6294
 2597SOL    HW219251   4.523   2.058   5.881 -0.3121 -0.4695 -0.7183
 2598SOL     OW19252   4.082   3.740   3.436 -0.3190 -0.6025  0.4249
 2598SOL    HW119253   4.065   3.724   3.344 -0.2366 -2.3930  0.7232
 2598SOL    HW219254   4.172   3.772   3.425 -0.9381  0.7680 -0.5717
 2599SOL     OW19255   0.505   4.654  11.289  0.1032 -0.0798  0.8463
 2599SOL    HW119256   0.525   4.699  11.371 -1.4495  0.5295  0.8957
 2599SOL    HW219257   0.552   4.712  11.229 -1.1295  0.1574  0.0967
 2600SOL     OW19258   2.257   0.414  10.352  0.2291 -0.1540  0.1064
 2600SOL    HW119259   2.203   0.386  10.278 -0.4121  0.7704  0.2215
 2600SOL    HW219260   2.181   0.436  10.406  0.8262 -0.4625  1.0706
 2601SOL     OW19261   2.271   1.110   6.751 -0.4691  0.1705 -0.1078
 2601SOL    HW119262   2.261   1.015   6.748  2.2274 -0.1224  0.3552
 2601SOL    HW219263   2.188   1.126   6.795 -0.4794 -0.8500  0.2494
 2602SOL     OW19264   0.939   0.640   3.482  0.5612  0.1599  0.2064
 2602SOL    HW119265   0.996   0.708   3.449  2.3048 -2.2534 -1.7091
 2602SOL    HW219266   0.967   0.649   3.573  0.6179 -0.2068  0.2255
 2603SOL     OW19267   1.198   1.075  13.044 -0.2665 -0.4030 -0.0634
 2603SOL    HW119268   1.224   0.985  13.023  0.9268 -0.0655 -0.0676
 2603SOL    HW219269   1.112   1.068  13.084 -1.2398 -1.1315 -2.3014
 2604SOL     OW19270   1.959   0.052   3.428  0.6189  0.2289  0.1681
 2604SOL    HW119271   1.968   0.005   3.346 -1.3176 -0.2439  0.2329
 2604SOL    HW219272   1.866   0.046   3.451  0.3862  2.2401 -0.2466
 2605SOL     OW19273   1.261   1.061   0.227 -0.0136 -0.0642 -0.3427
 2605SOL    HW119274   1.183   1.030   0.182 -1.3205 -0.9372  2.5554
 2605SOL    HW219275   1.228   1.118   0.297  0.3161  0.0155 -0.2502
 2606SOL     OW19276   3.397   4.322   3.541 -0.1359  0.3883  0.0841
 2606SOL    HW119277   3.474   4.379   3.533 -0.9929  0.9495 -3.9659
 2606SOL    HW219278   3.340   4.377   3.595 -0.5966  0.2477 -0.2625
 2607SOL     OW19279   4.627   2.834   4.576 -0.0333  0.3141 -0.2618
 2607SOL    HW119280   4.703   2.872   4.533  0.3384  1.3703  1.3321
 2607SOL    HW219281   4.645   2.870   4.663 -0.6038 -1.4490  0.5932
 2608SOL     OW19282   4.365   3.197   7.446  0.0325  0.1838  0.8869
 2608SOL    HW119283   4.442   3.238   7.406 -1.9624  1.8422 -1.2677
 2608SOL    HW219284   4.390   3.194   7.538  0.5501 -1.4271  0.6906
 2609SOL     OW19285   1.590   2.007   2.942 -0.5594 -0.7353  0.1308
 2609SOL    HW119286   1.648   2.047   2.877  1.0370  0.0610  2.0398
 2609SOL    HW219287   1.520   1.976   2.885 -0.7705 -1.0527  0.5669
 2610SOL     OW19288   2.804   2.680   6.837  0.5116  0.6074 -0.0759
 2610SOL    HW119289   2.817   2.607   6.898  3.4152 -0.0384 -1.4729
 2610SOL    HW219290   2.893   2.711   6.824  0.4520  1.3274  1.2485
 2611SOL     OW19291   0.814   4.429   0.318 -0.2435  0.0805  0.1702
 2611SOL    HW119292   0.784   4.370   0.388 -0.8301  0.1946  0.0167
 2611SOL    HW219293   0.741   4.490   0.327 -0.7151 -0.5261  0.4174
 2612SOL     OW19294   0.982   2.416  12.266  0.1789  0.2625  0.0516
 2612SOL    HW119295   0.888   2.432  12.272 -0.2073 -2.2308  0.5563
 2612SOL    HW219296   0.975   2.362  12.187  0.4685 -3.0603  2.2917
 2613SOL     OW19297   4.676   3.643   7.716 -0.0844 -0.3021 -0.3070
 2613SOL    HW119298   4.640   3.564   7.756 -0.6792  0.4542  0.6504
 2613SOL    HW219299   4.640   3.623   7.629 -1.0666  0.1932 -0.0171
 2614SOL     OW19300   0.496   4.713   0.930 -0.4153 -0.0967 -0.3803
 2614SOL    HW119301   0.437   0.063   0.931  0.1641  0.3537  0.0080
 2614SOL    HW219302   0.507   4.696   1.024 -2.3572 -1.5178 -0.4045
 2615SOL     OW19303   4.448   1.442   1.762  0.3564 -0.4436 -0.2115
 2615SOL    HW119304   4.414   1.532   1.764  0.7252 -0.3614  1.8655
 2615SOL    HW219305   4.384   1.407   1.699  0.0566 -2.8656  1.4518
 2616SOL     OW19306   3.996   2.748  16.528 -0.1046 -0.0444 -0.1600
 2616SOL    HW119307   4.059   2.688  16.488  1.8156  1.4804  0.5664
 2616SOL    HW219308   3.995   2.827  16.474 -0.4498 -0.2801 -0.4911
 2617SOL     OW19309   3.151   1.376   8.531 -0.3306 -0.3611  0.3667
 2617SOL    HW119310   3.091   1.423   8.472 -3.2941 -1.7861  2.2571
 2617SOL    HW219311   3.093   1.316   8.577  1.1027  0.0869  2.7231
 2618SOL     OW19312   0.336   4.669   3.123  0.6670  0.4716  0.0740
 2618SOL    HW119313   0.399   4.597   3.119 -0.0183 -0.0355 -1.2815
 2618SOL    HW219314   0.300   4.662   3.035  0.3600  1.3695  0.1296
 2619SOL     OW19315   0.514   4.641   5.275 -0.0787 -0.1100 -0.7196
 2619SOL    HW119316   0.427   4.619   5.310  1.5883 -4.2097  0.9132
 2619SOL    HW219317   0.552   4.706   5.334 -1.9082  2.0836 -1.9760
 2620SOL     OW19318   1.050   4.657   8.380 -0.2943 -0.0626 -0.1078
 2620SOL    HW119319   0.985   4.710   8.335 -0.6564  3.9555  5.1927
 2620SOL    HW219320   1.006   4.588   8.430  3.6687 -0.3707  2.9309
 2621SOL     OW19321   2.684   0.955   8.061 -0.1210 -0.1365 -0.2754
 2621SOL    HW119322   2.724   1.036   8.094 -1.9579  0.3160  0.8302
 2621SOL    HW219323   2.722   0.948   7.973  0.4264 -2.0684  0.1213
 2622SOL     OW19324   0.552   2.921   0.797 -0.8154  0.1397  0.6583
 2622SOL    HW119325   0.533   2.912   0.890 -0.4114  1.0810  0.8358
 2622SOL    HW219326   0.617   2.853   0.779  1.4310  1.3494  4.1298
 2623SOL     OW19327   4.203   4.700   7.620 -0.2907  0.5752  0.2519
 2623SOL    HW119328   4.144   4.684   7.694 -1.0147  2.8339  0.1792
 2623SOL    HW219329   4.266   4.628   7.621  0.1035  0.9184 -0.0345
 2624SOL     OW19330   1.273   3.251   6.732 -0.1534  0.4199  0.1368
 2624SOL    HW119331   1.305   3.271   6.644  0.0844 -0.6995 -0.0344
 2624SOL    HW219332   1.310   3.322   6.785 -0.3297 -1.5274  2.8525
 2625SOL     OW19333   2.934   0.440   3.454  0.5424  0.1884 -0.3730
 2625SOL    HW119334   3.021   0.402   3.445 -0.0755 -1.6302  1.2123
 2625SOL    HW219335   2.946   0.521   3.406 -1.5230  0.1633 -0.9263
 2626SOL     OW19336   1.940   0.170   6.568 -0.2675 -0.0023 -0.7199
 2626SOL    HW119337   1.860   0.194   6.521 -1.3020  0.0300  1.0750
 2626SOL    HW219338   1.905   0.165   6.657  0.8683 -0.0834 -0.2811
 2627SOL     OW19339   2.423   2.458   2.066  0.1629  0.1324 -0.7555
 2627SOL    HW119340   2.488   2.395   2.036  0.3467 -0.9050  1.7817
 2627SOL    HW219341   2.408   2.507   1.985  0.1892 -1.4231 -1.6971
 2628SOL     OW19342   1.946   0.279  11.746 -0.6275 -0.2003  0.0357
 2628SOL    HW119343   1.855   0.247  11.748 -0.7252 -0.0093 -1.5409
 2628SOL    HW219344   2.004   0.204  11.734 -0.5643 -0.2457  0.6061
 2629SOL     OW19345   4.630   2.505   2.559  0.1846  0.1925  0.3632
 2629SOL    HW119346   4.564   2.529   2.624  0.2480 -0.2980  0.6134
 2629SOL    HW219347   4.711   2.528   2.604 -0.3322  0.6793  1.0310
 2630SOL     OW19348   0.504   4.311   8.800 -0.5407  0.0398  0.2655
 2630SOL    HW119349   0.589   4.267   8.795 -1.2102 -1.2209  0.0498
 2630SOL    HW219350   0.473   4.286   8.887  0.4854 -1.5769  0.1618
 2631SOL     OW19351   2.032   1.056   2.772  0.5015  0.8142  0.1445
 2631SOL    HW119352   1.957   1.016   2.729  1.1358  0.9023 -1.0579
 2631SOL    HW219353   2.025   1.011   2.856  1.2125  1.5994  0.6225
 2632SOL     OW19354   4.533   3.964   8.263 -0.1810  0.0071  0.1107
 2632SOL    HW119355   4.612   4.005   8.298  0.3193  0.2145 -1.2504
 2632SOL    HW219356   4.570   3.937   8.179  3.5317 -0.0370  1.7481
 2633SOL     OW19357   2.815   0.705   6.363  0.5120  0.0715  0.0321
 2633SOL    HW119358   2.848   0.794   6.370  0.4843  0.1084 -0.3543
 2633SOL    HW219359   2.875   0.647   6.411  0.3889 -0.2414 -0.1902
 2634SOL     OW19360   2.675   3.893   8.695 -0.0976 -0.4133  0.3337
 2634SOL    HW119361   2.747   3.896   8.759 -2.1224  0.2044  2.5840
 2634SOL    HW219362   2.612   3.950   8.739  0.3452 -0.1094  0.5743
 2635SOL     OW19363   3.802   3.424   8.792  0.0508 -0.3511 -0.0839
 2635SOL    HW119364   3.847   3.342   8.770  0.9864  0.7890 -2.4368
 2635SOL    HW219365   3.775   3.449   8.704  0.7584  1.0074  0.0730
 2636SOL     OW19366   2.924   3.404   4.874  0.3173  0.2856  0.5356
 2636SOL    HW119367   2.851   3.417   4.936 -0.8791 -1.0392 -0.5788
 2636SOL    HW219368   3.002   3.401   4.929  2.0207 -3.5197 -2.0942
 2637SOL     OW19369   2.432   0.332   4.273  0.0892 -0.0515 -0.2822
 2637SOL    HW119370   2.351   0.308   4.228  0.1334 -0.8231  0.0437
 2637SOL    HW219371   2.498   0.333   4.204 -0.0929 -1.9220 -0.4842
 2638SOL     OW19372   1.005   1.905  14.436 -0.5936 -0.6550 -0.0742
 2638SOL    HW119373   1.048   1.860  14.362  0.1980 -0.4677  0.2678
 2638SOL    HW219374   1.084   1.945  14.473 -1.5170  1.4336 -0.3652
 2639SOL     OW19375   3.432   4.049   6.098  0.2435 -0.5019  0.2400
 2639SOL    HW119376   3.400   3.960   6.081  0.1037 -0.3201 -0.4229
 2639SOL    HW219377   3.519   4.055   6.057 -0.3071  0.8360 -0.7059
 2640SOL     OW19378   0.231   4.180   2.855  0.2628  0.2188  0.3985
 2640SOL    HW119379   0.168   4.206   2.788  0.3437 -0.9424 -0.1210
 2640SOL    HW219380   0.164   4.140   2.910  0.1114 -1.5395 -1.0701
 2641SOL     OW19381   1.442   1.066   6.231  0.0790 -0.2297  0.4636
 2641SOL    HW119382   1.348   1.086   6.240 -0.0217  0.2193 -1.7510
 2641SOL    HW219383   1.481   1.138   6.281  2.2887 -0.5576 -0.8462
 2642SOL     OW19384   4.243   3.050  11.204 -0.2561 -0.7666  0.6102
 2642SOL    HW119385   4.296   3.126  11.226  0.6519 -0.7405 -1.7025
 2642SOL    HW219386   4.159   3.057  11.248 -1.2847 -1.2474 -1.2875
 2643SOL     OW19387   0.859   4.378  11.897 -0.3245 -0.8882  0.1428
 2643SOL    HW119388   0.772   4.414  11.910  0.8576  0.5150  3.8858
 2643SOL    HW219389   0.825   4.304  11.846 -0.6123 -0.1418 -0.7558
 2644SOL     OW19390   1.069   1.853  15.697  0.1489 -0.1675  0.2039
 2644SOL    HW119391   1.126   1.929  15.711  1.0072 -0.7858  0.0540
 2644SOL    HW219392   1.044   1.847  15.789  0.9297  3.4597  0.6728
 2645SOL     OW19393   0.151   0.514   9.211  0.2035  0.1025 -0.2278
 2645SOL    HW119394   0.096   0.488   9.284 -0.9674 -0.7212 -1.3960
 2645SOL    HW219395   0.129   0.444   9.150 -0.2960  1.2862 -1.4204
 2646SOL     OW19396   2.195   0.998  14.938  0.4344  0.2350  0.2872
 2646SOL    HW119397   2.189   0.915  14.890  0.1749  0.7471 -0.5547
 2646SOL    HW219398   2.261   0.979  15.005  0.5987  0.2247  0.1249
 2647SOL     OW19399   0.895   1.205   2.329 -0.1378 -0.5429  0.2042
 2647SOL    HW119400   0.943   1.215   2.411  1.1455  1.3635 -0.7854
 2647SOL    HW219401   0.828   1.138   2.347 -0.8736  1.0464  3.4380
 2648SOL     OW19402   2.988   0.535   4.041 -0.0686  0.4248 -0.4221
 2648SOL    HW119403   2.906   0.583   4.047 -1.1303 -1.6293  1.2336
 2648SOL    HW219404   3.001   0.506   3.951 -0.3070 -1.6381  0.2075
 2649SOL     OW19405   2.651   2.637   2.198 -0.0052 -0.1117  0.1337
 2649SOL    HW119406   2.658   2.676   2.111  0.3256  0.1391  0.2758
 2649SOL    HW219407   2.609   2.554   2.173  0.1135 -0.3587  0.7754
 2650SOL     OW19408   3.176   1.788  12.635  0.6630 -0.1174  0.0211
 2650SOL    HW119409   3.242   1.735  12.591  1.4594  0.1383  0.9130
 2650SOL    HW219410   3.109   1.802  12.568  0.8219  2.2408  0.3451
 2651SOL     OW19411   2.576   1.551   4.508  0.6853  0.3827 -0.3662
 2651SOL    HW119412   2.606   1.641   4.512  0.9567  0.3545 -1.8327
 2651SOL    HW219413   2.507   1.551   4.441  0.3945  1.6686 -0.0608
 2652SOL     OW19414   0.613   4.484   6.895 -0.3072  0.3933  0.3407
 2652SOL    HW119415   0.532   4.499   6.848  0.6420  1.7881 -0.8507
 2652SOL    HW219416   0.645   4.574   6.897 -1.4583  0.7398  2.5418
 2653SOL     OW19417   1.296   2.581   5.881 -0.4338  0.2939  0.1562
 2653SOL    HW119418   1.290   2.676   5.887 -1.0240  0.2363  0.5160
 2653SOL    HW219419   1.390   2.569   5.874 -0.6069  0.0454 -1.6667
 2654SOL     OW19420   1.181   0.864   2.012 -0.0140  0.2149  0.2602
 2654SOL    HW119421   1.087   0.879   2.026 -0.1531  0.2925 -0.7465
 2654SOL    HW219422   1.181   0.778   1.970 -2.5691  1.3272 -2.0034
 2655SOL     OW19423   4.615   3.042  16.462  0.1113  0.0658  0.3669
 2655SOL    HW119424   4.600   2.984  16.387 -2.3280  2.8981 -1.3658
 2655SOL    HW219425   4.562   3.117  16.434  0.1388  0.3028  0.9612
 2656SOL     OW19426   0.681   2.648   7.747 -0.4660 -0.2722  1.0378
 2656SOL    HW119427   0.601   2.657   7.695  1.1673 -2.7496 -1.9142
 2656SOL    HW219428   0.743   2.678   7.680 -1.2304  0.6994  0.7592
 2657SOL     OW19429   1.732   2.616  16.148 -0.9693 -0.2491  0.2719
 2657SOL    HW119430   1.695   2.590  16.064 -1.2760 -2.8677  1.2395
 2657SOL    HW219431   1.815   2.570  16.156 -1.3350 -0.9314  0.1333
 2658SOL     OW19432   1.279   3.843  16.509  0.0897 -0.5266 -0.0300
 2658SOL    HW119433   1.274   3.814  16.419  0.7760 -0.0819 -0.2124
 2658SOL    HW219434   1.308   3.763  16.553  2.2347  0.2396 -0.0404
 2659SOL     OW19435   0.396   2.303  10.135 -0.1922 -0.6773  0.0039
 2659SOL    HW119436   0.332   2.373  10.142 -0.7402 -1.3488  1.5018
 2659SOL    HW219437   0.392   2.275  10.043  0.8024  1.5664 -0.7270
 2660SOL     OW19438   4.675   2.307   4.593  0.4552  0.0203  0.4919
 2660SOL    HW119439   4.612   2.372   4.564  0.2910  0.1863  1.2337
 2660SOL    HW219440   0.031   2.350   4.566  1.1306 -0.9943  0.9030
 2661SOL     OW19441   0.364   0.176   2.776 -0.1810  0.2047  0.5362
 2661SOL    HW119442   0.373   0.265   2.742 -0.1748 -0.0500 -0.1270
 2661SOL    HW219443   0.319   0.183   2.860  0.0893 -2.3190  0.8950
 2662SOL     OW19444   0.098   4.091   5.275  0.0794  1.0893 -0.5440
 2662SOL    HW119445   0.161   4.037   5.323  1.1080  1.7819 -1.1205
 2662SOL    HW219446   0.038   4.088   5.349  1.2029 -0.4619  0.3042
 2663SOL     OW19447   0.855   1.995   4.208  0.7297 -0.2306  0.3803
 2663SOL    HW119448   0.860   1.983   4.303  1.6815 -0.8722  0.2532
 2663SOL    HW219449   0.889   1.913   4.172  0.9339  0.0080  0.0239
 2664SOL     OW19450   4.108   0.538  12.552 -0.2371 -0.0477 -0.0551
 2664SOL    HW119451   4.204   0.534  12.543 -0.3588  1.5290 -2.0342
 2664SOL    HW219452   4.094   0.575  12.639 -0.4713 -1.2898  0.4420
 2665SOL     OW19453   1.866   2.314   1.396 -0.5163  0.2125  0.2084
 2665SOL    HW119454   1.862   2.230   1.441 -1.1868 -0.6821 -1.5168
 2665SOL    HW219455   1.789   2.322   1.340 -0.1996  2.8932  0.1563
 2666SOL     OW19456   3.933   2.656  15.116 -0.0182  0.2339  1.0747
 2666SOL    HW119457   4.012   2.608  15.091  0.2442  1.1364  0.1621
 2666SOL    HW219458   3.883   2.592  15.164 -2.6433  0.1117 -1.8415
 2667SOL     OW19459   3.711   2.769   2.344  0.1557  0.4397 -0.1506
 2667SOL    HW119460   3.748   2.841   2.292 -1.5057  0.5561 -1.1833
 2667SOL    HW219461   3.787   2.712   2.351  0.8988  1.3921 -0.3553
 2668SOL     OW19462   1.343   3.886   7.007 -0.0763 -0.2474 -0.0507
 2668SOL    HW119463   1.419   3.944   7.015  0.3840 -0.6636 -1.4891
 2668SOL    HW219464   1.298   3.931   6.935 -2.6174 -0.0144  1.6922
 2669SOL     OW19465   3.694   2.295  14.708  0.2295 -0.1519  0.5677
 2669SOL    HW119466   3.787   2.286  14.730  1.2509  3.0451 -2.3033
 2669SOL    HW219467   3.685   2.321  14.616  2.1099 -0.1058  0.3868
 2670SOL     OW19468   1.012   1.597   3.740  0.1145 -0.2721  0.5639
 2670SOL    HW119469   1.036   1.663   3.804  1.4615 -1.6193  1.4605
 2670SOL    HW219470   1.097   1.603   3.696 -0.1863  1.6478  0.2623
 2671SOL     OW19471   1.849   2.696  14.633  0.0081 -0.3015 -0.0974
 2671SOL    HW119472   1.845   2.627  14.699 -0.7265  0.0350  0.2087
 2671SOL    HW219473   1.855   2.776  14.686 -0.9727  0.8243 -1.6731
 2672SOL     OW19474   3.374   2.694   1.007 -0.0338  0.0324  0.8209
 2672SOL    HW119475   3.395   2.602   0.989 -2.2358 -0.5268  1.0205
 2672SOL    HW219476   3.391   2.705   1.101  0.4059  0.5868  0.6722
 2673SOL     OW19477   3.504   3.818  16.652  0.3733  0.0385 -0.4013
 2673SOL    HW119478   3.446   3.766  16.597 -1.5881 -1.6174  3.2650
 2673SOL    HW219479   3.449   3.826  16.730  1.3646 -0.6273  0.3709
 2674SOL     OW19480   1.870   3.014  10.891  0.8974  0.1315  0.2362
 2674SOL    HW119481   1.814   3.049  10.822 -0.7521  0.0016  1.5164
 2674SOL    HW219482   1.899   2.935  10.847  1.6132 -0.0929  1.1085
 2675SOL     OW19483   4.321   3.078  16.032 -0.3734 -0.1892 -0.0501
 2675SOL    HW119484   4.283   3.002  16.078  2.6548 -0.5271  1.9248
 2675SOL    HW219485   4.330   3.048  15.942  0.9361 -0.8740  0.3125
 2676SOL     OW19486   0.423   0.738   6.458 -0.1717 -0.1260  0.4958
 2676SOL    HW119487   0.414   0.685   6.379 -1.1619  0.8485 -0.0500
 2676SOL    HW219488   0.363   0.702   6.524 -1.4818  0.9494 -0.0949
 2677SOL     OW19489   0.122   1.420   3.788 -0.0004  0.3604 -0.2381
 2677SOL    HW119490   0.193   1.458   3.735  0.0205 -1.8649 -1.8089
 2677SOL    HW219491   0.112   1.493   3.848 -0.2452 -1.7276  2.2364
 2678SOL     OW19492   0.491   1.519   7.529  0.6177  0.1120 -0.1522
 2678SOL    HW119493   0.539   1.599   7.511  0.3637  0.1752 -0.5507
 2678SOL    HW219494   0.525   1.461   7.461 -1.2504 -0.3048 -0.7249
 2679SOL     OW19495   3.525   2.511   3.934  0.7754  0.1356  0.0147
 2679SOL    HW119496   3.489   2.595   3.964  0.3773 -0.0713  0.1200
 2679SOL    HW219497   3.497   2.528   3.844  3.5339 -0.8877 -1.0108
 2680SOL     OW19498   3.353   2.957   6.008 -0.3193 -0.4970 -0.4440
 2680SOL    HW119499   3.392   2.972   6.095  0.5561 -0.7193 -0.7941
 2680SOL    HW219500   3.335   2.863   6.015 -1.2502 -0.4676 -2.4624
 2681SOL     OW19501   0.911   4.650  14.764  0.1831 -0.1990 -0.6644
 2681SOL    HW119502   0.923   4.556  14.755 -0.1876 -0.3137  0.0176
 2681SOL    HW219503   0.866   4.650  14.848 -0.3520  1.2897 -0.9394
 2682SOL     OW19504   0.935   2.266  17.358  0.8416  0.0211 -0.0661
 2682SOL    HW119505   0.903   2.194  17.413 -1.2141  1.0115  0.0006
 2682SOL    HW219506   0.864   2.329  17.347  0.4069  0.1618  3.5769
 2683SOL     OW19507   2.442   1.611  14.195  0.0900  0.0344  0.0087
 2683SOL    HW119508   2.401   1.528  14.171 -0.2899 -0.1137  1.1500
 2683SOL    HW219509   2.487   1.633  14.114 -1.6127 -1.1384 -1.2511
 2684SOL     OW19510   4.722   0.832   5.177 -0.7267 -0.0542 -0.9240
 2684SOL    HW119511   0.009   0.852   5.270  2.7192  0.7949 -1.5467
 2684SOL    HW219512   0.025   0.741   5.162 -1.8838 -0.6976  0.8297
 2685SOL     OW19513   3.188   3.904  13.227  0.2664 -0.0669  0.0975
 2685SOL    HW119514   3.277   3.937  13.231  0.6662 -1.0099 -1.1070
 2685SOL    HW219515   3.165   3.926  13.318  0.5789  1.7409 -0.2556
 2686SOL     OW19516   0.615   3.345  13.457 -0.1003 -0.3746  0.7220
 2686SOL    HW119517   0.599   3.253  13.477  0.2956 -0.0071  2.7794
 2686SOL    HW219518   0.528   3.386  13.449  0.2919  0.0283 -1.3607
 2687SOL     OW19519   4.615   2.139  15.560 -0.4180  0.3428  0.1887
 2687SOL    HW119520   4.665   2.058  15.572 -0.6029  0.1908 -0.0615
 2687SOL    HW219521   4.590   2.163  15.649  0.7344  1.0916  0.3034
 2688SOL     OW19522   0.318   1.873  10.408 -0.1451  0.5108  0.1867
 2688SOL    HW119523   0.400   1.829  10.388  0.3341  1.7501 -0.5155
 2688SOL    HW219524   0.330   1.955  10.360 -0.6600  1.3589  1.4857
 2689SOL     OW19525   0.410   3.239   6.161 -0.4357  0.0198 -0.3232
 2689SOL    HW119526   0.373   3.306   6.102 -0.7736  0.5517  0.4858
 2689SOL    HW219527   0.340   3.174   6.163 -0.5215  0.0992 -0.6342
 2690SOL     OW19528   3.872   0.206   7.593  0.1315 -0.1470 -0.4541
 2690SOL    HW119529   3.851   0.289   7.637  0.4871 -1.2907  1.9217
 2690SOL    HW219530   3.783   0.173   7.610  0.3942 -0.4501  0.3394
 2691SOL     OW19531   4.342   0.749   7.737 -0.3644 -0.0436 -0.8695
 2691SOL    HW119532   4.247   0.756   7.728 -0.6801 -2.0483  0.9756
 2691SOL    HW219533   4.353   0.688   7.664  1.2724  0.3418 -0.9530
 2692SOL     OW19534   4.056   2.929   0.415 -0.1513  0.0967 -0.4856
 2692SOL    HW119535   4.057   2.836   0.434 -1.4220  0.3476  0.8656
 2692SOL    HW219536   4.141   2.929   0.371 -0.8693 -2.4531 -1.8121
 2693SOL     OW19537   4.179   4.545   1.752 -0.2575 -0.6139 -0.5293
 2693SOL    HW119538   4.263   4.579   1.720 -1.9262  3.2973 -0.7513
 2693SOL    HW219539   4.221   4.478   1.805 -2.6371 -1.3218  0.4354
 2694SOL     OW19540   2.609   2.149   0.154  0.2988 -0.1918  0.0471
 2694SOL    HW119541   2.579   2.072   0.105 -0.8962 -1.7116  3.2237
 2694SOL    HW219542   2.541   2.216   0.143 -0.5522 -1.1390 -0.5378
 2695SOL     OW19543   3.976   1.523   3.562 -0.7246  0.1740 -0.3723
 2695SOL    HW119544   4.002   1.502   3.651 -0.3987  0.4345 -0.4038
 2695SOL    HW219545   3.887   1.488   3.569 -0.4930 -0.2677  0.3620
 2696SOL     OW19546   3.801   4.293   2.911 -0.2890  0.7169 -0.0970
 2696SOL    HW119547   3.789   4.351   2.986  1.7947  1.2774 -0.1889
 2696SOL    HW219548   3.777   4.211   2.954 -0.0437  1.0352  0.6361
 2697SOL     OW19549   4.479   1.517   2.297  0.5252 -0.4674  0.1212
 2697SOL    HW119550   4.512   1.428   2.314  0.6759 -0.6949 -1.4369
 2697SOL    HW219551   4.450   1.504   2.207  2.6696 -0.1640 -0.6086
 2698SOL     OW19552   0.430   2.695   7.611  0.8270  0.0925 -0.2955
 2698SOL    HW119553   0.434   2.767   7.549  2.6719  2.1640  2.2459
 2698SOL    HW219554   0.382   2.745   7.678  1.0592 -0.9426  0.6481
 2699SOL     OW19555   0.984   3.161   2.593  0.2410  0.2282 -0.1431
 2699SOL    HW119556   0.949   3.246   2.566  0.2834  0.5365  0.7720
 2699SOL    HW219557   0.908   3.137   2.646  1.5431 -1.4804  0.9318
 2700SOL     OW19558   2.997   3.175   7.066 -0.0744  0.0394 -0.2089
 2700SOL    HW119559   3.080   3.165   7.113  0.4292 -0.0046 -1.0909
 2700SOL    HW219560   3.021   3.250   7.012  0.0027 -1.4799 -2.2848
 2701SOL     OW19561   2.231   1.319  14.579  0.5401  0.0272  0.4296
 2701SOL    HW119562   2.145   1.318  14.537  0.7550 -0.7963  0.0198
 2701SOL    HW219563   2.273   1.391  14.531 -1.8783 -0.1698 -1.9729
 2702SOL     OW19564   1.556   2.955   6.933  0.2291 -0.8190  0.1325
 2702SOL    HW119565   1.591   2.937   7.020 -0.9481 -0.1110  0.7520
 2702SOL    HW219566   1.630   2.994   6.886  0.2242  1.4215  2.0221
 2703SOL     OW19567   0.056   1.216   3.308 -0.4652 -0.0147  0.4505
 2703SOL    HW119568   0.020   1.166   3.235 -2.7935  1.0823  0.8461
 2703SOL    HW219569   0.098   1.143   3.352 -1.9532 -1.4326 -0.4655
 2704SOL     OW19570   1.621   1.267   4.254  0.6054 -0.6586  0.7661
 2704SOL    HW119571   1.628   1.176   4.224  0.3359  0.2454 -2.0947
 2704SOL    HW219572   1.706   1.296   4.221  0.9070 -1.4015  0.8903
 2705SOL     OW19573   4.066   1.072  12.874 -0.2572  0.5434 -0.2992
 2705SOL    HW119574   4.162   1.062  12.874 -0.0702  2.3282 -0.3374
 2705SOL    HW219575   4.052   1.065  12.968 -1.1583 -1.4151 -0.5758
 2706SOL     OW19576   0.163   2.608   7.910 -0.6080 -0.2534  0.9028
 2706SOL    HW119577   0.077   2.601   7.952 -0.9692 -0.9982  0.0233
 2706SOL    HW219578   0.221   2.566   7.973  0.1272 -1.6883 -0.7596
 2707SOL     OW19579   3.560   0.384   7.241 -0.3961  0.0285 -0.2820
 2707SOL    HW119580   3.646   0.405   7.278  0.5970 -1.3501 -1.7935
 2707SOL    HW219581   3.570   0.290   7.252 -0.2970  0.2615  1.5489
 2708SOL     OW19582   2.102   1.201   6.287 -0.6270 -0.6150  0.4346
 2708SOL    HW119583   2.130   1.155   6.208 -1.4571  1.7280 -1.2067
 2708SOL    HW219584   2.036   1.262   6.255  1.3805  0.9367 -0.7097
 2709SOL     OW19585   1.010   2.366   9.047  0.3377  0.2839 -0.4901
 2709SOL    HW119586   0.931   2.385   9.097  0.3707  1.8254 -1.0261
 2709SOL    HW219587   1.079   2.369   9.113 -0.6246 -1.7194  0.5912
 2710SOL     OW19588   1.860   1.387   6.739  0.4203  0.0346 -0.2551
 2710SOL    HW119589   1.860   1.466   6.794 -2.5521  0.3528 -0.7024
 2710SOL    HW219590   1.811   1.331   6.799  0.5849 -0.6481 -0.7668
 2711SOL     OW19591   2.424   1.842   7.013 -0.1542 -0.0103 -0.1005
 2711SOL    HW119592   2.390   1.837   7.102  0.8224  1.0790  0.3257
 2711SOL    HW219593   2.499   1.900   7.022  0.6347 -1.0820  0.1609
 2712SOL     OW19594   1.768   0.770   4.947  0.5845  0.2720  0.4997
 2712SOL    HW119595   1.676   0.791   4.964  0.2315 -1.4414  0.6681
 2712SOL    HW219596   1.757   0.701   4.881 -0.0770  0.5208  0.3524
 2713SOL     OW19597   1.244   2.612   2.885  0.1923 -0.4407  0.2399
 2713SOL    HW119598   1.336   2.587   2.897  0.3653  0.5309  0.9397
 2713SOL    HW219599   1.215   2.556   2.813  1.9690 -1.7922  0.5510
 2714SOL     OW19600   4.066   0.573   6.036  0.3043  0.2489  0.2506
 2714SOL    HW119601   4.004   0.623   6.089 -1.6391 -1.3919 -0.5151
 2714SOL    HW219602   4.148   0.623   6.039 -0.4576  1.5211  0.1289
 2715SOL     OW19603   1.177   0.488  13.930 -0.1836  0.3684 -0.0208
 2715SOL    HW119604   1.094   0.479  13.976 -0.0302  0.0934  0.1967
 2715SOL    HW219605   1.233   0.423  13.974  3.0562  1.3067 -2.6838
 2716SOL     OW19606   0.707   0.393   6.716  0.0972  0.6548 -0.0574
 2716SOL    HW119607   0.699   0.340   6.637  0.2446  1.4050 -0.5702
 2716SOL    HW219608   0.616   0.419   6.728  0.2652  1.4124 -0.4039
 2717SOL     OW19609   0.795   2.529   4.005 -0.3615 -0.4406  0.2735
 2717SOL    HW119610   0.846   2.451   3.988 -1.1237 -0.8282 -0.2344
 2717SOL    HW219611   0.863   2.581   4.048  1.2008 -2.0484 -0.2852
 2718SOL     OW19612   3.899   1.752   2.893 -0.2335 -0.1738  0.0423
 2718SOL    HW119613   3.866   1.778   2.807  0.7593  3.1782  0.6427
 2718SOL    HW219614   3.813   1.742   2.935 -0.0920 -0.6764  0.2072
 2719SOL     OW19615   1.315   1.679   9.917  0.2081  0.1408  0.2548
 2719SOL    HW119616   1.236   1.650   9.871 -0.2787 -1.1750  1.9045
 2719SOL    HW219617   1.330   1.770   9.891 -0.5060  0.2109  0.0806
 2720SOL     OW19618   3.375   3.633  15.030 -0.5012 -0.2393  0.5910
 2720SOL    HW119619   3.370   3.644  14.935 -2.8472 -0.0180  0.7454
 2720SOL    HW219620   3.305   3.568  15.038 -0.0996 -0.8676 -0.9405
 2721SOL     OW19621   1.024   3.172   3.202  0.0163 -0.2848  0.0171
 2721SOL    HW119622   0.937   3.182   3.240 -0.7084  1.2881 -2.0822
 2721SOL    HW219623   1.011   3.082   3.173  0.7564 -0.7840  1.2100
 2722SOL     OW19624   0.717   3.571   6.270  0.2159  0.1405 -0.1333
 2722SOL    HW119625   0.636   3.527   6.295  1.0735 -2.3396 -1.7413
 2722SOL    HW219626   0.698   3.649   6.322 -0.6511 -1.1381  1.4761
 2723SOL     OW19627   1.393   2.895   5.641  0.0062 -0.1800  0.2098
 2723SOL    HW119628   1.473   2.847   5.665 -1.4658 -1.6345  2.2753
 2723SOL    HW219629   1.354   2.832   5.580  0.2347 -0.9717  0.8819
 2724SOL     OW19630   4.608   1.877  12.165 -0.3478  0.1711  0.0928
 2724SOL    HW119631   4.521   1.865  12.205 -0.1089  4.2320  1.7491
 2724SOL    HW219632   4.653   1.898  12.247 -1.1936 -3.6606  1.5566
 2725SOL     OW19633   1.217   1.280  11.281 -0.4019  0.2045  0.0476
 2725SOL    HW119634   1.241   1.312  11.368 -1.2963  0.7915  0.0802
 2725SOL    HW219635   1.291   1.219  11.275 -1.2439 -1.0394  2.2921
 2726SOL     OW19636   2.320   2.126   6.301  0.0979 -0.1346  0.0069
 2726SOL    HW119637   2.303   2.041   6.260  0.2657  1.4206 -3.3076
 2726SOL    HW219638   2.239   2.174   6.284  0.2238  0.2418  0.4958
 2727SOL     OW19639   2.528   3.541   4.075 -0.3281 -0.5011 -0.1274
 2727SOL    HW119640   2.576   3.479   4.020 -0.5816  1.5054 -2.6153
 2727SOL    HW219641   2.523   3.488   4.155  1.6964 -0.0071  0.3241
 2728SOL     OW19642   2.223   4.466   3.240  0.7924  0.4674  0.0898
 2728SOL    HW119643   2.149   4.452   3.300  0.1300 -0.0788 -0.8552
 2728SOL    HW219644   2.187   4.498   3.158 -0.8856  0.0945  0.6780
 2729SOL     OW19645   2.138   1.645  17.449 -0.0449 -0.0133  0.2940
 2729SOL    HW119646   2.060   1.676  17.494  0.3974 -0.4063  1.3395
 2729SOL    HW219647   2.193   1.723  17.458 -0.5528  0.2558  1.1206
 2730SOL     OW19648   3.558   0.277   6.273 -0.3391 -1.0717 -0.1363
 2730SOL    HW119649   3.557   0.365   6.312  0.9683 -0.8092 -0.7203
 2730SOL    HW219650   3.635   0.285   6.217 -1.7820 -0.9510 -2.1051
 2731SOL     OW19651   4.421   3.009   7.118 -0.0739  0.1394  0.5152
 2731SOL    HW119652   4.455   2.958   7.044  0.3167 -1.0879  1.5497
 2731SOL    HW219653   4.498   3.012   7.174  1.6313 -1.2574 -1.7643
 2732SOL     OW19654   3.099   4.358   3.074  0.3969 -0.5312  0.3122
 2732SOL    HW119655   3.190   4.388   3.065  0.0659  1.0747  2.3016
 2732SOL    HW219656   3.105   4.290   3.007  1.3179 -1.0774  0.9428
 2733SOL     OW19657   3.303   4.026  15.118 -0.5044 -0.2325  0.2872
 2733SOL    HW119658   3.322   4.077  15.197  1.0307  1.2460 -1.0440
 2733SOL    HW219659   3.390   4.015  15.079 -0.7382 -2.2348  0.3006
 2734SOL     OW19660   4.298   0.950   5.749 -0.0757 -0.7077  0.4338
 2734SOL    HW119661   4.299   1.046   5.742  0.3683 -0.8541 -1.5832
 2734SOL    HW219662   4.217   0.930   5.702  1.3160  0.2182 -2.3391
 2735SOL     OW19663   3.016   1.076   2.218  0.0344 -0.1616 -0.0867
 2735SOL    HW119664   2.938   1.045   2.172  0.1182  0.8109 -0.8678
 2735SOL    HW219665   2.975   1.158   2.246  2.9256  1.6349 -1.1116
 2736SOL     OW19666   3.442   3.011   2.929  0.4032 -0.4048 -0.1569
 2736SOL    HW119667   3.514   3.064   2.895  0.4703  0.0308  0.6601
 2736SOL    HW219668   3.474   2.922   2.917  0.7640 -0.3682  0.4933
 2737SOL     OW19669   0.984   1.711   8.101  0.2515  0.3740  0.1448
 2737SOL    HW119670   1.014   1.697   8.190  0.2366  0.4255  0.1581
 2737SOL    HW219671   0.896   1.672   8.099  1.6176 -2.7180  0.8527
 2738SOL     OW19672   3.882   3.393   2.680  0.1213  0.2570 -0.7661
 2738SOL    HW119673   3.904   3.360   2.767 -0.6420 -1.6840 -1.3027
 2738SOL    HW219674   3.904   3.313   2.632 -2.5990 -0.7643 -0.3031
 2739SOL     OW19675   4.525   0.155   2.004 -0.5932 -0.0504  0.0468
 2739SOL    HW119676   4.546   0.179   2.094 -0.2358  0.7277 -0.2483
 2739SOL    HW219677   4.578   0.078   1.983  0.3970  0.5182  0.4815
 2740SOL     OW19678   3.313   3.213  14.267  0.0513  0.1426 -0.2885
 2740SOL    HW119679   3.392   3.162  14.252  0.6481  0.7565  0.7931
 2740SOL    HW219680   3.260   3.154  14.214  1.1268 -0.5979 -0.5381
 2741SOL     OW19681   1.910   1.542   8.324  0.0092  0.0803 -0.4810
 2741SOL    HW119682   1.849   1.468   8.318  0.7476 -0.5720  0.0504
 2741SOL    HW219683   1.990   1.510   8.282  0.8211  1.6390 -0.0931
 2742SOL     OW19684   4.382   2.242   7.078  0.4251  0.0629  0.1839
 2742SOL    HW119685   4.313   2.202   7.130  1.1415  0.7814  1.6853
 2742SOL    HW219686   4.367   2.206   6.990 -0.1160  4.3291 -1.4768
 2743SOL     OW19687   3.709   2.557   5.690 -0.2962 -0.0467 -0.0520
 2743SOL    HW119688   3.791   2.509   5.677  0.3955  1.0643  0.1536
 2743SOL    HW219689   3.759   2.631   5.726  0.2324  0.2675 -1.4003
 2744SOL     OW19690   3.402   1.616   2.823 -0.7184  0.7194 -0.1931
 2744SOL    HW119691   3.311   1.613   2.852 -0.8820  2.4563 -0.4954
 2744SOL    HW219692   3.378   1.616   2.731  0.9077  0.1382 -0.6235
 2745SOL     OW19693   1.095   3.863   9.168 -0.2682 -0.5069  0.3180
 2745SOL    HW119694   1.049   3.931   9.216  1.7672 -0.0098  1.5508
 2745SOL    HW219695   1.026   3.806   9.136 -1.1817  0.8390 -0.0905
 2746SOL     OW19696   0.746   4.284   6.756 -0.3059  0.3928  0.5174
 2746SOL    HW119697   0.787   4.270   6.842 -0.1531 -1.3716  0.1392
 2746SOL    HW219698   0.677   4.338   6.795  0.4346  1.4201  0.3998
 2747SOL     OW19699   1.829   2.601   7.250  0.3092  0.0364  0.0797
 2747SOL    HW119700   1.779   2.674   7.285 -3.1275 -2.9156  1.3652
 2747SOL    HW219701   1.878   2.572   7.327  0.1555  0.2487  0.2568
 2748SOL     OW19702   1.133   3.660  10.008 -0.3020  0.4617  0.2345
 2748SOL    HW119703   1.198   3.667   9.938  1.0605 -0.7134  1.4133
 2748SOL    HW219704   1.061   3.706   9.964 -0.4285  0.8524  0.8509
 2749SOL     OW19705   2.711   1.307  13.475  0.2602 -0.2177  0.0482
 2749SOL    HW119706   2.801   1.319  13.506 -0.2929 -0.3170  1.7004
 2749SOL    HW219707   2.711   1.351  13.390 -0.9779 -1.3648 -0.5438
 2750SOL     OW19708   1.947   2.539   5.726  0.1240  0.5513 -0.0487
 2750SOL    HW119709   1.944   2.447   5.697  0.1763  0.7013 -0.5331
 2750SOL    HW219710   1.982   2.536   5.815 -1.2591 -0.4606  0.4596
 2751SOL     OW19711   0.503   0.239  12.176 -0.8350  0.0894  0.3709
 2751SOL    HW119712   0.501   0.334  12.188  0.3819  0.3400 -1.4139
 2751SOL    HW219713   0.473   0.244  12.085 -2.4751 -1.4273  0.8304
 2752SOL     OW19714   0.838   2.449   9.788  0.1250  0.0630 -0.3733
 2752SOL    HW119715   0.771   2.380   9.791 -0.3402  0.5459  0.3773
 2752SOL    HW219716   0.842   2.485   9.876  0.3420 -1.7497  0.3504
 2753SOL     OW19717   2.388   3.720   6.222  0.4793 -0.1057  0.1349
 2753SOL    HW119718   2.303   3.691   6.256  1.0802 -2.1808 -0.1331
 2753SOL    HW219719   2.388   3.802   6.270  2.5143 -0.4092  0.6477
 2754SOL     OW19720   4.640   4.099  12.188 -0.0363 -0.5559 -0.2747
 2754SOL    HW119721   4.665   4.013  12.220  2.1288  0.1599 -0.0556
 2754SOL    HW219722   4.557   4.119  12.231  1.1636  0.4633  1.5706
 2755SOL     OW19723   0.274   2.831   0.925 -0.2670 -0.4129  0.1991
 2755SOL    HW119724   0.264   2.900   0.860  1.1565 -1.3248 -0.9798
 2755SOL    HW219725   0.307   2.895   0.989  1.7712 -1.3065  0.0566
 2756SOL     OW19726   1.560   4.452   7.642  0.1902 -0.2010 -0.2173
 2756SOL    HW119727   1.615   4.375   7.624  0.7852 -0.0954  1.1228
 2756SOL    HW219728   1.505   4.419   7.713  2.8892  0.0247  1.9773
 2757SOL     OW19729   0.746   3.418   0.772  0.0326 -0.2699  0.6074
 2757SOL    HW119730   0.778   3.382   0.855 -0.5260  1.3504  1.5294
 2757SOL    HW219731   0.695   3.495   0.799 -0.4956 -0.0573 -1.0159
 2758SOL     OW19732   1.835   4.256   6.835  0.1097  0.4357 -0.8911
 2758SOL    HW119733   1.844   4.344   6.799 -0.3922  0.4829 -0.9067
 2758SOL    HW219734   1.925   4.225   6.827  0.5891  1.3997  0.6670
 2759SOL     OW19735   2.495   1.074  16.946 -0.0993 -0.7678  0.2447
 2759SOL    HW119736   2.493   1.010  16.874 -0.1298 -1.1386  0.5747
 2759SOL    HW219737   2.400   1.089  16.947  0.1393  0.7571 -0.6521
 2760SOL     OW19738   1.824   2.143   8.190  0.0304 -0.4442  0.0929
 2760SOL    HW119739   1.796   2.138   8.281 -0.5662 -2.2216 -0.1921
 2760SOL    HW219740   1.773   2.072   8.152 -1.7136  0.7641  0.1985
 2761SOL     OW19741   3.938   0.147  10.413 -0.4535 -0.5992 -0.5861
 2761SOL    HW119742   3.975   0.232  10.393  2.0837 -1.3458  1.0375
 2761SOL    HW219743   3.864   0.144  10.352  0.4175  3.4196 -1.8468
 2762SOL     OW19744   1.986   2.705   5.311 -0.1501  0.5742 -0.7838
 2762SOL    HW119745   2.035   2.771   5.261 -1.8757  2.1694 -0.3736
 2762SOL    HW219746   2.009   2.721   5.402 -0.6790  1.0715 -0.7429
 2763SOL     OW19747   0.951   2.112   3.298 -0.2716 -0.0557  0.6985
 2763SOL    HW119748   0.894   2.044   3.333 -0.6947 -0.4315 -0.7702
 2763SOL    HW219749   0.943   2.175   3.370 -2.3304 -1.0944  1.3746
 2764SOL     OW19750   4.343   4.341   3.460  0.7467  0.1269  0.9337
 2764SOL    HW119751   4.400   4.280   3.414  0.3922  2.4191 -2.5075
 2764SOL    HW219752   4.303   4.277   3.520 -1.6556  2.0986  1.4517
 2765SOL     OW19753   4.336   4.710   9.404 -0.3831 -0.0700  0.1513
 2765SOL    HW119754   4.287   4.708   9.321 -3.4021  1.1808  1.9026
 2765SOL    HW219755   4.273   4.680   9.469 -2.2017  0.4730 -1.3437
 2766SOL     OW19756   3.843   0.489   9.718  0.2258 -0.4451 -0.1410
 2766SOL    HW119757   3.759   0.449   9.695  1.0140 -2.2276  0.1365
 2766SOL    HW219758   3.887   0.481   9.633  2.4269  0.7935  0.8766
 2767SOL     OW19759   0.751   4.095   3.936 -1.0477  0.0543 -0.1745
 2767SOL    HW119760   0.787   4.147   3.863 -0.5540  0.6531  0.4882
 2767SOL    HW219761   0.699   4.156   3.989  0.7910 -0.0357  1.7523
 2768SOL     OW19762   2.533   1.237   5.122 -0.2377  0.0573 -0.6952
 2768SOL    HW119763   2.624   1.213   5.105 -0.9146 -2.6135 -0.6048
 2768SOL    HW219764   2.522   1.187   5.203 -1.6928  1.2972 -0.1186
 2769SOL     OW19765   4.589   1.116  13.704 -0.3425  0.0607 -0.0669
 2769SOL    HW119766   4.676   1.146  13.731 -0.5713  2.2673 -1.7622
 2769SOL    HW219767   4.545   1.146  13.784  0.7708  1.2478  0.1140
 2770SOL     OW19768   0.949   2.562   3.528  0.6814  0.3133 -0.0420
 2770SOL    HW119769   1.020   2.582   3.590  0.1663  3.2756 -0.4283
 2770SOL    HW219770   0.966   2.615   3.450  1.4293 -2.6903 -1.9100
 2771SOL     OW19771   3.033   0.572   4.878 -0.3104 -0.4302 -0.7066
 2771SOL    HW119772   2.942   0.552   4.897 -0.3036 -0.8656 -1.1604
 2771SOL    HW219773   3.071   0.485   4.869  2.5663  0.9056 -1.5648
 2772SOL     OW19774   0.415   1.212  14.564  0.5533 -0.3490  0.1523
 2772SOL    HW119775   0.447   1.212  14.474 -0.5557  0.5506 -0.2345
 2772SOL    HW219776   0.495   1.243  14.607  0.4448  0.0485  0.0696
 2773SOL     OW19777   1.527   1.182   2.892 -0.3030 -0.1377  0.4822
 2773SOL    HW119778   1.447   1.129   2.896  0.3237 -1.1397 -0.3555
 2773SOL    HW219779   1.523   1.215   2.802 -3.7918  2.3225  1.5321
 2774SOL     OW19780   2.737   2.873   9.864  0.2927 -0.1691  0.0136
 2774SOL    HW119781   2.734   2.788   9.908  1.5434  0.3252  1.0542
 2774SOL    HW219782   2.649   2.904   9.883  0.8709  0.8129  1.1043
 2775SOL     OW19783   2.557   2.491   8.739 -0.2294 -0.1044 -0.3968
 2775SOL    HW119784   2.500   2.538   8.678 -0.2069  0.7322  0.2198
 2775SOL    HW219785   2.597   2.570   8.776 -0.2308 -0.1162 -0.3699
 2776SOL     OW19786   0.476   0.549   1.156 -0.3747  0.1520 -0.6519
 2776SOL    HW119787   0.462   0.630   1.108  2.7977  0.5232 -0.9209
 2776SOL    HW219788   0.406   0.558   1.221  0.9163 -0.7382  0.8715
 2777SOL     OW19789   4.557   0.354  16.714 -0.1905 -0.1276 -0.5487
 2777SOL    HW119790   4.484   0.414  16.728 -1.2943 -1.0627 -2.2764
 2777SOL    HW219791   4.523   0.284  16.659  1.3688 -1.8112  0.6177
 2778SOL     OW19792   2.291   4.271   6.225  0.8135  0.6833 -0.3798
 2778SOL    HW119793   2.319   4.271   6.317  3.2212  0.2871 -1.1051
 2778SOL    HW219794   2.244   4.188   6.215 -0.6339  1.6435 -1.5432
 2779SOL     OW19795   4.609   1.699  13.121  0.2076 -0.0523 -0.2368
 2779SOL    HW119796   4.518   1.684  13.098  0.5174  0.4571 -1.8164
 2779SOL    HW219797   4.649   1.618  13.090 -0.3875  0.9525 -3.6250
 2780SOL     OW19798   4.489   2.471   3.532  0.2622 -0.5367  0.0922
 2780SOL    HW119799   4.546   2.533   3.576 -1.6259  0.1842  1.5372
 2780SOL    HW219800   4.535   2.460   3.449  0.0277  3.6767 -0.5796
 2781SOL     OW19801   4.236   1.444   2.802  0.2381  0.2450  0.4742
 2781SOL    HW119802   4.312   1.500   2.784  0.5814 -0.7989 -1.3835
 2781SOL    HW219803   4.251   1.360   2.759  2.5776  1.8685 -1.8891
 2782SOL     OW19804   0.670   3.775   8.213 -0.2045  0.9811 -0.0986
 2782SOL    HW119805   0.698   3.766   8.304  1.1045 -1.0295 -0.7124
 2782SOL    HW219806   0.587   3.729   8.225 -0.3491  0.8014 -1.8817
 2783SOL     OW19807   4.699   2.908  16.996  0.0406  0.0896  0.3872
 2783SOL    HW119808   0.004   2.920  17.086 -0.0819 -1.5707  0.6581
 2783SOL    HW219809   0.020   2.828  16.969 -0.6203  0.1241 -0.7976
 2784SOL     OW19810   0.743   4.423   2.877 -0.0894 -0.4673 -0.1276
 2784SOL    HW119811   0.780   4.366   2.809  3.3446 -1.4923  2.5976
 2784SOL    HW219812   0.710   4.495   2.823  0.0939 -0.1866  0.1285
 2785SOL     OW19813   0.647   3.583   9.148 -0.1158 -0.2397  0.0846
 2785SOL    HW119814   0.690   3.565   9.232  0.5916 -0.9215 -0.4178
 2785SOL    HW219815   0.606   3.496   9.143 -0.9052  0.1197  0.3516
 2786SOL     OW19816   0.953   2.164   1.399  0.1847  0.2797  0.6123
 2786SOL    HW119817   1.006   2.178   1.321  1.2040 -2.3141  0.8570
 2786SOL    HW219818   0.907   2.248   1.403  2.2123  1.4315 -0.4042
 2787SOL     OW19819   2.188   2.110   8.093  0.0361  0.4361 -0.4135
 2787SOL    HW119820   2.187   2.192   8.143  1.4469  0.6108 -0.6507
 2787SOL    HW219821   2.246   2.141   8.023  0.7570 -2.3456 -1.0396
 2788SOL     OW19822   0.778   1.432   3.067 -0.1875  0.1756  0.1914
 2788SOL    HW119823   0.701   1.429   3.123  0.2021 -0.3587  0.6983
 2788SOL    HW219824   0.757   1.489   2.993 -0.6715 -0.7169 -0.3512
 2789SOL     OW19825   1.087   2.120   3.066 -0.0207 -0.0811  0.0851
 2789SOL    HW119826   1.029   2.119   3.142  0.3890  0.3206  0.4018
 2789SOL    HW219827   1.095   2.025   3.062  0.5892  0.0166 -0.9388
 2790SOL     OW19828   1.346   4.310   6.661  0.1414  0.2135 -0.0480
 2790SOL    HW119829   1.428   4.338   6.702 -0.2880  0.9582  0.3023
 2790SOL    HW219830   1.376   4.231   6.615  0.3605 -1.1890  2.4741
 2791SOL     OW19831   3.869   1.256   8.664  0.3172 -0.5537  0.7916
 2791SOL    HW119832   3.855   1.338   8.711  0.6979  0.8127 -1.4921
 2791SOL    HW219833   3.830   1.195   8.727  0.0297 -1.0893  0.1013
 2792SOL     OW19834   4.016   3.994   9.918  0.3133 -0.6029  0.0027
 2792SOL    HW119835   4.063   3.930   9.971 -0.9022 -0.7552  0.9101
 2792SOL    HW219836   3.926   3.962   9.925 -0.1062  0.8764  1.2961
 2793SOL     OW19837   1.496   1.599   4.513 -0.0946  0.6064 -0.0716
 2793SOL    HW119838   1.569   1.608   4.452 -0.8712  3.9646 -0.5352
 2793SOL    HW219839   1.490   1.504   4.518  2.1254  0.4747  0.0043
 2794SOL     OW19840   1.283   0.580   3.125 -0.5293 -0.2949 -0.5457
 2794SOL    HW119841   1.268   0.670   3.154  2.8440  0.8848 -2.4168
 2794SOL    HW219842   1.319   0.596   3.037 -0.6846 -1.6414 -0.8584
 2795SOL     OW19843   3.808   3.272   0.031 -0.1662  0.0088  0.0858
 2795SOL    HW119844   3.830   3.344   0.091 -1.2107 -0.5328  1.1084
 2795SOL    HW219845   3.829   3.196   0.086 -0.5096 -0.3686 -0.3064
 2796SOL     OW19846   1.555   0.914   7.541 -0.0135 -0.1397 -0.1843
 2796SOL    HW119847   1.525   0.909   7.450 -1.4110  1.3371  0.2108
 2796SOL    HW219848   1.529   0.830   7.579 -3.7697  1.4338  0.6776
 2797SOL     OW19849   3.071   1.288   4.098  0.0707 -0.8456 -0.0949
 2797SOL    HW119850   3.079   1.371   4.050  0.5374 -0.8180  0.0302
 2797SOL    HW219851   3.101   1.231   4.027  0.3824 -1.5113  0.5688
 2798SOL     OW19852   4.481   0.070  16.016 -0.3107  1.0047  0.5253
 2798SOL    HW119853   4.452   0.051  15.927  1.8548  0.1773  0.0071
 2798SOL    HW219854   4.535   4.718  16.036 -0.4888  0.8671  0.4726
 2799SOL     OW19855   3.935   3.041  14.579  0.0795 -0.4058  0.0590
 2799SOL    HW119856   3.953   2.985  14.503  2.4896  0.1191  0.2554
 2799SOL    HW219857   3.958   3.131  14.555 -0.2081 -0.2239  0.4672
 2800SOL     OW19858   0.908   3.304   9.203 -0.0159 -0.5929 -0.3069
 2800SOL    HW119859   0.847   3.293   9.276  1.2037  0.9201  0.9549
 2800SOL    HW219860   0.847   3.332   9.135 -0.6037 -1.3140 -0.0662
 2801SOL     OW19861   0.756   2.694  17.617 -0.3110  0.2213  0.0076
 2801SOL    HW119862   0.749   2.715  17.524  2.0794  1.3795  0.0722
 2801SOL    HW219863   0.706   2.615  17.635 -0.2540 -0.2541 -1.9144
 2802SOL     OW19864   1.566   0.294   7.347  0.2257 -0.2058 -0.4954
 2802SOL    HW119865   1.618   0.342   7.411 -0.6043 -0.6710  0.5172
 2802SOL    HW219866   1.593   0.325   7.261 -2.4744 -0.4686 -1.4290
 2803SOL     OW19867   4.114   4.480   4.327  0.1227 -0.1936 -0.3917
 2803SOL    HW119868   4.115   4.387   4.301 -2.3079 -0.8175  1.7356
 2803SOL    HW219869   4.024   4.504   4.304 -1.4051 -3.8215  1.6838
 2804SOL     OW19870   3.868   1.772   4.663  0.5286 -0.6468  0.4768
 2804SOL    HW119871   3.936   1.820   4.616 -0.2581 -0.0281 -0.0071
 2804SOL    HW219872   3.819   1.719   4.600  1.0130 -0.1367 -0.3220
 2805SOL     OW19873   1.544   2.624   3.682  0.4419  0.6887  0.1749
 2805SOL    HW119874   1.556   2.697   3.622 -2.0754  1.9545  1.2293
 2805SOL    HW219875   1.475   2.661   3.736 -1.1000 -1.3783 -0.3527
 2806SOL     OW19876   0.170   2.862   5.627 -0.1228  0.4520 -0.6042
 2806SOL    HW119877   0.210   2.830   5.708 -0.1270 -0.4373 -0.9479
 2806SOL    HW219878   0.224   2.940   5.616 -1.7308  1.5855 -0.3947
 2807SOL     OW19879   2.426   0.057   5.856  0.5761  0.2006  0.3972
 2807SOL    HW119880   2.391   0.107   5.782  2.9527  1.5914  0.2117
 2807SOL    HW219881   2.409   0.120   5.926  1.9208  0.7368  0.2253
 2808SOL     OW19882   3.418   3.301   9.142  0.3257 -0.6367  0.3916
 2808SOL    HW119883   3.369   3.219   9.130 -0.7202 -0.3283  2.4297
 2808SOL    HW219884   3.504   3.278   9.106  0.4360 -0.2220  0.3894
 2809SOL     OW19885   3.760   4.604  10.585 -0.2612 -0.1266  0.1578
 2809SOL    HW119886   3.835   4.591  10.527 -1.6733 -0.5505 -1.5558
 2809SOL    HW219887   3.760   4.525  10.639  0.5495 -0.2978 -0.0971
 2810SOL     OW19888   3.869   4.318   4.487  0.6935  0.3420 -0.0061
 2810SOL    HW119889   3.774   4.323   4.491  0.6030 -1.1496 -0.3065
 2810SOL    HW219890   3.877   4.290   4.396 -2.5942 -0.2316 -0.1178
 2811SOL     OW19891   3.862   0.806   9.638  0.2295  0.8253  0.0776
 2811SOL    HW119892   3.801   0.753   9.690  0.4286 -0.3631 -0.9109
 2811SOL    HW219893   3.919   0.742   9.595 -0.2458 -1.6167  3.0535
 2812SOL     OW19894   4.547   4.720  12.224  0.0502 -0.2674 -0.3662
 2812SOL    HW119895   4.538   0.083  12.261  0.5397 -0.9707  1.4405
 2812SOL    HW219896   4.641   4.705  12.239 -0.1679 -0.8310  0.4200
 2813SOL     OW19897   4.193   1.624   8.036  0.2538  0.0707  0.0056
 2813SOL    HW119898   4.230   1.592   8.118  0.9439  0.2468 -0.2417
 2813SOL    HW219899   4.110   1.581   8.057  0.6613 -0.6818  0.0540
 2814SOL     OW19900   1.138   0.611   3.697  0.1416 -0.0595 -0.1851
 2814SOL    HW119901   1.207   0.554   3.665 -0.0592 -0.1446 -0.4681
 2814SOL    HW219902   1.053   0.568   3.687 -0.4695  1.1409 -0.2184
 2815SOL     OW19903   0.564   3.377   6.370 -0.5661 -0.3187 -0.3065
 2815SOL    HW119904   0.657   3.358   6.371 -0.5755 -0.3015  1.0329
 2815SOL    HW219905   0.534   3.321   6.299  0.4267 -1.2779  0.0355
 2816SOL     OW19906   4.624   1.936  10.943  0.5787  0.2128 -0.8403
 2816SOL    HW119907   4.575   1.862  10.905 -0.0620 -0.0587  0.5268
 2816SOL    HW219908   4.686   1.890  10.999  1.5301 -0.1657 -2.2180
 2817SOL     OW19909   0.631   0.400   9.188 -0.1169 -0.0549  0.3960
 2817SOL    HW119910   0.614   0.486   9.150 -0.2895  0.1702  0.9790
 2817SOL    HW219911   0.573   0.344   9.136  0.4129  0.3490 -0.6430
 2818SOL     OW19912   1.561   2.728   6.525  0.0145  0.5433 -0.1156
 2818SOL    HW119913   1.501   2.791   6.564 -0.7948  0.0979 -0.6462
 2818SOL    HW219914   1.640   2.780   6.539 -0.3833  1.8548 -2.7032
 2819SOL     OW19915   4.434   0.048   6.796  0.6744  0.4558 -0.0798
 2819SOL    HW119916   4.473   0.030   6.882  0.4408  0.7078  0.0802
 2819SOL    HW219917   4.455   0.139   6.776 -1.0315  0.4257 -2.0018
 2820SOL     OW19918   1.357   2.630   3.195 -0.3836  0.4041 -0.0154
 2820SOL    HW119919   1.441   2.621   3.150  0.0762 -0.9038  1.1031
 2820SOL    HW219920   1.299   2.585   3.133 -0.5061 -0.8265  0.9888
 2821SOL     OW19921   2.251   0.104   4.058 -0.2428 -0.1749  0.3620
 2821SOL    HW119922   2.165   0.084   4.019 -0.4201  2.4132 -0.5939
 2821SOL    HW219923   2.223   0.135   4.143  0.3007 -0.9377  0.8214
 2822SOL     OW19924   3.913   1.812   5.613  0.0042  0.0525 -0.5368
 2822SOL    HW119925   3.852   1.883   5.591 -0.3797 -0.3186 -0.6694
 2822SOL    HW219926   3.887   1.787   5.701 -2.1705 -1.0155 -1.4657
 2823SOL     OW19927   2.217   1.450   4.220 -0.1251  0.3950  0.6815
 2823SOL    HW119928   2.209   1.449   4.315 -1.9567 -1.6901  0.5199
 2823SOL    HW219929   2.284   1.384   4.206 -0.8348  0.0652 -1.2275
 2824SOL     OW19930   1.921   1.925   2.550  0.1418  0.0937 -0.1972
 2824SOL    HW119931   1.995   1.918   2.610 -0.2061  2.2745  0.4865
 2824SOL    HW219932   1.925   1.838   2.509  1.8275 -0.0633  0.2793
 2825SOL     OW19933   3.254   0.897   8.171  0.1833  0.2717 -0.5552
 2825SOL    HW119934   3.159   0.893   8.166  0.2105 -0.9843 -0.1511
 2825SOL    HW219935   3.272   0.990   8.177 -1.1360  0.4588  0.2382
 2826SOL     OW19936   1.289   1.394   3.182  0.2107 -0.6970  0.2092
 2826SOL    HW119937   1.282   1.304   3.212 -0.4956 -0.8502 -0.3998
 2826SOL    HW219938   1.357   1.421   3.244  0.4280  0.5565 -0.5734
 2827SOL     OW19939   2.921   0.979  16.994 -0.1452 -0.2103 -0.1911
 2827SOL    HW119940   2.949   1.061  16.954  0.7623 -0.6013 -0.3522
 2827SOL    HW219941   2.886   1.003  17.080 -1.1533 -0.7877 -0.4395
 2828SOL     OW19942   2.823   2.035  14.529 -0.4011  0.2556  0.1930
 2828SOL    HW119943   2.755   1.981  14.490  0.4240 -0.7788  0.1714
 2828SOL    HW219944   2.768   2.101  14.571  1.1677  0.5521  1.7924
 2829SOL     OW19945   1.219   3.805  13.219  0.4119 -0.4099  0.1635
 2829SOL    HW119946   1.253   3.777  13.304 -0.0624 -1.9078 -0.1546
 2829SOL    HW219947   1.165   3.879  13.249  0.4044 -0.1225 -0.5519
 2830SOL     OW19948   4.507   2.835  14.364  0.4747  0.3570  0.0754
 2830SOL    HW119949   4.588   2.809  14.319 -0.1620 -3.5032  1.2360
 2830SOL    HW219950   4.534   2.832  14.455 -0.0129 -1.1183  0.1590
 2831SOL     OW19951   2.676   4.308   8.847  0.0146  0.0854 -0.6249
 2831SOL    HW119952   2.698   4.360   8.924 -0.6099 -0.3896 -0.1232
 2831SOL    HW219953   2.747   4.244   8.838  0.7668  1.1714 -2.3884
 2832SOL     OW19954   4.160   4.081  14.165  0.2403 -0.4400  0.3706
 2832SOL    HW119955   4.222   4.089  14.092 -2.3102 -0.5981 -1.8134
 2832SOL    HW219956   4.079   4.110  14.123  1.0307 -0.5020 -1.1973
 2833SOL     OW19957   1.433   1.693   6.915 -0.0200 -0.2240 -0.2879
 2833SOL    HW119958   1.470   1.738   6.991  1.2188 -0.0178 -1.0083
 2833SOL    HW219959   1.344   1.722   6.899  0.1759 -0.1537 -1.2775
 2834SOL     OW19960   1.652   1.300   8.867  0.3061 -0.3027  0.2140
 2834SOL    HW119961   1.665   1.208   8.890  1.5292  0.3577  2.1372
 2834SOL    HW219962   1.575   1.297   8.809  2.0126  0.3884 -2.0772
 2835SOL     OW19963   0.130   1.290   6.159  0.0964  0.5912  0.3249
 2835SOL    HW119964   0.116   1.314   6.251  0.3623 -2.3672  1.1189
 2835SOL    HW219965   0.226   1.289   6.152  0.2193  0.6418  1.9389
 2836SOL     OW19966   2.405   3.545  10.979  0.2407  0.0800  0.0026
 2836SOL    HW119967   2.320   3.500  10.982  0.6638 -0.9856 -3.1490
 2836SOL    HW219968   2.379   3.625  10.933 -3.7402 -0.7625  0.7470
 2837SOL     OW19969   3.564   3.922   5.051  0.3628 -0.3251  0.4446
 2837SOL    HW119970   3.648   3.966   5.063  0.9474 -0.8081 -1.8892
 2837SOL    HW219971   3.587   3.871   4.974  2.0433 -1.1588  1.5082
 2838SOL     OW19972   3.366   0.746   0.650 -0.2607 -0.4874  0.1840
 2838SOL    HW119973   3.449   0.790   0.635 -0.5690  0.0580  0.0864
 2838SOL    HW219974   3.387   0.664   0.605 -1.5737 -1.6533  1.6791
 2839SOL     OW19975   4.412   1.466  13.913 -0.0578 -0.3100 -0.0636
 2839SOL    HW119976   4.444   1.530  13.849 -0.3910 -0.2053 -0.1258
 2839SOL    HW219977   4.457   1.386  13.886  3.2896  1.8448 -0.7320
 2840SOL     OW19978   0.187   1.868   8.796  0.0504 -0.3844 -0.1329
 2840SOL    HW119979   0.130   1.913   8.734 -0.0508  0.3324  0.4832
 2840SOL    HW219980   0.166   1.781   8.762 -1.0099 -0.9792  1.9982
 2841SOL     OW19981   3.181   3.810  10.812  0.3837  0.1428  0.2934
 2841SOL    HW119982   3.184   3.806  10.907  1.5748  0.7839  0.2884
 2841SOL    HW219983   3.159   3.720  10.786 -0.3036  0.3010  0.3447
 2842SOL     OW19984   0.891   4.578  10.274 -0.1202 -0.3155  0.1037
 2842SOL    HW119985   0.983   4.563  10.295  0.1463 -0.6301 -1.2547
 2842SOL    HW219986   0.887   4.674  10.277 -0.3869 -0.3910  2.2143
 2843SOL     OW19987   2.928   4.490   3.607  0.6244  0.3253 -0.1772
 2843SOL    HW119988   2.873   4.412   3.597  2.3343 -1.2219  2.6712
 2843SOL    HW219989   2.866   4.548   3.651 -0.9580 -0.4577 -1.3898
 2844SOL     OW19990   1.660   0.681   8.952  0.2138 -0.2883 -0.2899
 2844SOL    HW119991   1.734   0.621   8.952 -0.4691 -1.1295  1.0032
 2844SOL    HW219992   1.589   0.619   8.935  0.2905 -0.2603 -0.7157
 2845SOL     OW19993   4.504   3.615   4.210 -0.0950  0.1355 -0.0545
 2845SOL    HW119994   4.466   3.703   4.214 -0.9642 -0.2358 -0.1239
 2845SOL    HW219995   4.529   3.593   4.299 -0.1140  0.3940  0.0141
 2846SOL     OW19996   1.200   1.579   4.863  0.4372  0.1450 -0.5957
 2846SOL    HW119997   1.226   1.490   4.887  1.8729  1.0585  1.1739
 2846SOL    HW219998   1.288   1.614   4.866  0.3476  0.0521  2.5197
 2847SOL     OW19999   4.265   3.062   3.685 -0.2189  0.1698  0.2529
 2847SOL    HW120000   4.295   3.150   3.710  1.4599  0.4012 -2.6032
 2847SOL    HW220001   4.327   3.011   3.737 -2.1166 -2.8792 -0.4958
 2848SOL     OW20002   2.836   1.190   8.959 -0.6641 -0.4848  0.2026
 2848SOL    HW120003   2.773   1.216   8.892 -0.9001 -4.5779 -1.1734
 2848SOL    HW220004   2.848   1.276   8.998 -2.4732 -1.0092  1.9201
 2849SOL     OW20005   1.147   3.203   9.284  0.8116 -0.2210 -0.2158
 2849SOL    HW120006   1.078   3.244   9.232  2.6858  0.4603 -2.1263
 2849SOL    HW220007   1.108   3.190   9.371  3.8373 -2.3075  0.8383
 2850SOL     OW20008   2.035   4.651   4.514 -0.2131 -0.0749 -0.4543
 2850SOL    HW120009   2.063   0.018   4.515 -2.2233  0.5233 -0.6214
 2850SOL    HW220010   1.963   4.658   4.452 -0.0746 -0.3573 -0.6483
 2851SOL     OW20011   2.639   1.636  14.398  0.1635 -0.7554 -0.2565
 2851SOL    HW120012   2.635   1.731  14.382 -1.5088 -0.6758  0.6165
 2851SOL    HW220013   2.602   1.613  14.312 -0.6226  1.9026 -0.6449
 2852SOL     OW20014   0.300   2.365   6.770  0.0315 -0.4782 -0.3633
 2852SOL    HW120015   0.247   2.285   6.766 -0.0566 -0.3495 -1.5256
 2852SOL    HW220016   0.237   2.423   6.727 -0.4389 -0.8779 -0.2211
 2853SOL     OW20017   2.438   2.317  10.751 -0.6829  0.3035  0.4296
 2853SOL    HW120018   2.442   2.401  10.797  1.0224 -0.1227  1.0418
 2853SOL    HW220019   2.492   2.263  10.809  0.0515 -0.9218 -1.4008
 2854SOL     OW20020   1.975   0.623  14.754 -0.7314  0.0235  0.3998
 2854SOL    HW120021   1.963   0.554  14.819 -0.0564 -1.2248 -0.8094
 2854SOL    HW220022   1.901   0.597  14.698  0.2159  0.1094 -0.8917
 2855SOL     OW20023   4.718   2.738   3.906 -0.4714  0.0458 -0.3318
 2855SOL    HW120024   4.673   2.745   3.822  1.2731 -1.7246 -1.4006
 2855SOL    HW220025   0.021   2.829   3.918 -0.1439 -0.4058  2.3069
 2856SOL     OW20026   1.804   2.351  17.193 -0.1752 -0.0218  0.1590
 2856SOL    HW120027   1.853   2.411  17.251 -0.8504  0.3972  0.3028
 2856SOL    HW220028   1.845   2.269  17.220 -0.2643 -0.5574 -1.3873
 2857SOL     OW20029   3.440   3.212   7.383 -0.4019  0.3956  0.2848
 2857SOL    HW120030   3.472   3.222   7.473 -1.7067 -1.8387  1.0243
 2857SOL    HW220031   3.501   3.266   7.334 -0.4386  0.3650  0.2053
 2858SOL     OW20032   1.497   4.655  16.280  0.7705  0.2699  0.7224
 2858SOL    HW120033   1.525   4.570  16.247  0.7114  0.7360 -0.5443
 2858SOL    HW220034   1.423   4.630  16.335  1.7207 -1.5460  1.1655
 2859SOL     OW20035   3.897   3.519   5.333 -0.0501 -0.3859 -0.4933
 2859SOL    HW120036   3.896   3.609   5.300  0.0576 -0.1136  0.2297
 2859SOL    HW220037   3.929   3.531   5.423 -0.2734 -1.3728 -0.2790
 2860SOL     OW20038   1.266   4.089   3.849  0.9544  0.1576  0.0672
 2860SOL    HW120039   1.331   4.132   3.794 -0.8122  1.8096 -0.7374
 2860SOL    HW220040   1.265   3.997   3.823 -0.8644 -0.0718  0.9289
 2861SOL     OW20041   3.567   0.293   1.365 -0.1581  0.7404 -0.2555
 2861SOL    HW120042   3.569   0.343   1.446 -0.6896  0.2629  0.0468
 2861SOL    HW220043   3.660   0.282   1.346 -0.4111  2.1124 -2.3334
 2862SOL     OW20044   2.903   3.325   5.548 -0.3438 -0.0813 -0.1925
 2862SOL    HW120045   2.808   3.315   5.550 -0.3687  0.6722  1.6133
 2862SOL    HW220046   2.924   3.295   5.636 -2.9285 -0.1193  0.4165
 2863SOL     OW20047   0.443   3.229   4.255  0.3985 -0.6900 -0.3738
 2863SOL    HW120048   0.377   3.295   4.275  2.6128  1.8789 -1.5768
 2863SOL    HW220049   0.409   3.197   4.171 -1.1364  0.3749 -0.1465
 2864SOL     OW20050   1.051   2.288   8.759 -0.0006 -0.4810 -0.1421
 2864SOL    HW120051   1.064   2.311   8.851 -2.3923 -1.6569  0.4960
 2864SOL    HW220052   0.959   2.312   8.754 -0.4757 -2.8538 -2.7935
 2865SOL     OW20053   2.512   1.901   7.675 -0.2536  0.8627  0.0191
 2865SOL    HW120054   2.462   1.927   7.598 -0.9963 -0.9163 -0.0979
 2865SOL    HW220055   2.449   1.918   7.745  1.7489 -0.0290  2.0493
 2866SOL     OW20056   0.945   2.575   5.386  0.2291 -0.1419  0.1881
 2866SOL    HW120057   0.850   2.578   5.397 -0.0071  0.5692 -2.1619
 2866SOL    HW220058   0.969   2.577   5.479 -1.0517 -2.3961  0.5708
 2867SOL     OW20059   2.303   0.677  12.399 -0.0830 -0.1176  0.0434
 2867SOL    HW120060   2.362   0.752  12.391  1.2687 -1.1172  0.6360
 2867SOL    HW220061   2.285   0.655  12.307  1.4706 -1.2629  0.0148
 2868SOL     OW20062   0.532   0.475   4.021 -0.2356 -0.1425  0.4441
 2868SOL    HW120063   0.608   0.459   4.078  1.7798 -1.1409 -2.5478
 2868SOL    HW220064   0.480   0.395   4.030  1.0659 -0.9728  0.5336
 2869SOL     OW20065   0.705   4.585   2.659  0.0231 -0.2033 -0.0598
 2869SOL    HW120066   0.697   4.674   2.693  0.1051 -0.4468  0.5864
 2869SOL    HW220067   0.744   4.604   2.574  2.4457 -3.2042  0.4018
 2870SOL     OW20068   2.481   3.558   9.146  0.2530  0.7848 -0.2190
 2870SOL    HW120069   2.391   3.527   9.152  0.7548 -0.6202  0.0815
 2870SOL    HW220070   2.526   3.484   9.104  1.8037  2.0755 -0.8286
 2871SOL     OW20071   3.354   3.703   2.871 -0.0707  0.1358 -0.4564
 2871SOL    HW120072   3.418   3.639   2.839  0.6329  1.3317 -1.4259
 2871SOL    HW220073   3.409   3.780   2.882  0.1297 -0.2833  1.3801
 2872SOL     OW20074   4.489   1.004  10.446  0.0670  0.4451 -0.0933
 2872SOL    HW120075   4.437   1.080  10.473 -0.1267  0.1863  0.2661
 2872SOL    HW220076   4.523   0.972  10.529  1.2935 -0.3790 -0.9165
 2873SOL     OW20077   1.925   3.741   1.148 -0.4986  0.3003  0.0484
 2873SOL    HW120078   1.979   3.724   1.225 -0.6892  0.5213  0.2265
 2873SOL    HW220079   1.939   3.835   1.140  0.0421  0.2919  0.9689
 2874SOL     OW20080   1.683   0.325   4.491 -0.4129  0.5172 -0.4061
 2874SOL    HW120081   1.755   0.340   4.552 -1.3016 -0.3519  0.8809
 2874SOL    HW220082   1.689   0.402   4.435  0.0627 -0.0834 -1.1848
 2875SOL     OW20083   1.160   3.902   0.684 -0.8067 -0.5324  0.8073
 2875SOL    HW120084   1.189   3.956   0.758  1.9195  1.1066 -1.4706
 2875SOL    HW220085   1.210   3.947   0.616 -0.3771 -1.3297  0.5998
 2876SOL     OW20086   1.350   0.016   2.267 -0.1095  0.2347 -0.4592
 2876SOL    HW120087   1.425   0.059   2.226  0.6425  2.2408  2.9442
 2876SOL    HW220088   1.365   0.050   2.355 -0.5230 -0.3480 -0.1603
 2877SOL     OW20089   4.563   0.408  13.504 -0.1104 -0.5782 -0.1622
 2877SOL    HW120090   4.637   0.349  13.519  1.2539  1.1859  0.0381
 2877SOL    HW220091   4.503   0.384  13.574 -0.0124 -1.8662 -0.5171
 2878SOL     OW20092   2.608   2.642  16.494 -0.3211 -0.0740  0.0818
 2878SOL    HW120093   2.592   2.733  16.469 -0.1910  0.5583  2.2708
 2878SOL    HW220094   2.676   2.610  16.435  0.4793  0.4919  0.7093
 2879SOL     OW20095   4.468   3.088  10.594  0.2775  0.2224 -0.0492
 2879SOL    HW120096   4.478   3.089  10.689 -1.0322 -0.0686  0.0880
 2879SOL    HW220097   4.498   3.176  10.571 -0.0102  0.8589  1.9776
 2880SOL     OW20098   3.841   3.055   5.804  0.3762 -0.2281 -0.0551
 2880SOL    HW120099   3.834   3.087   5.894  0.9071 -1.1061  0.3104
 2880SOL    HW220100   3.748   3.065   5.785  0.0433  0.1307  1.7595
 2881SOL     OW20101   0.111   1.860   3.772 -0.5579  0.2029  0.0062
 2881SOL    HW120102   0.039   1.918   3.747 -0.2517 -0.1091 -1.6487
 2881SOL    HW220103   0.154   1.828   3.692 -1.9001 -2.1541  0.2152
 2882SOL     OW20104   3.025   4.332   4.395 -0.3455 -0.0658 -0.2072
 2882SOL    HW120105   3.085   4.381   4.339 -0.9300 -0.6052 -1.3117
 2882SOL    HW220106   3.026   4.250   4.346  0.3422 -1.0090  1.3871
 2883SOL     OW20107   0.237   1.399   8.140  0.1437  0.2706 -0.1331
 2883SOL    HW120108   0.279   1.485   8.140 -1.2849  0.9545  1.1180
 2883SOL    HW220109   0.147   1.414   8.113  0.1655  0.0803 -0.3214
 2884SOL     OW20110   3.640   3.293   1.809 -0.1029 -0.4741 -0.0498
 2884SOL    HW120111   3.562   3.328   1.766  0.5355  0.5432 -0.3754
 2884SOL    HW220112   3.606   3.315   1.895  0.7167 -0.9083  0.3858
 2885SOL     OW20113   0.557   2.418   8.445  0.1113  0.1645 -0.3760
 2885SOL    HW120114   0.618   2.453   8.380  1.1017 -1.8218 -0.5352
 2885SOL    HW220115   0.499   2.368   8.388 -0.1542  0.5849 -0.4734
 2886SOL     OW20116   0.517   0.541   6.145  0.1765 -0.1096  0.1910
 2886SOL    HW120117   0.567   0.482   6.089  2.3384  2.3254 -0.4566
 2886SOL    HW220118   0.450   0.484   6.181  1.4706 -1.3031  0.7286
 2887SOL     OW20119   0.939   3.641   3.976 -0.6796  0.1011 -0.3431
 2887SOL    HW120120   0.892   3.560   3.994 -2.4334  1.4356  1.0421
 2887SOL    HW220121   0.875   3.709   3.994 -0.5610  0.1421 -0.0764
 2888SOL     OW20122   3.060   3.911   5.357  0.7257 -0.2320 -0.6995
 2888SOL    HW120123   3.134   3.957   5.317  1.6392 -0.8828  0.2478
 2888SOL    HW220124   3.063   3.833   5.302 -0.3630 -0.6699 -0.1298
 2889SOL     OW20125   4.215   4.052   1.569  0.0571  0.4380  0.0144
 2889SOL    HW120126   4.284   4.018   1.512  0.5186  1.2319  0.0969
 2889SOL    HW220127   4.226   3.997   1.647  0.4207 -0.1555 -0.4585
 2890SOL     OW20128   0.415   2.237   9.877 -0.1090  0.0080  0.0882
 2890SOL    HW120129   0.392   2.169   9.814 -1.7861  0.5142  0.1365
 2890SOL    HW220130   0.440   2.309   9.819  1.7518 -1.0927 -0.4534
 2891SOL     OW20131   3.770   1.681   5.231 -0.2052  0.0704  0.4664
 2891SOL    HW120132   3.773   1.675   5.327 -3.2237 -0.9272  0.5059
 2891SOL    HW220133   3.677   1.672   5.208 -0.1004  0.7182 -0.2156
 2892SOL     OW20134   2.153   4.465   3.593  0.2104 -0.4769 -0.0648
 2892SOL    HW120135   2.106   4.431   3.517 -1.5960  1.4787  0.1816
 2892SOL    HW220136   2.223   4.400   3.599 -0.2940 -1.1604 -1.6166
 2893SOL     OW20137   3.904   1.411   7.494 -0.2088 -0.1746  0.0843
 2893SOL    HW120138   3.818   1.399   7.454  0.0163 -1.8879  0.1177
 2893SOL    HW220139   3.876   1.411   7.586 -2.9461  1.2767 -0.7444
 2894SOL     OW20140   0.729   0.111   7.679 -0.9000  0.1797 -0.1194
 2894SOL    HW120141   0.707   0.171   7.750  1.8718 -0.4352  1.2678
 2894SOL    HW220142   0.740   0.166   7.601  1.9318  2.0040  1.5994
 2895SOL     OW20143   3.539   3.189   6.429  0.1475  0.0558  0.1662
 2895SOL    HW120144   3.540   3.280   6.397 -2.1375  0.6720  1.8362
 2895SOL    HW220145   3.490   3.209   6.509  0.5589  1.3856  0.0921
 2896SOL     OW20146   2.026   4.216   7.820  0.0608 -0.6064  0.4367
 2896SOL    HW120147   2.111   4.222   7.862 -0.8634  0.5542  2.1579
 2896SOL    HW220148   2.052   4.173   7.739  0.1405  0.9343 -0.3530
 2897SOL     OW20149   2.768   3.995   3.356 -0.2190  0.3007  0.4768
 2897SOL    HW120150   2.853   4.034   3.340 -0.8225  1.3061 -0.3124
 2897SOL    HW220151   2.721   4.027   3.278 -1.0689  1.6253  1.5306
 2898SOL     OW20152   3.245   0.579  14.527 -0.2414  0.3390  0.7526
 2898SOL    HW120153   3.265   0.549  14.438  2.1109 -0.3104  1.5003
 2898SOL    HW220154   3.306   0.651  14.542  0.2059 -0.1531  1.3021
 2899SOL     OW20155   0.752   1.509  10.863  0.3028  0.3000  0.0547
 2899SOL    HW120156   0.744   1.511  10.958  1.1375 -0.2120  0.1335
 2899SOL    HW220157   0.841   1.543  10.850 -0.4624  2.1183 -0.4912
 2900SOL     OW20158   4.288   3.994   8.997  0.3390  0.2968 -0.1151
 2900SOL    HW120159   4.361   4.053   9.014 -0.9841  1.6812  0.7825
 2900SOL    HW220160   4.286   3.980   8.902  0.1980  0.4253 -0.1294
 2901SOL     OW20161   3.436   3.888   3.380 -0.2859  0.5946 -0.2779
 2901SOL    HW120162   3.364   3.893   3.318 -0.0593 -0.5684 -0.6379
 2901SOL    HW220163   3.393   3.855   3.460 -0.2171  1.3585  0.0774
 2902SOL     OW20164   1.119   0.596   8.919  0.3922 -0.0850  0.1348
 2902SOL    HW120165   1.154   0.538   8.851 -0.0460 -1.1747  0.8316
 2902SOL    HW220166   1.032   0.613   8.884  0.0864 -0.7376  0.5664
 2903SOL     OW20167   3.003   2.123  13.027  0.4759 -0.6233  0.2446
 2903SOL    HW120168   3.026   2.063  13.098  0.6387  0.1246  0.8255
 2903SOL    HW220169   3.050   2.083  12.953  0.8264 -1.8512  1.1276
 2904SOL     OW20170   4.198   4.135   3.574 -0.2177 -0.2593 -0.3958
 2904SOL    HW120171   4.135   4.079   3.620  0.2191 -1.8191 -1.7261
 2904SOL    HW220172   4.208   4.093   3.489 -1.9730 -1.3602 -0.0706
 2905SOL     OW20173   0.923   3.649   9.098  0.5016  0.0207  0.5914
 2905SOL    HW120174   0.841   3.624   9.056  1.8809 -2.0682 -0.8632
 2905SOL    HW220175   0.889   3.658   9.187  0.6881  0.3311  0.6333
 2906SOL     OW20176   3.644   2.524   4.420 -0.5445  0.0109  0.7456
 2906SOL    HW120177   3.738   2.509   4.420 -0.4745  0.3890 -2.9733
 2906SOL    HW220178   3.653   2.605   4.369 -0.6845 -0.5094 -0.1086
 2907SOL     OW20179   1.745   2.806   2.569 -0.3546 -0.3321  0.1807
 2907SOL    HW120180   1.702   2.721   2.566  0.3926 -0.6809 -0.7687
 2907SOL    HW220181   1.831   2.781   2.534 -0.8802 -0.4933 -1.0024
 2908SOL     OW20182   2.766   3.947   8.006 -0.0383  0.2746 -0.1135
 2908SOL    HW120183   2.823   3.981   7.937  1.2416 -0.6981  0.4616
 2908SOL    HW220184   2.832   3.943   8.076  0.3670  0.1842 -0.5007
 2909SOL     OW20185   1.287   3.360   8.051  0.0590  0.3652  0.1241
 2909SOL    HW120186   1.357   3.424   8.064  0.1592  0.2958 -0.0808
 2909SOL    HW220187   1.323   3.308   7.980  2.5610 -1.6502  2.8573
 2910SOL     OW20188   2.886   1.232   0.690 -0.2667 -0.3373 -0.7351
 2910SOL    HW120189   2.912   1.153   0.738  0.5559 -0.5110 -1.4623
 2910SOL    HW220190   2.801   1.217   0.650 -0.2279 -1.7704 -0.2599
 2911SOL     OW20191   0.718   2.566  13.130 -0.0518  0.2455 -0.0325
 2911SOL    HW120192   0.741   2.612  13.211  1.7467 -2.8521  1.2178
 2911SOL    HW220193   0.724   2.472  13.147  0.1215  0.3083  0.2494
 2912SOL     OW20194   0.754   4.420   7.689  0.2744 -0.2891  0.3478
 2912SOL    HW120195   0.723   4.509   7.669  1.1087  0.0342  0.4814
 2912SOL    HW220196   0.849   4.425   7.696  0.6192 -1.3545 -4.0896
 2913SOL     OW20197   3.333   0.653   8.033  0.4198 -0.4617 -0.3964
 2913SOL    HW120198   3.318   0.742   8.066 -0.7643 -0.2435 -1.5342
 2913SOL    HW220199   3.304   0.667   7.943 -1.3077  1.0436  0.4088
 2914SOL     OW20200   0.949   1.806   8.807 -0.0806  0.2257 -0.3777
 2914SOL    HW120201   0.989   1.882   8.765 -0.9085  0.5810 -0.5167
 2914SOL    HW220202   0.868   1.843   8.840 -0.6249 -0.5513 -0.8249
 2915SOL     OW20203   2.145   0.224   5.018  0.7118  0.5175  0.5204
 2915SOL    HW120204   2.105   0.306   4.987 -1.3638 -1.0866 -1.0493
 2915SOL    HW220205   2.087   0.156   4.984  0.9511 -0.3304  1.8392
 2916SOL     OW20206   2.626   4.610   4.326 -0.2206 -0.2456  0.0797
 2916SOL    HW120207   2.551   4.555   4.305  0.8736 -1.9161  0.5216
 2916SOL    HW220208   2.678   4.554   4.383  1.4499  1.7590  0.5517
 2917SOL     OW20209   1.139   0.054   4.358  0.3099 -0.0201 -0.1482
 2917SOL    HW120210   1.203   0.044   4.429  1.5403 -1.2902 -1.4455
 2917SOL    HW220211   1.176   0.003   4.286 -1.4773 -0.7150 -0.5731
 2918SOL     OW20212   3.728   3.689  12.176  0.0943  0.2902  0.0281
 2918SOL    HW120213   3.688   3.607  12.146 -0.7585  0.8873 -0.4922
 2918SOL    HW220214   3.810   3.690  12.127 -0.0477  0.9427 -0.2009
 2919SOL     OW20215   0.918   2.007   3.611 -0.2836  0.0430 -0.8105
 2919SOL    HW120216   0.834   2.026   3.651 -0.2746 -0.1881 -0.6793
 2919SOL    HW220217   0.887   1.935   3.555 -0.1992 -1.1213  0.6479
 2920SOL     OW20218   3.035   3.081   1.965 -0.1651 -0.2916 -0.0130
 2920SOL    HW120219   3.104   3.018   1.984 -1.8164 -3.0059 -3.0439
 2920SOL    HW220220   2.957   3.026   1.966 -0.5961  0.3057 -0.8149
 2921SOL     OW20221   2.313   4.311   4.645  0.3176 -0.3709  0.3371
 2921SOL    HW120222   2.219   4.330   4.642  0.0150 -2.0489 -0.6764
 2921SOL    HW220223   2.334   4.312   4.552 -0.5821  2.3892  0.1466
 2922SOL     OW20224   2.426   0.101   3.846 -0.2403 -0.8423  0.0900
 2922SOL    HW120225   2.474   0.023   3.875  1.5036  0.2777  0.2394
 2922SOL    HW220226   2.366   0.111   3.920  0.1861 -1.5045  0.5273
 2923SOL     OW20227   0.945   0.974   9.420 -0.2171  0.3776  0.4580
 2923SOL    HW120228   0.972   0.958   9.330  0.1821 -1.8116  0.9582
 2923SOL    HW220229   0.911   1.063   9.414 -0.8922  0.0171 -1.0489
 2924SOL     OW20230   2.078   1.250  16.534  0.0865  0.3137 -0.0339
 2924SOL    HW120231   1.985   1.266  16.553  0.5033 -0.9052  3.1118
 2924SOL    HW220232   2.097   1.321  16.472  0.5149 -0.5053 -0.8305
 2925SOL     OW20233   0.278   3.100   7.856 -0.1126 -0.1026 -0.0275
 2925SOL    HW120234   0.214   3.114   7.786  0.8254  0.1756 -0.8190
 2925SOL    HW220235   0.307   3.011   7.834  3.6392  0.6073  2.0170
 2926SOL     OW20236   4.278   3.810  17.379  0.0383  0.7325  0.5836
 2926SOL    HW120237   4.310   3.898  17.359  1.6201 -0.7410 -3.4287
 2926SOL    HW220238   4.187   3.838  17.373 -0.1148  0.0492 -0.3437
 2927SOL     OW20239   2.063   4.305  11.081  0.3339  0.0322 -0.1453
 2927SOL    HW120240   2.124   4.269  11.017  0.1464  0.3176 -0.4827
 2927SOL    HW220241   2.046   4.395  11.052 -0.5279  0.0233  0.3287
 2928SOL     OW20242   0.913   2.409   7.415  0.1339 -0.6865 -0.5045
 2928SOL    HW120243   0.972   2.468   7.462 -0.3713 -0.8715  0.3563
 2928SOL    HW220244   0.834   2.461   7.404  0.3052  0.2391  2.9234
 2929SOL     OW20245   3.204   0.423   7.453 -0.3283  0.5711 -0.6597
 2929SOL    HW120246   3.158   0.345   7.422 -0.9579  1.0579 -0.9422
 2929SOL    HW220247   3.155   0.496   7.416 -2.3362 -0.8367 -0.7699
 2930SOL     OW20248   3.509   2.700  11.532  0.3667  0.0141  0.3335
 2930SOL    HW120249   3.563   2.657  11.598  0.0176 -2.6438 -1.1193
 2930SOL    HW220250   3.462   2.755  11.594  0.7923  0.0887  0.5956
 2931SOL     OW20251   1.973   2.388   9.903  0.4649  0.9032  0.3918
 2931SOL    HW120252   1.938   2.353   9.821 -1.0501  1.5248  0.7713
 2931SOL    HW220253   1.998   2.478   9.884  0.4240  0.7291 -0.4812
 2932SOL     OW20254   0.469   3.273  10.431 -0.6490 -0.4262 -0.0105
 2932SOL    HW120255   0.405   3.337  10.401  0.2852  1.1666  1.3699
 2932SOL    HW220256   0.409   3.226  10.489  0.0464 -0.1969  0.8993
 2933SOL     OW20257   0.591   1.865   2.716  1.0327 -0.0002 -0.8259
 2933SOL    HW120258   0.676   1.851   2.759  0.4499 -3.3336 -0.7211
 2933SOL    HW220259   0.586   1.781   2.670  2.1323  0.2792 -1.4557
 2934SOL     OW20260   3.177   3.882   8.234 -0.0534  0.0574 -0.7129
 2934SOL    HW120261   3.252   3.942   8.236  0.3823 -0.4689 -1.4052
 2934SOL    HW220262   3.166   3.857   8.326 -1.3390  0.7146 -0.6990
 2935SOL     OW20263   3.690   4.260   5.277 -0.6051 -0.1596 -0.0760
 2935SOL    HW120264   3.759   4.285   5.338  2.6968 -0.3181 -3.7776
 2935SOL    HW220265   3.640   4.339   5.257 -1.7280 -0.6373  0.8097
 2936SOL     OW20266   2.313   0.859   7.450 -0.0439  0.0092  0.2092
 2936SOL    HW120267   2.298   0.860   7.545  1.9980 -0.1260  0.5413
 2936SOL    HW220268   2.366   0.938   7.443 -1.4544  0.9570  0.2557
 2937SOL     OW20269   3.491   0.907   5.055 -0.2112 -0.2654 -0.3294
 2937SOL    HW120270   3.457   0.919   4.967 -2.0335 -2.6804  0.0487
 2937SOL    HW220271   3.454   0.822   5.079  0.7805 -0.7862 -0.6735
 2938SOL     OW20272   1.920   2.103  17.250  0.4356 -0.7274  0.4699
 2938SOL    HW120273   1.974   2.109  17.329 -1.7375  0.1453  1.8956
 2938SOL    HW220274   1.877   2.018  17.240  1.0574 -0.7628 -2.0316
 2939SOL     OW20275   1.166   3.785   7.780  0.3151 -0.2421 -0.1433
 2939SOL    HW120276   1.239   3.734   7.746  0.4296  0.5819 -1.1232
 2939SOL    HW220277   1.113   3.795   7.701  0.9977  1.6265 -0.3547
 2940SOL     OW20278   2.390   4.404   4.341 -0.5372  0.2987  0.3062
 2940SOL    HW120279   2.420   4.322   4.302 -0.7347  0.1538  0.4615
 2940SOL    HW220280   2.353   4.451   4.267 -3.4986 -2.2547  0.1709
 2941SOL     OW20281   0.443   2.623   0.865  0.2074  0.0574  0.0305
 2941SOL    HW120282   0.385   2.698   0.879  1.4972  1.2747 -1.0820
 2941SOL    HW220283   0.523   2.642   0.914 -0.3986 -1.0517  1.4487
 2942SOL     OW20284   0.510   1.912   0.552 -0.5117  0.3557 -0.3625
 2942SOL    HW120285   0.533   2.002   0.576  0.1257  0.0091  0.3472
 2942SOL    HW220286   0.599   1.876   0.558 -0.2417  1.0514 -0.1218
 2943SOL     OW20287   1.422   0.753  15.256 -0.9762  0.1580  0.0918
 2943SOL    HW120288   1.425   0.833  15.203 -2.6674 -0.5258 -1.0440
 2943SOL    HW220289   1.342   0.772  15.305 -1.3800 -1.4032  0.0196
 2944SOL     OW20290   3.790   4.152  12.550 -0.4063  0.1136  0.3442
 2944SOL    HW120291   3.714   4.095  12.539 -1.0741  0.9326  0.8026
 2944SOL    HW220292   3.855   4.082  12.539 -0.4925 -0.0131  0.6342
 2945SOL     OW20293   1.248   1.053   7.845 -0.0662 -0.2535  0.1246
 2945SOL    HW120294   1.219   1.123   7.904  1.1439  0.2437  0.1382
 2945SOL    HW220295   1.161   1.017   7.830  0.4888 -1.5012 -0.0235
 2946SOL     OW20296   1.785   1.068  12.830  0.3702 -0.0698 -0.2938
 2946SOL    HW120297   1.760   1.024  12.911  1.0796  1.0083  0.5221
 2946SOL    HW220298   1.763   1.003  12.764 -1.7180 -0.2405  0.5602
 2947SOL     OW20299   1.349   4.083  16.615 -0.0977  0.0330 -0.1799
 2947SOL    HW120300   1.443   4.081  16.598 -0.1373 -1.4183 -0.3034
 2947SOL    HW220301   1.316   4.011  16.561 -1.5756  2.2183 -2.2089
 2948SOL     OW20302   3.781   0.584   7.467  0.3853  0.0762  0.4792
 2948SOL    HW120303   3.838   0.660   7.452 -0.7297  0.7160 -0.5457
 2948SOL    HW220304   3.798   0.524   7.394  1.3998  0.0812  0.7058
 2949SOL     OW20305   3.275   1.518   3.739 -0.1904 -0.3018 -1.1794
 2949SOL    HW120306   3.193   1.510   3.787 -0.4069  0.5405 -1.4055
 2949SOL    HW220307   3.247   1.480   3.656  2.3514  0.3631 -2.3428
 2950SOL     OW20308   2.207   3.754  16.652 -0.3909  0.3275  0.1768
 2950SOL    HW120309   2.178   3.748  16.743  2.4158 -0.5337  1.0056
 2950SOL    HW220310   2.130   3.789  16.607 -0.3912 -0.2507 -0.2645
 2951SOL     OW20311   4.055   0.318   6.010 -0.3264 -0.3390  0.0029
 2951SOL    HW120312   4.148   0.297   6.004 -0.0966  0.4285  0.9002
 2951SOL    HW220313   4.052   0.412   6.025  0.2100 -0.3892  0.4173
 2952SOL     OW20314   1.819   3.796   7.697 -0.2108 -0.5557  0.8804
 2952SOL    HW120315   1.870   3.821   7.774 -0.1284 -0.8515  0.9212
 2952SOL    HW220316   1.859   3.848   7.626 -0.4168 -0.8298  0.5656
 2953SOL     OW20317   0.790   0.196   4.295 -0.0677  0.1070 -0.1925
 2953SOL    HW120318   0.753   0.276   4.258 -0.6092  1.3920  3.0840
 2953SOL    HW220319   0.724   0.181   4.363 -0.7158  1.1330 -0.5909
 2954SOL     OW20320   1.454   1.041   3.556  0.1632  0.2564  0.0821
 2954SOL    HW120321   1.495   1.041   3.642  1.4972  0.4674 -0.5557
 2954SOL    HW220322   1.360   1.041   3.573 -0.4703  2.3795 -3.3739
 2955SOL     OW20323   1.348   3.495   5.637  0.1714  0.5666  0.2413
 2955SOL    HW120324   1.299   3.413   5.635  0.5702  0.3257  0.3099
 2955SOL    HW220325   1.309   3.531   5.557  1.3489  2.0921  0.3475
 2956SOL     OW20326   2.667   2.712   1.554 -0.6262 -0.3236  0.3328
 2956SOL    HW120327   2.646   2.645   1.619  1.1408  0.4330  1.6878
 2956SOL    HW220328   2.752   2.741   1.587 -0.5854  0.3625 -0.3594
 2957SOL     OW20329   4.118   3.500   8.518  0.1456 -0.0062 -0.3734
 2957SOL    HW120330   4.208   3.531   8.518  0.2815 -0.4015 -0.4881
 2957SOL    HW220331   4.128   3.447   8.598  1.2730 -1.1211 -1.2568
 2958SOL     OW20332   1.782   2.725  10.284  0.3139  0.1108 -0.1338
 2958SOL    HW120333   1.727   2.785  10.234  2.6083  1.8721 -0.5381
 2958SOL    HW220334   1.795   2.651  10.225 -1.3237 -0.1586 -0.1456
 2959SOL     OW20335   4.062   1.527   6.626  0.0198  0.3337  0.2075
 2959SOL    HW120336   3.973   1.505   6.598 -0.7864  4.3006 -0.3104
 2959SOL    HW220337   4.044   1.601   6.685  0.7801 -0.7593  1.8180
 2960SOL     OW20338   4.044   1.925   8.835  0.3033 -0.5292  0.0984
 2960SOL    HW120339   3.985   1.875   8.891 -0.6973  0.2565 -0.2546
 2960SOL    HW220340   4.129   1.900   8.871  0.3526  0.6703  0.8163
 2961SOL     OW20341   1.099   1.872  13.315  0.0034 -0.0160 -0.9512
 2961SOL    HW120342   1.140   1.808  13.256  0.7930 -0.5641  0.1957
 2961SOL    HW220343   1.041   1.821  13.372 -1.0703 -0.1654 -2.1652
 2962SOL     OW20344   4.140   0.948  12.522  0.6132  0.2967 -0.7557
 2962SOL    HW120345   4.084   0.923  12.595  1.0224  1.1249 -0.1563
 2962SOL    HW220346   4.226   0.945  12.565  0.9961  2.0149 -1.3883
 2963SOL     OW20347   0.899   0.092   5.556 -0.0456 -0.1124  0.5600
 2963SOL    HW120348   0.900   0.013   5.610 -1.8760  0.1551  0.9897
 2963SOL    HW220349   0.933   0.052   5.476 -1.0451  0.3554 -0.0959
 2964SOL     OW20350   3.939   0.358   6.866 -0.1446  0.5401 -0.2011
 2964SOL    HW120351   3.866   0.369   6.805 -0.2452 -1.3534 -0.4216
 2964SOL    HW220352   3.909   0.292   6.928  0.8421  0.5090  0.2351
 2965SOL     OW20353   3.486   2.770   8.258  0.0198 -0.0352  0.3932
 2965SOL    HW120354   3.512   2.827   8.330  0.3168 -2.0574  1.8897
 2965SOL    HW220355   3.561   2.710   8.254 -0.0136  0.0172 -1.3942
 2966SOL     OW20356   4.080   0.191  13.610 -0.4320 -0.4199 -0.4081
 2966SOL    HW120357   4.142   0.209  13.539  1.2764 -1.7590  0.7366
 2966SOL    HW220358   3.995   0.190  13.565 -0.0585 -1.8419 -1.0733
 2967SOL     OW20359   0.323   4.102  14.787 -0.1516 -0.5978 -0.3018
 2967SOL    HW120360   0.406   4.120  14.743 -1.2007  3.0944 -0.7243
 2967SOL    HW220361   0.256   4.146  14.736  0.3288  1.6898  1.0523
 2968SOL     OW20362   3.902   3.526  17.015 -0.2458 -0.3370  0.1772
 2968SOL    HW120363   3.994   3.499  17.024 -0.2390 -0.7526 -1.1993
 2968SOL    HW220364   3.886   3.556  17.105 -1.0841  1.6616 -0.6537
 2969SOL     OW20365   3.896   3.802   4.820  0.4740  0.3219 -0.0121
 2969SOL    HW120366   3.984   3.823   4.850  1.1509 -1.7597 -0.5882
 2969SOL    HW220367   3.916   3.803   4.726 -0.5856  2.2009 -0.2338
 2970SOL     OW20368   2.793   0.294  13.861 -0.1941  0.1336 -0.1130
 2970SOL    HW120369   2.834   0.380  13.868 -0.4225  0.2716 -0.4441
 2970SOL    HW220370   2.712   0.316  13.908 -0.3940 -0.9156  0.0232
 2971SOL     OW20371   4.481   0.284  14.210 -0.1313 -0.1620  0.4853
 2971SOL    HW120372   4.402   0.313  14.256  0.1166  1.6906 -0.2625
 2971SOL    HW220373   4.544   0.351  14.236  1.6995 -2.2750  1.4654
 2972SOL     OW20374   2.498   2.336   1.794  0.2226  0.6701 -0.1107
 2972SOL    HW120375   2.589   2.365   1.793  0.0669  1.1226 -1.0383
 2972SOL    HW220376   2.462   2.423   1.776 -0.1388  0.9307  1.8919
 2973SOL     OW20377   1.108   3.155   3.622  0.8707 -0.0095 -0.0059
 2973SOL    HW120378   1.191   3.131   3.581  0.3948  0.5450 -1.3348
 2973SOL    HW220379   1.054   3.082   3.591  0.5682  0.2487 -0.0949
 2974SOL     OW20380   2.439   1.963  16.850  0.3833 -0.0699  0.1903
 2974SOL    HW120381   2.501   1.904  16.808 -2.9191 -2.9297 -0.7066
 2974SOL    HW220382   2.502   2.019  16.894  1.3848  0.5193 -1.9644
 2975SOL     OW20383   0.045   4.209   6.460 -0.0783  0.6817 -0.6808
 2975SOL    HW120384   0.106   4.272   6.423  1.8664 -0.7829  0.0334
 2975SOL    HW220385   4.690   4.259   6.444 -1.2586 -0.2888  2.1478
 2976SOL     OW20386   0.242   2.039   4.728  0.7394  0.7239  0.6146
 2976SOL    HW120387   0.259   2.029   4.822  0.4301  2.6200  0.8765
 2976SOL    HW220388   0.149   2.060   4.736  1.2191  2.3238  2.1914
 2977SOL     OW20389   1.139   1.859   4.471 -0.3355  0.0235 -0.0724
 2977SOL    HW120390   1.157   1.775   4.513 -0.9942  0.4493  1.0675
 2977SOL    HW220391   1.053   1.881   4.506 -0.0346  1.4231 -0.2041
 2978SOL     OW20392   3.088   4.242   1.877 -0.5439 -0.5335 -0.7731
 2978SOL    HW120393   3.149   4.210   1.943 -1.2777  0.4820  0.3967
 2978SOL    HW220394   3.152   4.267   1.811 -0.7714  0.7251 -0.5180
 2979SOL     OW20395   1.882   1.561   3.143  0.1682  0.2068 -0.2071
 2979SOL    HW120396   1.884   1.657   3.148 -0.9552  0.2777 -0.9875
 2979SOL    HW220397   1.858   1.528   3.057 -3.3159 -0.1258  0.8792
 2980SOL     OW20398   1.923   0.307   7.343  0.0226  0.2834  0.3080
 2980SOL    HW120399   1.839   0.349   7.360  0.7022 -0.2920  5.0669
 2980SOL    HW220400   1.981   0.364   7.393  0.8102 -1.3950  1.2852
 2981SOL     OW20401   1.896   1.988   4.152 -0.0457 -0.2676  0.1303
 2981SOL    HW120402   1.874   2.063   4.097  1.0389  0.3366  0.5182
 2981SOL    HW220403   1.893   2.043   4.230  1.5683 -0.9615  0.6811
 2982SOL     OW20404   2.568   4.390   6.191  0.2788  0.3701  0.4322
 2982SOL    HW120405   2.606   4.356   6.110 -3.5496 -3.6489  0.3320
 2982SOL    HW220406   2.479   4.403   6.157  0.1012 -0.8855  0.4223
 2983SOL     OW20407   4.149   1.727   4.865  0.2134 -0.1419 -0.2759
 2983SOL    HW120408   4.244   1.719   4.857  0.2524 -0.6996  0.7540
 2983SOL    HW220409   4.135   1.706   4.957  0.6619  0.0716 -0.1602
 2984SOL     OW20410   2.301   1.524  11.265 -0.1847 -0.7874  0.0364
 2984SOL    HW120411   2.294   1.518  11.360  2.4691  2.7218  0.4463
 2984SOL    HW220412   2.342   1.608  11.246 -1.1123 -0.4777 -0.6455
 2985SOL     OW20413   1.126   2.198  17.148 -0.6109  0.6504 -0.6107
 2985SOL    HW120414   1.087   2.252  17.079 -0.8798 -0.4162 -1.3028
 2985SOL    HW220415   1.086   2.231  17.228  0.2512  0.7389 -0.2275
 2986SOL     OW20416   1.939   2.638   7.701  0.0900  0.2168 -0.4807
 2986SOL    HW120417   1.860   2.654   7.753 -0.3219  0.5291 -1.2006
 2986SOL    HW220418   2.004   2.698   7.739  1.6069 -1.7968  0.1177
 2987SOL     OW20419   2.536   3.856  13.968 -0.0991 -0.3637  0.0123
 2987SOL    HW120420   2.592   3.888  14.039  0.5966  0.4193 -0.8756
 2987SOL    HW220421   2.453   3.860  14.014  0.0348  0.5469  0.1930
 2988SOL     OW20422   2.678   2.343   5.422  0.1392  0.6198 -0.2213
 2988SOL    HW120423   2.624   2.266   5.403  0.3228  0.1848  0.9742
 2988SOL    HW220424   2.769   2.318   5.439 -0.2183  0.1514  1.0416
 2989SOL     OW20425   2.961   3.789   2.729  0.0783 -0.2365 -0.3046
 2989SOL    HW120426   3.016   3.866   2.742  0.5861 -0.5727 -0.4239
 2989SOL    HW220427   2.994   3.726   2.794 -0.3822 -0.3132 -0.1472
 2990SOL     OW20428   4.438   1.225   3.367 -0.1533  0.1068 -0.4676
 2990SOL    HW120429   4.437   1.308   3.320 -0.6679  1.8354  2.5796
 2990SOL    HW220430   4.533   1.224   3.380  0.2675 -0.4024 -3.5578
 2991SOL     OW20431   4.112   1.874  11.387 -0.1021 -0.4821  0.6745
 2991SOL    HW120432   4.103   1.817  11.311  1.4665  0.4420 -0.2086
 2991SOL    HW220433   4.112   1.962  11.350 -2.1712 -0.6600  0.2859
 2992SOL     OW20434   0.719   4.062   0.297  0.3314 -0.0976 -0.3198
 2992SOL    HW120435   0.710   3.986   0.240  2.0227 -0.4572 -0.0923
 2992SOL    HW220436   0.722   4.136   0.236 -0.0453  0.1034 -0.1034
 2993SOL     OW20437   4.413   1.391   8.596 -0.2434  0.6416  0.2953
 2993SOL    HW120438   4.442   1.346   8.517  1.9535  1.8957  0.3905
 2993SOL    HW220439   4.331   1.434   8.572  0.1570  1.1235 -0.1935
 2994SOL     OW20440   1.354   3.022  11.466  0.7610 -0.1618 -0.3136
 2994SOL    HW120441   1.275   2.979  11.433  0.2652  0.5968 -0.0836
 2994SOL    HW220442   1.319   3.082  11.532 -1.5626  1.7863 -3.3474
 2995SOL     OW20443   1.913   0.866   5.275  0.4237 -0.7267 -0.6544
 2995SOL    HW120444   1.819   0.853   5.266 -0.0404  1.2478  1.2290
 2995SOL    HW220445   1.920   0.960   5.255  0.9762 -0.1294  2.3420
 2996SOL     OW20446   3.753   0.320  15.777  0.5838 -0.3306 -0.1088
 2996SOL    HW120447   3.669   0.274  15.784  0.3398  0.6498  3.1371
 2996SOL    HW220448   3.724   0.408  15.799  0.1933 -0.4668 -0.0757
 2997SOL     OW20449   0.542   3.213   0.684 -0.6718  0.5661  0.2128
 2997SOL    HW120450   0.448   3.221   0.669 -0.4431 -0.5221 -1.6943
 2997SOL    HW220451   0.548   3.160   0.763  0.1982  2.6798  1.5913
 2998SOL     OW20452   0.164   1.335  12.238 -0.6343 -0.4284 -0.5263
 2998SOL    HW120453   0.158   1.255  12.289 -0.2922  0.1557  0.4265
 2998SOL    HW220454   0.116   1.397  12.294  2.3974  0.5082  1.0458
 2999SOL     OW20455   0.927   0.148   8.267  0.0551  0.5818 -0.3023
 2999SOL    HW120456   0.941   0.236   8.302 -0.7172  0.0731  1.2610
 2999SOL    HW220457   0.912   0.153   8.173 -1.6916  1.8658  0.0618
 3000SOL     OW20458   1.030   1.844  13.751 -0.2741 -0.2546 -0.2760
 3000SOL    HW120459   1.059   1.934  13.735  0.1572 -0.4006 -0.3020
 3000SOL    HW220460   1.113   1.797  13.760 -0.5527 -0.6094  0.4529
 3001SOL     OW20461   4.287   4.288   4.020  0.1493  0.2435 -0.0786
 3001SOL    HW120462   4.337   4.243   3.952  1.6279  0.9142  0.5563
 3001SOL    HW220463   4.244   4.357   3.969  0.7566  0.8594  0.2432
 3002SOL     OW20464   3.938   0.968   6.668  0.1338 -0.1431  0.1938
 3002SOL    HW120465   3.960   0.877   6.650 -0.8448 -0.3852  0.2229
 3002SOL    HW220466   3.996   1.020   6.612 -0.8112  1.2597  0.5026
 3003SOL     OW20467   2.605   3.189   1.656 -0.1325  0.1925 -0.2056
 3003SOL    HW120468   2.541   3.250   1.692  0.1839 -0.2845  1.1567
 3003SOL    HW220469   2.565   3.103   1.665 -0.2619  0.2736  0.0041
 3004SOL     OW20470   4.326   2.766   7.959  0.2126  0.5234 -0.4424
 3004SOL    HW120471   4.387   2.804   7.895  0.2948  0.3958 -0.4414
 3004SOL    HW220472   4.322   2.683   7.912 -1.3737  0.6786 -0.5709
 3005SOL     OW20473   4.065   4.685  10.561 -0.8676 -0.4713 -0.5548
 3005SOL    HW120474   4.076   4.627  10.486  1.5492 -0.4388 -0.2299
 3005SOL    HW220475   4.015   0.030  10.520 -2.8117 -2.0693 -0.9064
 3006SOL     OW20476   3.157   1.415   2.179 -0.7239 -0.3199 -0.1236
 3006SOL    HW120477   3.080   1.382   2.226 -1.2014  0.6344 -0.2421
 3006SOL    HW220478   3.193   1.468   2.250  1.6072 -1.3408 -0.5340
 3007SOL     OW20479   0.446   0.527   7.173 -0.3159 -0.6572  0.0519
 3007SOL    HW120480   0.431   0.596   7.238  1.1725 -1.7105  1.5092
 3007SOL    HW220481   0.424   0.577   7.094  0.7348  0.8574  0.7043
 3008SOL     OW20482   1.902   2.807   8.448 -0.3620  0.0060  0.3137
 3008SOL    HW120483   1.861   2.720   8.449 -1.2780  0.4336 -1.6471
 3008SOL    HW220484   1.859   2.844   8.372  1.0846 -0.8087 -0.9029
 3009SOL     OW20485   4.031   4.227   1.971  0.5250  0.3509 -0.4493
 3009SOL    HW120486   4.106   4.279   1.942  0.5722  1.4666  1.6807
 3009SOL    HW220487   4.020   4.261   2.060  0.2623 -1.6849  0.2932
 3010SOL     OW20488   2.280   0.777  17.354  0.7013  0.2583  0.3656
 3010SOL    HW120489   2.269   0.865  17.317  0.4854  0.4550  0.8958
 3010SOL    HW220490   2.293   0.726  17.275 -0.7718  1.5008 -0.6717
 3011SOL     OW20491   0.553   2.500  17.210  0.3042 -0.3679  0.1896
 3011SOL    HW120492   0.558   2.577  17.154 -0.7106 -0.3118  0.1684
 3011SOL    HW220493   0.471   2.460  17.180  0.6291 -0.8278 -0.0831
 3012SOL     OW20494   4.592   2.049   3.626  0.4245 -0.2125  0.1957
 3012SOL    HW120495   4.661   2.066   3.562 -0.1907  3.5841  0.5395
 3012SOL    HW220496   4.576   1.957   3.605  1.3315 -0.2758 -0.1849
 3013SOL     OW20497   0.622   4.357   3.107  0.0715 -0.0073 -0.6514
 3013SOL    HW120498   0.667   4.382   3.027  0.4259 -0.9331 -0.7414
 3013SOL    HW220499   0.534   4.356   3.070 -0.4622  0.9412  0.5625
 3014SOL     OW20500   0.095   0.586   3.455  0.2223  0.7369  0.5588
 3014SOL    HW120501   0.186   0.563   3.477  0.6951  1.3465 -0.7224
 3014SOL    HW220502   0.057   0.530   3.523  1.7760  0.3204  1.0979
 3015SOL     OW20503   4.268   4.640   4.104  0.1334 -0.2663 -0.5568
 3015SOL    HW120504   4.233   4.577   4.168 -0.9090  1.0517  0.1812
 3015SOL    HW220505   4.360   4.619   4.122  1.0261  3.0913 -1.1020
 3016SOL     OW20506   4.062   4.624  10.829 -0.5282  0.6003 -0.7327
 3016SOL    HW120507   4.018   4.641  10.746  0.9278 -0.4690 -1.7172
 3016SOL    HW220508   4.112   4.706  10.834  0.1091  0.0730  1.4570
 3017SOL     OW20509   3.188   2.378  12.810  0.0976  0.3086 -0.0263
 3017SOL    HW120510   3.103   2.333  12.811  1.9756 -3.1683  0.8062
 3017SOL    HW220511   3.228   2.332  12.737  2.3494 -0.2373  1.5353
 3018SOL     OW20512   1.219   2.240   1.705 -0.7591 -0.2245  0.1359
 3018SOL    HW120513   1.136   2.248   1.751  0.5097  0.6994  2.2391
 3018SOL    HW220514   1.279   2.291   1.759  1.2843 -2.5031  0.0071
 3019SOL     OW20515   3.457   1.852   6.725 -0.3942  0.2847  0.4925
 3019SOL    HW120516   3.529   1.863   6.787  0.1122 -1.3815  0.2115
 3019SOL    HW220517   3.433   1.766   6.762 -0.1434 -0.0186 -0.0507
 3020SOL     OW20518   0.500   4.103  14.571  0.4431 -0.2361 -0.1015
 3020SOL    HW120519   0.560   4.173  14.545 -0.8463  1.5150  1.5479
 3020SOL    HW220520   0.446   4.103  14.492  0.2263  3.8789  0.0080
 3021SOL     OW20521   0.477   3.046   8.281  0.1246 -0.6761 -0.1519
 3021SOL    HW120522   0.539   3.112   8.250 -1.2078  0.3307 -0.6564
 3021SOL    HW220523   0.474   2.987   8.206  2.1998  0.6765 -1.2957
 3022SOL     OW20524   3.623   0.869   8.906  0.4946  0.4283 -0.4363
 3022SOL    HW120525   3.649   0.819   8.828  1.6493  1.6039 -0.8203
 3022SOL    HW220526   3.559   0.932   8.873  0.9989  0.2411 -1.7788
 3023SOL     OW20527   4.002   1.695  15.106 -0.0545 -0.3272  0.0104
 3023SOL    HW120528   4.026   1.612  15.064  2.0368  1.4915 -2.3552
 3023SOL    HW220529   4.006   1.759  15.035  0.5731  0.6021  0.9043
 3024SOL     OW20530   1.044   4.680   5.112 -0.4042  0.0104 -0.3883
 3024SOL    HW120531   1.132   4.656   5.082  0.2375  0.2136  1.3563
 3024SOL    HW220532   1.015   0.013   5.041 -3.4228 -1.3861 -0.2902
 3025SOL     OW20533   3.372   4.686   9.249  0.6969 -0.5411 -0.1242
 3025SOL    HW120534   3.334   0.027   9.190 -0.4140  1.0257  2.3157
 3025SOL    HW220535   3.405   0.010   9.325  1.1757 -0.1434 -0.5902
 3026SOL     OW20536   4.504   0.684  14.374 -0.1503  0.7112 -0.0770
 3026SOL    HW120537   4.494   0.668  14.468  0.2920  0.0049 -0.1468
 3026SOL    HW220538   4.583   0.636  14.350 -0.8284 -0.5994  0.2905
 3027SOL     OW20539   3.360   2.809   8.720  0.4609 -0.0004 -0.4457
 3027SOL    HW120540   3.312   2.728   8.737 -0.8652  0.9547  0.3141
 3027SOL    HW220541   3.354   2.849   8.806 -0.1997  0.2720 -0.6220
 3028SOL     OW20542   4.251   4.533  15.333 -0.4299 -0.1834 -0.2282
 3028SOL    HW120543   4.193   4.458  15.317 -2.4040  1.1645  0.6432
 3028SOL    HW220544   4.258   4.571  15.245 -2.8486  0.7197 -0.0170
 3029SOL     OW20545   2.790   0.156   3.325  0.2679  0.2281 -0.1803
 3029SOL    HW120546   2.761   0.247   3.313 -0.9738 -0.2087 -0.5567
 3029SOL    HW220547   2.703   0.117   3.316 -0.1190  1.1970 -0.6630
 3030SOL     OW20548   2.908   1.127   5.749  0.0493  0.1724 -0.1602
 3030SOL    HW120549   2.911   1.188   5.823  1.2236 -1.4908  1.1607
 3030SOL    HW220550   2.984   1.144   5.693 -0.9847  0.6546 -1.4117
 3031SOL     OW20551   1.191   3.405   4.330 -0.6303  0.0205 -0.4322
 3031SOL    HW120552   1.122   3.414   4.265 -1.1575  2.3433  0.4511
 3031SOL    HW220553   1.257   3.462   4.291  2.4996 -2.9048  0.5932
 3032SOL     OW20554   3.341   4.670   2.575 -0.2080  0.0197  0.2054
 3032SOL    HW120555   3.346   4.578   2.550 -0.4485  0.2874 -0.8396
 3032SOL    HW220556   3.273   4.707   2.518  0.4059 -0.5029 -0.8677
 3033SOL     OW20557   3.845   0.398  11.243 -0.5790  0.2901  0.5136
 3033SOL    HW120558   3.893   0.319  11.218 -0.8719 -0.8606  3.6269
 3033SOL    HW220559   3.825   0.385  11.335 -0.6285 -0.1773  0.4350
 3034SOL     OW20560   0.763   0.297   6.428  0.1540  0.2172 -0.2955
 3034SOL    HW120561   0.715   0.379   6.419  0.3788  0.2410 -1.2706
 3034SOL    HW220562   0.855   0.317   6.411  0.0360  2.5430  1.7625
 3035SOL     OW20563   2.616   3.048   3.963  0.1144 -0.0931 -0.4539
 3035SOL    HW120564   2.676   3.064   4.035 -3.0659  2.5422  1.6204
 3035SOL    HW220565   2.536   3.030   4.012 -0.2747  2.0901 -0.2640
 3036SOL     OW20566   0.940   2.398  10.169 -0.1172  0.1578  0.6435
 3036SOL    HW120567   0.995   2.447  10.229  1.5594 -0.3855 -0.4549
 3036SOL    HW220568   0.856   2.440  10.189  0.2875  1.7087 -0.9617
 3037SOL     OW20569   3.530   2.082   4.122 -0.1660  0.2431  0.1058
 3037SOL    HW120570   3.501   2.171   4.101 -0.1407 -0.4762 -3.0340
 3037SOL    HW220571   3.602   2.081   4.058  1.1406  0.3793  1.5831
 3038SOL     OW20572   0.694   1.155   2.682  0.4835 -0.1112 -0.1354
 3038SOL    HW120573   0.788   1.145   2.695  0.1795  1.4747  3.3194
 3038SOL    HW220574   0.691   1.118   2.594  1.9997 -0.4103 -0.0595
 3039SOL     OW20575   4.201   2.963  15.151  0.5524  0.6895 -0.2951
 3039SOL    HW120576   4.274   2.903  15.168 -0.1339 -0.2759 -0.7398
 3039SOL    HW220577   4.249   3.041  15.123  2.2014 -0.1821  0.0777
 3040SOL     OW20578   1.095   4.680   3.322  0.6910 -0.0537  0.2350
 3040SOL    HW120579   1.168   4.694   3.383  1.6125 -1.0557 -0.6532
 3040SOL    HW220580   1.027   4.632   3.370 -0.7116  1.2371 -0.4454
 3041SOL     OW20581   1.823   1.490   1.074 -0.6327  0.1180 -0.9321
 3041SOL    HW120582   1.845   1.399   1.096 -0.2446  0.4627  0.1233
 3041SOL    HW220583   1.728   1.485   1.086 -0.6978 -1.0869 -1.9107
 3042SOL     OW20584   2.375   1.731  11.017 -0.4434 -0.3206 -0.1140
 3042SOL    HW120585   2.286   1.733  10.982 -0.7160 -1.1945  0.5378
 3042SOL    HW220586   2.404   1.648  10.980 -0.3654  0.3063 -1.4469
 3043SOL     OW20587   0.134   4.346  14.209  0.5999  0.2566  0.0059
 3043SOL    HW120588   0.227   4.366  14.220  0.4609  2.1947 -2.1369
 3043SOL    HW220589   0.122   4.385  14.122  2.0785  1.0221  0.1427
 3044SOL     OW20590   4.232   3.815   6.102 -0.5600 -0.1943 -0.7406
 3044SOL    HW120591   4.274   3.779   6.181 -0.4746  0.1266 -0.6383
 3044SOL    HW220592   4.221   3.731   6.057  0.2565 -0.6488 -0.1101
 3045SOL     OW20593   1.763   2.964   3.498 -0.1157 -0.3616 -0.2626
 3045SOL    HW120594   1.844   2.976   3.548  1.1244  2.3023 -2.8734
 3045SOL    HW220595   1.797   2.925   3.417  0.1428  0.5291 -0.5857
 3046SOL     OW20596   2.179   0.621   4.334  0.1168 -0.7623 -0.3258
 3046SOL    HW120597   2.130   0.670   4.400  3.5561 -1.0104  2.3718
 3046SOL    HW220598   2.216   0.686   4.275  0.3518 -0.6886 -0.0967
 3047SOL     OW20599   4.328   4.505   3.069  0.4727 -0.1099 -0.2248
 3047SOL    HW120600   4.281   4.560   3.006  0.4261 -1.4102 -1.3329
 3047SOL    HW220601   4.299   4.540   3.153  1.0425 -2.1656  0.8426
 3048SOL     OW20602   3.275   2.545   9.289  0.3377  0.2219 -0.4887
 3048SOL    HW120603   3.352   2.564   9.341 -0.9561  1.0942  1.1186
 3048SOL    HW220604   3.215   2.521   9.360 -0.5781  1.4090 -0.8438
 3049SOL     OW20605   0.234   4.721  16.683  0.9264  0.6106 -0.5521
 3049SOL    HW120606   0.222   4.654  16.616 -2.0811  0.8573 -0.2492
 3049SOL    HW220607   0.326   0.016  16.666  0.7702  2.4532  0.7530
 3050SOL     OW20608   2.546   2.457   7.932 -0.0513  0.4825 -0.4673
 3050SOL    HW120609   2.617   2.488   7.989 -0.4418  1.2880 -0.4169
 3050SOL    HW220610   2.568   2.365   7.914  0.1998  0.5751 -0.6379
 3051SOL     OW20611   3.132   2.815   6.158  0.0452 -0.3046  0.1958
 3051SOL    HW120612   3.107   2.724   6.144 -0.7699  0.0533 -0.6699
 3051SOL    HW220613   3.178   2.801   6.241  0.1836  0.7449  0.2979
 3052SOL     OW20614   3.913   2.938   9.248 -0.0649 -1.2661 -0.2857
 3052SOL    HW120615   3.900   2.979   9.162  2.6870  2.3793  1.0531
 3052SOL    HW220616   3.950   2.852   9.226 -0.4262 -0.9675 -2.0588
 3053SOL     OW20617   1.966   3.905  17.041  0.6105 -0.3660  0.1061
 3053SOL    HW120618   1.912   3.971  16.997 -1.7869 -1.4498  1.4053
 3053SOL    HW220619   1.934   3.910  17.131  1.9316 -1.1847  0.6115
 3054SOL     OW20620   2.838   3.879   3.766 -0.1816 -0.7415  0.4059
 3054SOL    HW120621   2.769   3.825   3.728 -0.3930 -1.7879  2.2995
 3054SOL    HW220622   2.893   3.801   3.772 -0.3418 -0.9216 -0.4539
 3055SOL     OW20623   1.641   1.456   9.131  0.1008 -0.1542  0.2056
 3055SOL    HW120624   1.678   1.397   9.065 -1.7730 -0.3289 -0.7055
 3055SOL    HW220625   1.577   1.402   9.178 -0.8823 -0.5647 -1.5993
 3056SOL     OW20626   4.160   0.319   5.296  0.3349 -0.4481  0.1872
 3056SOL    HW120627   4.133   0.308   5.387 -1.2552  1.3532 -0.0422
 3056SOL    HW220628   4.223   0.389   5.311 -0.9992  1.2580 -2.1262
 3057SOL     OW20629   2.946   3.376  16.796  0.1714 -0.5589 -0.2016
 3057SOL    HW120630   2.863   3.335  16.771 -0.4495 -0.2621  1.4315
 3057SOL    HW220631   2.923   3.466  16.773 -0.5658 -0.0289  2.6565
 3058SOL     OW20632   1.295   2.201   1.020 -0.2843  0.5850 -0.0875
 3058SOL    HW120633   1.270   2.181   0.930  3.7494 -1.0518 -0.8339
 3058SOL    HW220634   1.208   2.219   1.056  0.0852  0.6825  0.7490
 3059SOL     OW20635   3.207   2.556   3.783  0.1358 -0.3317 -0.3259
 3059SOL    HW120636   3.153   2.612   3.838  0.6076  0.9695 -1.1963
 3059SOL    HW220637   3.183   2.466   3.805 -0.3876 -0.4546 -1.3984
 3060SOL     OW20638   4.288   4.658   2.805  0.4017  0.1483  0.1687
 3060SOL    HW120639   4.198   4.639   2.780  0.5608 -0.6458  0.1845
 3060SOL    HW220640   4.341   4.614   2.738 -0.2220 -1.6108  0.8211
 3061SOL     OW20641   4.013   3.921   3.655  0.0198 -0.0736  0.2397
 3061SOL    HW120642   4.017   3.937   3.749 -0.7619  3.8147 -0.3541
 3061SOL    HW220643   4.041   3.830   3.648 -1.8519 -0.7159  1.3198
 3062SOL     OW20644   4.306   1.654   7.642 -0.0743  0.3210  0.4535
 3062SOL    HW120645   4.399   1.631   7.632 -0.0773 -0.1711  1.5159
 3062SOL    HW220646   4.293   1.718   7.573 -2.1359  0.9546  1.4487
 3063SOL     OW20647   4.610   0.836   5.748 -0.8066 -0.4081 -0.1478
 3063SOL    HW120648   4.534   0.778   5.749 -1.3324  0.2921  0.4862
 3063SOL    HW220649   4.573   0.920   5.774  0.4726  0.0839  0.1095
 3064SOL     OW20650   3.950   1.690   6.788  0.2323  0.2522 -0.0176
 3064SOL    HW120651   3.969   1.742   6.866  0.1604  3.2827 -2.0284
 3064SOL    HW220652   3.910   1.752   6.726 -1.3322  0.3993  1.1111
 3065SOL     OW20653   2.581   4.154   5.114 -0.1973  0.2689 -0.3317
 3065SOL    HW120654   2.557   4.229   5.059  2.6164  2.1004  0.9340
 3065SOL    HW220655   2.535   4.085   5.066  0.1809 -0.9066  0.9838
 3066SOL     OW20656   4.545   2.275   3.015 -0.2327 -0.7412  0.3048
 3066SOL    HW120657   4.478   2.302   2.952 -0.0933  0.4907  0.6810
 3066SOL    HW220658   4.513   2.194   3.054 -0.8007 -0.4890  0.3658
 3067SOL     OW20659   2.563   4.212   6.532 -0.1034 -0.0513 -0.1574
 3067SOL    HW120660   2.639   4.230   6.477  0.2201 -1.2510 -0.1024
 3067SOL    HW220661   2.551   4.118   6.521  1.5450 -0.5761  2.5646
 3068SOL     OW20662   3.296   3.096   7.882 -0.2644 -0.2102 -0.0901
 3068SOL    HW120663   3.381   3.054   7.874 -0.1746 -0.2531  1.0514
 3068SOL    HW220664   3.320   3.175   7.832 -0.6288  0.6900  1.1464
 3069SOL     OW20665   2.270   4.689   2.540  0.0607 -0.1779 -0.6826
 3069SOL    HW120666   2.276   0.039   2.479 -0.8458 -0.2182 -0.8255
 3069SOL    HW220667   2.255   0.019   2.617  0.9151 -1.4927  0.4003
 3070SOL     OW20668   1.037   0.375   6.406 -0.6497  0.4566  0.4694
 3070SOL    HW120669   1.065   0.453   6.453 -0.3360 -0.6544  2.1468
 3070SOL    HW220670   1.053   0.308   6.473 -1.1356 -0.5432 -0.4225
 3071SOL     OW20671   3.561   2.989   7.702 -0.1263 -0.1617  0.7365
 3071SOL    HW120672   3.607   3.038   7.770  0.2922 -0.0035  0.3414
 3071SOL    HW220673   3.610   3.016   7.625 -0.1714 -1.2695  0.3240
 3072SOL     OW20674   3.074   3.576   5.760 -0.1531 -0.8483  0.0422
 3072SOL    HW120675   2.983   3.571   5.790  0.1980 -0.4061  1.2073
 3072SOL    HW220676   3.110   3.520   5.828 -1.0017 -1.5135 -0.0514
 3073SOL     OW20677   4.193   2.832  13.379  0.1065  0.1655 -0.0051
 3073SOL    HW120678   4.160   2.865  13.463 -0.2372  0.9372 -0.4465
 3073SOL    HW220679   4.277   2.878  13.380  0.5352 -0.6679  3.1105
 3074SOL     OW20680   4.722   3.613  17.619 -0.3470  0.5168 -0.2001
 3074SOL    HW120681   4.630   3.632  17.599  0.0557  0.5992 -1.9483
 3074SOL    HW220682   0.012   3.573  17.534  1.3011 -0.3185  0.4927
 3075SOL     OW20683   2.121   1.988   9.545 -0.5572 -0.1694  0.4259
 3075SOL    HW120684   2.028   1.989   9.568 -0.3806  2.6592  0.9253
 3075SOL    HW220685   2.154   2.059   9.601 -0.3564  0.2323 -0.2120
 3076SOL     OW20686   3.698   2.356   6.189 -0.1406 -0.0337  0.6904
 3076SOL    HW120687   3.603   2.354   6.180  0.0151  0.2679 -1.1227
 3076SOL    HW220688   3.707   2.449   6.212  2.0805  0.3095 -1.5909
 3077SOL     OW20689   3.077   0.292   4.852  0.5430 -0.6910 -0.0403
 3077SOL    HW120690   3.146   0.227   4.854  1.7975  0.6262 -0.5459
 3077SOL    HW220691   3.010   0.245   4.901  1.6052  0.6346  2.7012
 3078SOL     OW20692   2.994   3.189   0.402 -0.0789  0.6763  0.5786
 3078SOL    HW120693   2.992   3.197   0.306 -0.3641  1.7341  0.6710
 3078SOL    HW220694   3.071   3.136   0.423 -1.2537 -0.8811  0.9062
 3079SOL     OW20695   1.950   2.391   5.289  0.0347 -0.0138 -0.4951
 3079SOL    HW120696   1.881   2.371   5.353 -1.3230  3.5173 -0.8818
 3079SOL    HW220697   1.964   2.484   5.303  0.3530  0.1544 -1.9702
 3080SOL     OW20698   3.837   1.975  17.467  0.0006  0.7007  0.1260
 3080SOL    HW120699   3.828   1.905  17.532  3.0191  0.2437  0.0857
 3080SOL    HW220700   3.749   1.988  17.434  0.0520  0.6846 -0.0161
 3081SOL     OW20701   4.611   2.911   4.841  0.1554  0.2406  0.0075
 3081SOL    HW120702   4.660   2.953   4.911 -1.4441  0.3595  1.0418
 3081SOL    HW220703   4.574   2.847   4.902  2.2786 -0.3970  0.6025
 3082SOL     OW20704   1.528   4.618   5.312 -0.8776 -0.3778 -0.1308
 3082SOL    HW120705   1.509   4.695   5.258 -0.9195 -1.1023 -1.1479
 3082SOL    HW220706   1.566   4.557   5.249  0.4268  2.0888 -1.7637
 3083SOL     OW20707   0.930   3.717   7.864 -0.2576 -0.1280 -0.3692
 3083SOL    HW120708   1.020   3.747   7.857  0.1737 -1.3801 -0.1750
 3083SOL    HW220709   0.883   3.778   7.807 -0.0083  1.1292  0.7774
 3084SOL     OW20710   4.073   2.162   4.879  0.2073 -0.3130 -0.0474
 3084SOL    HW120711   4.023   2.081   4.869 -1.4364  1.0556 -3.1356
 3084SOL    HW220712   4.142   2.142   4.816  0.7226  0.8259  0.1415
 3085SOL     OW20713   1.999   4.463   6.116 -0.3195 -1.0440 -0.4562
 3085SOL    HW120714   2.026   4.377   6.085  2.2489 -0.0101 -1.1101
 3085SOL    HW220715   2.078   4.516   6.105 -0.1122 -1.6222 -1.7649
 3086SOL     OW20716   2.641   2.395   4.078 -0.2949 -0.4912 -0.0310
 3086SOL    HW120717   2.565   2.449   4.104  1.3837  2.3302 -1.0074
 3086SOL    HW220718   2.646   2.348   4.161 -0.3018  1.0288  0.8504
 3087SOL     OW20719   1.265   0.726   7.121  0.4707  0.1667  0.4669
 3087SOL    HW120720   1.173   0.700   7.112 -0.2746  3.1061 -0.6945
 3087SOL    HW220721   1.275   0.787   7.048  0.8560 -1.7410 -1.0713
 3088SOL     OW20722   1.217   1.545   4.338  0.4055  0.3142 -0.2351
 3088SOL    HW120723   1.308   1.521   4.324  0.4486 -0.1782  0.8551
 3088SOL    HW220724   1.219   1.571   4.430 -0.4599 -1.9935  0.4411
 3089SOL     OW20725   2.468   3.201  16.598 -0.6738 -0.3220 -0.1207
 3089SOL    HW120726   2.401   3.141  16.631 -2.7870  0.2114 -3.4876
 3089SOL    HW220727   2.420   3.283  16.613 -1.1334 -0.9604  1.9487
 3090SOL     OW20728   2.380   4.644   0.429  0.5558  0.2480  0.2524
 3090SOL    HW120729   2.289   4.616   0.433  0.3059  1.0403  0.2411
 3090SOL    HW220730   2.370   0.008   0.393  0.4510 -0.9776 -2.6800
 3091SOL     OW20731   2.307   1.880  17.426 -0.0872 -0.0931  0.4795
 3091SOL    HW120732   2.350   1.923  17.500 -0.2240  0.6216  0.1419
 3091SOL    HW220733   2.387   1.846  17.385 -0.5837 -1.4617  0.6401
 3092SOL     OW20734   0.131   1.225   7.504  0.4645  0.7294 -0.2353
 3092SOL    HW120735   0.136   1.320   7.492  1.1458  0.8017  0.6256
 3092SOL    HW220736   0.050   1.218   7.453 -0.7226  3.1755  1.3256
 3093SOL     OW20737   3.125   0.686   6.474 -0.3270 -0.2315 -0.4855
 3093SOL    HW120738   3.094   0.775   6.454 -2.5970 -1.4366 -2.3679
 3093SOL    HW220739   3.181   0.661   6.401 -1.2195  0.0069 -1.2511
 3094SOL     OW20740   1.705   4.237   7.596  0.1168  0.1295 -0.2556
 3094SOL    HW120741   1.724   4.234   7.503  0.3539 -2.3379 -0.1384
 3094SOL    HW220742   1.628   4.181   7.605 -0.8379  1.7430  1.5676
 3095SOL     OW20743   2.235   2.392   2.270 -0.2895 -0.2575  0.0037
 3095SOL    HW120744   2.310   2.413   2.214 -1.9484  3.5506 -0.7882
 3095SOL    HW220745   2.266   2.408   2.359 -1.6720  0.2856  0.3789
 3096SOL     OW20746   3.369   3.533   6.148 -0.6929  0.3085 -0.0279
 3096SOL    HW120747   3.351   3.558   6.238 -0.9773 -3.4997  0.9533
 3096SOL    HW220748   3.433   3.596   6.113  1.4186 -2.5819 -1.3997
 3097SOL     OW20749   3.559   0.786  14.277  0.0108 -0.2179 -0.0925
 3097SOL    HW120750   3.586   0.822  14.192  0.8864  1.3149  0.8233
 3097SOL    HW220751   3.609   0.704  14.274  0.7513  0.2873 -2.0569
 3098SOL     OW20752   4.055   0.760   8.201  0.6375  0.6493  0.2279
 3098SOL    HW120753   4.139   0.736   8.239  1.4057  1.3560 -1.0001
 3098SOL    HW220754   4.060   0.856   8.198 -1.6828  0.7167 -1.4403
 3099SOL     OW20755   3.800   0.744   1.081 -0.1713 -0.0914 -0.2565
 3099SOL    HW120756   3.874   0.769   1.025 -1.2460  0.1615 -1.5814
 3099SOL    HW220757   3.732   0.755   1.014  0.6136  4.4250 -0.3074
 3100SOL     OW20758   2.150   0.084  10.451 -0.1354 -0.5276  0.4099
 3100SOL    HW120759   2.102   0.116  10.527 -1.5596  1.8089 -1.4757
 3100SOL    HW220760   2.080   0.082  10.386  0.4981 -0.6814 -0.2670
 3101SOL     OW20761   3.702   0.398  10.074 -0.5890 -0.0391 -0.0280
 3101SOL    HW120762   3.628   0.458  10.080  1.1323  2.0964 -0.0213
 3101SOL    HW220763   3.658   0.316  10.094  1.3402 -0.6277  1.7871
 3102SOL     OW20764   1.068   4.282  11.574 -0.2199 -0.6700  0.0347
 3102SOL    HW120765   1.018   4.360  11.598 -0.6913 -0.9375 -0.0756
 3102SOL    HW220766   1.126   4.322  11.508  0.7264  0.9361  1.8179
 3103SOL     OW20767   3.083   2.837   2.496 -0.0385  0.5121  0.3169
 3103SOL    HW120768   3.081   2.752   2.451 -0.5897  1.5224 -1.5812
 3103SOL    HW220769   2.992   2.862   2.482 -0.5173 -0.8568  1.0371
 3104SOL     OW20770   1.399   1.650   2.954  0.2359  0.1152 -0.0272
 3104SOL    HW120771   1.402   1.719   2.888 -1.2549 -0.9960 -1.2364
 3104SOL    HW220772   1.332   1.682   3.015 -0.1189  0.2644 -0.5041
 3105SOL     OW20773   0.792   0.810   0.703 -0.0250 -0.4428 -0.6431
 3105SOL    HW120774   0.763   0.900   0.685 -4.3566 -1.2031  2.5615
 3105SOL    HW220775   0.843   0.799   0.623 -0.9707  1.0622 -1.4674
 3106SOL     OW20776   2.753   4.652  17.672 -0.1832 -0.0352 -0.7407
 3106SOL    HW120777   2.842   4.651  17.636 -0.2303  0.6097 -0.8654
 3106SOL    HW220778   2.731   0.019  17.659  1.0883  0.6388  1.8851
 3107SOL     OW20779   0.908   1.406   7.995  0.4440  0.7782  0.6668
 3107SOL    HW120780   0.868   1.422   8.081 -0.7992  1.5521 -0.0565
 3107SOL    HW220781   1.000   1.384   8.013  0.2856 -2.0480 -2.1049
 3108SOL     OW20782   4.018   4.388   7.438  0.3025 -0.3655  0.1423
 3108SOL    HW120783   3.994   4.401   7.346  0.8969  0.9063  0.1587
 3108SOL    HW220784   4.098   4.441   7.441  0.5409 -0.7886  1.1367
 3109SOL     OW20785   4.284   1.935  12.479  0.3876 -0.6264 -0.5312
 3109SOL    HW120786   4.300   1.876  12.553  2.9440 -1.4135 -1.7413
 3109SOL    HW220787   4.325   1.887  12.408  1.9096 -0.2502  0.0871
 3110SOL     OW20788   0.494   4.332   3.610  0.6119 -0.4240 -0.3336
 3110SOL    HW120789   0.426   4.399   3.600 -0.3728 -1.4011 -0.1325
 3110SOL    HW220790   0.567   4.392   3.630  0.8875 -0.8215 -0.1565
 3111SOL     OW20791   4.158   2.843   4.942 -0.2575 -0.1227 -0.0001
 3111SOL    HW120792   4.142   2.931   4.977 -2.1383 -0.2389 -0.5339
 3111SOL    HW220793   4.177   2.856   4.849  2.0184 -0.6492  0.4021
 3112SOL     OW20794   4.076   3.350   4.349  0.5285  0.6262  0.0360
 3112SOL    HW120795   4.040   3.293   4.417 -0.1272  0.7950 -0.1690
 3112SOL    HW220796   4.035   3.311   4.271  2.5303 -0.8625 -0.2799
 3113SOL     OW20797   3.521   1.250   3.441  0.1971  0.3595 -0.3186
 3113SOL    HW120798   3.435   1.215   3.421  0.1401  0.1267  0.3427
 3113SOL    HW220799   3.545   1.190   3.512 -2.6692  0.1351  0.4265
 3114SOL     OW20800   0.623   1.557  11.675 -0.3850  0.3369 -0.1262
 3114SOL    HW120801   0.596   1.492  11.740  0.1698  1.6925  1.4913
 3114SOL    HW220802   0.684   1.613  11.724 -1.1180  0.1989  0.9445
 3115SOL     OW20803   4.299   3.179  15.757  0.3074 -0.5232  0.2102
 3115SOL    HW120804   4.290   3.175  15.662  4.1858 -0.2910 -0.1877
 3115SOL    HW220805   4.327   3.270  15.768  0.0854 -0.3088 -1.0906
 3116SOL     OW20806   2.706   1.854  17.147  0.9526  0.4734 -0.2450
 3116SOL    HW120807   2.623   1.820  17.180  0.5617  3.2205  1.6117
 3116SOL    HW220808   2.726   1.814  17.062 -0.7219 -1.9733  0.5429
 3117SOL     OW20809   4.542   3.181   4.115  0.6746 -0.3245  0.0506
 3117SOL    HW120810   4.450   3.168   4.091  0.3989 -1.5465  1.7234
 3117SOL    HW220811   4.595   3.139   4.047  2.3931  0.7926  0.6878
 3118SOL     OW20812   1.159   1.121   8.301 -0.1103  0.4158 -0.0883
 3118SOL    HW120813   1.131   1.090   8.215  1.5940 -1.3973  0.0084
 3118SOL    HW220814   1.089   1.081   8.351  1.4011 -0.6826  1.1670
 3119SOL     OW20815   2.601   3.005  16.408  0.3419  0.5096 -0.1973
 3119SOL    HW120816   2.606   2.957  16.490  1.9033  0.2896 -0.4100
 3119SOL    HW220817   2.527   3.059  16.434 -0.4169  0.3409 -1.9948
 3120SOL     OW20818   0.506   2.115  10.552  0.4844 -0.3451  0.5301
 3120SOL    HW120819   0.474   2.113  10.462  0.7345 -1.2888  0.4589
 3120SOL    HW220820   0.543   2.026  10.555  1.9378  0.2994  1.2910
 3121SOL     OW20821   2.262   3.122   1.950  0.5037  0.5694 -0.1616
 3121SOL    HW120822   2.259   3.205   1.904 -0.6329 -0.6004 -2.2082
 3121SOL    HW220823   2.212   3.135   2.030 -2.4470 -0.1854 -1.8932
 3122SOL     OW20824   3.165   4.439   6.641 -0.2720  0.3529 -0.3698
 3122SOL    HW120825   3.093   4.420   6.700  0.0352  3.4895  1.0204
 3122SOL    HW220826   3.140   4.523   6.602 -1.9956 -0.3826 -0.8637
 3123SOL     OW20827   4.677   4.553   4.428  0.3157 -0.1903 -0.6608
 3123SOL    HW120828   4.582   4.545   4.427  0.3043 -0.3104  2.4367
 3123SOL    HW220829   4.708   4.489   4.364  1.8638 -0.4745  0.3751
 3124SOL     OW20830   1.320   0.183  16.495 -0.1284  0.3551 -0.1814
 3124SOL    HW120831   1.368   0.220  16.569  2.3799 -0.1133 -1.6035
 3124SOL    HW220832   1.307   0.095  16.531 -1.0705  0.0190 -1.3548
 3125SOL     OW20833   1.373   2.519   3.445  0.5352 -0.8943  0.2166
 3125SOL    HW120834   1.464   2.543   3.460  0.6071 -0.0723 -1.5211
 3125SOL    HW220835   1.351   2.542   3.355  1.2395 -0.6521  0.1052
 3126SOL     OW20836   1.346   3.488  10.464 -0.1338 -0.6550 -0.2056
 3126SOL    HW120837   1.379   3.575  10.489  0.6454 -0.2556 -2.6870
 3126SOL    HW220838   1.384   3.439  10.537  0.9087  1.0750  0.4063
 3127SOL     OW20839   3.107   3.811  11.094 -0.8170  0.2856 -0.2575
 3127SOL    HW120840   3.058   3.893  11.098 -2.4932 -0.8700  2.7793
 3127SOL    HW220841   3.170   3.838  11.161  1.9749  0.4675 -2.9748
 3128SOL     OW20842   0.132   4.191   9.865  0.1673 -0.3037 -0.3281
 3128SOL    HW120843   0.131   4.213   9.959 -4.1189 -2.0479  0.0163
 3128SOL    HW220844   0.099   4.278   9.841 -1.3483 -1.2635 -1.6306
 3129SOL     OW20845   4.098   0.207   2.659  0.3257 -0.1505  0.5543
 3129SOL    HW120846   4.057   0.130   2.620 -0.1270  1.3058 -1.8492
 3129SOL    HW220847   4.191   0.189   2.649  0.5947  0.9741  1.0456
 3130SOL     OW20848   0.978   1.336   4.708 -0.0338 -0.0901  0.1702
 3130SOL    HW120849   1.033   1.349   4.785  0.2108  0.0632 -0.0295
 3130SOL    HW220850   0.928   1.418   4.720  2.0736  0.7813  2.9235
 3131SOL     OW20851   3.018   3.902   1.123 -0.0338 -0.4554  0.1386
 3131SOL    HW120852   3.082   3.888   1.192 -0.2239  0.5240  0.5012
 3131SOL    HW220853   2.937   3.858   1.150 -0.7943  0.9720  0.1943
 3132SOL     OW20854   0.124   0.516   1.849  0.1867  0.2380 -0.3852
 3132SOL    HW120855   0.071   0.595   1.839  1.5539  1.2392  0.1832
 3132SOL    HW220856   0.087   0.472   1.926  0.3360  0.5143 -0.1549
 3133SOL     OW20857   1.498   2.704   8.484 -0.0922 -0.5003  0.3117
 3133SOL    HW120858   1.549   2.729   8.561 -0.2058 -0.9585  0.5358
 3133SOL    HW220859   1.537   2.619   8.461 -0.0480  0.4001 -2.9790
 3134SOL     OW20860   1.006   1.522   7.118 -0.3715  0.6484 -0.0231
 3134SOL    HW120861   1.085   1.487   7.076 -0.5553  1.3547 -0.9421
 3134SOL    HW220862   0.946   1.489   7.051 -1.0787  1.5840  0.1550
 3135SOL     OW20863   0.264   0.918   5.590 -0.8601  0.3851  0.6251
 3135SOL    HW120864   0.356   0.897   5.605 -0.9752 -1.3494 -1.1738
 3135SOL    HW220865   0.244   0.978   5.662  2.7768 -0.4125  2.2548
 3136SOL     OW20866   1.193   3.310  13.255  0.1336 -0.3928 -0.2122
 3136SOL    HW120867   1.107   3.311  13.297  0.3476  0.6383  0.2098
 3136SOL    HW220868   1.232   3.380  13.307  3.1667 -3.3621  1.5535
 3137SOL     OW20869   2.658   2.615  16.113 -0.4423  0.1989 -0.0454
 3137SOL    HW120870   2.675   2.694  16.164  1.3686  0.6082 -1.2747
 3137SOL    HW220871   2.657   2.547  16.180 -0.6331 -1.2032 -1.4620
 3138SOL     OW20872   3.405   1.565   5.605 -0.2237 -0.2337 -0.4234
 3138SOL    HW120873   3.392   1.542   5.513 -0.8451  1.1820 -0.6989
 3138SOL    HW220874   3.397   1.484   5.656 -0.1380 -0.4328 -0.7282
 3139SOL     OW20875   3.372   4.319   9.584 -0.7800 -0.2048  0.2811
 3139SOL    HW120876   3.344   4.392   9.639 -1.5043  0.1858 -0.5984
 3139SOL    HW220877   3.391   4.249   9.647 -1.1028  0.0766  0.6932
 3140SOL     OW20878   0.296   4.104  15.291 -0.2105 -0.0534  0.0370
 3140SOL    HW120879   0.350   4.162  15.346 -2.3774 -1.1159  3.2960
 3140SOL    HW220880   0.315   4.013  15.314  1.5018  0.1051 -0.7401
 3141SOL     OW20881   2.828   0.747  12.438 -0.0273  0.0542  0.6273
 3141SOL    HW120882   2.900   0.781  12.385  0.8117 -0.5784  1.3627
 3141SOL    HW220883   2.782   0.709  12.363  0.0990 -1.1200  1.1546
 3142SOL     OW20884   3.243   3.535   2.337 -0.2567  0.4037  0.0764
 3142SOL    HW120885   3.276   3.561   2.423  0.7231 -0.4033 -0.0605
 3142SOL    HW220886   3.155   3.515   2.369  0.0226  0.0463  0.6169
 3143SOL     OW20887   2.701   0.110   9.283 -0.3149  0.2213 -0.2802
 3143SOL    HW120888   2.621   0.127   9.234 -1.6580 -0.4647  1.6637
 3143SOL    HW220889   2.722   0.202   9.299  0.0334 -0.0733  1.0035
 3144SOL     OW20890   0.506   2.621  14.293  0.4506 -0.3770  0.1298
 3144SOL    HW120891   0.563   2.549  14.320  1.0396 -0.4779 -1.4201
 3144SOL    HW220892   0.424   2.575  14.273  0.1417 -0.3359  1.2456
 3145SOL     OW20893   4.716   2.482   2.309 -0.2744 -0.0659  0.0325
 3145SOL    HW120894   4.686   2.485   2.400 -1.2092 -0.2292 -0.2738
 3145SOL    HW220895   4.637   2.516   2.268  0.7048  0.5730 -1.3512
 3146SOL     OW20896   2.670   1.745   6.077  0.0990  0.2486 -0.0417
 3146SOL    HW120897   2.603   1.790   6.025 -1.2797 -2.1644 -0.3221
 3146SOL    HW220898   2.659   1.658   6.039  0.0979  0.3920 -0.3716
 3147SOL     OW20899   1.880   2.043   5.744  0.3260  0.3349  0.5476
 3147SOL    HW120900   1.807   2.094   5.709 -0.1084 -1.3361 -0.9870
 3147SOL    HW220901   1.884   2.066   5.837  0.1417  1.2424  0.3288
 3148SOL     OW20902   2.037   2.811   3.355  0.5606  0.1228  0.3533
 3148SOL    HW120903   2.102   2.741   3.349  1.8459  1.0739  3.0614
 3148SOL    HW220904   2.086   2.889   3.382 -0.3403  1.5044 -2.0272
 3149SOL     OW20905   0.167   4.006   5.027 -0.1830  0.1336 -0.3155
 3149SOL    HW120906   0.238   4.069   5.010  0.0732  0.0385  0.3941
 3149SOL    HW220907   0.136   4.042   5.110  0.2942 -1.5534  0.6017
 3150SOL     OW20908   2.039   0.226   7.657  0.1348  0.4100  0.4127
 3150SOL    HW120909   2.007   0.150   7.608  0.8563  1.4888 -1.7649
 3150SOL    HW220910   2.022   0.199   7.747  2.3248  0.4945  0.8514
 3151SOL     OW20911   4.271   2.316   8.718 -0.0439 -0.3793  0.1443
 3151SOL    HW120912   4.310   2.229   8.724 -1.0132 -0.7066  1.7154
 3151SOL    HW220913   4.180   2.301   8.744 -0.3885  1.2940 -0.0618
 3152SOL     OW20914   0.164   0.613   0.346  0.3229  0.0464  0.2644
 3152SOL    HW120915   0.091   0.617   0.408  1.2937  2.0474  1.2959
 3152SOL    HW220916   0.127   0.650   0.266 -3.2969  0.0544  1.9476
 3153SOL     OW20917   2.337   0.252   4.645 -0.5253  0.5901 -0.1990
 3153SOL    HW120918   2.348   0.335   4.598 -1.3488  0.2301 -1.0216
 3153SOL    HW220919   2.306   0.293   4.726 -0.3424  0.1474  0.0941
 3154SOL     OW20920   1.829   3.583  16.944  0.0822 -0.2864 -0.1549
 3154SOL    HW120921   1.804   3.643  17.014 -1.6978 -1.3980  0.1758
 3154SOL    HW220922   1.749   3.557  16.897  0.1570 -0.0070 -0.4324
 3155SOL     OW20923   3.972   1.914   4.871  0.0716  0.0226 -0.2212
 3155SOL    HW120924   4.036   1.851   4.841  1.4377  2.0798 -1.6283
 3155SOL    HW220925   3.895   1.898   4.816 -0.1050  0.8068 -0.2017
 3156SOL     OW20926   0.421   2.063   7.899  0.4267 -0.4228  0.6346
 3156SOL    HW120927   0.387   2.045   7.812  0.2909  2.6012  0.0626
 3156SOL    HW220928   0.485   2.133   7.885 -1.5614  1.7208  2.1696
 3157SOL     OW20929   3.779   2.774   5.989  0.1167  0.0269  0.1695
 3157SOL    HW120930   3.822   2.852   5.952 -0.3476  0.6412  0.9358
 3157SOL    HW220931   3.830   2.712   5.936  0.8807  1.0368 -0.2889
 3158SOL     OW20932   0.640   0.706   2.022  0.0550  0.5228  0.0314
 3158SOL    HW120933   0.558   0.692   1.976  0.1450 -1.1309  0.3714
 3158SOL    HW220934   0.701   0.718   1.949  1.0571 -0.5320  0.6826
 3159SOL     OW20935   2.773   3.988   6.254 -0.8111 -0.0449 -0.3207
 3159SOL    HW120936   2.861   3.973   6.219 -1.3773 -4.3584  0.0605
 3159SOL    HW220937   2.788   4.065   6.308  1.7325  1.0505 -2.5541
 3160SOL     OW20938   3.843   4.165   8.076  0.4017  0.4067 -0.8575
 3160SOL    HW120939   3.900   4.179   8.000 -1.3795  2.5355 -1.8038
 3160SOL    HW220940   3.871   4.239   8.130  1.9630 -0.5613 -0.3135
 3161SOL     OW20941   0.472   0.292   1.039  0.3316 -0.3483 -0.4555
 3161SOL    HW120942   0.484   0.383   1.066  0.2286 -0.0569 -1.3789
 3161SOL    HW220943   0.556   0.274   0.997  0.5138  1.3673 -0.8176
 3162SOL     OW20944   1.521   1.305   2.112  0.3863  0.5584  0.2406
 3162SOL    HW120945   1.483   1.343   2.192  0.7932 -0.9540  1.1606
 3162SOL    HW220946   1.440   1.278   2.069  1.6577 -3.8665  0.6641
 3163SOL     OW20947   0.887   2.430   5.777  0.2683  0.0027  0.3050
 3163SOL    HW120948   0.807   2.453   5.825  0.5846  0.9642  0.3543
 3163SOL    HW220949   0.850   2.374   5.708  2.2749  2.3676 -2.6370
 3164SOL     OW20950   0.985   1.718   1.815  0.0325  0.0891  0.2175
 3164SOL    HW120951   1.057   1.771   1.850  0.5586 -2.1131  2.4378
 3164SOL    HW220952   1.030   1.687   1.735 -0.9408  1.0041 -0.6777
 3165SOL     OW20953   0.410   2.194   8.315  0.1352  0.5329 -0.1586
 3165SOL    HW120954   0.383   2.147   8.394  0.3862  1.0640  0.2414
 3165SOL    HW220955   0.465   2.128   8.273 -0.5061 -1.6250  2.3872
 3166SOL     OW20956   3.940   2.194   5.650  0.3076  0.6166  0.3006
 3166SOL    HW120957   3.887   2.132   5.599  0.6362 -2.5093  3.7347
 3166SOL    HW220958   3.933   2.270   5.593  0.0970 -0.4300 -1.0847
 3167SOL     OW20959   3.169   2.764   9.190 -0.1471 -0.2911 -0.0330
 3167SOL    HW120960   3.203   2.678   9.212  0.9468  0.2387  0.3716
 3167SOL    HW220961   3.095   2.764   9.251 -1.6203 -0.6209 -1.8008
 3168SOL     OW20962   0.548   2.551   1.191  0.0697  0.1648 -0.2200
 3168SOL    HW120963   0.613   2.549   1.121  0.7165 -0.4761  0.3959
 3168SOL    HW220964   0.562   2.463   1.227  3.4998  0.2349 -1.3528
 3169SOL     OW20965   1.922   2.284   4.995  0.1621  0.1628  0.1384
 3169SOL    HW120966   1.841   2.329   5.020 -0.2416 -0.7917  0.5652
 3169SOL    HW220967   1.968   2.281   5.079 -3.1373 -0.3983  1.9476
 3170SOL     OW20968   3.072   3.421  12.768 -0.1358 -0.6281 -0.0198
 3170SOL    HW120969   3.048   3.417  12.676  1.9862  0.9728 -0.6595
 3170SOL    HW220970   3.014   3.484  12.811 -1.9491 -1.1175 -1.7871
 3171SOL     OW20971   1.617   1.691   5.512 -0.0069  0.1786 -0.5797
 3171SOL    HW120972   1.599   1.704   5.418 -1.0890  1.0857 -0.2454
 3171SOL    HW220973   1.711   1.687   5.493  0.4184  1.4040  1.3648
 3172SOL     OW20974   3.915   2.193  11.913 -0.3659  0.3623 -0.2909
 3172SOL    HW120975   3.828   2.157  11.931 -1.2968  3.0860  0.6739
 3172SOL    HW220976   3.910   2.269  11.971 -0.4273  0.8559 -0.9393
 3173SOL     OW20977   2.298   3.944   7.232  0.0445 -0.1413  0.1325
 3173SOL    HW120978   2.352   3.870   7.207  0.0908  0.3839 -1.3541
 3173SOL    HW220979   2.279   3.926   7.324 -0.9571 -0.2163 -0.0852
 3174SOL     OW20980   4.510   4.242  17.385  0.6432  0.3687  0.1566
 3174SOL    HW120981   4.601   4.271  17.393  1.5574 -2.5021  0.3531
 3174SOL    HW220982   4.477   4.329  17.365 -2.2518 -0.7780 -0.0579
 3175SOL     OW20983   1.968   3.209   8.604 -0.2258  0.2600 -0.3442
 3175SOL    HW120984   2.028   3.183   8.674 -0.4602  1.0428  0.1393
 3175SOL    HW220985   1.901   3.143   8.618 -2.7319  2.6486 -1.2272
 3176SOL     OW20986   1.872   0.137  17.330  0.2390  0.4340  1.0797
 3176SOL    HW120987   1.888   0.105  17.418 -3.3260 -1.1851  1.1560
 3176SOL    HW220988   1.883   0.232  17.338 -1.1859  0.6768  0.2786
 3177SOL     OW20989   3.327   1.964   3.831 -0.4752 -0.0937  0.1841
 3177SOL    HW120990   3.282   1.954   3.915 -2.6317 -2.3746 -1.2447
 3177SOL    HW220991   3.262   2.007   3.776 -1.8980 -2.6819 -0.1567
 3178SOL     OW20992   2.366   3.263  16.292  0.0204 -0.7869 -0.2115
 3178SOL    HW120993   2.273   3.283  16.303  0.5280 -0.6447  4.0668
 3178SOL    HW220994   2.393   3.306  16.373 -0.1153 -0.1883 -0.4871
 3179SOL     OW20995   1.653   2.945   4.390  0.9635 -0.6701  0.0703
 3179SOL    HW120996   1.729   2.994   4.359  0.5839 -1.2377 -1.7095
 3179SOL    HW220997   1.591   2.974   4.323  1.0127 -1.7865 -0.4603
 3180SOL     OW20998   3.063   3.968   6.557  0.0960  0.0184  0.0004
 3180SOL    HW120999   3.150   3.960   6.518  0.9337 -0.7050  1.9752
 3180SOL    HW221000   3.046   3.877   6.582  0.6650  0.4906  2.1459
 3181SOL     OW21001   0.162   1.744   2.041 -0.1551 -0.2553  0.1524
 3181SOL    HW121002   0.257   1.750   2.051 -0.2277 -1.1506  1.2799
 3181SOL    HW221003   0.163   1.654   2.009  0.1982 -0.0361 -0.4516
 3182SOL     OW21004   2.233   1.291   1.888 -0.0419 -0.0857 -0.8278
 3182SOL    HW121005   2.199   1.367   1.935  3.0510  1.3239 -0.9022
 3182SOL    HW221006   2.261   1.333   1.806 -2.4213  0.0956 -1.5649
 3183SOL     OW21007   1.566   2.400   6.847  0.0104  0.6362  0.6174
 3183SOL    HW121008   1.559   2.440   6.760  2.8015 -1.3680 -0.5239
 3183SOL    HW221009   1.585   2.481   6.894  0.9876  0.4407  0.5417
 3184SOL     OW21010   2.770   4.663   1.854 -0.2244 -0.3305  1.1226
 3184SOL    HW121011   2.719   0.019   1.865  0.9659  0.7294 -1.0822
 3184SOL    HW221012   2.755   4.644   1.761  0.1371  1.1981  0.7570
 3185SOL     OW21013   1.742   1.085   1.912 -0.3162  0.2281  0.1918
 3185SOL    HW121014   1.760   1.036   1.832  1.8157  2.5624 -0.7661
 3185SOL    HW221015   1.747   1.170   1.869  2.2219  0.3717  0.7898
 3186SOL     OW21016   2.788   3.925   7.190 -0.1910 -0.5204  0.2307
 3186SOL    HW121017   2.806   3.837   7.223 -1.0836 -0.9371 -0.4018
 3186SOL    HW221018   2.857   3.928   7.123 -1.8410 -1.7505 -1.5324
 3187SOL     OW21019   0.749   1.354  11.529 -0.5653  0.1870  0.4561
 3187SOL    HW121020   0.703   1.283  11.573  1.6993 -1.0691  0.7894
 3187SOL    HW221021   0.699   1.428  11.565 -2.5351 -0.0358 -1.8135
 3188SOL     OW21022   3.523   0.068  16.777 -0.6119  0.2575 -0.0431
 3188SOL    HW121023   3.550   0.004  16.711  0.3335 -0.6761  1.2674
 3188SOL    HW221024   3.515   0.150  16.727  1.4732  0.5748  0.1637
 3189SOL     OW21025   4.404   0.293   8.481  0.0425 -0.3376 -0.7320
 3189SOL    HW121026   4.345   0.354   8.526  1.2015 -0.6450  1.1811
 3189SOL    HW221027   4.455   0.267   8.557  1.4310  0.5092 -1.3628
 3190SOL     OW21028   1.151   4.133   2.710 -0.1495 -0.3906 -0.5270
 3190SOL    HW121029   1.118   4.223   2.707  2.4436  0.5811 -0.1623
 3190SOL    HW221030   1.095   4.098   2.641  0.0518 -0.4463 -0.6602
 3191SOL     OW21031   3.806   0.952  13.492 -0.5761  0.0073 -0.1324
 3191SOL    HW121032   3.735   1.011  13.516 -0.0797  0.6067 -0.1318
 3191SOL    HW221033   3.859   0.978  13.567  1.0159  0.3483 -1.3732
 3192SOL     OW21034   2.407   3.536   5.718 -0.2600 -0.0173 -0.4006
 3192SOL    HW121035   2.426   3.448   5.752 -1.6633 -0.5187 -0.9006
 3192SOL    HW221036   2.390   3.578   5.802  2.0263 -1.3172  0.7327
 3193SOL     OW21037   1.206   3.620   3.145 -0.0057 -0.3645 -0.0075
 3193SOL    HW121038   1.286   3.571   3.167  0.4417  0.1457 -0.4908
 3193SOL    HW221039   1.159   3.627   3.228  0.1304  0.0800  0.0310
 3194SOL     OW21040   2.139   0.484   7.959  0.0521  0.4759  0.2883
 3194SOL    HW121041   2.052   0.445   7.951 -0.7216  2.4562 -0.9936
 3194SOL    HW221042   2.191   0.411   7.927  0.0483  1.3835 -1.8262
 3195SOL     OW21043   4.671   2.427   6.127  0.5679  0.6557  0.1641
 3195SOL    HW121044   0.029   2.386   6.102 -0.6762 -0.1255 -2.5964
 3195SOL    HW221045   4.633   2.346   6.159 -0.8868  0.5474 -1.8728
 3196SOL     OW21046   3.072   0.732   6.970  0.5860 -0.4912 -0.2505
 3196SOL    HW121047   3.019   0.749   6.892  0.4395 -2.9994 -0.6926
 3196SOL    HW221048   3.110   0.650   6.938 -2.2651 -1.0344 -2.2645
 3197SOL     OW21049   1.397   1.366  10.574 -0.2157 -0.0407 -0.1536
 3197SOL    HW121050   1.489   1.378  10.550 -0.5259  3.3678  0.3195
 3197SOL    HW221051   1.382   1.277  10.543  2.1668 -0.5154  0.0547
 3198SOL     OW21052   1.836   1.033   8.111 -0.6122  0.3261  0.0270
 3198SOL    HW121053   1.753   0.987   8.096 -0.0770 -1.5803  3.0497
 3198SOL    HW221054   1.870   0.972   8.176 -0.3737 -3.2148 -3.3563
 3199SOL     OW21055   4.296   4.020   5.944 -0.2781 -0.7148  0.2417
 3199SOL    HW121056   4.205   4.048   5.948 -0.2339 -0.3247 -1.3707
 3199SOL    HW221057   4.288   3.928   5.971 -0.6533 -0.1642  1.9509
 3200SOL     OW21058   1.612   3.442   7.351 -0.1507  0.8000  0.2140
 3200SOL    HW121059   1.540   3.438   7.414 -0.0860 -3.4889 -0.0226
 3200SOL    HW221060   1.584   3.508   7.287  0.5074  0.1679 -0.7203
 3201SOL     OW21061   3.561   2.383  12.850  0.4475 -0.4029  0.6030
 3201SOL    HW121062   3.487   2.394  12.910  1.5643  2.3723  1.4741
 3201SOL    HW221063   3.529   2.301  12.812 -1.5190  0.5032  0.2954
 3202SOL     OW21064   2.623   2.760   1.949 -0.4917  0.3778 -0.1742
 3202SOL    HW121065   2.666   2.843   1.932  1.6022 -0.8645 -0.9924
 3202SOL    HW221066   2.543   2.796   1.988 -1.2570 -1.2085 -0.2454
 3203SOL     OW21067   1.022   3.793   7.552  0.0798 -0.8046 -0.5195
 3203SOL    HW121068   1.014   3.808   7.458  1.4882  1.0051 -0.3543
 3203SOL    HW221069   0.930   3.798   7.576  1.1623  0.4702  3.5671
 3204SOL     OW21070   2.693   3.402   7.397 -0.6641 -0.2351 -0.2656
 3204SOL    HW121071   2.731   3.395   7.485 -1.9973  0.8979  0.3930
 3204SOL    HW221072   2.725   3.321   7.356 -0.8807 -1.1450  1.3330
 3205SOL     OW21073   0.523   4.554   4.939 -0.2485  0.5213  0.2762
 3205SOL    HW121074   0.540   4.494   5.011 -0.0525 -0.7474 -0.8275
 3205SOL    HW221075   0.591   4.622   4.943  1.2243 -0.8708 -0.8731
 3206SOL     OW21076   1.109   0.774   6.798  0.1708 -0.0376 -0.0040
 3206SOL    HW121077   1.164   0.852   6.785 -0.9306  0.9621  1.3402
 3206SOL    HW221078   1.099   0.770   6.894  2.9292  1.2153  0.3467
 3207SOL     OW21079   2.974   1.421   3.583  0.1646 -0.6700 -0.0375
 3207SOL    HW121080   2.924   1.387   3.509  0.3127  0.8494 -0.8487
 3207SOL    HW221081   2.925   1.501   3.602 -1.3434 -1.4004 -0.8834
 3208SOL     OW21082   1.755   4.515   3.097  0.6907  0.1740 -0.3804
 3208SOL    HW121083   1.785   4.438   3.049 -1.6387 -0.9804  0.0276
 3208SOL    HW221084   1.707   4.477   3.170  1.3229  0.0299 -0.0416
 3209SOL     OW21085   2.889   1.140   1.079  1.1216  0.3267  0.3255
 3209SOL    HW121086   2.856   1.215   1.030 -0.9919  0.4306  1.9015
 3209SOL    HW221087   2.892   1.173   1.169  1.9775  2.3772 -0.4550
 3210SOL     OW21088   0.481   2.385  13.233 -0.2024 -0.2942  0.0285
 3210SOL    HW121089   0.427   2.346  13.164  0.4212 -1.0846 -0.0148
 3210SOL    HW221090   0.558   2.330  13.218  0.5153  0.9509 -0.8199
 3211SOL     OW21091   1.252   4.441   2.477  0.6448  0.0108 -0.5211
 3211SOL    HW121092   1.327   4.385   2.459  0.0133 -1.6116  1.9274
 3211SOL    HW221093   1.304   4.510   2.519  1.0571 -1.1512  0.9070
 3212SOL     OW21094   2.788   2.621   9.996  0.4958  0.1050 -0.4810
 3212SOL    HW121095   2.823   2.536   9.969 -1.7679 -0.7172 -0.8620
 3212SOL    HW221096   2.850   2.654  10.060  0.0176 -1.2591  0.6691
 3213SOL     OW21097   3.000   0.172   5.696  0.0986 -0.6948  0.5056
 3213SOL    HW121098   3.007   0.147   5.788 -1.2164 -0.7711  0.5907
 3213SOL    HW221099   3.072   0.131   5.649  1.5524  0.8880  1.3550
 3214SOL     OW21100   4.518   1.130   2.463  0.1239  0.5341  0.5847
 3214SOL    HW121101   4.557   1.049   2.496  0.1059  0.0818 -0.5314
 3214SOL    HW221102   4.483   1.152   2.550  0.9696  1.0222  0.8034
 3215SOL     OW21103   4.290   3.418   1.303 -0.3330  0.2132 -0.2038
 3215SOL    HW121104   4.345   3.370   1.241  2.0638 -0.2950  2.3419
 3215SOL    HW221105   4.305   3.512   1.295  0.3285  0.2094  1.0264
 3216SOL     OW21106   1.113   0.648   6.203  0.2598  0.5799  0.4434
 3216SOL    HW121107   1.187   0.702   6.174 -0.0430  1.2124  0.8464
 3216SOL    HW221108   1.149   0.611   6.284 -0.5229 -0.9273  0.0926
 3217SOL     OW21109   1.513   0.015   4.855 -0.3661  0.0656  0.3176
 3217SOL    HW121110   1.582   0.080   4.844 -1.2189  0.6554 -1.6492
 3217SOL    HW221111   1.550   4.675   4.795  1.2290  0.1878  1.1891
 3218SOL     OW21112   0.106   2.330   7.770 -0.3087  0.7866 -0.1126
 3218SOL    HW121113   0.017   2.295   7.762 -0.2114  0.2854  0.9588
 3218SOL    HW221114   0.133   2.313   7.861 -0.4909 -0.4707 -0.2879
 3219SOL     OW21115   1.813   1.617   6.873 -0.5614  0.1518 -0.8086
 3219SOL    HW121116   1.780   1.599   6.961  2.3273  2.3888  0.7221
 3219SOL    HW221117   1.868   1.694   6.887 -0.3743  0.0437 -0.9635
 3220SOL     OW21118   1.553   1.019   5.985  0.2367 -0.0277  0.7939
 3220SOL    HW121119   1.539   1.052   6.073  1.9063 -0.1403  1.0998
 3220SOL    HW221120   1.591   0.936   6.014  1.2615 -0.5282 -1.9419
 3221SOL     OW21121   1.994   3.402   2.374  0.3985  0.6397 -0.2628
 3221SOL    HW121122   2.028   3.487   2.348 -1.1303  0.8445 -1.5267
 3221SOL    HW221123   1.951   3.416   2.459 -0.6056 -4.4668  0.1171
 3222SOL     OW21124   1.650   2.872   0.358 -0.3204  0.5331  0.1705
 3222SOL    HW121125   1.723   2.810   0.364 -0.3027  0.3911 -1.4842
 3222SOL    HW221126   1.590   2.816   0.407  0.6769 -0.8497 -0.1763
 3223SOL     OW21127   2.714   4.292   4.247 -0.2937 -0.5231  0.0107
 3223SOL    HW121128   2.792   4.236   4.245  0.2993  0.3556 -1.1577
 3223SOL    HW221129   2.713   4.309   4.341  2.1798  0.7032 -0.2079
 3224SOL     OW21130   3.452   4.594  16.984  0.1276  0.0977 -0.0757
 3224SOL    HW121131   3.477   4.670  16.932  0.6655 -0.2036 -0.2540
 3224SOL    HW221132   3.413   4.628  17.065  1.1574  0.6382  0.1926
 3225SOL     OW21133   4.583   4.478   8.615 -0.5207  0.1339  0.0333
 3225SOL    HW121134   4.634   4.547   8.570 -1.7573  1.0988  0.1225
 3225SOL    HW221135   4.599   4.408   8.551 -0.7719  1.6860 -1.7356
 3226SOL     OW21136   0.246   1.687   8.485  0.0536 -0.2354  0.1969
 3226SOL    HW121137   0.205   1.603   8.465  1.4547 -0.6179 -1.0402
 3226SOL    HW221138   0.194   1.754   8.441  0.6729 -0.3235 -0.6701
 3227SOL     OW21139   3.718   4.450   0.709 -0.0315 -0.1093  0.5683
 3227SOL    HW121140   3.663   4.398   0.650 -0.5137  3.4264 -2.0702
 3227SOL    HW221141   3.649   4.511   0.735 -0.0129  1.3634 -2.9061
 3228SOL     OW21142   0.352   4.199   8.039  0.1477 -0.2023 -0.5420
 3228SOL    HW121143   0.378   4.215   8.130  0.3046  0.3085 -0.6751
 3228SOL    HW221144   0.258   4.200   8.058  0.5015  1.5891  1.2024
 3229SOL     OW21145   2.498   0.235   8.228  0.4589 -0.1572 -0.5316
 3229SOL    HW121146   2.492   0.186   8.310 -0.1658  0.4423 -0.2120
 3229SOL    HW221147   2.421   0.292   8.242  0.0608 -0.4270 -1.5938
 3230SOL     OW21148   3.950   1.098   2.406 -0.2195  0.0762  0.4378
 3230SOL    HW121149   4.032   1.052   2.425 -1.0029 -1.0196  1.2195
 3230SOL    HW221150   3.984   1.164   2.346 -0.2444  0.4406  0.8251
 3231SOL     OW21151   1.861   2.721   3.876 -0.0467 -0.5686 -0.0324
 3231SOL    HW121152   1.814   2.661   3.934  0.9459 -0.2770  1.0981
 3231SOL    HW221153   1.906   2.677   3.804 -0.5889  0.4570 -0.9950
 3232SOL     OW21154   2.678   4.187  11.856  0.3305 -0.3094 -0.6829
 3232SOL    HW121155   2.664   4.103  11.812 -0.4932  0.4279 -1.8284
 3232SOL    HW221156   2.604   4.180  11.916 -0.8104 -0.1956 -2.0604
 3233SOL     OW21157   4.286   0.296   6.189  0.3641  0.0493  0.0507
 3233SOL    HW121158   4.249   0.246   6.262 -2.0172  1.8427  0.0949
 3233SOL    HW221159   4.316   0.374   6.236 -0.3779 -0.5172  1.4693
 3234SOL     OW21160   3.419   3.140   5.306 -0.5165 -0.4699  0.1787
 3234SOL    HW121161   3.377   3.180   5.382 -1.8797  0.3207 -0.9841
 3234SOL    HW221162   3.442   3.059   5.351  0.4075  0.4745  1.4018
 3235SOL     OW21163   1.968   4.382   8.936  0.4726  0.2806 -0.1374
 3235SOL    HW121164   2.051   4.365   8.979  0.1478 -1.6335 -0.2351
 3235SOL    HW221165   1.918   4.444   8.988 -0.4165  1.3851 -2.3128
 3236SOL     OW21166   3.644   3.710   3.356 -0.3060  0.2593 -0.0616
 3236SOL    HW121167   3.596   3.660   3.290 -0.6356 -0.9768  1.1189
 3236SOL    HW221168   3.591   3.790   3.360 -1.2308 -0.3328 -0.5248
 3237SOL     OW21169   2.162   1.204   5.326 -0.3592  0.2625 -0.0330
 3237SOL    HW121170   2.159   1.128   5.384 -1.3950  0.4578  0.1652
 3237SOL    HW221171   2.066   1.204   5.319 -0.5576  1.5681  2.4783
 3238SOL     OW21172   4.042   1.967   2.764  0.5534 -0.1231  0.5924
 3238SOL    HW121173   4.060   1.879   2.731  1.4753  0.8343 -1.4922
 3238SOL    HW221174   3.970   1.999   2.711 -2.0604  0.4512  4.4577
 3239SOL     OW21175   3.565   3.831   6.424  0.2202 -0.4817  0.8978
 3239SOL    HW121176   3.634   3.839   6.489 -0.4283 -0.6971  1.6157
 3239SOL    HW221177   3.602   3.842   6.337  0.5376 -1.4770  0.9030
 3240SOL     OW21178   1.444   4.708   1.382  0.3185 -0.1308  0.2748
 3240SOL    HW121179   1.406   0.059   1.426  0.5238 -0.8301  1.6505
 3240SOL    HW221180   1.504   4.668   1.446  1.0511 -0.4962 -0.6335
 3241SOL     OW21181   2.573   0.727   6.527  0.1364  0.0382 -0.2558
 3241SOL    HW121182   2.497   0.689   6.484  0.3279  0.4940 -0.9907
 3241SOL    HW221183   2.647   0.672   6.498 -0.2860 -0.3002 -0.6825
 3242SOL     OW21184   4.581   3.226  14.136 -0.3978  0.1482  0.1527
 3242SOL    HW121185   4.519   3.210  14.065  1.0852  2.7089 -1.7189
 3242SOL    HW221186   4.664   3.240  14.092 -0.4064  2.2136  0.7987
 3243SOL     OW21187   4.459   2.543   8.699  0.1708  0.4953  0.2379
 3243SOL    HW121188   4.394   2.475   8.718 -0.5686  0.6002 -1.9325
 3243SOL    HW221189   4.534   2.492   8.732 -0.1985 -0.1166  0.1305
 3244SOL     OW21190   4.000   0.395   6.431  0.2607 -0.2628 -0.2575
 3244SOL    HW121191   3.934   0.415   6.497  1.1077  0.2843  0.4217
 3244SOL    HW221192   4.036   0.482   6.414  0.6657 -0.3540  0.1489
 3245SOL     OW21193   2.448   1.899   3.717  0.4376  0.0641 -0.9762
 3245SOL    HW121194   2.392   1.953   3.772  0.9116 -1.6766  1.2367
 3245SOL    HW221195   2.399   1.817   3.721 -0.7440  0.7709 -0.9400
 3246SOL     OW21196   0.940   3.851   9.913  0.0608 -0.0257  0.5275
 3246SOL    HW121197   0.990   3.920   9.957 -0.2708 -1.0605  2.5386
 3246SOL    HW221198   0.952   3.885   9.824  1.7790 -1.0111  0.3935
 3247SOL     OW21199   1.195   0.330   2.579 -0.0809 -0.1377  0.3670
 3247SOL    HW121200   1.218   0.327   2.672  4.2607 -1.0209 -0.6991
 3247SOL    HW221201   1.166   0.418   2.557  1.3462  1.0601  3.3165
 3248SOL     OW21202   0.616   0.874   2.946 -0.7852 -0.1285  0.7998
 3248SOL    HW121203   0.660   0.944   2.994 -1.2379 -0.5062  1.7626
 3248SOL    HW221204   0.650   0.794   2.986  3.0940  1.1845  0.0825
 3249SOL     OW21205   2.935   3.883   0.714  0.3218 -0.1615  0.7820
 3249SOL    HW121206   2.897   3.861   0.629  4.0996 -0.6748 -0.7841
 3249SOL    HW221207   2.956   3.791   0.730  1.7886 -0.0191 -0.3731
 3250SOL     OW21208   0.229   4.715   5.078  0.4028 -0.1007 -0.2507
 3250SOL    HW121209   0.306   4.691   5.131  0.1540 -0.1575  0.0869
 3250SOL    HW221210   0.258   0.077   5.052  2.7066 -1.0783 -0.9778
 3251SOL     OW21211   1.126   1.860   6.388  0.2356  0.1670 -0.5058
 3251SOL    HW121212   1.216   1.895   6.386 -0.0927  1.1466  1.1724
 3251SOL    HW221213   1.068   1.932   6.413 -0.2740  0.3249 -2.1747
 3252SOL     OW21214   2.046   4.709  10.077  0.3650 -0.0018 -0.5809
 3252SOL    HW121215   1.992   0.033  10.140  0.4272 -0.5681 -0.0933
 3252SOL    HW221216   2.080   4.636  10.128  0.4564 -0.7079 -1.6603
 3253SOL     OW21217   2.614   1.222   4.302  0.1618 -0.5389  0.5091
 3253SOL    HW121218   2.599   1.309   4.265  0.7823 -0.0625  1.3813
 3253SOL    HW221219   2.686   1.192   4.247 -2.0744 -0.6987 -2.3366
 3254SOL     OW21220   0.632   2.413  16.520 -0.1030 -0.9840  0.2074
 3254SOL    HW121221   0.576   2.442  16.448  0.6210 -1.5877 -0.6012
 3254SOL    HW221222   0.717   2.413  16.474 -0.8477  0.1299 -1.1996
 3255SOL     OW21223   1.349   2.901  17.286 -0.6683  0.5934 -0.0078
 3255SOL    HW121224   1.320   2.964  17.220  0.9349 -0.3019 -1.5549
 3255SOL    HW221225   1.418   2.953  17.327  0.1235  0.4773 -1.2016
 3256SOL     OW21226   1.368   0.318  11.046 -0.0476  0.1921  0.2230
 3256SOL    HW121227   1.300   0.318  10.978  1.0560 -0.3658 -0.8900
 3256SOL    HW221228   1.439   0.328  10.983 -1.9263  2.2972 -1.5821
 3257SOL     OW21229   4.551   3.791   5.172 -0.0724  0.3353  0.1704
 3257SOL    HW121230   4.588   3.767   5.258 -0.9780 -0.6541  0.2851
 3257SOL    HW221231   4.485   3.722   5.167  1.9054 -1.7128  2.0353
 3258SOL     OW21232   1.805   1.357  14.691  0.5474  0.1532 -0.3894
 3258SOL    HW121233   1.823   1.283  14.748 -0.7826 -0.6183 -0.9710
 3258SOL    HW221234   1.749   1.320  14.623 -0.1960 -0.5579  0.6039
 3259SOL     OW21235   3.862   4.000   7.124  0.2343  0.6688  0.9168
 3259SOL    HW121236   3.953   3.968   7.124  0.2236  0.6410 -0.7908
 3259SOL    HW221237   3.823   3.971   7.206  0.7236  1.2280  1.3522
 3260SOL     OW21238   3.295   2.291   3.479 -0.2137 -0.6156  0.3852
 3260SOL    HW121239   3.352   2.228   3.433 -0.9457 -1.4339  0.6055
 3260SOL    HW221240   3.265   2.241   3.555  1.5090 -0.6621  1.0417
 3261SOL     OW21241   2.086   3.272   5.453  0.0893 -0.1437 -0.2483
 3261SOL    HW121242   2.038   3.223   5.520 -0.2848 -0.2660 -0.6017
 3261SOL    HW221243   2.148   3.206   5.422  1.4690 -0.3096  2.9332
 3262SOL     OW21244   3.638   3.565   5.070 -0.1129  0.2090  0.0113
 3262SOL    HW121245   3.600   3.511   5.139  0.5023 -0.9607 -0.5594
 3262SOL    HW221246   3.720   3.587   5.113 -0.6747 -1.4397  1.9039
 3263SOL     OW21247   0.196   1.102   9.096 -0.5920 -0.1708 -0.0211
 3263SOL    HW121248   0.231   1.170   9.154 -0.7793  1.0942 -1.3806
 3263SOL    HW221249   0.102   1.108   9.113 -0.6249  0.3120 -0.3596
 3264SOL     OW21250   1.756   3.128   2.699  0.0131 -0.3475 -0.2447
 3264SOL    HW121251   1.787   3.192   2.635  0.2192  0.7531  0.9589
 3264SOL    HW221252   1.672   3.171   2.716 -0.0260 -0.1330 -0.9664
 3265SOL     OW21253   4.702   3.216  15.677  0.1010 -0.4303  0.0890
 3265SOL    HW121254   0.071   3.237  15.671 -0.3563  0.7316 -3.2232
 3265SOL    HW221255   4.668   3.225  15.588  0.3504  0.6605  0.1072
 3266SOL     OW21256   3.877   3.685  16.805 -0.3783  0.6946 -0.7038
 3266SOL    HW121257   3.847   3.631  16.877  3.1349  2.3013  1.9726
 3266SOL    HW221258   3.959   3.728  16.833  0.3390  0.0996 -1.8793
 3267SOL     OW21259   2.780   2.061   6.327 -0.4894  0.9508  0.9042
 3267SOL    HW121260   2.819   1.984   6.285  0.0278  0.7551  1.7556
 3267SOL    HW221261   2.821   2.129   6.273 -1.5849  1.2856  0.4967
 3268SOL     OW21262   2.424   2.104   5.555 -0.2335 -0.2768  0.1255
 3268SOL    HW121263   2.350   2.063   5.510 -1.0230  1.6971 -0.3535
 3268SOL    HW221264   2.379   2.164   5.615  0.6657 -1.8348  2.3528
 3269SOL     OW21265   0.328   2.431   8.198 -0.1958  0.3191  0.2925
 3269SOL    HW121266   0.377   2.360   8.240 -0.5928  0.9067  1.7321
 3269SOL    HW221267   0.264   2.391   8.140  0.2743  0.2310 -0.1700
 3270SOL     OW21268   0.315   4.133   8.973 -0.6172  0.4978 -0.5189
 3270SOL    HW121269   0.245   4.159   9.033 -1.9229  1.6877 -2.5565
 3270SOL    HW221270   0.384   4.141   9.039  0.2180 -2.8729 -0.9912
 3271SOL     OW21271   1.711   3.679  15.958 -0.2420  0.2952  0.2675
 3271SOL    HW121272   1.721   3.596  15.911 -1.9228  0.9128 -1.1981
 3271SOL    HW221273   1.779   3.677  16.024  0.0609 -0.8763 -0.0852
 3272SOL     OW21274   2.050   3.299   9.268 -0.9389 -0.6268 -0.2946
 3272SOL    HW121275   2.131   3.250   9.255 -1.4616 -1.3443 -0.8629
 3272SOL    HW221276   1.987   3.246   9.219 -2.7040  1.0316  0.1809
 3273SOL     OW21277   1.675   0.257  11.685 -0.0367 -0.8376  0.4645
 3273SOL    HW121278   1.670   0.178  11.739  0.3890 -2.2409 -1.5294
 3273SOL    HW221279   1.585   0.288  11.694 -0.7451 -1.5582 -4.4075
 3274SOL     OW21280   0.837   0.583   3.231 -0.4311 -0.2441 -0.7167
 3274SOL    HW121281   0.843   0.488   3.235  0.0609 -0.2280 -1.0956
 3274SOL    HW221282   0.868   0.604   3.319  2.4922 -0.7795 -1.6099
 3275SOL     OW21283   0.880   2.078   9.912  0.1149  0.5799  0.4831
 3275SOL    HW121284   0.800   2.130   9.906  1.0061  2.0516  1.3426
 3275SOL    HW221285   0.949   2.143   9.931  0.5856  0.6104 -1.2576
 3276SOL     OW21286   3.113   1.799   8.842 -0.0476 -0.3052  0.0634
 3276SOL    HW121287   3.130   1.733   8.775 -0.2936 -0.7820  0.4696
 3276SOL    HW221288   3.025   1.772   8.868 -0.4840  0.1457 -0.9793
 3277SOL     OW21289   4.073   0.912   5.604 -0.4032  0.0104 -0.5128
 3277SOL    HW121290   4.060   0.998   5.564 -1.4795 -0.0946 -0.3944
 3277SOL    HW221291   4.065   0.858   5.526 -1.3227  0.2525 -0.5844
 3278SOL     OW21292   1.103   2.119  10.993  0.0300 -0.2105 -0.6194
 3278SOL    HW121293   1.083   2.028  11.015 -0.4920 -0.2428 -1.2360
 3278SOL    HW221294   1.197   2.115  10.977 -0.0582  0.9759 -1.4252
 3279SOL     OW21295   1.412   2.455   7.384  0.0223  0.1662  0.2069
 3279SOL    HW121296   1.492   2.444   7.333 -0.7002 -2.7241 -0.3289
 3279SOL    HW221297   1.429   2.385   7.447 -0.3475  0.0110  0.1330
 3280SOL     OW21298   4.329   1.578   8.271 -0.2899  0.4388 -0.0715
 3280SOL    HW121299   4.353   1.652   8.327 -1.0167  0.3235  0.3954
 3280SOL    HW221300   4.288   1.523   8.338  0.0094  0.4513  0.1189
 3281SOL     OW21301   0.786   4.578   5.949  0.4702  0.0267 -0.7542
 3281SOL    HW121302   0.828   4.647   6.001 -0.4145  0.4988 -0.6674
 3281SOL    HW221303   0.695   4.602   5.965  0.6071  0.3022 -0.3770
 3282SOL     OW21304   3.793   0.566   4.180  0.1911  0.0489  0.5616
 3282SOL    HW121305   3.838   0.487   4.209 -1.7047 -0.9931  0.6499
 3282SOL    HW221306   3.719   0.565   4.241  0.6807  2.3391  1.2135
 3283SOL     OW21307   3.814   2.553   2.787 -0.1651  0.4362  0.3891
 3283SOL    HW121308   3.886   2.564   2.848  0.3018  1.0521 -0.2762
 3283SOL    HW221309   3.803   2.642   2.752 -1.4102 -0.7561 -2.3221
 3284SOL     OW21310   3.931   0.053   7.867  0.8218  0.4110 -0.1156
 3284SOL    HW121311   3.895   0.006   7.942  2.2610 -0.1690  0.2170
 3284SOL    HW221312   3.912   4.720   7.794  2.7800  0.6357 -0.8164
 3285SOL     OW21313   4.717   1.793   3.506 -0.0183 -0.2796  0.1025
 3285SOL    HW121314   4.628   1.762   3.519  0.1296 -1.3870 -1.5411
 3285SOL    HW221315   4.708   1.818   3.414  0.6654  0.5121  0.2505
 3286SOL     OW21316   2.324   3.176   8.189 -0.4478 -0.7847 -0.1256
 3286SOL    HW121317   2.340   3.125   8.268  0.1886 -0.7338 -0.2233
 3286SOL    HW221318   2.408   3.186   8.146  0.7411 -4.9183  1.2452
 3287SOL     OW21319   3.793   4.184   1.436 -0.1917 -0.3750 -0.3025
 3287SOL    HW121320   3.731   4.115   1.414 -2.5523  2.4188 -2.4005
 3287SOL    HW221321   3.736   4.256   1.413  1.6727  0.1309 -3.4009
 3288SOL     OW21322   0.503   4.299   1.906  0.6260  0.0203  0.4879
 3288SOL    HW121323   0.543   4.373   1.951 -0.4822  0.7664  0.2388
 3288SOL    HW221324   0.575   4.236   1.900 -0.2580 -0.9767  0.3471
 3289SOL     OW21325   2.708   2.024   8.557 -0.1304  0.2087  0.0596
 3289SOL    HW121326   2.774   2.053   8.620  0.4185  2.1243 -1.3896
 3289SOL    HW221327   2.639   2.001   8.620  0.1679 -0.7585  0.0362
 3290SOL     OW21328   4.310   4.220  10.996 -0.2880 -0.1289  0.2922
 3290SOL    HW121329   4.272   4.134  11.018 -0.1409  0.0992  1.4360
 3290SOL    HW221330   4.275   4.281  11.060 -3.3264 -3.0470  1.4784
 3291SOL     OW21331   1.212   0.692  11.155  0.2996 -0.1908 -0.4386
 3291SOL    HW121332   1.152   0.757  11.119 -2.0460 -2.6881 -0.9528
 3291SOL    HW221333   1.209   0.732  11.242 -3.1055 -0.2840 -0.5099
 3292SOL     OW21334   0.348   2.129  14.646 -0.3813 -0.0050  0.0957
 3292SOL    HW121335   0.370   2.161  14.558 -0.5582 -0.1832 -0.0144
 3292SOL    HW221336   0.260   2.167  14.651 -0.3926 -0.0162 -0.0113
 3293SOL     OW21337   1.370   3.485   5.197 -0.3487 -0.1764 -0.1468
 3293SOL    HW121338   1.371   3.403   5.246 -1.2692 -1.3561 -2.1081
 3293SOL    HW221339   1.306   3.532   5.250 -2.2180 -0.4532 -2.1568
 3294SOL     OW21340   2.620   0.670   8.417  0.0615 -0.1831 -0.7039
 3294SOL    HW121341   2.658   0.609   8.481  0.6505  1.6681  0.7020
 3294SOL    HW221342   2.525   0.655   8.422  0.0208 -0.8594 -3.1822
 3295SOL     OW21343   3.517   2.670   4.616  0.2640  0.2666 -0.6505
 3295SOL    HW121344   3.563   2.614   4.553  1.0058  0.3185 -0.1523
 3295SOL    HW221345   3.428   2.635   4.609 -0.5032  1.6297  2.3106
 3296SOL     OW21346   0.450   4.291  11.284 -0.3314 -0.1737  0.0266
 3296SOL    HW121347   0.482   4.242  11.208 -0.0531 -0.1355  0.1197
 3296SOL    HW221348   0.425   4.218  11.340  2.2644 -1.3766 -0.3620
 3297SOL     OW21349   1.548   3.055  13.850  0.1896 -0.5342 -0.0608
 3297SOL    HW121350   1.614   3.117  13.819 -0.6363  2.1349  3.4788
 3297SOL    HW221351   1.469   3.105  13.870 -0.0764 -1.8726  2.2136
 3298SOL     OW21352   0.458   0.207   9.009 -0.6086  0.3658  0.3874
 3298SOL    HW121353   0.475   0.116   8.986 -0.0918  0.3952  0.6391
 3298SOL    HW221354   0.506   0.254   8.941 -0.4000 -1.0620 -0.4483
 3299SOL     OW21355   1.393   4.649   2.572  0.2624 -0.8160 -0.0658
 3299SOL    HW121356   1.379   0.018   2.556  0.4205 -0.8865 -0.6305
 3299SOL    HW221357   1.486   4.636   2.551 -0.1479  1.1705 -3.1844
 3300SOL     OW21358   1.339   4.574   1.896  0.1334 -0.1894  0.4272
 3300SOL    HW121359   1.423   4.545   1.862  0.1859 -1.9118  2.0749
 3300SOL    HW221360   1.330   4.519   1.973  0.6596 -0.5892  0.2000
 3301SOL     OW21361   3.369   0.206   4.482 -0.4123 -0.4521  0.1402
 3301SOL    HW121362   3.393   0.238   4.395 -2.7745  1.4763  0.1852
 3301SOL    HW221363   3.274   0.207   4.469 -0.5810 -0.5842  1.3720
 3302SOL     OW21364   3.894   1.976  16.044 -0.6663  0.0410  0.4559
 3302SOL    HW121365   3.933   1.979  15.957 -1.8022  0.2818 -0.0471
 3302SOL    HW221366   3.815   1.921  16.043 -0.9169  0.3706  1.7354
 3303SOL     OW21367   0.286   2.399  17.115 -0.3775 -0.6563  0.3765
 3303SOL    HW121368   0.229   2.471  17.090  0.3110  0.5077  2.1560
 3303SOL    HW221369   0.233   2.325  17.147  1.0688 -1.4948  0.8441
 3304SOL     OW21370   4.680   3.486   9.627 -0.3988 -0.0174 -0.9245
 3304SOL    HW121371   0.033   3.437   9.600 -0.3465  0.3348 -1.4248
 3304SOL    HW221372   4.694   3.562   9.571 -0.2333 -0.3483 -1.3313
 3305SOL     OW21373   3.066   1.680  11.891  0.5897  0.5426  0.1399
 3305SOL    HW121374   2.983   1.631  11.891 -0.3555  2.1402  1.5245
 3305SOL    HW221375   3.085   1.708  11.802 -0.6883 -1.0083 -0.6211
 3306SOL     OW21376   4.210   2.590   1.813 -0.1152 -0.5490 -0.8734
 3306SOL    HW121377   4.263   2.646   1.756  0.9413 -1.3922 -0.7139
 3306SOL    HW221378   4.127   2.583   1.766 -1.7860  1.2338  1.7627
 3307SOL     OW21379   0.612   3.442  15.531 -0.2078 -0.2716  0.3077
 3307SOL    HW121380   0.582   3.379  15.597  0.3483  0.0857  0.8874
 3307SOL    HW221381   0.692   3.472  15.574 -0.0010  0.0181 -0.2719
 3308SOL     OW21382   4.067   3.199  12.785  0.1821 -0.5828 -0.0115
 3308SOL    HW121383   4.157   3.188  12.754  0.7477 -0.3020  1.5451
 3308SOL    HW221384   4.071   3.171  12.876 -0.1436 -0.5662  0.0086
 3309SOL     OW21385   0.235   4.496  16.822 -0.3435  0.0665  0.1320
 3309SOL    HW121386   0.293   4.487  16.897 -0.1766  1.9855  0.2253
 3309SOL    HW221387   0.239   4.591  16.811 -0.0936  0.1501  0.9422
 3310SOL     OW21388   3.680   2.826   2.650  0.3429  0.3173  0.0570
 3310SOL    HW121389   3.752   2.817   2.588 -0.5420  2.8274 -1.3103
 3310SOL    HW221390   3.633   2.905   2.625  2.2637  1.5283  0.3154
 3311SOL     OW21391   3.363   0.558   5.225  0.1204 -0.1291 -0.1831
 3311SOL    HW121392   3.411   0.481   5.194  2.9161  1.4969  0.0360
 3311SOL    HW221393   3.436   0.613   5.251 -0.7855  0.4822  1.0427
 3312SOL     OW21394   4.573   3.175   1.367 -0.0870 -0.4606  0.3058
 3312SOL    HW121395   4.562   3.114   1.439 -1.2960 -0.1780  0.3509
 3312SOL    HW221396   4.489   3.170   1.322  1.7689 -1.1640 -3.0780
 3313SOL     OW21397   2.459   2.086  11.488 -0.0611 -0.3332  0.0054
 3313SOL    HW121398   2.544   2.121  11.462  0.4171 -2.1876 -0.9009
 3313SOL    HW221399   2.392   2.144  11.450  1.5216  0.6384 -1.2729
 3314SOL     OW21400   2.398   1.444  13.267  0.0602 -0.5248  0.0503
 3314SOL    HW121401   2.403   1.403  13.353  0.1592 -0.0755  0.2592
 3314SOL    HW221402   2.488   1.458  13.236 -0.0069 -0.3643 -0.0756
 3315SOL     OW21403   2.038   1.024   8.930 -0.7595 -0.1139 -0.1491
 3315SOL    HW121404   2.021   1.059   8.843 -0.7514  2.1447  0.7637
 3315SOL    HW221405   2.048   0.931   8.911  1.0612 -0.1540  1.0774
 3316SOL     OW21406   2.221   2.217  14.567 -0.2075  0.9234  0.5748
 3316SOL    HW121407   2.220   2.268  14.648 -1.3772 -1.2425  1.9292
 3316SOL    HW221408   2.133   2.180  14.576 -0.2314  1.0532  0.9077
 3317SOL     OW21409   1.136   1.419   5.890 -0.4708  0.5850 -0.6995
 3317SOL    HW121410   1.072   1.378   5.832  0.3064 -0.1618 -1.0227
 3317SOL    HW221411   1.212   1.378   5.849 -1.3696 -0.1259 -1.6426
 3318SOL     OW21412   0.961   1.110   7.891  0.2059  0.1670 -0.1785
 3318SOL    HW121413   0.917   1.170   7.953  0.7801 -0.0135  0.4039
 3318SOL    HW221414   0.966   1.173   7.820  2.0715 -1.8790 -1.8326
 3319SOL     OW21415   2.345   0.208   7.160 -0.3083 -0.0839 -0.1026
 3319SOL    HW121416   2.297   0.164   7.229  0.7492 -0.3641  0.4538
 3319SOL    HW221417   2.356   0.294   7.200  0.0568 -0.6346  0.9709
 3320SOL     OW21418   3.733   1.778   8.729 -0.3835  0.4082 -1.1109
 3320SOL    HW121419   3.776   1.756   8.812 -4.4643 -3.3688 -0.0439
 3320SOL    HW221420   3.726   1.692   8.688 -2.4794  0.8376 -1.6363
 3321SOL     OW21421   1.795   2.134  15.026  0.3067  0.6041 -0.4469
 3321SOL    HW121422   1.818   2.086  15.106  0.9947  0.5598 -0.6659
 3321SOL    HW221423   1.806   2.061  14.965  1.9640 -0.3348  0.9579
 3322SOL     OW21424   4.148   0.234   7.663  0.1836  0.7153 -0.5590
 3322SOL    HW121425   4.160   0.140   7.651 -1.3059  0.4983 -0.3283
 3322SOL    HW221426   4.054   0.242   7.644  0.0306  1.0785  0.3862
 3323SOL     OW21427   3.327   2.062   8.510 -0.7497 -0.7271 -0.4505
 3323SOL    HW121428   3.377   2.020   8.580 -0.0386  1.3613  0.3180
 3323SOL    HW221429   3.392   2.131   8.498  0.5514 -2.0232 -0.8033
 3324SOL     OW21430   1.271   3.758   3.494  0.2857  0.4424 -0.6075
 3324SOL    HW121431   1.207   3.708   3.545 -0.4491  0.6762 -1.3026
 3324SOL    HW221432   1.339   3.758   3.562 -0.5211  1.3586  0.1973
 3325SOL     OW21433   0.047   1.826   7.725  0.3877  0.8603 -0.0589
 3325SOL    HW121434   0.106   1.834   7.800  0.5816 -0.7542 -0.0243
 3325SOL    HW221435   0.113   1.801   7.660 -0.7831 -2.6163  0.0934
 3326SOL     OW21436   3.691   4.694   8.455 -0.3072  0.0314  0.5644
 3326SOL    HW121437   3.665   0.060   8.468 -2.4854 -0.5530  0.3287
 3326SOL    HW221438   3.734   4.674   8.538  0.0652 -0.4074  0.2672
 3327SOL     OW21439   1.078   3.402  11.664 -0.0523 -0.2072 -0.2831
 3327SOL    HW121440   1.015   3.378  11.595 -2.0885  0.1941  1.4491
 3327SOL    HW221441   1.153   3.360  11.621  0.6043 -1.7510  2.4030
 3328SOL     OW21442   3.084   3.370   6.865 -0.2521  0.3510  0.2497
 3328SOL    HW121443   3.078   3.365   6.770  1.4012 -0.8418  0.2024
 3328SOL    HW221444   3.178   3.385   6.871 -0.0310 -0.6526 -0.7345
 3329SOL     OW21445   1.856   2.851  15.654 -0.4163 -0.8087 -0.3506
 3329SOL    HW121446   1.878   2.758  15.664  0.2715 -0.1890  3.9074
 3329SOL    HW221447   1.840   2.850  15.559  2.0645 -0.9158 -0.7815
 3330SOL     OW21448   2.459   0.466   8.887  0.3904 -0.7414  0.1012
 3330SOL    HW121449   2.465   0.455   8.982  0.5902 -1.2376  0.0283
 3330SOL    HW221450   2.368   0.444   8.868  0.1649 -1.0584  1.5152
 3331SOL     OW21451   1.591   2.289  11.785  0.3088 -0.0107 -0.5143
 3331SOL    HW121452   1.588   2.195  11.764 -0.6958 -0.0001 -0.4012
 3331SOL    HW221453   1.687   2.292  11.779  0.2515 -1.2735 -2.1805
 3332SOL     OW21454   0.198   1.453   5.131 -0.5806 -0.1558 -0.5567
 3332SOL    HW121455   0.229   1.540   5.157  1.1987 -1.3268  1.2731
 3332SOL    HW221456   0.109   1.480   5.111 -0.2539  0.7249 -0.8359
 3333SOL     OW21457   0.010   3.217  14.887 -0.2414  0.2350 -0.1429
 3333SOL    HW121458   4.663   3.280  14.874  1.2265  2.0327  0.5383
 3333SOL    HW221459   4.720   3.187  14.977  1.4598 -2.5942 -0.8218
 3334SOL     OW21460   2.143   0.501   4.695 -0.0447  0.7380 -0.0405
 3334SOL    HW121461   2.136   0.507   4.791  1.7078 -0.9657  0.1852
 3334SOL    HW221462   2.215   0.560   4.674  0.0076  1.5454  2.3960
 3335SOL     OW21463   0.910   3.939   1.082  0.2308  0.4102 -0.1049
 3335SOL    HW121464   0.926   3.858   1.131 -2.6188  0.0818  0.2915
 3335SOL    HW221465   1.002   3.966   1.082  0.6548 -1.0061  1.8797
 3336SOL     OW21466   2.038   1.478  14.770  0.2731  0.4813  0.3320
 3336SOL    HW121467   1.966   1.453  14.711 -0.5210  1.5791  0.8246
 3336SOL    HW221468   2.091   1.398  14.769  1.9387  1.5974  0.2206
 3337SOL     OW21469   1.561   4.630   5.597  0.0107  0.1668 -0.0862
 3337SOL    HW121470   1.580   4.714   5.556  3.1762 -1.0599 -1.1349
 3337SOL    HW221471   1.542   4.585   5.514 -0.9559  1.0448 -0.3353
 3338SOL     OW21472   0.252   2.624  11.489 -0.0266 -0.3139 -0.2256
 3338SOL    HW121473   0.202   2.621  11.407  0.6916  0.5985 -0.7051
 3338SOL    HW221474   0.245   2.718  11.507  2.6623 -0.3925  1.2514
 3339SOL     OW21475   2.034   0.046   8.949 -0.1236 -0.0439 -0.2221
 3339SOL    HW121476   2.031   0.074   8.857  1.2309 -1.3938 -0.6798
 3339SOL    HW221477   1.949   0.085   8.970  0.6656  1.2248  0.5327
 3340SOL     OW21478   3.229   3.032   4.874  0.0422  0.0705 -0.3976
 3340SOL    HW121479   3.146   2.999   4.842 -0.0340  0.0100 -0.1393
 3340SOL    HW221480   3.284   2.956   4.859  0.2642 -0.1123  1.3179
 3341SOL     OW21481   3.688   4.020  13.685 -0.2909 -0.1381 -0.0946
 3341SOL    HW121482   3.594   4.037  13.684 -0.2312  0.3077  3.3585
 3341SOL    HW221483   3.689   3.969  13.766 -0.8047  0.6330  0.3971
 3342SOL     OW21484   0.991   4.112   4.145  0.0846  0.3381  0.7289
 3342SOL    HW121485   0.905   4.131   4.108  0.7058  0.4761 -0.6480
 3342SOL    HW221486   1.008   4.200   4.181  2.1349 -1.1720  3.4760
 3343SOL     OW21487   0.355   2.454   7.311 -0.0124  0.0654 -0.6298
 3343SOL    HW121488   0.309   2.537   7.309  4.8225  2.7916  0.6629
 3343SOL    HW221489   0.273   2.405   7.307 -1.0269  1.4841  2.5318
 3344SOL     OW21490   0.355   3.385  13.386  0.0182  0.3158  0.1895
 3344SOL    HW121491   0.367   3.300  13.343 -1.6745 -0.3502  1.0364
 3344SOL    HW221492   0.296   3.363  13.458  0.4345  1.0437  0.7461
 3345SOL     OW21493   2.837   3.459   3.607 -0.0261 -0.1775  0.7900
 3345SOL    HW121494   2.753   3.417   3.585  0.7610 -0.6518 -1.3372
 3345SOL    HW221495   2.889   3.418   3.537 -2.1271 -0.7565 -0.4371
 3346SOL     OW21496   0.436   4.713   7.751  0.0894 -0.0361  0.2234
 3346SOL    HW121497   0.346   0.019   7.740 -0.5468 -1.6375  0.9123
 3346SOL    HW221498   0.460   0.029   7.835 -2.2061  0.0886  0.8253
 3347SOL     OW21499   3.599   1.754   3.265  0.3322 -0.7936  0.4190
 3347SOL    HW121500   3.609   1.762   3.170 -2.4045 -1.3169  0.0796
 3347SOL    HW221501   3.562   1.841   3.284  0.9573 -0.7777  1.5706
 3348SOL     OW21502   0.851   4.387  12.521  0.0779  0.2165  0.2785
 3348SOL    HW121503   0.802   4.396  12.439  0.8606 -0.2651 -0.2416
 3348SOL    HW221504   0.920   4.325  12.496  0.7830  0.7753  0.8480
 3349SOL     OW21505   1.194   0.238   9.264  0.0743 -0.1279 -0.0043
 3349SOL    HW121506   1.136   0.314   9.260 -0.8426 -0.7918  0.6481
 3349SOL    HW221507   1.283   0.272   9.258  0.3001 -0.8230 -0.5903
 3350SOL     OW21508   4.578   4.592   5.461  0.0904  0.2475 -0.3008
 3350SOL    HW121509   4.488   4.575   5.488 -0.5201 -0.0864 -2.5421
 3350SOL    HW221510   4.624   4.521   5.506 -0.2143  0.7336  0.7646
 3351SOL     OW21511   0.254   1.018   0.794  0.4296 -0.3394  0.3699
 3351SOL    HW121512   0.301   1.087   0.746  1.0706  0.8825  2.7676
 3351SOL    HW221513   0.238   1.053   0.881  0.3061 -0.5410  0.4285
 3352SOL     OW21514   1.315   3.725   5.030 -0.7830 -0.6234 -0.3634
 3352SOL    HW121515   1.275   3.790   4.972 -1.7338  0.8800  2.0001
 3352SOL    HW221516   1.274   3.740   5.115 -1.3528  2.1106 -1.1094
 3353SOL     OW21517   0.064   1.563   9.066 -0.2139  0.5561  0.1820
 3353SOL    HW121518   0.156   1.584   9.046 -0.7507  0.7263 -2.1422
 3353SOL    HW221519   0.040   1.621   9.138 -0.1357  1.3445 -0.4269
 3354SOL     OW21520   2.130   0.416   5.693  0.7132  0.0919 -0.2097
 3354SOL    HW121521   2.203   0.476   5.706  0.8724 -0.2656  0.5731
 3354SOL    HW221522   2.122   0.387   5.784 -1.3454 -2.2685 -1.1540
 3355SOL     OW21523   0.797   2.686  14.224  0.5366 -0.2995  0.0546
 3355SOL    HW121524   0.800   2.721  14.313  0.5283 -1.0803  0.3599
 3355SOL    HW221525   0.775   2.597  14.252  0.6559 -1.1961 -2.6516
 3356SOL     OW21526   0.940   2.893   1.993  0.2239 -0.3358  0.0829
 3356SOL    HW121527   0.848   2.878   1.970  0.3968 -0.2144 -0.6992
 3356SOL    HW221528   0.943   2.838   2.071  2.1853  1.1173  1.0217
 3357SOL     OW21529   1.938   0.384   2.637 -0.0551 -0.0599  1.7433
 3357SOL    HW121530   1.981   0.368   2.722 -0.2991  0.4017  1.9518
 3357SOL    HW221531   1.883   0.306   2.645 -2.0935  1.1855 -0.0868
 3358SOL     OW21532   2.360   3.565  16.855  0.4736 -0.0774  0.3770
 3358SOL    HW121533   2.287   3.608  16.900 -1.3627 -3.7478  0.9236
 3358SOL    HW221534   2.390   3.517  16.933  2.6968 -0.4274 -0.6983
 3359SOL     OW21535   4.452   2.011  10.037  0.2711  0.4927 -0.2808
 3359SOL    HW121536   4.545   1.988  10.041 -0.6357 -3.0560  0.1105
 3359SOL    HW221537   4.426   1.984   9.950  0.7024  0.9268 -0.5437
 3360SOL     OW21538   3.530   2.836  17.683  0.3436 -0.1391  0.7410
 3360SOL    HW121539   3.516   2.920   0.025 -0.7871 -0.7755  1.6287
 3360SOL    HW221540   3.489   2.852  17.597 -1.2040 -3.2521  0.8923
 3361SOL     OW21541   0.712   3.250   5.890  0.3039 -0.5693 -0.5536
 3361SOL    HW121542   0.758   3.332   5.905 -0.9336 -0.5016  2.8247
 3361SOL    HW221543   0.722   3.203   5.973  2.0269 -0.8012 -0.8785
 3362SOL     OW21544   2.888   2.209   5.585 -0.4856  0.1967  0.4715
 3362SOL    HW121545   2.833   2.226   5.661 -0.1490  2.2929  0.2251
 3362SOL    HW221546   2.922   2.123   5.613 -3.5001 -0.6820  1.4419
 3363SOL     OW21547   4.486   3.281   4.369  0.3802  0.4743  0.1325
 3363SOL    HW121548   4.498   3.287   4.274  1.0022  0.3007  0.1996
 3363SOL    HW221549   4.433   3.201   4.378 -2.4046  2.3160 -0.0878
 3364SOL     OW21550   3.264   3.866   1.947 -0.1669 -0.1618 -0.2172
 3364SOL    HW121551   3.320   3.826   2.014 -0.1057 -0.9358 -0.7280
 3364SOL    HW221552   3.306   3.951   1.956  1.9844 -1.2928  0.2402
 3365SOL     OW21553   1.919   2.203  11.555 -0.3675 -0.1229  0.1131
 3365SOL    HW121554   1.946   2.295  11.549  2.2538 -0.9079 -0.0730
 3365SOL    HW221555   1.831   2.220  11.521 -0.7140 -0.5492  0.7967
 3366SOL     OW21556   1.078   4.340   1.003 -0.1004  0.6831  0.2547
 3366SOL    HW121557   1.089   4.310   1.093 -1.0947 -0.7682 -0.1123
 3366SOL    HW221558   1.021   4.268   0.977  1.6586 -1.6765  2.8670
 3367SOL     OW21559   0.079   0.779   0.110 -0.1317  0.1844  0.2744
 3367SOL    HW121560   0.088   0.874   0.114 -0.0798  0.1469  1.1411
 3367SOL    HW221561   0.143   0.766   0.040  1.7154 -3.5806  2.6223
 3368SOL     OW21562   3.795   1.016   4.274 -0.3118  0.4727  0.2597
 3368SOL    HW121563   3.829   0.935   4.236  1.3636  0.4791  1.7224
 3368SOL    HW221564   3.841   1.081   4.221 -0.6872 -0.7489 -1.5618
 3369SOL     OW21565   3.631   0.481   3.718  0.2479  0.0735 -0.3152
 3369SOL    HW121566   3.559   0.450   3.773 -0.0749  0.6331 -0.4291
 3369SOL    HW221567   3.689   0.519   3.783 -1.1092 -0.0779  0.9858
 3370SOL     OW21568   0.346   3.277   4.592 -0.0559  0.5070  0.6227
 3370SOL    HW121569   0.429   3.232   4.607 -0.1549  0.1993  0.2339
 3370SOL    HW221570   0.357   3.336   4.517  1.5314 -0.3246  0.2075
 3371SOL     OW21571   2.652   2.085   3.883  0.1826 -0.1249  0.1595
 3371SOL    HW121572   2.586   2.015   3.884 -0.2644  0.2480 -2.9037
 3371SOL    HW221573   2.731   2.033   3.893  0.6964  0.3699 -1.2999
 3372SOL     OW21574   1.880   3.777   6.786  0.0357  0.3803  0.1205
 3372SOL    HW121575   1.946   3.755   6.721  1.0043  1.0439  0.8870
 3372SOL    HW221576   1.929   3.767   6.867 -1.6428 -1.0600  0.9716
 3373SOL     OW21577   1.192   0.842   6.475  0.2491  0.6260 -0.6170
 3373SOL    HW121578   1.114   0.892   6.496  0.5205  1.1893 -0.9438
 3373SOL    HW221579   1.263   0.886   6.522  1.0867 -2.3164  0.8920
 3374SOL     OW21580   2.431   3.203  11.673  0.7241 -0.0647 -0.1047
 3374SOL    HW121581   2.403   3.115  11.700 -3.8157  1.2519 -0.5481
 3374SOL    HW221582   2.354   3.226  11.622 -0.9657 -0.3900  2.3299
 3375SOL     OW21583   3.204   3.302   3.084  0.0145 -0.5338 -0.5350
 3375SOL    HW121584   3.164   3.221   3.052 -1.0238  0.1084 -0.8809
 3375SOL    HW221585   3.269   3.307   3.014 -0.9932  2.2194 -1.2995
 3376SOL     OW21586   2.453   4.643   5.221 -0.9016 -0.6203 -0.1816
 3376SOL    HW121587   2.499   4.588   5.284 -0.6602  0.4844  0.5902
 3376SOL    HW221588   2.485   0.003   5.253 -2.7200  1.2787 -3.4198
 3377SOL     OW21589   4.715   3.565   8.682  0.3181 -0.0849  0.0768
 3377SOL    HW121590   0.009   3.641   8.628  2.9301 -2.3355 -2.2084
 3377SOL    HW221591   4.636   3.587   8.730 -0.2870  1.4973 -1.6415
 3378SOL     OW21592   3.749   2.048   8.611 -0.0146  0.8583  0.1165
 3378SOL    HW121593   3.792   1.986   8.669 -0.3749  0.1853 -0.3329
 3378SOL    HW221594   3.690   2.099   8.666 -1.4925 -0.6156 -0.1106
 3379SOL     OW21595   1.472   0.759   5.534 -0.0372 -0.3096  0.2890
 3379SOL    HW121596   1.552   0.730   5.579  0.1659 -1.1659 -0.6049
 3379SOL    HW221597   1.441   0.828   5.591  0.1809 -0.8424  1.0534
 3380SOL     OW21598   2.245   1.782   5.786  0.2991  0.2123  0.0694
 3380SOL    HW121599   2.199   1.731   5.854  1.5701 -1.2529 -0.1521
 3380SOL    HW221600   2.179   1.774   5.718  0.6084  1.0200 -0.3215
 3381SOL     OW21601   3.537   1.445  12.272  0.7050  0.4198 -0.2980
 3381SOL    HW121602   3.568   1.534  12.251 -1.7920  0.6962 -2.8639
 3381SOL    HW221603   3.567   1.438  12.363 -1.3407 -1.5368  0.2031
 3382SOL     OW21604   2.626   3.310   3.554  0.3453 -0.4828 -0.1048
 3382SOL    HW121605   2.536   3.344   3.551  0.1715 -0.9732 -0.5492
 3382SOL    HW221606   2.607   3.240   3.616  0.1160 -0.2670  0.0674
 3383SOL     OW21607   4.678   4.225   6.965 -0.3906  0.7289  0.1652
 3383SOL    HW121608   4.707   4.316   6.954  1.8364  0.1267  1.1036
 3383SOL    HW221609   4.664   4.226   7.059 -0.4720  1.1299  0.1506
 3384SOL     OW21610   1.606   4.050   4.517 -0.1901 -0.2684  0.0085
 3384SOL    HW121611   1.522   4.055   4.471 -0.5772 -0.3669  0.7046
 3384SOL    HW221612   1.625   3.957   4.520  2.6542  0.2476 -2.3113
 3385SOL     OW21613   1.340   3.769  10.661  0.4723 -0.4417  0.4666
 3385SOL    HW121614   1.305   3.806  10.742 -0.2261  2.0975 -1.0062
 3385SOL    HW221615   1.414   3.827  10.643  0.5765 -0.3820  1.0888
 3386SOL     OW21616   2.330   3.786  10.889  0.2929 -0.0080 -0.1122
 3386SOL    HW121617   2.287   3.791  10.804  1.1962  0.8501 -0.5239
 3386SOL    HW221618   2.411   3.837  10.884 -0.1141  0.9144  2.6453
 3387SOL     OW21619   0.116   3.279  12.673  0.4748  0.4763  0.4899
 3387SOL    HW121620   0.077   3.352  12.722  3.9649  2.4464  0.3233
 3387SOL    HW221621   0.135   3.217  12.744  1.2043 -1.8558 -1.7585
 3388SOL     OW21622   2.175   0.936   9.161  0.8037 -0.4467  0.6573
 3388SOL    HW121623   2.195   0.919   9.253 -1.5209 -2.3123  0.7890
 3388SOL    HW221624   2.174   1.032   9.160 -0.9129 -0.4645  0.6611
 3389SOL     OW21625   2.947   0.173   0.055  0.0342 -0.2214 -0.0222
 3389SOL    HW121626   2.888   0.246   0.031 -1.4529 -1.9031 -1.5004
 3389SOL    HW221627   2.947   0.115  17.679  2.0096  2.3220 -1.9879
 3390SOL     OW21628   1.326   2.789   8.028 -0.9362  0.2151  0.1790
 3390SOL    HW121629   1.385   2.861   8.048 -2.1559  1.1475  0.3809
 3390SOL    HW221630   1.386   2.721   7.997 -1.4948 -1.0309  1.8335
 3391SOL     OW21631   1.254   0.545   5.958 -0.3029 -0.1417 -0.0454
 3391SOL    HW121632   1.338   0.511   5.989 -0.1452  1.3631  1.1287
 3391SOL    HW221633   1.236   0.584   6.043  0.2744  0.2006 -0.0795
 3392SOL     OW21634   1.070   3.228   4.485 -0.0356  0.3049  0.3364
 3392SOL    HW121635   1.104   3.310   4.450 -1.0174  0.3904 -0.4330
 3392SOL    HW221636   1.069   3.171   4.408  0.8750  0.5346  0.1543
 3393SOL     OW21637   0.556   1.026   8.862 -0.4788  0.0640  0.2976
 3393SOL    HW121638   0.581   1.096   8.923 -1.0692  1.0067 -0.5396
 3393SOL    HW221639   0.469   1.048   8.830  0.7224  1.2790 -2.1648
 3394SOL     OW21640   3.937   2.464   7.268  0.1677 -0.3409  0.6689
 3394SOL    HW121641   3.974   2.541   7.225 -0.6248 -0.8770 -0.9259
 3394SOL    HW221642   3.956   2.404   7.196 -0.0943 -0.5746  0.7941
 3395SOL     OW21643   2.537   3.374   4.290  0.1630 -0.8764 -0.3808
 3395SOL    HW121644   2.630   3.374   4.313  0.5526  1.8568 -1.9837
 3395SOL    HW221645   2.537   3.284   4.256 -0.1377 -1.6175  1.5678
 3396SOL     OW21646   3.010   3.044   6.039 -0.0607  0.1164 -0.0505
 3396SOL    HW121647   2.925   3.003   6.056 -0.6355  1.1128 -0.4981
 3396SOL    HW221648   3.065   2.975   6.075 -0.7491 -0.2426  0.3272
 3397SOL     OW21649   4.255   1.446   4.004  0.0823 -0.1353  0.1986
 3397SOL    HW121650   4.282   1.527   4.045  1.2038 -0.1057 -0.5871
 3397SOL    HW221651   4.225   1.396   4.080 -1.9674  1.1802  0.2431
 3398SOL     OW21652   1.268   0.851   3.210  0.0073  0.4064  0.3884
 3398SOL    HW121653   1.210   0.841   3.285  0.3423 -0.1238  0.5790
 3398SOL    HW221654   1.210   0.898   3.150  0.9077  0.6235 -0.3313
 3399SOL     OW21655   1.773   2.901   6.554 -0.3433 -0.2835  0.1792
 3399SOL    HW121656   1.775   2.969   6.620  1.1609  0.3763 -0.5224
 3399SOL    HW221657   1.836   2.937   6.490 -1.6574  0.8472 -0.4733
 3400SOL     OW21658   4.025   3.883   4.185  0.4402 -0.3037  0.2007
 3400SOL    HW121659   4.017   3.789   4.174 -2.2069 -0.1012  0.5053
 3400SOL    HW221660   3.977   3.906   4.265  1.5832 -0.0485  0.8228
 3401SOL     OW21661   0.559   0.919   5.590 -0.2671 -0.1089 -0.4342
 3401SOL    HW121662   0.612   0.988   5.549 -2.4245  0.8903 -1.5505
 3401SOL    HW221663   0.598   0.916   5.678 -0.0209  0.3050 -0.5255
 3402SOL     OW21664   4.077   4.527  11.112 -0.6524 -0.3795 -0.1789
 3402SOL    HW121665   3.984   4.510  11.125 -0.6797 -0.4899 -0.5130
 3402SOL    HW221666   4.075   4.563  11.023  1.4583  1.6058  0.5811
 3403SOL     OW21667   3.847   1.861   8.077 -0.4652 -0.3989 -0.1082
 3403SOL    HW121668   3.813   1.873   8.166  0.1734  0.5724 -0.0061
 3403SOL    HW221669   3.774   1.805   8.048 -1.1689  0.5905 -0.2326
 3404SOL     OW21670   0.402   3.447  13.928  0.5389  0.2309  0.4319
 3404SOL    HW121671   0.372   3.525  13.975 -0.8871  1.1439 -1.9629
 3404SOL    HW221672   0.393   3.398  14.009 -2.4110  2.7891  1.6473
 3405SOL     OW21673   0.360   4.210  16.476 -0.5972 -0.5030 -0.1610
 3405SOL    HW121674   0.300   4.137  16.459 -1.9313  0.6414 -0.3064
 3405SOL    HW221675   0.299   4.267  16.524  0.5453  0.1143  0.5468
 3406SOL     OW21676   2.241   4.542  10.446 -0.3436 -0.7597  0.1058
 3406SOL    HW121677   2.247   4.547  10.350 -3.5144 -0.7063 -0.0831
 3406SOL    HW221678   2.228   4.633  10.473  1.8257  0.0957 -1.6897
 3407SOL     OW21679   4.476   4.097   2.295  0.0935  0.1335 -0.1089
 3407SOL    HW121680   4.495   4.161   2.364 -0.2235 -0.7665  0.8148
 3407SOL    HW221681   4.490   4.010   2.331 -1.3683 -0.3565 -0.7291
 3408SOL     OW21682   3.297   1.807   5.371 -0.7236  0.8018  0.2432
 3408SOL    HW121683   3.341   1.727   5.344 -0.2810  0.5049  1.8462
 3408SOL    HW221684   3.215   1.794   5.324  1.1340  1.8291 -3.2542
 3409SOL     OW21685   1.236   0.346  11.295 -0.2676  0.3185  0.6238
 3409SOL    HW121686   1.285   0.359  11.214  0.8993  0.9203  1.4234
 3409SOL    HW221687   1.285   0.393  11.363 -2.0033 -2.0690  3.5065
 3410SOL     OW21688   1.272   4.219   7.180 -0.2625 -0.6147 -0.4964
 3410SOL    HW121689   1.348   4.185   7.134  2.1158  3.6956  0.2547
 3410SOL    HW221690   1.315   4.269   7.249 -2.0005 -0.8767  0.7721
 3411SOL     OW21691   2.700   1.045   1.829 -0.2486 -0.0996  0.0615
 3411SOL    HW121692   2.751   0.988   1.773 -2.0237  0.1138 -1.7752
 3411SOL    HW221693   2.622   0.996   1.855 -1.4760  0.2926 -2.8644
 3412SOL     OW21694   4.180   0.104  12.111 -0.2062 -0.2615 -0.0643
 3412SOL    HW121695   4.218   0.036  12.166 -0.8849 -1.5023 -1.1356
 3412SOL    HW221696   4.244   0.102  12.040 -1.6054 -4.0808 -1.2179
 3413SOL     OW21697   4.253   4.325   5.227  0.5360 -0.3611  0.4754
 3413SOL    HW121698   4.331   4.277   5.199  1.0808  1.1575 -0.6610
 3413SOL    HW221699   4.209   4.337   5.143  0.1826  0.5411  0.7855
 3414SOL     OW21700   1.319   1.010   2.918  0.3814 -0.2409 -0.1800
 3414SOL    HW121701   1.273   1.058   2.849  1.1272  1.5671  0.5792
 3414SOL    HW221702   1.243   1.003   2.976  1.8229 -0.7147  1.6666
 3415SOL     OW21703   1.740   4.345   0.802 -0.2040 -0.2948  0.3961
 3415SOL    HW121704   1.769   4.397   0.727  0.4623 -0.3265  0.6293
 3415SOL    HW221705   1.656   4.386   0.824  1.0010  1.6359  1.4360
 3416SOL     OW21706   0.950   3.310   5.124  0.1018  0.5654 -0.0754
 3416SOL    HW121707   0.970   3.265   5.041 -1.1844 -1.6853  0.8328
 3416SOL    HW221708   0.901   3.386   5.093  1.9086  1.0647 -1.7289
 3417SOL     OW21709   4.140   2.414   7.521 -0.4378  0.5187 -0.3830
 3417SOL    HW121710   4.185   2.495   7.496  0.3679  0.4489  0.8608
 3417SOL    HW221711   4.078   2.409   7.448 -0.1784  0.5435 -0.6054
 3418SOL     OW21712   1.831   3.955  14.532 -0.6144 -0.0613 -0.1019
 3418SOL    HW121713   1.779   3.877  14.554  2.1657 -2.1085 -0.7378
 3418SOL    HW221714   1.856   3.940  14.441 -0.0947  0.6294 -0.0775
 3419SOL     OW21715   0.101   4.571   6.539  0.0828 -0.1777 -0.0710
 3419SOL    HW121716   0.027   4.612   6.495  2.1412  0.6279 -2.7621
 3419SOL    HW221717   0.157   4.556   6.462  1.4395  1.9890  0.4957
 3420SOL     OW21718   4.697   1.322   2.891 -0.2931  0.2069 -0.4229
 3420SOL    HW121719   0.045   1.277   2.934  0.4892 -0.3279 -2.2803
 3420SOL    HW221720   0.021   1.341   2.811  1.5492  1.3964  1.0060
 3421SOL     OW21721   4.315   3.626   5.584 -0.2510  0.3635 -0.1226
 3421SOL    HW121722   4.303   3.584   5.669  1.5126 -1.1588 -0.6132
 3421SOL    HW221723   4.321   3.547   5.530 -3.8585  0.5924 -0.8809
 3422SOL     OW21724   3.026   0.481   2.538 -0.0340 -0.3290 -0.2734
 3422SOL    HW121725   2.942   0.452   2.503  0.2699 -0.0780 -1.2160
 3422SOL    HW221726   3.082   0.437   2.473  1.1578  2.1525 -0.9425
 3423SOL     OW21727   0.520   1.273  13.606  0.0582  0.2958  0.5168
 3423SOL    HW121728   0.521   1.207  13.675  2.5399  0.4679  0.6461
 3423SOL    HW221729   0.429   1.270  13.576 -0.0974  1.4755  0.8621
 3424SOL     OW21730   3.340   1.723  13.183  0.4172  0.2097 -0.1140
 3424SOL    HW121731   3.418   1.734  13.238 -1.8018  0.8834  2.8322
 3424SOL    HW221732   3.346   1.805  13.134 -0.2750 -0.5912 -1.5605
 3425SOL     OW21733   2.342   2.029  15.952  0.2716  0.1483 -0.0896
 3425SOL    HW121734   2.384   1.948  15.923  1.5183  0.3832  1.0525
 3425SOL    HW221735   2.412   2.095  15.956 -0.5693  0.9517  1.2484
 3426SOL     OW21736   4.669   0.717   6.400 -0.4868  0.4699  0.3339
 3426SOL    HW121737   0.034   0.685   6.410 -0.8080 -1.2421 -2.3549
 3426SOL    HW221738   4.636   0.705   6.489 -1.7571 -0.4681 -0.2709
 3427SOL     OW21739   1.403   0.510  10.668  0.2136 -0.1164  0.6290
 3427SOL    HW121740   1.402   0.444  10.597 -0.2564  0.3852  0.1742
 3427SOL    HW221741   1.446   0.455  10.734  0.4496 -0.9282 -0.1909
 3428SOL     OW21742   1.369   0.091   0.186  0.0397 -0.2570  0.2966
 3428SOL    HW121743   1.407   0.124   0.105 -0.3996 -1.4128 -0.3814
 3428SOL    HW221744   1.431   0.122   0.252 -0.4406  0.7566  0.2723
 3429SOL     OW21745   2.564   2.030   8.276 -0.0541  0.5654 -0.0571
 3429SOL    HW121746   2.633   2.036   8.342 -1.6836 -1.6638  1.8340
 3429SOL    HW221747   2.544   2.123   8.263  2.5046  1.3158  1.3608
 3430SOL     OW21748   3.697   2.349  14.436 -0.8007  0.3601 -0.4224
 3430SOL    HW121749   3.713   2.443  14.446 -0.9928  0.2254  1.1293
 3430SOL    HW221750   3.697   2.341  14.340  2.1436  0.4641 -0.4204
 3431SOL     OW21751   1.341   0.755  10.709  0.3505 -0.1812 -0.2939
 3431SOL    HW121752   1.253   0.770  10.673  0.6371 -2.5050 -1.9792
 3431SOL    HW221753   1.358   0.665  10.681 -0.3927 -0.4915  0.2511
 3432SOL     OW21754   0.161   1.163   2.984  0.3208  0.0106 -0.4852
 3432SOL    HW121755   0.123   1.082   3.018 -1.4454  0.9863 -0.1302
 3432SOL    HW221756   0.203   1.123   2.908 -1.3584 -1.2508 -0.7577
 3433SOL     OW21757   2.108   1.000   8.489  0.1394 -0.3160  0.0754
 3433SOL    HW121758   2.089   0.985   8.396 -1.6741  1.2764  0.1977
 3433SOL    HW221759   2.029   1.042   8.523  0.6708  0.7686 -0.0590
 3434SOL     OW21760   3.783   0.974   4.807  0.4934  0.3934  0.4821
 3434SOL    HW121761   3.782   0.906   4.740  2.6435 -0.4095  1.2475
 3434SOL    HW221762   3.714   1.024   4.764 -0.9622 -3.3888 -1.5144
 3435SOL     OW21763   4.086   4.453   0.497 -0.4754  0.2336 -0.1429
 3435SOL    HW121764   4.182   4.457   0.491 -0.3356  1.1978  2.6466
 3435SOL    HW221765   4.070   4.371   0.450  0.8996  0.5038 -1.0941
 3436SOL     OW21766   0.527   2.278   5.513  0.5616  0.1986  0.0560
 3436SOL    HW121767   0.538   2.192   5.473 -1.0524 -0.6896  1.5185
 3436SOL    HW221768   0.619   2.305   5.516  1.0934 -1.9183  2.5958
 3437SOL     OW21769   2.026   4.302  13.608 -0.2437  0.0187  0.9939
 3437SOL    HW121770   2.094   4.368  13.620 -0.9563  1.0804 -0.8818
 3437SOL    HW221771   2.074   4.219  13.614  0.9454  0.6237 -0.2905
 3438SOL     OW21772   3.041   0.892   4.406 -0.1275 -0.2254 -0.2178
 3438SOL    HW121773   3.002   0.806   4.389  0.5368 -1.1049  2.8005
 3438SOL    HW221774   3.083   0.912   4.322 -1.5524  0.3637 -0.7770
 3439SOL     OW21775   4.420   4.250   3.772  0.0067 -0.5325 -0.5624
 3439SOL    HW121776   4.497   4.193   3.762 -0.7569 -1.7918  0.6957
 3439SOL    HW221777   4.461   4.334   3.748  0.2250 -0.1013  1.2775
 3440SOL     OW21778   4.561   2.881  14.993  0.2690  0.1474 -0.2466
 3440SOL    HW121779   4.576   2.965  15.035  1.3577  1.3913 -3.0932
 3440SOL    HW221780   4.498   2.912  14.928 -1.2501 -1.9387  0.2210
 3441SOL     OW21781   2.179   4.302   1.291 -0.9407  0.1108  0.1610
 3441SOL    HW121782   2.094   4.330   1.259 -0.8286 -0.4268 -0.6152
 3441SOL    HW221783   2.223   4.387   1.292 -0.5998 -0.0574 -0.8681
 3442SOL     OW21784   0.491   1.472   9.840 -0.3066 -0.0013  0.1088
 3442SOL    HW121785   0.569   1.518   9.871 -1.6744 -0.0235  3.6714
 3442SOL    HW221786   0.444   1.443   9.919 -0.5037 -0.5304 -0.2021
 3443SOL     OW21787   0.135   3.192   7.497  0.6173 -0.1475  0.1359
 3443SOL    HW121788   0.108   3.170   7.408  0.6171  1.4935 -0.2688
 3443SOL    HW221789   0.205   3.254   7.477 -0.5774  1.1587  0.0304
 3444SOL     OW21790   1.758   2.256  15.959  0.0902  0.3238 -0.5654
 3444SOL    HW121791   1.841   2.300  15.939 -0.7033  2.5172  1.1009
 3444SOL    HW221792   1.743   2.272  16.052  0.3306  2.0306 -0.8259
 3445SOL     OW21793   4.493   4.494   3.651 -0.1235  0.4078  0.8593
 3445SOL    HW121794   4.563   4.520   3.591 -0.1338 -1.1977  0.1402
 3445SOL    HW221795   4.442   4.438   3.592  0.6818 -0.4752  0.9911
 3446SOL     OW21796   2.746   3.019   8.310  0.4244 -0.2784  0.1101
 3446SOL    HW121797   2.815   2.961   8.278  0.0147 -2.0537  2.4653
 3446SOL    HW221798   2.758   3.094   8.252  0.3758 -1.0691 -0.9345
 3447SOL     OW21799   0.264   4.542  11.545  0.1897  0.1885  0.1512
 3447SOL    HW121800   0.239   4.590  11.467  0.0691  0.0348  0.0955
 3447SOL    HW221801   0.178   4.509  11.571  0.7321 -0.3358  1.3172
 3448SOL     OW21802   3.932   2.004   2.296 -0.3414  0.4703 -0.1588
 3448SOL    HW121803   3.845   1.969   2.276 -0.7466  0.0316  2.4430
 3448SOL    HW221804   3.990   1.964   2.232  0.4437  0.9191  0.2766
 3449SOL     OW21805   4.364   4.115   4.860 -0.0623  0.4155 -0.4597
 3449SOL    HW121806   4.398   4.152   4.778 -0.3742  1.6253 -0.0434
 3449SOL    HW221807   4.325   4.197   4.891 -0.9096 -1.0786  2.3528
 3450SOL     OW21808   4.013   0.811  17.160  0.3746 -0.1220  0.0093
 3450SOL    HW121809   4.024   0.863  17.240  0.4659  1.3588 -0.9563
 3450SOL    HW221810   3.984   0.725  17.190  2.3396 -0.3195  1.3602
 3451SOL     OW21811   2.397   1.439   1.433 -0.6812  0.3216 -0.5147
 3451SOL    HW121812   2.390   1.359   1.381  1.4042  0.7917 -1.5209
 3451SOL    HW221813   2.432   1.500   1.368  0.4601  1.5429  1.2183
 3452SOL     OW21814   3.303   4.275  12.414 -0.6049 -0.0925 -0.0579
 3452SOL    HW121815   3.261   4.238  12.337 -1.9086  1.1492  0.0360
 3452SOL    HW221816   3.371   4.334  12.382 -1.5658  0.7019 -0.6355
 3453SOL     OW21817   4.365   0.362   7.558 -0.0709  0.5020 -0.1932
 3453SOL    HW121818   4.342   0.455   7.564 -0.0204  0.5249 -0.3340
 3453SOL    HW221819   4.283   0.320   7.583  0.9362 -1.1201  0.3201
 3454SOL     OW21820   4.202   0.250   1.630  0.3467 -0.4399 -0.3450
 3454SOL    HW121821   4.141   0.177   1.629  0.5437 -0.5690 -2.4234
 3454SOL    HW221822   4.206   0.275   1.538  0.2310  0.5898 -0.0701
 3455SOL     OW21823   1.377   3.401   3.137  0.3525 -0.0942  0.3299
 3455SOL    HW121824   1.352   3.359   3.055  2.0846 -3.1555  1.3674
 3455SOL    HW221825   1.350   3.331   3.197 -2.1444  0.7677  0.2020
 3456SOL     OW21826   3.531   4.206   3.287  0.2696  0.5850  0.2983
 3456SOL    HW121827   3.545   4.126   3.338  2.1196 -0.1901 -1.4179
 3456SOL    HW221828   3.582   4.268   3.338 -1.0562  1.7601  0.1771
 3457SOL     OW21829   3.570   1.622   2.006  0.4580 -0.3224  0.0471
 3457SOL    HW121830   3.633   1.689   1.980 -1.3089  1.3073 -0.0212
 3457SOL    HW221831   3.600   1.604   2.095 -0.5475 -0.3888  0.3687
 3458SOL     OW21832   1.011   2.844   9.401 -0.2556  0.2820 -0.2976
 3458SOL    HW121833   1.070   2.911   9.436  1.4658 -0.6984 -1.3537
 3458SOL    HW221834   0.984   2.789   9.475  1.7010  0.6558  0.6869
 3459SOL     OW21835   1.132   0.739   2.753 -0.5668  0.0364  0.0116
 3459SOL    HW121836   1.195   0.677   2.790 -1.3131 -2.1287 -2.3212
 3459SOL    HW221837   1.050   0.735   2.802 -1.0614  1.9050 -0.6687
 3460SOL     OW21838   2.198   3.855   4.121  0.5369 -0.7274 -0.5300
 3460SOL    HW121839   2.228   3.777   4.075 -0.0773 -0.1098 -1.9645
 3460SOL    HW221840   2.131   3.814   4.175  0.4142  1.9377  1.3574
 3461SOL     OW21841   3.723   3.621   6.088 -0.1196 -0.6217 -0.1005
 3461SOL    HW121842   3.736   3.707   6.126  1.3764 -1.7646  1.9644
 3461SOL    HW221843   3.773   3.637   6.008  0.2967 -1.7260 -0.0615
 3462SOL     OW21844   1.649   3.975  16.385 -0.4852 -1.2251 -0.6037
 3462SOL    HW121845   1.744   3.970  16.401 -0.1173 -0.8250 -2.6737
 3462SOL    HW221846   1.628   4.003  16.474 -0.6799 -1.8298 -0.4636
 3463SOL     OW21847   0.397   1.309   6.110 -0.2856  0.0988  0.2164
 3463SOL    HW121848   0.401   1.326   6.016  2.1504 -0.9171  0.1499
 3463SOL    HW221849   0.488   1.280   6.119 -0.6253 -0.4785  1.9062
 3464SOL     OW21850   2.632   1.514   5.855  0.9342 -0.8926 -0.2050
 3464SOL    HW121851   2.721   1.499   5.822  0.6991 -3.4908  0.2958
 3464SOL    HW221852   2.606   1.590   5.803  2.0351  0.5838  1.4387
 3465SOL     OW21853   2.928   0.210   8.657 -0.0772  0.6949 -0.8021
 3465SOL    HW121854   2.959   0.196   8.567  1.8508 -0.4667  0.0402
 3465SOL    HW221855   2.834   0.196   8.647 -0.1976  0.1224  1.3037
 3466SOL     OW21856   1.070   0.145   6.595  0.3821 -0.1494  0.1577
 3466SOL    HW121857   1.070   0.100   6.510 -2.8093  0.8246 -0.3633
 3466SOL    HW221858   0.994   0.108   6.640  0.5041  0.6995  1.0719
 3467SOL     OW21859   3.375   1.982   4.389  0.0072 -0.0929 -0.1502
 3467SOL    HW121860   3.308   2.044   4.358  2.0810  1.9496 -0.5287
 3467SOL    HW221861   3.344   1.896   4.360  1.8112 -0.4648 -0.9710
 3468SOL     OW21862   0.139   0.689   2.513 -0.0703  0.1356 -0.3881
 3468SOL    HW121863   0.234   0.700   2.512 -0.0727  0.2305  0.2305
 3468SOL    HW221864   0.121   0.650   2.598  2.5186 -1.9038 -0.7971
 3469SOL     OW21865   3.860   1.841   7.266  0.2339  0.2495 -0.4683
 3469SOL    HW121866   3.868   1.928   7.305 -0.4105  0.1369 -0.0976
 3469SOL    HW221867   3.765   1.833   7.262  0.2318 -0.5096  1.2117
 3470SOL     OW21868   1.843   1.008  13.262 -0.1685 -0.1249 -0.1749
 3470SOL    HW121869   1.794   1.070  13.315  2.4855  1.9642 -0.1711
 3470SOL    HW221870   1.920   1.063  13.254 -0.1612 -0.0144  0.6355
 3471SOL     OW21871   1.945   3.410   7.235  0.3928  0.1311 -0.0492
 3471SOL    HW121872   1.958   3.385   7.144 -3.5500 -0.3855 -0.4732
 3471SOL    HW221873   2.011   3.360   7.282  0.3872 -0.2628 -0.4645
 3472SOL     OW21874   2.627   1.764   8.139  0.3788  0.3449 -0.1883
 3472SOL    HW121875   2.722   1.765   8.142  0.4263  0.2353 -1.8492
 3472SOL    HW221876   2.598   1.847   8.177  1.0355  0.4417  0.0945
 3473SOL     OW21877   4.256   2.376   2.005  0.0923 -0.0012 -0.3065
 3473SOL    HW121878   4.282   2.442   1.941  0.9781 -0.2333 -0.1798
 3473SOL    HW221879   4.181   2.423   2.042 -0.1120  0.2995 -1.1164
 3474SOL     OW21880   3.891   1.222   4.127  1.1044 -0.0179  1.0277
 3474SOL    HW121881   3.963   1.282   4.147  1.1936 -0.4456  1.9880
 3474SOL    HW221882   3.830   1.281   4.081  2.3111  1.9693  1.9650
 3475SOL     OW21883   2.716   0.384   5.475  0.1128  0.4968  0.3490
 3475SOL    HW121884   2.790   0.357   5.420  1.1538 -0.4589  2.2375
 3475SOL    HW221885   2.699   0.306   5.528  1.3352 -0.5135 -0.7562
 3476SOL     OW21886   0.240   1.659   5.928 -0.6664 -0.2398 -0.1523
 3476SOL    HW121887   0.322   1.673   5.881 -2.3807  3.6538 -1.9202
 3476SOL    HW221888   0.201   1.745   5.914  1.1741  0.3607 -1.5406
 3477SOL     OW21889   1.966   3.447   9.989 -0.5001  0.3323 -0.6111
 3477SOL    HW121890   1.942   3.523  10.042 -1.5662 -0.7414  0.4575
 3477SOL    HW221891   2.003   3.482   9.907 -2.9713  0.5112 -1.6367
 3478SOL     OW21892   3.191   0.931   0.836 -0.0999  0.1576 -0.4909
 3478SOL    HW121893   3.099   0.943   0.815 -0.6090 -1.6702  0.7013
 3478SOL    HW221894   3.213   0.871   0.765  1.9863  3.0240 -2.2587
 3479SOL     OW21895   1.794   2.042   1.467 -0.5913 -0.3199 -0.0002
 3479SOL    HW121896   1.833   2.083   1.544 -0.9481 -0.3784  0.2088
 3479SOL    HW221897   1.717   1.992   1.495 -1.6184  0.2806 -1.7391
 3480SOL     OW21898   0.725   3.645   7.218  0.5865 -0.3215 -0.1180
 3480SOL    HW121899   0.758   3.587   7.149  2.3119 -0.0080  0.4469
 3480SOL    HW221900   0.748   3.593   7.294  1.0487  2.4841  1.6503
 3481SOL     OW21901   1.196   3.866  11.623  0.5963 -0.2087 -0.1638
 3481SOL    HW121902   1.221   3.847  11.533  1.2274 -0.7212  0.1150
 3481SOL    HW221903   1.138   3.793  11.644 -1.8746  2.0391  0.7592
 3482SOL     OW21904   2.975   3.515   2.421  0.2984  0.2817  0.4797
 3482SOL    HW121905   2.960   3.421   2.408 -0.1463  0.6154 -1.5552
 3482SOL    HW221906   2.890   3.553   2.398  1.8350  0.9885 -4.1653
 3483SOL     OW21907   1.743   1.393   6.131  0.0722  0.5026 -0.0829
 3483SOL    HW121908   1.832   1.421   6.155  0.0741 -0.7332  1.3532
 3483SOL    HW221909   1.697   1.475   6.150 -1.3637 -0.5133  0.7406
 3484SOL     OW21910   3.763   1.536   0.401  0.2528 -0.2067 -0.3006
 3484SOL    HW121911   3.769   1.475   0.327  1.2795 -0.7951  0.2659
 3484SOL    HW221912   3.858   1.543   0.409  0.0042  2.1210  0.7289
 3485SOL     OW21913   3.922   3.235   3.931 -0.0305  0.0667 -0.5118
 3485SOL    HW121914   3.941   3.153   3.976  1.1389 -0.0031 -1.1462
 3485SOL    HW221915   4.001   3.258   3.881  1.6646  0.7334  2.4902
 3486SOL     OW21916   1.061   2.046   8.687 -0.2806 -0.3389 -0.1090
 3486SOL    HW121917   1.148   2.026   8.653  1.3199  0.3503  3.6129
 3486SOL    HW221918   1.062   2.138   8.711  1.8795 -0.0441 -1.3617
 3487SOL     OW21919   0.765   4.406  13.378 -0.4003  0.2676  0.2018
 3487SOL    HW121920   0.681   4.432  13.417 -0.1378  0.2123  0.7894
 3487SOL    HW221921   0.811   4.370  13.453 -2.3081 -2.6695 -0.0291
 3488SOL     OW21922   1.117   3.789  11.944  0.0481 -0.0578  0.5845
 3488SOL    HW121923   1.201   3.743  11.939  1.2751  2.4650 -2.0364
 3488SOL    HW221924   1.074   3.748  12.019  0.2165  0.1171  0.7798
 3489SOL     OW21925   0.756   2.546   6.808  0.5470 -0.0396  0.2642
 3489SOL    HW121926   0.743   2.530   6.901  1.0020 -0.8023  0.2004
 3489SOL    HW221927   0.667   2.573   6.784  0.1911  0.5229  2.2494
 3490SOL     OW21928   2.653   2.514  13.760 -0.3457 -0.7529 -0.0346
 3490SOL    HW121929   2.699   2.481  13.683 -0.2778 -2.3973  0.7119
 3490SOL    HW221930   2.565   2.477  13.752 -1.3322  1.6777 -0.6099
 3491SOL     OW21931   0.346   2.570   2.411  0.4940  0.1819  0.0939
 3491SOL    HW121932   0.267   2.588   2.360  0.0875 -2.2765 -0.1487
 3491SOL    HW221933   0.395   2.640   2.369  0.4541 -0.6924 -1.4148
 3492SOL     OW21934   2.598   0.109  10.941  0.1624  0.3478 -0.5923
 3492SOL    HW121935   2.609   0.179  11.006 -0.1740 -0.0095 -0.1432
 3492SOL    HW221936   2.674   0.126  10.886  0.9527 -2.1407 -0.2617
 3493SOL     OW21937   1.362   0.154   5.749  0.4603  0.2161 -0.1704
 3493SOL    HW121938   1.432   0.217   5.733  0.9306 -0.2191  0.1932
 3493SOL    HW221939   1.339   0.133   5.659  1.9175  1.4047 -0.8132
 3494SOL     OW21940   2.255   4.271   6.566  0.0665 -0.1962 -0.5741
 3494SOL    HW121941   2.341   4.233   6.584 -0.0299 -0.3694 -0.4691
 3494SOL    HW221942   2.276   4.364   6.566 -2.9355  0.4788 -1.5572
 3495SOL     OW21943   4.419   0.106   1.719 -0.2987  0.0357 -0.0217
 3495SOL    HW121944   4.425   0.167   1.793 -0.7608 -0.6778  0.6063
 3495SOL    HW221945   4.362   0.149   1.656 -0.9023 -0.0514  0.4624
 3496SOL     OW21946   2.719   4.592   5.619  0.4370 -0.1895 -0.3041
 3496SOL    HW121947   2.777   4.516   5.605  2.2565  0.5705  3.0234
 3496SOL    HW221948   2.676   4.578   5.703 -0.2398 -2.2277 -0.9997
 3497SOL     OW21949   1.326   1.997   4.370  0.3562  0.3513  0.3809
 3497SOL    HW121950   1.379   1.934   4.419 -0.4914 -0.0536  0.7773
 3497SOL    HW221951   1.240   1.968   4.399  0.1985 -1.2699 -1.6976
 3498SOL     OW21952   2.107   2.603   2.197  0.2749 -0.3385 -0.1184
 3498SOL    HW121953   2.160   2.524   2.198  3.1540  1.6063  1.4377
 3498SOL    HW221954   2.078   2.600   2.288 -2.0294 -2.1228 -0.9122
 3499SOL     OW21955   0.915   0.722   2.933  0.4458  0.3487 -0.2617
 3499SOL    HW121956   0.835   0.679   2.961  0.1522  0.2835 -1.2144
 3499SOL    HW221957   0.949   0.764   3.013  0.5939 -0.9363  0.3549
 3500SOL     OW21958   1.535   4.104   7.054  0.8006  0.3622  0.0613
 3500SOL    HW121959   1.517   4.128   6.963 -1.6806  0.1110  0.4916
 3500SOL    HW221960   1.613   4.158   7.070 -0.1117  1.8405 -0.4918
 3501SOL     OW21961   0.961   2.518  10.525  0.2863  0.1571  0.6569
 3501SOL    HW121962   0.969   2.612  10.537  4.4750 -0.1514  0.5169
 3501SOL    HW221963   1.013   2.513  10.445 -1.0725 -0.8715 -0.1646
 3502SOL     OW21964   4.439   2.153  11.018  0.0992 -0.0421  0.0076
 3502SOL    HW121965   4.485   2.201  10.950  0.0830 -0.4356 -0.2839
 3502SOL    HW221966   4.474   2.064  11.017  1.5897  0.5007  2.6913
 3503SOL     OW21967   1.030   3.679  11.714 -0.5938 -0.1318  0.1294
 3503SOL    HW121968   1.057   3.587  11.721 -0.2313 -0.3013 -3.2395
 3503SOL    HW221969   1.063   3.715  11.796 -2.3598  0.3768  0.5949
 3504SOL     OW21970   2.196   0.843   6.737 -0.2653 -0.1286 -0.2512
 3504SOL    HW121971   2.107   0.818   6.763 -0.1669  0.0980  0.2894
 3504SOL    HW221972   2.189   0.840   6.642  0.2806  0.7214 -0.3188
 3505SOL     OW21973   2.632   3.025   7.024  0.2317 -0.3648 -0.2910
 3505SOL    HW121974   2.578   2.991   6.953  0.3666  0.6407 -0.8809
 3505SOL    HW221975   2.661   2.947   7.071 -0.7204  0.2853  1.3925
 3506SOL     OW21976   2.273   4.319   7.999 -0.6063  0.1866 -0.2928
 3506SOL    HW121977   2.253   4.251   8.063  0.2930 -1.5537 -1.8707
 3506SOL    HW221978   2.368   4.309   8.005 -0.4874  3.2877  2.9478
 3507SOL     OW21979   1.366   3.637   6.496 -0.2807  0.2698  0.3356
 3507SOL    HW121980   1.450   3.625   6.541 -0.9818 -1.8922  1.0962
 3507SOL    HW221981   1.321   3.695   6.557 -0.5208 -0.3445  0.7459
 3508SOL     OW21982   3.656   2.735   0.918 -0.1838  0.0309  0.1514
 3508SOL    HW121983   3.563   2.756   0.923 -0.2841 -0.2035 -0.8396
 3508SOL    HW221984   3.677   2.781   0.999  1.3873  0.7068 -0.6415
 3509SOL     OW21985   0.420   3.987   8.756  0.8964  0.4317  0.5801
 3509SOL    HW121986   0.502   3.973   8.804  0.5534  0.1033  1.0801
 3509SOL    HW221987   0.385   4.063   8.803 -2.1216 -2.0514  2.3513
 3510SOL     OW21988   4.066   2.386   6.680  0.1958  0.0869  0.1803
 3510SOL    HW121989   3.992   2.391   6.740  0.6822 -0.8507  0.8574
 3510SOL    HW221990   4.025   2.407   6.596  0.8210  1.1583  0.1380
 3511SOL     OW21991   2.050   3.936  17.351  0.5489  0.6354 -0.0363
 3511SOL    HW121992   2.081   3.906  17.437  0.0431  0.5685  0.1235
 3511SOL    HW221993   2.033   4.026  17.380  1.8516  0.8451  0.0857
 3512SOL     OW21994   3.200   4.699   0.095  0.2020 -0.2692  0.1768
 3512SOL    HW121995   3.271   4.695   0.032 -0.9223  4.3170 -1.3455
 3512SOL    HW221996   3.224   0.044   0.156  2.2746  1.9339 -3.1728
 3513SOL     OW21997   2.591   0.389   6.379  0.1389 -0.1311 -0.3953
 3513SOL    HW121998   2.597   0.294   6.374  2.7994 -0.0704  2.0720
 3513SOL    HW221999   2.661   0.414   6.439  0.4764  0.3582 -0.9954
 3514SOL     OW22000   0.072   4.348   5.186 -0.5616 -0.2598 -0.1781
 3514SOL    HW122001   0.107   4.392   5.264  0.7701  2.0928 -2.1180
 3514SOL    HW222002   0.090   4.257   5.209  0.3861  0.1633  0.7237
 3515SOL     OW22003   1.081   2.429   2.722 -0.2716  0.2611  0.5770
 3515SOL    HW122004   1.012   2.428   2.789 -0.4643 -4.2734  0.3042
 3515SOL    HW222005   1.033   2.420   2.640  1.2824  0.7186 -0.3909
 3516SOL     OW22006   4.296   2.940  16.807  0.1572 -0.2160  0.2352
 3516SOL    HW122007   4.232   2.870  16.795 -0.8989  0.4087  2.1741
 3516SOL    HW222008   4.349   2.926  16.729  0.0161 -0.6386  0.2162
 3517SOL     OW22009   0.125   0.194   3.392 -0.3333 -0.0445  0.3555
 3517SOL    HW122010   0.100   0.233   3.476 -0.9814  0.8680 -0.2576
 3517SOL    HW222011   0.147   0.272   3.341 -0.9458  0.3850  0.7561
 3518SOL     OW22012   1.066   3.158   7.839 -0.1555 -0.1466  0.6212
 3518SOL    HW122013   1.065   3.065   7.816  0.9388 -0.4093  1.6697
 3518SOL    HW222014   1.137   3.189   7.784  1.7858 -1.0105  2.6264
 3519SOL     OW22015   1.504   1.234   1.303  0.1396 -0.0953 -0.5992
 3519SOL    HW122016   1.460   1.314   1.333  0.0461 -0.4664  0.2678
 3519SOL    HW222017   1.438   1.170   1.277  1.3473 -1.2694 -0.7844
 3520SOL     OW22018   2.702   1.522  17.343  0.0078 -1.0388  0.2177
 3520SOL    HW122019   2.658   1.437  17.352 -1.3520 -0.5570 -1.7246
 3520SOL    HW222020   2.747   1.521  17.427  0.4138 -0.3945  0.0097
 3521SOL     OW22021   4.535   0.736   8.248 -0.4886 -0.1870  0.0311
 3521SOL    HW122022   4.478   0.712   8.175  1.6025 -0.7400 -1.4063
 3521SOL    HW222023   4.618   0.741   8.201  0.1682 -0.1828  1.1926
 3522SOL     OW22024   3.043   1.894  13.965 -0.3749  0.5940 -0.4791
 3522SOL    HW122025   3.096   1.909  13.886  1.5914 -0.0517  0.7224
 3522SOL    HW222026   2.958   1.877  13.924 -1.4984 -0.4747  2.3297
 3523SOL     OW22027   1.064   3.967  13.869  0.0167 -0.4858  0.3793
 3523SOL    HW122028   1.026   3.893  13.822 -0.5731 -0.3737  0.6791
 3523SOL    HW222029   1.151   3.928  13.876  0.6704  0.8832 -0.1072
 3524SOL     OW22030   2.477   3.889  10.239 -0.2631 -0.3851 -0.3055
 3524SOL    HW122031   2.449   3.814  10.186 -2.3397 -0.3059  0.6620
 3524SOL    HW222032   2.570   3.866  10.243 -0.2807 -0.6834 -1.6815
 3525SOL     OW22033   1.633   0.255   8.000 -0.0560 -0.1535  0.3110
 3525SOL    HW122034   1.669   0.179   8.045  0.6436  1.4364  2.4686
 3525SOL    HW222035   1.623   0.318   8.072 -0.0458 -0.4261  0.5531
 3526SOL     OW22036   0.338   2.137   2.289 -0.3030  0.0313  0.2328
 3526SOL    HW122037   0.303   2.091   2.365 -0.1178  0.6689  0.7075
 3526SOL    HW222038   0.363   2.075   2.220 -0.5354 -1.3500  1.3955
 3527SOL     OW22039   1.372   2.508   2.359 -0.4521 -0.3551  0.3875
 3527SOL    HW122040   1.278   2.506   2.345 -0.4465 -0.3185  0.3439
 3527SOL    HW222041   1.380   2.603   2.362 -2.0457 -0.1933 -0.5741
 3528SOL     OW22042   4.611   2.386   8.487  0.6924 -0.1549  0.5392
 3528SOL    HW122043   4.596   2.472   8.526 -0.2555  0.2480 -0.7066
 3528SOL    HW222044   4.524   2.376   8.448  2.3386 -0.1899 -3.0646
 3529SOL     OW22045   4.610   2.722   3.628  0.1608 -0.3791  0.1478
 3529SOL    HW122046   4.543   2.784   3.597  1.3034  0.8768  0.1748
 3529SOL    HW222047   4.686   2.748   3.575 -0.4141  2.4165  0.6861
 3530SOL     OW22048   2.603   2.079   1.791 -0.0482 -0.1828  0.1191
 3530SOL    HW122049   2.533   2.020   1.819 -1.6735  2.4802  1.7059
 3530SOL    HW222050   2.550   2.157   1.774 -2.2314 -1.5715  0.4771
 3531SOL     OW22051   4.551   3.013   3.285  0.0841 -0.0913  0.1578
 3531SOL    HW122052   4.616   3.019   3.354  0.5487 -0.8283 -0.2146
 3531SOL    HW222053   4.492   3.084   3.309  0.6917  0.7124 -0.7273
 3532SOL     OW22054   1.707   2.492   5.019 -0.6713  1.0932  0.4656
 3532SOL    HW122055   1.660   2.468   5.100 -1.2448 -2.0344 -0.8119
 3532SOL    HW222056   1.668   2.578   5.004 -2.8494 -0.1795 -1.2319
 3533SOL     OW22057   2.213   1.067  16.942 -0.0790 -0.6278 -0.1360
 3533SOL    HW122058   2.176   1.149  16.975 -2.3490 -1.1475 -1.3798
 3533SOL    HW222059   2.162   1.058  16.862 -1.7554 -0.5604  0.9270
 3534SOL     OW22060   0.482   1.624   4.737  0.0798  0.6612  0.3203
 3534SOL    HW122061   0.482   1.698   4.677  0.5857 -0.4673 -1.0772
 3534SOL    HW222062   0.518   1.657   4.819  0.1326 -1.7227  1.2772
 3535SOL     OW22063   0.094   4.061  13.886  0.5080 -0.2209 -0.4216
 3535SOL    HW122064   0.121   3.973  13.859 -1.5785 -1.3981  1.3933
 3535SOL    HW222065   0.003   4.049  13.914  0.6818 -0.2424  0.1214
 3536SOL     OW22066   4.114   3.262   9.026 -0.3374  0.4120 -0.5676
 3536SOL    HW122067   4.171   3.204   8.976 -1.1736 -1.2994  0.4946
 3536SOL    HW222068   4.167   3.313   9.087 -0.5428 -1.0800  0.8486
 3537SOL     OW22069   0.288   0.196   2.218 -0.1159  0.3133  0.9906
 3537SOL    HW122070   0.359   0.244   2.261  0.1812  0.3873  0.4210
 3537SOL    HW222071   0.222   0.225   2.280  1.6256  1.5598  2.2532
 3538SOL     OW22072   3.979   3.588   5.596  0.7279  0.1488 -0.0314
 3538SOL    HW122073   4.055   3.645   5.609 -0.3831  1.4518  0.6602
 3538SOL    HW222074   4.001   3.520   5.660 -1.3070  1.0469  1.5895
 3539SOL     OW22075   1.262   0.319  14.121  0.6882 -0.2504 -0.1805
 3539SOL    HW122076   1.296   0.277  14.200 -0.1682  1.3918  1.0473
 3539SOL    HW222077   1.219   0.241  14.084 -0.4482 -0.0262  0.6486
 3540SOL     OW22078   1.503   1.008   9.391 -0.0912  0.6974 -0.3183
 3540SOL    HW122079   1.474   0.932   9.442 -2.0516  0.1551 -2.2429
 3540SOL    HW222080   1.591   0.976   9.372 -0.5262 -0.8112  0.1625
 3541SOL     OW22081   0.302   2.254   9.363  0.1167  0.4781  0.4541
 3541SOL    HW122082   0.300   2.244   9.268 -1.0637  2.0311  0.3078
 3541SOL    HW222083   0.387   2.294   9.378  0.4454 -0.4854  1.1637
 3542SOL     OW22084   1.733   1.933  11.953  0.0041 -0.2183 -0.1024
 3542SOL    HW122085   1.681   1.953  11.875 -1.5401  1.7590  1.4377
 3542SOL    HW222086   1.794   2.006  11.944  0.8493 -0.8021  0.8552
 3543SOL     OW22087   1.684   3.028  12.085  0.4846 -0.0311 -0.2369
 3543SOL    HW122088   1.602   3.039  12.131  2.0927  2.3184  2.0986
 3543SOL    HW222089   1.653   3.048  11.996  0.7436  1.3497 -0.0246
 3544SOL     OW22090   3.591   1.709   8.199  0.1283 -0.0432 -0.2407
 3544SOL    HW122091   3.497   1.693   8.193  0.4304 -1.2857 -1.6532
 3544SOL    HW222092   3.597   1.803   8.213 -4.0557  0.0822  0.7828
 3545SOL     OW22093   0.280   1.996   5.013 -0.1151 -0.6023  0.8781
 3545SOL    HW122094   0.232   1.919   5.042 -1.7177  0.2794  0.5486
 3545SOL    HW222095   0.321   2.027   5.094 -1.5330  1.1476  0.9217
 3546SOL     OW22096   2.254   1.767   2.240 -0.4391 -0.1917  0.1131
 3546SOL    HW122097   2.339   1.751   2.198 -0.6285 -1.0267  0.0524
 3546SOL    HW222098   2.262   1.721   2.324  0.6597 -3.1008 -1.5662
 3547SOL     OW22099   4.224   4.470   8.790 -1.0407 -0.0926 -0.0907
 3547SOL    HW122100   4.258   4.492   8.703 -0.0538 -2.3296 -0.2686
 3547SOL    HW222101   4.202   4.555   8.827  2.7276  1.8002 -2.2201
 3548SOL     OW22102   1.026   1.705   5.007  0.0972  0.2186 -0.1513
 3548SOL    HW122103   1.069   1.708   5.093 -0.2765 -0.7099  0.0665
 3548SOL    HW222104   1.083   1.650   4.954 -0.4186  1.1949 -1.7212
 3549SOL     OW22105   4.078   2.557   2.130  0.0426 -0.1393 -0.4579
 3549SOL    HW122106   4.006   2.519   2.180 -3.4234  4.4819 -1.9566
 3549SOL    HW222107   4.051   2.647   2.114  2.1242  0.2817 -1.5340
 3550SOL     OW22108   0.963   0.424  13.011 -0.5621 -0.9427  0.0290
 3550SOL    HW122109   0.870   0.409  12.994 -0.5695 -1.2578  0.3539
 3550SOL    HW222110   0.992   0.437  12.921 -1.4655  0.6399 -0.0339
 3551SOL     OW22111   0.398   3.042   1.044  0.1310 -0.2754 -0.1186
 3551SOL    HW122112   0.386   3.134   1.069  0.9810 -0.6606  1.7145
 3551SOL    HW222113   0.439   3.008   1.124  1.2102 -1.9166 -1.3655
 3552SOL     OW22114   0.272   4.673  15.448 -0.1417 -0.0281  0.0785
 3552SOL    HW122115   0.309   4.672  15.360 -1.3247 -2.8626 -0.3615
 3552SOL    HW222116   0.183   4.700  15.426 -0.8514 -2.7933 -0.3921
 3553SOL     OW22117   1.866   3.106   9.195  0.2038  0.0581  0.6860
 3553SOL    HW122118   1.818   3.036   9.240 -1.6831 -0.0396 -1.4655
 3553SOL    HW222119   1.875   3.081   9.103 -2.0497  0.5694  0.3272
 3554SOL     OW22120   2.607   4.214   5.962  0.2116  0.2418  0.6262
 3554SOL    HW122121   2.586   4.138   6.015 -1.1860  0.6983  0.7180
 3554SOL    HW222122   2.691   4.183   5.927  0.6465  1.5444  0.5289
 3555SOL     OW22123   2.123   4.117   4.287  0.4052  0.1370  0.4731
 3555SOL    HW122124   2.142   4.195   4.236  0.6273  0.5839  1.2284
 3555SOL    HW222125   2.208   4.080   4.311  0.4349  0.5070  0.9573
 3556SOL     OW22126   1.455   2.295  16.068  0.0465  0.6765 -0.6388
 3556SOL    HW122127   1.420   2.236  16.000  0.1096 -0.5100  0.3617
 3556SOL    HW222128   1.507   2.357  16.017 -1.2525  2.5812  0.3376
 3557SOL     OW22129   4.249   0.694  16.080 -0.0365  0.2841  0.3777
 3557SOL    HW122130   4.341   0.677  16.062  0.0426 -0.9505  1.9736
 3557SOL    HW222131   4.225   0.765  16.020  0.1378 -0.6998 -0.8399
 3558SOL     OW22132   4.689   2.730   8.937 -0.2971  0.2217  0.4472
 3558SOL    HW122133   4.707   2.637   8.924 -0.6887  0.0789  0.9351
 3558SOL    HW222134   0.046   2.770   8.965  0.1519 -0.4934  0.1519
 3559SOL     OW22135   0.882   3.410   9.626 -0.4019  0.2246  0.5283
 3559SOL    HW122136   0.823   3.484   9.610 -1.4192 -0.2820  1.9534
 3559SOL    HW222137   0.967   3.453   9.623 -0.7838  0.9322 -0.0879
 3560SOL     OW22138   1.973   4.700   2.759 -0.0723  0.2316 -0.0058
 3560SOL    HW122139   1.986   4.661   2.672 -0.7058 -1.2890  0.5854
 3560SOL    HW222140   1.886   4.666   2.781 -0.1360  0.0420 -0.5494
 3561SOL     OW22141   1.860   0.905  17.692 -0.0621 -0.4906 -0.8225
 3561SOL    HW122142   1.938   0.874   0.038 -0.8108  0.5275  1.1128
 3561SOL    HW222143   1.820   0.956   0.062  1.1245 -0.9147  0.1532
 3562SOL     OW22144   3.017   4.000   4.677  0.1619  0.4663  0.1823
 3562SOL    HW122145   2.939   3.976   4.626  1.4981 -0.6727 -1.3580
 3562SOL    HW222146   2.975   4.042   4.752  0.7782  0.6233  0.4420
 3563SOL     OW22147   1.756   3.294  15.059  0.0836 -0.0760 -0.2213
 3563SOL    HW122148   1.765   3.208  15.100 -0.4060  0.2978  0.6831
 3563SOL    HW222149   1.666   3.312  15.088 -0.9862 -1.1744 -2.8567
 3564SOL     OW22150   0.269   1.087   2.730  0.1924 -0.1747 -0.2584
 3564SOL    HW122151   0.217   1.094   2.650  2.8983  5.1266 -1.5267
 3564SOL    HW222152   0.337   1.149   2.705  0.4770 -0.7638 -0.9461
 3565SOL     OW22153   2.397   1.491   3.797  0.0738 -0.2264 -0.0422
 3565SOL    HW122154   2.330   1.556   3.815 -2.1146 -2.0234 -1.5666
 3565SOL    HW222155   2.381   1.422   3.862 -0.0658  0.1090  0.2764
 3566SOL     OW22156   3.409   3.629  11.187  0.6140  0.0576 -0.0649
 3566SOL    HW122157   3.357   3.707  11.204 -2.1846 -1.1299 -3.2380
 3566SOL    HW222158   3.459   3.611  11.267 -0.9977  0.5757  1.0542
 3567SOL     OW22159   1.917   1.152   7.823 -0.1016  0.1318  0.3165
 3567SOL    HW122160   2.003   1.160   7.865  0.2126  0.1741 -0.3389
 3567SOL    HW222161   1.929   1.067   7.780  1.8421 -0.9456  2.9348
 3568SOL     OW22162   2.208   1.060   6.048  0.0217  0.8009 -0.0505
 3568SOL    HW122163   2.292   1.071   6.005  0.1392 -0.6848 -0.2010
 3568SOL    HW222164   2.197   0.966   6.064 -0.8908  0.7054 -1.1623
 3569SOL     OW22165   3.011   1.787  17.001 -0.9333  0.1992  0.2703
 3569SOL    HW122166   2.984   1.696  17.014  2.0124 -0.7425 -0.2610
 3569SOL    HW222167   2.938   1.831  16.957 -0.8769 -1.1601 -1.1650
 3570SOL     OW22168   4.012   4.345  14.947  0.2145  0.1167  0.7332
 3570SOL    HW122169   4.014   4.429  14.994  1.1588  1.0356 -0.9259
 3570SOL    HW222170   4.103   4.316  14.950  0.3075  0.1374 -1.8310
 3571SOL     OW22171   0.024   1.587   6.950  0.3402  0.1350  0.0229
 3571SOL    HW122172   0.070   1.529   6.889  2.5084  0.5040  1.3135
 3571SOL    HW222173   4.657   1.570   6.929  0.4314 -2.4704  1.7357
 3572SOL     OW22174   1.722   0.347  14.891  0.3281 -0.1460  0.7408
 3572SOL    HW122175   1.706   0.255  14.873  1.3778 -0.1077 -0.3774
 3572SOL    HW222176   1.815   0.355  14.910  0.1450  0.1660  1.5375
 3573SOL     OW22177   4.478   1.642   2.784  0.2550  0.0111 -0.2716
 3573SOL    HW122178   4.567   1.677   2.779  0.2126 -0.0505 -1.5816
 3573SOL    HW222179   4.482   1.575   2.716  2.7074 -0.1468  0.0103
 3574SOL     OW22180   2.979   4.136   4.185  0.0971 -0.3661  0.3074
 3574SOL    HW122181   3.038   4.066   4.211 -0.0567 -0.7236 -0.2924
 3574SOL    HW222182   2.975   4.117   4.091  0.1856  0.2173  0.1856
 3575SOL     OW22183   2.453   3.457  14.339 -0.0268  0.2052  0.2253
 3575SOL    HW122184   2.446   3.425  14.250 -0.4029  1.9271 -0.3534
 3575SOL    HW222185   2.359   3.460  14.355  0.3012 -1.3837  2.6736
 3576SOL     OW22186   3.327   4.684   3.425  0.2531  0.7777 -0.4402
 3576SOL    HW122187   3.309   4.601   3.468  0.3487  0.4232 -1.0886
 3576SOL    HW222188   3.397   4.722   3.478  0.4250 -0.5684  0.2810
 3577SOL     OW22189   3.218   1.125   6.573 -0.4870 -0.9585 -0.5961
 3577SOL    HW122190   3.215   1.070   6.651 -0.0888  0.3761  0.3588
 3577SOL    HW222191   3.307   1.106   6.544  0.5474  1.1081  1.2547
 3578SOL     OW22192   1.461   3.871   3.221  0.1665  0.4018  0.5039
 3578SOL    HW122193   1.504   3.796   3.261 -0.4499  1.0134  2.3413
 3578SOL    HW222194   1.372   3.839   3.205 -0.2689  2.4466 -1.1381
 3579SOL     OW22195   4.461   0.600   3.150 -0.1841 -0.1017  0.1957
 3579SOL    HW122196   4.420   0.655   3.217 -1.0025 -1.7522  1.0526
 3579SOL    HW222197   4.391   0.559   3.099  0.1980  1.1609 -1.3341
 3580SOL     OW22198   3.942   4.373  15.794  0.2819  0.3418  0.1740
 3580SOL    HW122199   3.894   4.439  15.744 -0.2723 -1.8762 -2.1802
 3580SOL    HW222200   3.989   4.327  15.725  1.1441  0.7748  0.4720
 3581SOL     OW22201   0.476   2.917   5.539 -0.0402 -0.3347  0.3356
 3581SOL    HW122202   0.490   2.939   5.447  1.1382 -0.2916  0.5254
 3581SOL    HW222203   0.492   2.993   5.595 -0.3684  0.3197 -0.4590
 3582SOL     OW22204   1.224   0.963   3.704 -0.3366  0.0342  0.1230
 3582SOL    HW122205   1.182   0.956   3.789 -1.2455  0.7000 -0.2788
 3582SOL    HW222206   1.305   0.919   3.731 -0.1737  1.8259  2.5415
 3583SOL     OW22207   4.081   2.166   9.143 -0.0096  0.3095 -0.3345
 3583SOL    HW122208   4.102   2.074   9.160  2.0698  1.1177  1.4044
 3583SOL    HW222209   4.165   2.212   9.144 -0.3001  0.8106  0.7293
 3584SOL     OW22210   0.945   1.649   2.875  0.5627  0.1327 -0.4381
 3584SOL    HW122211   0.876   1.592   2.840  0.8919 -0.6537  0.1918
 3584SOL    HW222212   0.990   1.593   2.939 -3.0481  0.9456  2.7687
 3585SOL     OW22213   3.504   0.316   8.115 -0.5595 -0.1251  0.4186
 3585SOL    HW122214   3.544   0.403   8.119  0.2234 -0.4688  0.1391
 3585SOL    HW222215   3.511   0.288   8.024 -3.9612  1.5820 -0.3698
 3586SOL     OW22216   3.154   4.195  15.900 -0.0480 -0.2016  0.4329
 3586SOL    HW122217   3.157   4.240  15.985 -1.2357  0.1693  0.2654
 3586SOL    HW222218   3.248   4.181  15.886  0.2254  0.8523  1.2174
 3587SOL     OW22219   2.772   2.958   4.926 -0.1491 -0.0205 -0.0899
 3587SOL    HW122220   2.701   3.012   4.960  1.0517  0.5110  1.5730
 3587SOL    HW222221   2.842   2.967   4.990 -1.3884 -1.8136  1.5312
 3588SOL     OW22222   0.716   1.245   3.569 -0.7500 -0.3066 -0.3868
 3588SOL    HW122223   0.734   1.317   3.629  0.2664  0.8155 -2.0665
 3588SOL    HW222224   0.660   1.292   3.508 -0.2882  0.4556 -0.2178
 3589SOL     OW22225   3.818   0.682   7.088 -0.3288 -0.1530 -0.6034
 3589SOL    HW122226   3.728   0.687   7.056  0.2729  0.3351 -2.2251
 3589SOL    HW222227   3.807   0.743   7.161  3.3134 -0.2261  0.0404
 3590SOL     OW22228   1.906   1.830   7.679 -0.7061  0.0230 -0.1757
 3590SOL    HW122229   1.961   1.815   7.755 -1.8804 -1.9497  0.2849
 3590SOL    HW222230   1.907   1.922   7.652  0.9167  0.3331  0.9806
 3591SOL     OW22231   0.326   1.337   7.257  0.4612  0.1159  0.1115
 3591SOL    HW122232   0.234   1.364   7.263  0.0841 -0.6379 -2.1180
 3591SOL    HW222233   0.343   1.303   7.345 -0.7691 -0.7177  0.0272
 3592SOL     OW22234   4.658   0.611   4.448 -0.0673 -0.0710 -1.0464
 3592SOL    HW122235   0.026   0.587   4.456  0.1581  0.6553 -1.5680
 3592SOL    HW222236   4.635   0.633   4.539 -3.6937 -0.7901 -1.8192
 3593SOL     OW22237   0.394   2.103  11.244  0.3236 -0.2080 -0.0037
 3593SOL    HW122238   0.401   2.053  11.326 -1.4023  1.2706  1.0656
 3593SOL    HW222239   0.484   2.135  11.249 -0.1803  1.3877 -1.4130
 3594SOL     OW22240   0.575   0.299   5.990  0.9929 -0.1011  0.1412
 3594SOL    HW122241   0.670   0.295   5.980  1.2038  1.9566  1.4582
 3594SOL    HW222242   0.562   0.244   6.068  0.0445 -0.2833 -0.1476
 3595SOL     OW22243   4.301   2.200   6.063  0.0575  0.1502 -0.0276
 3595SOL    HW122244   4.291   2.294   6.049 -0.1236  0.0646 -0.4603
 3595SOL    HW222245   4.308   2.170   5.973  0.2889  1.7156 -0.5446
 3596SOL     OW22246   4.038   4.407   1.020 -0.1930  0.3443 -0.3793
 3596SOL    HW122247   4.105   4.341   1.038 -1.3354 -0.2169  1.8944
 3596SOL    HW222248   4.029   4.386   0.927 -0.8288 -1.3006  0.0394
 3597SOL     OW22249   2.743   4.113   4.801  0.3683 -0.1732  1.0197
 3597SOL    HW122250   2.686   4.170   4.751 -0.6363 -0.2349  2.0956
 3597SOL    HW222251   2.686   4.036   4.798 -0.5661  0.6454 -1.8704
 3598SOL     OW22252   3.073   0.898  17.592 -0.3139 -0.4364 -0.1574
 3598SOL    HW122253   3.066   0.834  17.662 -0.6464 -0.1671  0.0517
 3598SOL    HW222254   3.070   0.842  17.514 -2.9227 -2.2650  1.2709
 3599SOL     OW22255   2.751   1.063   2.109 -0.1856 -0.4611 -0.2632
 3599SOL    HW122256   2.658   1.084   2.121 -0.4936 -0.9469 -1.7249
 3599SOL    HW222257   2.749   1.082   2.015  2.2057 -0.4216 -0.3016
 3600SOL     OW22258   1.239   0.951  13.810  0.3469  0.6099 -0.1601
 3600SOL    HW122259   1.289   0.873  13.835  0.9492  0.8352 -0.6731
 3600SOL    HW222260   1.276   1.007  13.879  3.9851  0.3370 -1.8562
 3601SOL     OW22261   2.377   1.065   1.700 -1.0295 -0.1655  0.7074
 3601SOL    HW122262   2.405   1.155   1.716  2.8117 -0.7400 -2.8470
 3601SOL    HW222263   2.289   1.064   1.738 -0.9130 -1.2037  0.9399
 3602SOL     OW22264   1.422   1.685   1.554  0.7240  0.2267 -0.3090
 3602SOL    HW122265   1.473   1.743   1.611 -1.5939  2.1846 -0.2462
 3602SOL    HW222266   1.391   1.741   1.483 -0.6691  2.1345  1.8142
 3603SOL     OW22267   4.143   3.818   5.723 -0.5818  0.2945 -0.4564
 3603SOL    HW122268   4.064   3.800   5.775 -1.1270  2.5973 -0.4984
 3603SOL    HW222269   4.199   3.880   5.770 -1.2058 -0.7313  1.6587
 3604SOL     OW22270   4.148   0.976   4.272  0.0889 -0.1022 -0.0002
 3604SOL    HW122271   4.161   0.969   4.178 -0.2269  0.8236 -0.1170
 3604SOL    HW222272   4.135   0.885   4.299 -1.7458  0.8535  2.3664
 3605SOL     OW22273   4.181   0.070   3.475 -0.0796  0.1171 -0.0596
 3605SOL    HW122274   4.260   0.120   3.496 -1.4057  1.7010  1.1093
 3605SOL    HW222275   4.126   0.143   3.450 -0.7493 -1.1572 -2.3117
 3606SOL     OW22276   1.334   2.753   1.212  0.0203  0.0927 -0.1839
 3606SOL    HW122277   1.353   2.847   1.212 -0.0856  0.1071  2.2542
 3606SOL    HW222278   1.421   2.714   1.222  0.1010  0.4777  0.5829
 3607SOL     OW22279   4.648   1.257   6.451 -0.0986  0.3260  0.7555
 3607SOL    HW122280   4.573   1.233   6.505 -1.7350 -0.1596 -1.7009
 3607SOL    HW222281   4.633   1.192   6.382 -0.8105  2.2646 -0.9384
 3608SOL     OW22282   4.628   2.553   8.018  1.0431 -0.3241 -0.5113
 3608SOL    HW122283   4.598   2.601   8.095  0.4754 -0.9074 -0.3663
 3608SOL    HW222284   4.590   2.466   8.032  0.5269  0.2827  1.9002
 3609SOL     OW22285   2.670   2.827   2.929  0.4377  0.4662  0.3697
 3609SOL    HW122286   2.694   2.877   3.007  0.5465 -1.2241  1.4213
 3609SOL    HW222287   2.719   2.744   2.929  0.8380  0.6997  0.0360
 3610SOL     OW22288   2.186   4.599   5.698  0.4223  0.1413  0.0456
 3610SOL    HW122289   2.174   4.639   5.784  1.1246  0.4616 -0.0097
 3610SOL    HW222290   2.113   4.651   5.666 -1.0609 -0.9251  1.6562
 3611SOL     OW22291   0.014   3.295   8.623 -0.4643 -0.4318  0.4285
 3611SOL    HW122292   0.011   3.381   8.665 -1.6837 -0.4507  0.3993
 3611SOL    HW222293   0.042   3.309   8.533 -3.1215  0.8571 -0.1946
 3612SOL     OW22294   1.191   3.437  14.900 -0.2554  0.0032 -0.3311
 3612SOL    HW122295   1.216   3.444  14.992 -1.4164 -1.7117  0.1267
 3612SOL    HW222296   1.108   3.390  14.907 -0.3337  0.3972  1.3383
 3613SOL     OW22297   1.864   0.072   2.424 -0.5898 -0.6090 -0.9033
 3613SOL    HW122298   1.928   0.120   2.372  2.0214 -2.5745  0.4638
 3613SOL    HW222299   1.910   4.714   2.438 -0.0436  0.1584  1.8222
 3614SOL     OW22300   2.443   0.404   2.549  1.3280 -0.6565  0.2287
 3614SOL    HW122301   2.434   0.435   2.459  1.1261  0.1336  0.5269
 3614SOL    HW222302   2.538   0.406   2.561  1.1128 -2.2630  2.1585
 3615SOL     OW22303   3.276   2.730   6.388 -0.2760 -0.3913  0.2940
 3615SOL    HW122304   3.264   2.767   6.475  0.8681 -2.7252  1.4437
 3615SOL    HW222305   3.262   2.636   6.398 -1.3252 -0.1037  1.5199
 3616SOL     OW22306   4.079   0.697   5.424 -0.0802 -0.8727 -0.5037
 3616SOL    HW122307   4.156   0.686   5.369  2.3499 -2.9183  3.3489
 3616SOL    HW222308   4.047   0.609   5.446  0.3146 -1.1599 -1.0798
 3617SOL     OW22309   0.902   4.221  16.049 -0.3811 -0.0352  0.3024
 3617SOL    HW122310   0.881   4.188  16.137  1.5255  1.5522  1.3519
 3617SOL    HW222311   0.980   4.269  16.076  0.6924 -1.5335 -0.1327
 3618SOL     OW22312   1.480   1.036   2.016 -0.0194  0.1207 -0.0791
 3618SOL    HW122313   1.550   1.095   1.986 -0.6727  0.3197 -1.2206
 3618SOL    HW222314   1.454   1.081   2.096  0.2704  1.1510 -0.5571
 3619SOL     OW22315   2.764   1.384   0.387  0.1409 -0.7022  0.0733
 3619SOL    HW122316   2.843   1.378   0.332  1.0963  0.8321  1.2730
 3619SOL    HW222317   2.740   1.476   0.375  1.5696 -0.3089  0.1817
 3620SOL     OW22318   4.520   0.755  12.841  0.0601  0.2741  0.2881
 3620SOL    HW122319   4.545   0.715  12.924  0.1115  2.4028  1.2899
 3620SOL    HW222320   4.598   0.804  12.815  0.2016 -0.4475 -0.6515
 3621SOL     OW22321   2.008   1.753   7.158  0.1350 -0.0969 -0.4146
 3621SOL    HW122322   2.036   1.735   7.068 -0.7638  3.7084 -1.4932
 3621SOL    HW222323   1.966   1.671   7.181 -1.3493  0.6073 -0.6139
 3622SOL     OW22324   1.094   3.334  11.384  0.4644 -0.7549  0.3697
 3622SOL    HW122325   1.184   3.337  11.415  0.5056  0.3788  0.1581
 3622SOL    HW222326   1.076   3.418  11.340 -0.2488 -0.9953  0.1918
 3623SOL     OW22327   3.468   0.928   7.068 -0.1975 -0.1891  0.1058
 3623SOL    HW122328   3.376   0.931   7.095  0.1015 -0.6462  1.1647
 3623SOL    HW222329   3.509   0.944   7.154 -1.9731 -2.4717  1.3753
 3624SOL     OW22330   0.676   4.266  15.881 -0.1217 -0.2555 -0.5324
 3624SOL    HW122331   0.757   4.266  15.932 -1.3269 -0.0844  1.4299
 3624SOL    HW222332   0.642   4.190  15.929  0.0369  0.9703  1.5627
 3625SOL     OW22333   2.438   3.947  17.570 -0.4029 -0.3123  0.2648
 3625SOL    HW122334   2.510   3.885  17.562 -0.2067 -0.3354  2.3024
 3625SOL    HW222335   2.458   3.966  17.662  0.6761 -0.8925  0.1473
 3626SOL     OW22336   0.748   1.480   2.769 -0.2535  0.2957  0.1840
 3626SOL    HW122337   0.711   1.391   2.771 -1.3750  0.7742  0.3161
 3626SOL    HW222338   0.675   1.535   2.742 -1.1529 -0.4948  1.0126
 3627SOL     OW22339   1.599   2.700   4.488  0.7540  0.2284 -0.1739
 3627SOL    HW122340   1.681   2.674   4.529  0.3027  0.3024  0.7923
 3627SOL    HW222341   1.611   2.793   4.468 -0.5450  0.4018 -0.1342
 3628SOL     OW22342   0.296   1.696   5.219 -0.4445 -0.2384 -0.6718
 3628SOL    HW122343   0.218   1.746   5.193  0.4038  0.5194 -1.7764
 3628SOL    HW222344   0.304   1.730   5.308 -1.9818  1.2174 -1.0667
 3629SOL     OW22345   2.002   2.214   8.797  0.4262 -0.4045 -0.5676
 3629SOL    HW122346   1.927   2.161   8.769 -0.9126  2.2817 -2.0651
 3629SOL    HW222347   2.048   2.202   8.714 -1.5114 -1.6029 -1.4810
 3630SOL     OW22348   1.551   1.294  11.227  0.4766  0.0495 -0.2071
 3630SOL    HW122349   1.628   1.331  11.185 -2.2982  0.5035 -4.9126
 3630SOL    HW222350   1.523   1.373  11.273  2.1726  0.9106 -0.6490
 3631SOL     OW22351   0.357   3.012   8.545 -0.3588 -0.2960  0.1992
 3631SOL    HW122352   0.377   3.024   8.452  1.5059 -1.0393  0.5157
 3631SOL    HW222353   0.421   2.947   8.573 -1.3050 -0.1215  2.7699
 3632SOL     OW22354   0.584   3.577   0.884 -0.5013 -0.3104  0.0007
 3632SOL    HW122355   0.587   3.672   0.899 -0.5786 -0.1781 -0.8351
 3632SOL    HW222356   0.543   3.537   0.961 -0.4894 -0.0004  0.1676
 3633SOL     OW22357   4.596   3.439  14.416 -0.2030 -0.6866 -0.1108
 3633SOL    HW122358   4.652   3.439  14.338 -1.0448 -0.4475 -0.7179
 3633SOL    HW222359   4.640   3.506  14.467 -0.5389 -0.7526  0.2695
 3634SOL     OW22360   1.942   2.289   2.798 -0.0303  0.4120 -0.5458
 3634SOL    HW122361   1.866   2.269   2.743 -1.2778 -1.3278  1.8160
 3634SOL    HW222362   2.006   2.281   2.728  0.2149  2.4741 -0.5638
 3635SOL     OW22363   2.946   4.709   4.613  0.1357  0.6406  0.1240
 3635SOL    HW122364   2.991   4.627   4.592 -2.1466 -0.9174  1.2098
 3635SOL    HW222365   2.893   4.687   4.690  1.4971 -2.2182  0.2686
 3636SOL     OW22366   1.214   4.565   7.509 -0.1514 -0.0183 -0.0741
 3636SOL    HW122367   1.169   4.535   7.588  0.1536 -2.3782 -0.7838
 3636SOL    HW222368   1.188   4.656   7.499  2.9674  0.5917 -2.7275
 3637SOL     OW22369   1.885   1.235   5.269 -0.0791 -0.6670  0.2666
 3637SOL    HW122370   1.870   1.315   5.218 -1.4575 -0.6302  0.7079
 3637SOL    HW222371   1.864   1.172   5.201  0.1540  0.4252 -0.8124
 3638SOL     OW22372   2.860   0.998   0.827  0.0141  0.3525  0.5692
 3638SOL    HW122373   2.823   1.038   0.906  0.0919  0.2075  0.6806
 3638SOL    HW222374   2.880   0.910   0.859  1.5919  1.5431  2.9221
 3639SOL     OW22375   4.306   4.234  16.701 -0.7963  0.3835  0.2485
 3639SOL    HW122376   4.322   4.189  16.617 -2.4055  0.2962 -0.0007
 3639SOL    HW222377   4.382   4.292  16.692 -0.7283  0.0009 -1.8090
 3640SOL     OW22378   3.046   4.014   3.924 -0.3469 -0.4248  0.0187
 3640SOL    HW122379   2.973   4.051   3.874 -1.2681  1.2472  2.5881
 3640SOL    HW222380   3.109   4.006   3.852 -2.4755 -1.0291 -1.7722
 3641SOL     OW22381   0.708   3.931  14.523 -0.3919 -0.2635  0.0425
 3641SOL    HW122382   0.727   4.007  14.468  0.8937 -1.1686 -0.7378
 3641SOL    HW222383   0.639   3.964  14.581  0.2597 -1.2126  1.3582
 3642SOL     OW22384   2.979   3.180   3.771 -0.1247 -0.6482  0.1959
 3642SOL    HW122385   2.953   3.226   3.691 -0.3794  2.0988  1.8358
 3642SOL    HW222386   3.067   3.147   3.756 -1.1929 -2.6066 -1.7949
 3643SOL     OW22387   2.618   4.254  11.238  0.0586  0.4567 -0.4021
 3643SOL    HW122388   2.542   4.303  11.205  1.3598  1.8307 -1.3722
 3643SOL    HW222389   2.685   4.322  11.235 -0.7945  1.3435  0.5294
 3644SOL     OW22390   4.060   1.328  13.101  0.1722  0.0060  0.0051
 3644SOL    HW122391   4.065   1.234  13.121 -1.2260 -0.0222  0.2198
 3644SOL    HW222392   4.104   1.335  13.017 -0.1052  1.3829 -0.0266
 3645SOL     OW22393   2.717   4.719   3.651  0.1247 -0.4916 -0.0945
 3645SOL    HW122394   2.760   0.079   3.649 -1.3649  0.2118 -2.4932
 3645SOL    HW222395   2.630   0.008   3.616 -0.0228 -2.7590 -0.6283
 3646SOL     OW22396   1.361   3.423   7.497  0.8067  0.8566  0.2392
 3646SOL    HW122397   1.314   3.504   7.520  1.1109  0.7825  1.1183
 3646SOL    HW222398   1.326   3.366   7.564 -0.5468  1.8537  0.3821
 3647SOL     OW22399   4.359   0.112  10.019  0.6536  0.3791 -0.3634
 3647SOL    HW122400   4.327   0.202  10.011  0.3231  0.2456 -0.5511
 3647SOL    HW222401   4.284   0.073  10.065 -0.8412  1.1754 -2.1004
 3648SOL     OW22402   2.733   3.345   0.490 -0.0332  0.3633 -0.1677
 3648SOL    HW122403   2.677   3.359   0.413  0.1019 -0.6797 -0.4534
 3648SOL    HW222404   2.717   3.425   0.541 -0.8241 -1.3914  2.3159
 3649SOL     OW22405   1.366   2.667   4.637  0.3640 -0.1712  0.0578
 3649SOL    HW122406   1.351   2.761   4.635 -2.3206 -0.5702  1.0833
 3649SOL    HW222407   1.451   2.661   4.595 -0.4791 -3.2051 -1.2557
 3650SOL     OW22408   3.369   0.498   5.902 -0.0875 -0.2716 -0.9177
 3650SOL    HW122409   3.330   0.428   5.850 -0.7570  0.0685 -0.8816
 3650SOL    HW222410   3.408   0.448   5.974 -0.7009 -0.7906 -0.9453
 3651SOL     OW22411   1.384   1.130  10.440 -0.6367 -0.6259 -0.4615
 3651SOL    HW122412   1.451   1.078  10.396  0.1065 -1.1257  1.2925
 3651SOL    HW222413   1.402   1.107  10.531 -0.6865 -1.3377 -0.6314
 3652SOL     OW22414   4.109   3.490   3.705  0.0442  0.3713 -0.0229
 3652SOL    HW122415   4.134   3.427   3.773  2.4770  1.8066  0.4026
 3652SOL    HW222416   4.063   3.554   3.759  0.0165 -1.6157  2.3358
 3653SOL     OW22417   4.697   1.952   2.146  0.2141 -0.5276 -0.7773
 3653SOL    HW122418   0.064   1.931   2.127  0.2871  0.5754 -1.6889
 3653SOL    HW222419   4.684   2.040   2.111 -1.1402 -0.9022 -1.1937
 3654SOL     OW22420   3.514   2.437   5.153  0.1317 -0.4797  0.5142
 3654SOL    HW122421   3.437   2.381   5.159  1.2649 -2.3975 -2.6576
 3654SOL    HW222422   3.568   2.395   5.085  0.1927  0.8893 -0.2878
 3655SOL     OW22423   2.344   1.482   3.166  0.1082 -0.5134 -0.5097
 3655SOL    HW122424   2.268   1.432   3.196  0.2560  0.5030  1.5556
 3655SOL    HW222425   2.368   1.523   3.249 -2.4320  1.6414 -0.7977
 3656SOL     OW22426   0.442   0.577   2.823 -0.3245 -0.6801  0.4369
 3656SOL    HW122427   0.472   0.653   2.773 -2.5458 -0.5682 -0.6867
 3656SOL    HW222428   0.482   0.586   2.910 -1.9479  2.7136  0.8104
 3657SOL     OW22429   1.652   3.426  17.680 -0.3435 -0.1023  0.4988
 3657SOL    HW122430   1.659   3.402   0.073  2.6242  0.8868  0.5379
 3657SOL    HW222431   1.688   3.514  17.670 -0.1723 -0.2479 -0.1519
 3658SOL     OW22432   1.248   1.451   3.675  0.7897 -0.4017  0.1838
 3658SOL    HW122433   1.293   1.490   3.749  0.0660 -1.7193  1.3198
 3658SOL    HW222434   1.316   1.472   3.611 -0.4743  0.8126 -0.7667
 3659SOL     OW22435   4.563   3.324   7.320 -0.5559  0.3675 -0.0184
 3659SOL    HW122436   4.517   3.382   7.260 -1.7677  0.5387  1.0719
 3659SOL    HW222437   4.607   3.392   7.371  1.0524 -0.9499  0.3667
 3660SOL     OW22438   1.358   2.006  11.457 -0.2916  0.0586 -0.0134
 3660SOL    HW122439   1.297   1.962  11.397 -1.7605  1.6160  0.3631
 3660SOL    HW222440   1.354   2.095  11.424 -0.4006  0.5325  1.3075
 3661SOL     OW22441   1.786   3.640  12.005 -0.4494 -0.4937  0.0883
 3661SOL    HW122442   1.838   3.658  12.083 -1.2224  4.5080 -0.5646
 3661SOL    HW222443   1.860   3.640  11.945 -1.7186  0.2384 -1.4812
 3662SOL     OW22444   1.828   0.655  17.602 -0.1480 -0.1301 -0.6562
 3662SOL    HW122445   1.916   0.647  17.566 -0.1186  1.4452 -0.9149
 3662SOL    HW222446   1.823   0.747  17.628 -0.3222 -0.2474 -0.2777
 3663SOL     OW22447   3.198   0.013   4.985  0.4148  0.4764  0.5168
 3663SOL    HW122448   3.276   0.015   5.040  1.6170 -1.2232 -1.1224
 3663SOL    HW222449   3.242   0.017   4.899  0.0212 -0.6326  0.2635
 3664SOL     OW22450   3.936   2.413   4.935  0.4708 -0.3296  0.3082
 3664SOL    HW122451   3.976   2.328   4.919  1.8035  0.7580 -2.0433
 3664SOL    HW222452   3.973   2.465   4.863  1.3706  0.2118  1.1668
 3665SOL     OW22453   2.458   4.139   8.321  0.0008  0.1377 -0.4391
 3665SOL    HW122454   2.437   4.156   8.413  1.4368  1.0733 -0.3005
 3665SOL    HW222455   2.468   4.225   8.281  1.3947 -0.0345 -0.4567
 3666SOL     OW22456   2.354   1.676  15.959  0.3132  0.2221 -0.0219
 3666SOL    HW122457   2.371   1.627  16.040 -0.0812 -1.1568 -0.7576
 3666SOL    HW222458   2.303   1.616  15.904  0.4503  0.1772 -0.0979
 3667SOL     OW22459   0.903   0.195  14.736  0.6767  1.1311  0.1517
 3667SOL    HW122460   0.965   0.235  14.797  1.4464 -0.5712  0.5086
 3667SOL    HW222461   0.901   0.103  14.762 -0.0205  1.3218  0.7577
 3668SOL     OW22462   4.725   4.053  11.002 -0.3110  0.1798 -0.3014
 3668SOL    HW122463   0.029   4.022  10.916 -1.1946 -0.4431 -0.3815
 3668SOL    HW222464   0.072   4.114  11.015  1.8996 -1.4919 -4.8299
 3669SOL     OW22465   3.208   3.926  12.411 -0.2072  0.0174  0.4147
 3669SOL    HW122466   3.144   3.996  12.406  0.3258  0.2251 -2.9535
 3669SOL    HW222467   3.280   3.950  12.353 -0.2601  1.3163  0.8814
 3670SOL     OW22468   0.088   1.994  16.987  0.1622 -0.4106  0.2045
 3670SOL    HW122469   0.166   2.032  16.946 -0.6170  1.5657  0.5601
 3670SOL    HW222470   0.022   2.040  16.936  0.5099 -0.4268 -0.2652
 3671SOL     OW22471   2.548   4.021   5.351 -0.1333  0.0845 -0.2173
 3671SOL    HW122472   2.579   4.078   5.281 -1.2593  0.4149 -0.4451
 3671SOL    HW222473   2.587   4.063   5.427  1.6554  0.1446 -1.1642
 3672SOL     OW22474   3.525   2.613   1.553 -0.1385  0.5208  0.2463
 3672SOL    HW122475   3.487   2.647   1.635  1.0738  0.6671  0.7411
 3672SOL    HW222476   3.502   2.521   1.562  0.5319  0.1368 -2.1003
 3673SOL     OW22477   2.484   2.351  11.981  0.6223  0.3384 -0.0758
 3673SOL    HW122478   2.437   2.283  12.031 -0.3678  0.0216 -1.4466
 3673SOL    HW222479   2.433   2.427  12.010  0.4548  0.0074  0.5129
 3674SOL     OW22480   0.805   1.495  12.620 -0.3641 -0.0994 -0.3651
 3674SOL    HW122481   0.871   1.426  12.624 -2.8470 -2.2421  3.7794
 3674SOL    HW222482   0.861   1.571  12.606 -3.7975  2.3609 -0.6621
 3675SOL     OW22483   1.598   3.257  14.134  0.1407  0.3725 -0.4411
 3675SOL    HW122484   1.635   3.292  14.216 -0.7798  1.8530 -0.6700
 3675SOL    HW222485   1.534   3.327  14.125  0.0429  0.2724 -0.5195
 3676SOL     OW22486   4.319   3.024   2.218  0.1023  0.1056  0.1564
 3676SOL    HW122487   4.415   3.030   2.222  0.0118  1.0137  0.8385
 3676SOL    HW222488   4.312   3.010   2.124 -2.6120 -1.8898  0.6533
 3677SOL     OW22489   4.478   0.687   7.980 -0.4621  0.0641  0.7583
 3677SOL    HW122490   4.463   0.592   7.978 -1.0674  0.1197  2.7034
 3677SOL    HW222491   4.443   0.723   7.898  3.0151  1.2381 -0.2085
 3678SOL     OW22492   2.957   2.389  13.064  1.1317  0.0916  0.1543
 3678SOL    HW122493   2.925   2.380  12.975  0.0651  1.6240  0.3745
 3678SOL    HW222494   2.993   2.301  13.052 -0.6519 -0.9936  2.7166
 3679SOL     OW22495   1.162   4.319  16.737 -0.7343  1.0041 -0.1525
 3679SOL    HW122496   1.244   4.276  16.714 -1.1060  0.2130  0.0001
 3679SOL    HW222497   1.190   4.388  16.797 -0.3662 -0.2863  1.1427
 3680SOL     OW22498   4.248   2.469   5.982 -0.4705  0.0448 -0.1615
 3680SOL    HW122499   4.221   2.538   5.922 -1.8021 -0.6020 -0.3126
 3680SOL    HW222500   4.339   2.498   5.980 -0.4731  0.0027 -0.7691
 3681SOL     OW22501   3.992   2.264   7.112 -1.1626  0.1675  0.3412
 3681SOL    HW122502   4.011   2.275   7.019  0.2553 -0.1141  0.6092
 3681SOL    HW222503   4.046   2.191   7.143 -0.0426 -0.1445 -2.4261
 3682SOL     OW22504   4.147   4.127   7.410  0.3920  0.1082  0.1869
 3682SOL    HW122505   4.093   4.206   7.420 -2.2356 -1.7538  0.7720
 3682SOL    HW222506   4.236   4.160   7.396  0.2453  1.1296  1.7050
 3683SOL     OW22507   1.871   3.124  15.392 -1.2479  1.1820 -0.3668
 3683SOL    HW122508   1.794   3.177  15.411 -1.0412  1.6945 -0.9405
 3683SOL    HW222509   1.946   3.150  15.446 -0.0564  0.0743 -1.4864
 3684SOL     OW22510   2.180   1.218  10.663  0.1787  0.0608 -0.0983
 3684SOL    HW122511   2.266   1.253  10.641 -0.8771  1.3598 -2.1399
 3684SOL    HW222512   2.174   1.229  10.758  1.7897 -0.8070  0.1037
 3685SOL     OW22513   4.715   2.868  15.759 -0.4885  0.0074  0.1596
 3685SOL    HW122514   4.693   2.904  15.845 -0.5259  1.1548 -0.3366
 3685SOL    HW222515   4.716   2.948  15.708  2.6745  0.0083  0.2263
 3686SOL     OW22516   2.065   1.692   1.882 -1.0848  0.3233 -0.6708
 3686SOL    HW122517   2.015   1.614   1.858  2.5035 -1.4687 -2.3670
 3686SOL    HW222518   2.001   1.758   1.856 -1.4340  0.0823 -0.4361
 3687SOL     OW22519   0.911   4.294   1.429 -0.1782  0.3210 -0.7015
 3687SOL    HW122520   0.881   4.262   1.514  3.0189  0.9433  0.6769
 3687SOL    HW222521   0.832   4.325   1.384 -2.0803 -1.3390  1.5166
 3688SOL     OW22522   2.975   3.861   3.055  0.4954 -0.1785 -0.0215
 3688SOL    HW122523   3.008   3.899   2.974 -0.1384  2.0983  0.7879
 3688SOL    HW222524   3.054   3.865   3.109  0.7108  0.1180 -0.3645
 3689SOL     OW22525   3.215   1.140   1.609 -0.4443  0.0388 -0.3177
 3689SOL    HW122526   3.303   1.154   1.642 -0.5771  1.6484 -0.6504
 3689SOL    HW222527   3.199   1.054   1.649  0.3846  0.1318  0.2013
 3690SOL     OW22528   1.587   4.120  17.118  0.0461  0.0040 -0.3478
 3690SOL    HW122529   1.666   4.070  17.099  0.0920  0.0341 -0.2350
 3690SOL    HW222530   1.520   4.073  17.067  0.0317 -0.2177 -0.1251
 3691SOL     OW22531   2.335   0.618   5.729  0.7656 -0.4204  0.0305
 3691SOL    HW122532   2.372   0.693   5.775 -0.6406  0.6960 -0.6305
 3691SOL    HW222533   2.397   0.612   5.656  0.3604 -1.4883 -0.2395
 3692SOL     OW22534   4.266   0.255  15.852  0.0639  0.0284  0.6718
 3692SOL    HW122535   4.204   0.320  15.885  1.0380  1.9823 -1.3736
 3692SOL    HW222536   4.262   0.201  15.931 -1.9043  1.1808  1.3428
 3693SOL     OW22537   2.899   3.383   3.919 -0.4728 -0.1280 -0.0478
 3693SOL    HW122538   2.942   3.446   3.861  0.8683 -0.7385  0.2843
 3693SOL    HW222539   2.939   3.304   3.883 -0.6327 -0.8997  1.4702
 3694SOL     OW22540   3.889   1.795   9.300  0.0821  0.2411 -1.0728
 3694SOL    HW122541   3.795   1.783   9.285 -0.2804 -0.4722  1.7349
 3694SOL    HW222542   3.891   1.788   9.396  0.7666 -0.4339 -1.1348
 3695SOL     OW22543   4.720   1.956  10.059 -0.1712 -0.2852  0.4459
 3695SOL    HW122544   0.023   1.865  10.058  3.0402  0.6941  2.1027
 3695SOL    HW222545   0.053   1.985  10.130 -0.2374  2.9527 -0.8112
 3696SOL     OW22546   2.163   0.001   8.676 -0.6409 -0.1331  0.1068
 3696SOL    HW122547   2.185   4.645   8.723 -0.8667 -0.7767 -0.9000
 3696SOL    HW222548   2.119   4.695   8.596  0.9502 -2.3741  0.0979
 3697SOL     OW22549   1.257   2.502   4.852  0.6109  0.0088  0.2141
 3697SOL    HW122550   1.292   2.570   4.794 -2.0557  2.1863  1.1627
 3697SOL    HW222551   1.328   2.437   4.856 -0.9563 -1.6920  0.0863
 3698SOL     OW22552   2.535   0.597  11.145  0.3057 -0.2200  0.1411
 3698SOL    HW122553   2.616   0.581  11.195  1.0824  1.1531 -0.6730
 3698SOL    HW222554   2.467   0.592  11.212  0.2620  0.2218  0.1288
 3699SOL     OW22555   3.055   2.888   8.960  0.7900  0.5991 -0.2606
 3699SOL    HW122556   3.121   2.853   9.019 -1.4927 -2.1817  0.6241
 3699SOL    HW222557   3.080   2.981   8.964  0.9995  0.5130  0.4380
 3700SOL     OW22558   3.513   2.009   1.627 -0.2641 -0.1011 -0.1672
 3700SOL    HW122559   3.482   1.939   1.685  1.4847 -1.0697 -0.3951
 3700SOL    HW222560   3.600   2.029   1.663  0.3610 -2.0245 -0.5821
 3701SOL     OW22561   0.014   2.497   3.383  0.6682  0.0501 -0.2779
 3701SOL    HW122562   0.075   2.426   3.400  0.8654  0.1193 -0.6866
 3701SOL    HW222563   0.044   2.579   3.424 -0.9906  0.8495 -0.6435
 3702SOL     OW22564   2.305   2.304  11.452  0.4232  0.2152  0.1574
 3702SOL    HW122565   2.372   2.348  11.505 -0.2244 -0.2657  1.3944
 3702SOL    HW222566   2.257   2.376  11.411  1.0392  0.1339 -0.7055
 3703SOL     OW22567   4.401   3.050  12.076 -0.1163 -0.0719 -0.4423
 3703SOL    HW122568   4.471   3.103  12.039  1.0147 -0.1356  1.6072
 3703SOL    HW222569   4.329   3.089  12.027 -1.4111 -0.1427  1.3899
 3704SOL     OW22570   1.282   1.692   5.650 -1.0274  0.3486 -0.5847
 3704SOL    HW122571   1.246   1.779   5.665  0.0235  0.6787  0.0014
 3704SOL    HW222572   1.354   1.717   5.592  0.0921 -2.5306 -0.4564
 3705SOL     OW22573   1.465   1.022   2.405  0.5591  0.6475  0.0668
 3705SOL    HW122574   1.397   1.036   2.340 -1.6239 -0.2094  2.1587
 3705SOL    HW222575   1.540   0.995   2.352  0.3463  0.3958 -0.1019
 3706SOL     OW22576   4.491   0.731   2.776  0.6604 -0.4014 -0.7390
 3706SOL    HW122577   4.402   0.700   2.790  0.9514 -0.5802  0.7548
 3706SOL    HW222578   4.523   0.645   2.749 -0.3932 -0.9848 -0.1181
 3707SOL     OW22579   0.065   2.723   6.090  0.6711  0.3777  0.3715
 3707SOL    HW122580   0.104   2.636   6.087 -2.1507 -0.9292  0.6531
 3707SOL    HW222581   4.717   2.696   6.148  0.1870  2.1231  0.5758
 3708SOL     OW22582   2.555   2.743   6.699  0.2816 -0.3299  0.1727
 3708SOL    HW122583   2.607   2.759   6.619  1.0833  1.6180  1.0651
 3708SOL    HW222584   2.626   2.716   6.757 -1.1529 -1.9555  1.1636
 3709SOL     OW22585   2.139   0.809   1.833  0.4341 -0.4041 -0.0011
 3709SOL    HW122586   2.143   0.904   1.848  0.7263 -0.5452  0.7801
 3709SOL    HW222587   2.107   0.807   1.742 -0.3823 -3.1944  0.3496
 3710SOL     OW22588   2.976   2.730   5.319 -0.1979  0.4259  0.0660
 3710SOL    HW122589   3.053   2.753   5.373  0.3512  1.2080 -1.0415
 3710SOL    HW222590   3.014   2.743   5.232 -0.3074  0.5766  0.0400
 3711SOL     OW22591   0.670   3.025   7.382 -0.1701  0.3531 -0.0473
 3711SOL    HW122592   0.595   3.069   7.423 -1.0569 -1.7923  0.6300
 3711SOL    HW222593   0.668   3.062   7.293  1.6844  0.5667  0.0029
 3712SOL     OW22594   0.674   2.300   2.360 -0.8908 -0.4174  0.2423
 3712SOL    HW122595   0.579   2.299   2.374 -0.6589  0.2690  1.8794
 3712SOL    HW222596   0.701   2.214   2.393 -1.7629 -1.0289 -0.6225
 3713SOL     OW22597   1.062   4.270  12.066  0.1237 -0.0861 -0.0134
 3713SOL    HW122598   1.129   4.327  12.030 -0.3284 -0.6764 -1.7954
 3713SOL    HW222599   0.987   4.324  12.041  0.4778 -0.3381 -1.5890
 3714SOL     OW22600   3.422   4.562   4.543 -0.2521  0.0056 -0.4858
 3714SOL    HW122601   3.368   4.486   4.564  0.5835 -0.0160  1.6426
 3714SOL    HW222602   3.374   4.605   4.473  0.0851  0.8326 -0.2065
 3715SOL     OW22603   0.721   2.576  15.260  0.2749 -0.2655 -0.3643
 3715SOL    HW122604   0.637   2.544  15.227 -0.3833  1.5565 -0.4898
 3715SOL    HW222605   0.780   2.501  15.259 -1.0434 -1.2777 -2.0080
 3716SOL     OW22606   4.681   4.721  11.184  0.0114  0.5930  0.2504
 3716SOL    HW122607   4.627   4.644  11.204  2.2809 -0.8126  0.9750
 3716SOL    HW222608   4.637   0.023  11.104  0.4234 -1.7788 -0.7513
 3717SOL     OW22609   0.192   3.086   6.167 -0.3277 -0.5622  0.1722
 3717SOL    HW122610   0.161   3.044   6.087 -2.9622 -0.6297  1.2403
 3717SOL    HW222611   0.156   3.036   6.240 -0.3829 -3.0618 -1.5878
 3718SOL     OW22612   3.793   4.381   1.134 -0.0817 -0.2897 -0.1812
 3718SOL    HW122613   3.790   4.285   1.126  0.4511 -0.1566 -1.7761
 3718SOL    HW222614   3.881   4.397   1.100 -0.9451  0.6375 -1.9349
 3719SOL     OW22615   0.766   3.154   2.777  0.3776 -0.2109  0.0606
 3719SOL    HW122616   0.767   3.070   2.823 -2.7338 -1.2914 -1.8541
 3719SOL    HW222617   0.749   3.218   2.846 -0.5008 -1.3316  0.8796
 3720SOL     OW22618   2.689   3.098   3.384  0.5499  0.0051  0.1487
 3720SOL    HW122619   2.720   3.046   3.459  0.6890  0.5476  0.4689
 3720SOL    HW222620   2.691   3.187   3.418  0.9585  0.5262 -1.2483
 3721SOL     OW22621   3.901   4.269   9.916  0.2781 -0.0444  0.3229
 3721SOL    HW122622   3.953   4.189   9.919  0.1626 -0.1900 -1.6141
 3721SOL    HW222623   3.860   4.258   9.830 -1.5721  2.1842  0.9093
 3722SOL     OW22624   0.698   3.241   8.112  0.3057 -0.1935 -0.0299
 3722SOL    HW122625   0.772   3.185   8.090 -1.6481 -2.7508  0.0020
 3722SOL    HW222626   0.704   3.243   8.207 -1.9061 -1.3872  0.1203
 3723SOL     OW22627   3.368   3.319   2.870 -0.8887  0.7933 -0.1956
 3723SOL    HW122628   3.377   3.333   2.776  2.7010  0.6377  0.1253
 3723SOL    HW222629   3.458   3.335   2.900 -0.8419  2.8112 -1.4254
 3724SOL     OW22630   2.314   0.177   2.394  0.4436 -0.1519 -0.7830
 3724SOL    HW122631   2.351   0.255   2.435  2.1237 -0.5436 -1.5503
 3724SOL    HW222632   2.374   0.177   2.319  1.5234 -2.5458  0.0894
 3725SOL     OW22633   2.520   1.441   5.475 -0.3985  0.1238  0.0718
 3725SOL    HW122634   2.451   1.461   5.413  1.2488  1.1998 -1.4214
 3725SOL    HW222635   2.481   1.441   5.562 -1.5937 -0.2504 -0.4733
 3726SOL     OW22636   2.541   4.574  17.510 -0.1476  0.1704  0.7063
 3726SOL    HW122637   2.622   4.544  17.551  1.7226  2.2024 -1.5306
 3726SOL    HW222638   2.520   4.652  17.561  1.3517  1.5631 -0.8371
 3727SOL     OW22639   1.215   2.656   3.642  0.3770  0.3074 -0.6212
 3727SOL    HW122640   1.260   2.721   3.696  3.2832 -1.1728 -1.2674
 3727SOL    HW222641   1.286   2.638   3.579  0.6782  0.7339 -0.4062
 3728SOL     OW22642   4.511   3.202  11.104  0.1709  0.0185 -0.0110
 3728SOL    HW122643   4.499   3.283  11.054 -0.0636  0.0900  0.1582
 3728SOL    HW222644   4.471   3.142  11.041  1.8553 -1.7145  0.5805
 3729SOL     OW22645   1.141   0.658  11.653  0.4703 -0.1297  0.1739
 3729SOL    HW122646   1.201   0.593  11.692  1.8876  1.8427  1.2745
 3729SOL    HW222647   1.140   0.736  11.707 -2.0159  0.1595 -0.2852
 3730SOL     OW22648   2.501   3.456   4.855 -0.4193 -0.0329  0.0289
 3730SOL    HW122649   2.579   3.450   4.910 -0.5780 -1.5090  0.1070
 3730SOL    HW222650   2.484   3.547   4.831  1.4260 -0.0938 -1.4734
 3731SOL     OW22651   3.015   0.930   3.680 -0.0949  0.0330  0.4286
 3731SOL    HW122652   2.978   0.933   3.769 -0.2675 -0.9991  0.3936
 3731SOL    HW222653   3.103   0.893   3.686 -0.0106  0.4779  2.0039
 3732SOL     OW22654   3.209   2.153   5.400  0.5703 -0.1408  0.2442
 3732SOL    HW122655   3.245   2.165   5.312  1.0803  0.8653  0.5771
 3732SOL    HW222656   3.145   2.223   5.413  2.5834  1.7932 -0.2361
 3733SOL     OW22657   2.540   0.039   3.293 -0.4816  0.7740 -0.5588
 3733SOL    HW122658   2.551   4.669   3.279 -0.2704  1.0475 -2.2279
 3733SOL    HW222659   2.523   0.027   3.386  0.0921 -0.7717 -0.6496
 3734SOL     OW22660   1.990   2.439   6.245 -0.4271  0.3526 -0.3412
 3734SOL    HW122661   2.060   2.386   6.282  1.2901  2.4997 -0.5192
 3734SOL    HW222662   2.030   2.525   6.238  1.4511 -0.3105  2.2442
 3735SOL     OW22663   1.544   3.174   7.539  0.2023 -0.5903  0.1235
 3735SOL    HW122664   1.475   3.234   7.513  1.0784  0.1071 -0.5934
 3735SOL    HW222665   1.493   3.102   7.575 -0.1584 -0.3580  0.0699
 3736SOL     OW22666   3.055   3.161   8.592 -0.1097  0.0858 -0.1764
 3736SOL    HW122667   2.970   3.193   8.624  0.4714  0.1881  1.2792
 3736SOL    HW222668   3.033   3.170   8.499 -1.7462 -0.9263  0.1139
 3737SOL     OW22669   0.134   0.267  16.738  0.4115  0.6801  0.1166
 3737SOL    HW122670   0.145   0.179  16.702 -1.9012  0.3461  0.2664
 3737SOL    HW222671   0.049   0.284  16.699  0.5701  1.1606 -0.0216
 3738SOL     OW22672   2.537   1.659   1.296 -0.1513 -0.2586 -0.3778
 3738SOL    HW122673   2.615   1.648   1.243 -0.0063  0.4142 -0.3022
 3738SOL    HW222674   2.554   1.749   1.324 -3.0705 -0.2325  1.3401
 3739SOL     OW22675   1.248   0.740   8.001 -0.9395  0.5863 -0.1424
 3739SOL    HW122676   1.194   0.686   8.059 -0.1933  1.1639  1.0860
 3739SOL    HW222677   1.260   0.812   8.063 -3.2447  1.2149 -0.4022
 3740SOL     OW22678   1.386   3.086   1.098 -0.2154 -0.7519 -0.2150
 3740SOL    HW122679   1.364   3.167   1.053 -2.0945  0.0091  2.1325
 3740SOL    HW222680   1.346   3.095   1.184  0.2995  1.1325 -0.1814
 3741SOL     OW22681   3.718   2.235   8.833 -0.2013  0.4655  0.6359
 3741SOL    HW122682   3.691   2.312   8.783 -1.0654  1.1947  2.2223
 3741SOL    HW222683   3.814   2.238   8.835 -0.1514 -1.0310  0.2861
 3742SOL     OW22684   2.399   2.345   0.062 -0.1963  0.7631 -0.0041
 3742SOL    HW122685   2.461   2.416   0.074 -0.5131  1.2878 -1.4984
 3742SOL    HW222686   2.331   2.367   0.126  1.8138  0.1172  2.3669
 3743SOL     OW22687   3.274   4.290   2.090  0.9098  0.4173 -0.0050
 3743SOL    HW122688   3.259   4.359   2.026 -1.3353 -0.7333 -0.7051
 3743SOL    HW222689   3.323   4.332   2.161 -0.0813  0.3498  0.7093
 3744SOL     OW22690   2.321   2.142   2.743 -0.1166  0.2359 -0.4771
 3744SOL    HW122691   2.280   2.115   2.661 -0.1943 -3.3426  0.7148
 3744SOL    HW222692   2.361   2.059   2.771 -0.6895  1.0207  2.6777
 3745SOL     OW22693   0.209   4.070   0.434 -0.0964 -0.5429 -0.1479
 3745SOL    HW122694   0.193   3.991   0.384 -1.5284  0.0743 -0.6681
 3745SOL    HW222695   0.290   4.041   0.475  1.1563  2.4607 -0.4419
 3746SOL     OW22696   2.825   2.260   7.709 -0.2614  0.1948  0.2550
 3746SOL    HW122697   2.819   2.349   7.674  0.4581  0.3565  0.5468
 3746SOL    HW222698   2.760   2.217   7.653 -0.3194  2.1904 -1.1832
 3747SOL     OW22699   4.349   3.961   7.032 -0.6917 -0.1219 -0.1996
 3747SOL    HW122700   4.384   3.921   7.112 -0.1859  1.0031  0.1484
 3747SOL    HW222701   4.420   3.994   6.977 -0.8230 -0.3936 -0.5268
 3748SOL     OW22702   2.607   2.484   5.182 -0.0807  0.2464 -0.0408
 3748SOL    HW122703   2.635   2.460   5.270 -1.7862  0.7415  0.6376
 3748SOL    HW222704   2.511   2.483   5.188  0.0636 -1.9666  1.7132
 3749SOL     OW22705   3.789   0.821   5.658 -0.3902  0.0376 -0.4969
 3749SOL    HW122706   3.778   0.789   5.569 -1.4553  0.5512 -0.5523
 3749SOL    HW222707   3.880   0.793   5.672 -0.1181  1.1991  0.1450
 3750SOL     OW22708   3.702   1.945   8.303 -0.5173  0.4090 -0.1451
 3750SOL    HW122709   3.713   1.956   8.398  2.0319  0.4223 -0.4473
 3750SOL    HW222710   3.671   2.030   8.270  1.0198  0.1034 -2.3584
 3751SOL     OW22711   1.290   3.122  15.056 -0.6507 -0.0201  0.1714
 3751SOL    HW122712   1.291   3.038  15.010 -0.6461 -1.5942  3.0484
 3751SOL    HW222713   1.276   3.176  14.979 -0.2396 -2.1742 -1.3994
 3752SOL     OW22714   3.106   1.264   0.543 -0.4056 -0.0553 -0.4698
 3752SOL    HW122715   3.017   1.261   0.579 -0.0361 -0.3240  0.4399
 3752SOL    HW222716   3.114   1.358   0.529  0.2895 -0.3584 -2.0486
 3753SOL     OW22717   2.926   1.487   8.394 -0.1946 -0.0041 -0.6469
 3753SOL    HW122718   2.833   1.482   8.414  0.0059 -2.2410 -0.2323
 3753SOL    HW222719   2.953   1.574   8.424 -0.6118  0.3589 -1.3424
 3754SOL     OW22720   0.916   2.456   4.388  0.2540 -0.0427  0.8517
 3754SOL    HW122721   0.989   2.396   4.401  0.9497  0.8902  1.2771
 3754SOL    HW222722   0.946   2.495   4.306 -2.7497  0.9398  0.2081
 3755SOL     OW22723   2.354   0.707   2.277  0.6559 -0.7512 -0.1687
 3755SOL    HW122724   2.395   0.793   2.268  1.2107 -0.8941  1.0165
 3755SOL    HW222725   2.299   0.742   2.347 -1.4341  0.7901 -2.5813
 3756SOL     OW22726   4.258   2.147  12.122  0.1574  0.7318  0.7816
 3756SOL    HW122727   4.186   2.104  12.075  0.6726  2.1569 -1.3143
 3756SOL    HW222728   4.301   2.177  12.042  1.2951 -0.5958  0.9030
 3757SOL     OW22729   0.521   3.994  17.675  0.1719 -0.0739  0.0859
 3757SOL    HW122730   0.445   4.015   0.029  0.8790  3.3826 -0.2989
 3757SOL    HW222731   0.562   3.934   0.037 -1.5877  0.6773  1.9935
 3758SOL     OW22732   1.431   0.984   0.829 -0.4698  0.2445 -0.3482
 3758SOL    HW122733   1.351   0.966   0.877  0.3244 -0.3843  0.7365
 3758SOL    HW222734   1.434   1.076   0.857  0.6269  0.0649  0.1329
 3759SOL     OW22735   3.844   1.657  12.527 -0.0872  0.5913  0.3469
 3759SOL    HW122736   3.869   1.741  12.490  1.2741 -0.0578 -0.2104
 3759SOL    HW222737   3.913   1.599  12.494 -0.7003 -1.1581  2.1237
 3760SOL     OW22738   4.661   1.791  17.550  0.6638 -0.3831  0.5797
 3760SOL    HW122739   4.623   1.745  17.476  4.3379 -1.2941 -0.7438
 3760SOL    HW222740   4.628   1.741  17.625  0.1853 -0.3302  0.4053
 3761SOL     OW22741   1.240   4.339   4.444  0.3921 -0.3048 -0.4897
 3761SOL    HW122742   1.154   4.332   4.401 -0.4046 -1.2070  1.2037
 3761SOL    HW222743   1.250   4.247   4.470  2.5930  0.2327  0.5041
 3762SOL     OW22744   2.081   3.602   3.397  0.5891  0.2468 -0.2952
 3762SOL    HW122745   2.035   3.583   3.479  1.7135 -0.0171  0.2774
 3762SOL    HW222746   2.044   3.536   3.337  3.7234 -1.5153 -0.2814
 3763SOL     OW22747   2.999   1.124   0.028  0.0125 -0.2223 -1.0144
 3763SOL    HW122748   3.056   1.115   0.104  0.2328 -0.4957 -1.2114
 3763SOL    HW222749   3.002   1.040  17.683  3.2408  0.5571 -2.2639
 3764SOL     OW22750   3.670   4.459   9.078  0.4599 -0.0086 -0.0792
 3764SOL    HW122751   3.688   4.539   9.127 -1.3391 -0.1209  0.7637
 3764SOL    HW222752   3.751   4.448   9.029  1.6460 -0.0671  1.9062
 3765SOL     OW22753   3.539   4.044   5.324  0.2930 -0.2289 -0.3938
 3765SOL    HW122754   3.580   4.130   5.313  0.2107 -0.1897 -0.3936
 3765SOL    HW222755   3.609   3.994   5.366 -0.0606  1.0338  1.6836
 3766SOL     OW22756   1.089   0.108   2.446  0.1517  0.3185  0.5365
 3766SOL    HW122757   1.098   0.190   2.495  0.3114  0.9843 -0.6008
 3766SOL    HW222758   1.150   0.139   2.378 -2.9951  0.7931 -2.0518
 3767SOL     OW22759   2.031   1.376   3.534  0.3639  0.1416 -0.5655
 3767SOL    HW122760   2.075   1.306   3.485  1.0759 -1.1755  1.9203
 3767SOL    HW222761   1.949   1.382   3.486  0.8700  2.4478 -1.1112
 3768SOL     OW22762   0.360   1.796   6.826  0.3848 -0.3689  0.1919
 3768SOL    HW122763   0.431   1.743   6.862  0.1825 -0.8092 -0.0609
 3768SOL    HW222764   0.320   1.843   6.899  1.1965 -0.0894  0.4610
 3769SOL     OW22765   0.501   4.526  13.920 -0.1646  0.0732  0.3070
 3769SOL    HW122766   0.549   4.587  13.975  0.8154  0.3480 -0.8669
 3769SOL    HW222767   0.503   4.446  13.972  2.6399  1.1845  1.8521
 3770SOL     OW22768   1.435   2.983   1.521 -0.7238 -0.1930 -0.2771
 3770SOL    HW122769   1.376   3.014   1.590  0.6103  0.4639  0.5921
 3770SOL    HW222770   1.507   3.043   1.544 -1.4126  1.2756 -1.9918
 3771SOL     OW22771   4.516   2.527   4.547 -0.1495  0.2016 -0.1272
 3771SOL    HW122772   4.470   2.564   4.471  0.5138  0.4283 -0.4280
 3771SOL    HW222773   4.564   2.603   4.580 -1.5254  1.1977 -0.4139
 3772SOL     OW22774   0.944   2.719   7.044 -0.0450  0.0840  0.0932
 3772SOL    HW122775   0.868   2.662   7.056 -0.9033  1.3830  0.7804
 3772SOL    HW222776   0.944   2.742   6.951  1.9450 -2.4475 -0.5132
 3773SOL     OW22777   3.731   4.403  10.784  0.1301 -0.4111 -0.2369
 3773SOL    HW122778   3.658   4.345  10.763  0.7500 -1.5359  0.7308
 3773SOL    HW222779   3.715   4.431  10.874  0.9924 -0.7580  0.0265
 3774SOL     OW22780   0.167   1.099  14.490  0.5827  0.5420  0.4065
 3774SOL    HW122781   0.248   1.148  14.473  0.2405  0.8201 -0.4811
 3774SOL    HW222782   0.129   1.159  14.554  0.9699  1.5806 -0.3279
 3775SOL     OW22783   0.901   3.540   6.462  0.6353 -0.5925  0.3932
 3775SOL    HW122784   0.893   3.445   6.458 -1.4497 -0.4559  1.2991
 3775SOL    HW222785   0.833   3.566   6.399  0.9811  1.5548  0.9174
 3776SOL     OW22786   3.200   1.442   2.941 -0.2600 -0.3235 -0.0835
 3776SOL    HW122787   3.227   1.476   3.026  0.0621  1.3599 -0.8494
 3776SOL    HW222788   3.260   1.372   2.917  0.7724  0.5807 -0.1354
 3777SOL     OW22789   0.142   4.410   7.071 -0.0982 -0.4217 -0.3032
 3777SOL    HW122790   0.206   4.451   7.130 -1.3726  0.0478  0.7462
 3777SOL    HW222791   0.078   4.369   7.129  1.1827 -1.4364  0.3968
 3778SOL     OW22792   2.858   1.906   5.945 -0.3022  0.2275  0.5812
 3778SOL    HW122793   2.789   1.855   5.988 -2.1748  0.3110 -2.3748
 3778SOL    HW222794   2.931   1.846   5.931 -1.7419 -1.6644  1.2118
 3779SOL     OW22795   2.964   1.732   4.130 -0.4846  0.6207  0.1902
 3779SOL    HW122796   2.964   1.826   4.144 -1.6572  0.7557 -0.6744
 3779SOL    HW222797   2.939   1.719   4.039 -1.5094  3.7933  0.0529
 3780SOL     OW22798   0.648   2.714   2.911 -0.7031  0.4547 -0.3064
 3780SOL    HW122799   0.656   2.698   3.005  1.9194 -2.4705 -1.0397
 3780SOL    HW222800   0.646   2.623   2.883  2.6480 -0.0826  1.2006
 3781SOL     OW22801   1.732   1.252   2.257  0.3379 -0.2042 -0.1238
 3781SOL    HW122802   1.650   1.257   2.208 -0.3227 -3.1123  0.7030
 3781SOL    HW222803   1.787   1.206   2.194  1.2202 -1.1359  1.3146
 3782SOL     OW22804   1.743   4.209   9.154  0.4850  0.0578  0.0420
 3782SOL    HW122805   1.798   4.284   9.174 -1.5842  0.9482  2.3519
 3782SOL    HW222806   1.749   4.202   9.059  3.3472  1.3087  0.1459
 3783SOL     OW22807   1.807   4.134  13.210  0.2567 -0.6107  0.5713
 3783SOL    HW122808   1.875   4.200  13.220 -2.1083  2.3357 -2.6442
 3783SOL    HW222809   1.756   4.132  13.291  0.7569  2.5541  0.9685
 3784SOL     OW22810   2.503   1.492  14.775 -0.4633 -0.0454 -0.4493
 3784SOL    HW122811   2.501   1.494  14.679  2.4912  2.1202 -0.4846
 3784SOL    HW222812   2.573   1.551  14.803 -0.6355  0.0417 -0.1969
 3785SOL     OW22813   0.676   2.820   4.866 -0.2634  0.3516 -0.0164
 3785SOL    HW122814   0.757   2.774   4.844 -0.7748 -0.1982 -0.7559
 3785SOL    HW222815   0.605   2.761   4.840 -0.5948  0.3764  0.8151
 3786SOL     OW22816   3.552   0.024   7.975 -0.3206 -0.0011  0.0311
 3786SOL    HW122817   3.559   4.656   7.953 -0.0259 -0.9136  3.8950
 3786SOL    HW222818   3.557   0.063   7.888 -0.6297 -0.3085 -0.1282
 3787SOL     OW22819   4.672   0.557   6.913 -0.3951  0.6497 -0.2391
 3787SOL    HW122820   4.669   0.461   6.909 -0.0965  0.5622  2.0037
 3787SOL    HW222821   4.679   0.593   6.824 -2.4631  0.2123 -0.5674
 3788SOL     OW22822   2.765   2.252   4.428  0.8046  0.0039 -0.1817
 3788SOL    HW122823   2.823   2.328   4.433  1.7021 -0.6668 -0.4257
 3788SOL    HW222824   2.788   2.193   4.500  2.0185  0.8724  0.1371
 3789SOL     OW22825   3.953   0.058   2.396 -0.1350  0.1647 -0.1212
 3789SOL    HW122826   3.893   4.709   2.381 -1.1021  0.7785  0.6789
 3789SOL    HW222827   3.910   0.117   2.335 -0.7889  0.3159  0.4787
 3790SOL     OW22828   4.675   2.457  11.217 -0.4384 -0.3321 -0.0726
 3790SOL    HW122829   4.656   2.483  11.307  0.1332  0.8542 -0.3012
 3790SOL    HW222830   0.024   2.397  11.226 -1.0941 -1.1106  0.1248
 3791SOL     OW22831   1.354   2.139   2.789 -0.2995 -0.1223 -0.0772
 3791SOL    HW122832   1.393   2.057   2.757 -1.0751  1.0347 -3.9218
 3791SOL    HW222833   1.262   2.117   2.777 -0.4919  0.5588  0.1370
 3792SOL     OW22834   1.904   3.654  16.140  0.1210 -0.1493  0.0908
 3792SOL    HW122835   1.928   3.682  16.228 -0.9938 -2.2797  1.0575
 3792SOL    HW222836   1.975   3.703  16.098  1.4857 -1.3216  1.0795
 3793SOL     OW22837   0.636   4.546  12.798  0.9909  0.0976  0.6638
 3793SOL    HW122838   0.595   4.519  12.716  0.0450  1.1258  0.7986
 3793SOL    HW222839   0.717   4.581  12.762  0.9846  0.0049  0.5615
 3794SOL     OW22840   0.944   1.825  12.904 -0.4309 -0.5148 -0.1679
 3794SOL    HW122841   0.860   1.855  12.936 -1.2795 -2.1278 -0.8879
 3794SOL    HW222842   0.935   1.732  12.923  2.8748 -1.3475 -2.5626
 3795SOL     OW22843   1.208   1.033  10.807 -0.6916 -0.5029 -0.1539
 3795SOL    HW122844   1.167   1.089  10.741  1.7234  0.9946 -0.3731
 3795SOL    HW222845   1.296   1.015  10.776  0.0706  0.0554  1.6751
 3796SOL     OW22846   0.833   3.432  11.495  0.4214 -0.1362 -0.1710
 3796SOL    HW122847   0.791   3.501  11.443 -1.7768 -0.4699  1.1677
 3796SOL    HW222848   0.892   3.397  11.429 -1.7555 -0.9153 -1.7063
 3797SOL     OW22849   0.708   1.879   8.913  0.1356  0.0489 -0.1652
 3797SOL    HW122850   0.678   1.829   8.989  0.7642  1.5547  1.0665
 3797SOL    HW222851   0.664   1.964   8.921 -0.4589 -0.3745  1.2178
 3798SOL     OW22852   4.167   3.134   4.568 -0.1454 -0.0269  0.0393
 3798SOL    HW122853   4.231   3.096   4.629  2.0959 -2.2222 -3.6762
 3798SOL    HW222854   4.182   3.228   4.584 -0.1844 -0.1331  0.6745
 3799SOL     OW22855   1.292   0.892  12.125  0.3667 -0.3640  0.1985
 3799SOL    HW122856   1.370   0.919  12.077  0.9738  1.7147  2.3594
 3799SOL    HW222857   1.331   0.846  12.199 -2.6410 -1.4554  1.1262
 3800SOL     OW22858   0.113   1.362   2.632 -0.3801 -0.4633 -0.5775
 3800SOL    HW122859   0.037   1.338   2.578  0.0328 -0.9662 -0.9338
 3800SOL    HW222860   0.176   1.331   2.568 -0.3920  0.7818 -1.1886
 3801SOL     OW22861   0.695   4.458   8.299 -0.8587  1.0077 -0.1702
 3801SOL    HW122862   0.746   4.402   8.241 -1.9810 -0.1813  0.0008
 3801SOL    HW222863   0.760   4.472   8.367 -1.3255 -0.6611  0.6086
 3802SOL     OW22864   1.988   1.627   8.616 -0.0335  0.9969 -0.1800
 3802SOL    HW122865   1.985   1.584   8.531 -0.9931  0.0841  0.3082
 3802SOL    HW222866   1.990   1.722   8.600  1.4889  0.6082 -2.1819
 3803SOL     OW22867   2.332   2.277   9.480 -0.4641 -0.1601 -0.9714
 3803SOL    HW122868   2.284   2.264   9.562 -1.6388 -0.2934 -1.6925
 3803SOL    HW222869   2.257   2.274   9.421 -0.5691  0.9512 -0.8998
 3804SOL     OW22870   3.155   0.793   6.070 -0.0516  0.0028  0.4287
 3804SOL    HW122871   3.083   0.855   6.080  0.6651  0.6483  1.6270
 3804SOL    HW222872   3.114   0.720   6.024  0.4137 -0.1856  0.3091
 3805SOL     OW22873   3.804   3.671  10.406 -0.2555 -0.2330  0.0350
 3805SOL    HW122874   3.826   3.749  10.456  2.2727 -0.8815 -0.1081
 3805SOL    HW222875   3.831   3.712  10.324  2.0113 -0.4915  0.6721
 3806SOL     OW22876   0.279   2.380   2.955  0.1332 -0.6309 -0.3860
 3806SOL    HW122877   0.234   2.427   3.026  0.5731 -1.0491  0.1730
 3806SOL    HW222878   0.357   2.353   3.004 -0.0149  0.1979  0.3100
 3807SOL     OW22879   2.062   0.643  10.072 -0.1852 -0.1481  0.2181
 3807SOL    HW122880   2.014   0.569  10.112  0.6293 -0.9237 -0.2336
 3807SOL    HW222881   2.088   0.687  10.153 -0.6250  2.5723 -1.1240
 3808SOL     OW22882   0.874   3.327   5.546  0.0223 -0.3399 -0.1905
 3808SOL    HW122883   0.950   3.335   5.487 -1.4763  0.1569 -2.0542
 3808SOL    HW222884   0.834   3.261   5.490 -1.2273  0.2479  0.0213
 3809SOL     OW22885   2.047   0.968  10.675  0.1567  0.2459  0.3437
 3809SOL    HW122886   1.980   1.024  10.635  0.9266 -0.0947 -1.4482
 3809SOL    HW222887   2.122   1.027  10.671  1.1462 -1.0167  0.4248
 3810SOL     OW22888   4.239   4.011  12.261  0.1955  0.1281 -0.2067
 3810SOL    HW122889   4.157   3.966  12.284  0.7933 -1.4465 -1.1116
 3810SOL    HW222890   4.294   3.964  12.323  2.0864  1.0536 -1.1910
 3811SOL     OW22891   3.634   1.352   4.812 -0.7787  0.1526  0.6943
 3811SOL    HW122892   3.709   1.322   4.760 -0.7227 -2.7287  2.4271
 3811SOL    HW222893   3.560   1.298   4.786 -0.4465 -0.9277  1.9891
 3812SOL     OW22894   2.428   0.583  11.575 -0.3213  0.3404 -0.6754
 3812SOL    HW122895   2.349   0.551  11.530 -0.7613  1.0168 -0.3809
 3812SOL    HW222896   2.392   0.616  11.657  1.0431  0.4780 -0.1415
 3813SOL     OW22897   1.137   2.776  11.366 -0.1155 -0.0180  0.2585
 3813SOL    HW122898   1.083   2.745  11.293 -2.2224 -1.1756  2.3163
 3813SOL    HW222899   1.075   2.802  11.434  0.9190  0.4956  1.0109
 3814SOL     OW22900   3.884   1.045   7.432 -0.2195 -0.0082  0.1556
 3814SOL    HW122901   3.969   1.087   7.449  0.0572 -0.1157 -1.0209
 3814SOL    HW222902   3.852   1.113   7.374  0.1809 -0.5275 -0.6681
 3815SOL     OW22903   1.569   2.749   1.464 -0.0840 -0.3080 -0.0855
 3815SOL    HW122904   1.608   2.735   1.550  1.2720  0.2274 -0.6193
 3815SOL    HW222905   1.494   2.805   1.488  1.0166  0.9994  0.2888
 3816SOL     OW22906   3.571   3.611   4.330  0.4050  0.1766 -0.1383
 3816SOL    HW122907   3.633   3.614   4.403  0.6840 -0.9965 -0.3317
 3816SOL    HW222908   3.487   3.633   4.370  1.0584  0.4733  1.0635
 3817SOL     OW22909   2.116   4.371   4.154 -0.3618  0.0409  0.5194
 3817SOL    HW122910   2.161   4.455   4.147  0.1574 -0.2353  0.5402
 3817SOL    HW222911   2.028   4.388   4.120 -0.1266 -0.3091 -0.2621
 3818SOL     OW22912   4.521   2.036   8.305 -0.3138 -0.1256  0.1160
 3818SOL    HW122913   4.452   2.102   8.300 -1.5150 -1.3353  0.7521
 3818SOL    HW222914   4.542   2.058   8.396 -1.1116 -0.8949  0.4906
 3819SOL     OW22915   0.355   2.988  16.250  0.8867  0.2380 -0.0051
 3819SOL    HW122916   0.322   3.039  16.176 -0.7877  0.2963  0.7893
 3819SOL    HW222917   0.363   3.061  16.312 -2.8727  1.2084 -0.6725
 3820SOL     OW22918   4.595   2.422   5.737  0.8292 -0.1976 -0.5039
 3820SOL    HW122919   4.552   2.453   5.817 -2.3105  0.4107 -2.4386
 3820SOL    HW222920   4.605   2.505   5.691  0.3227 -0.8229 -1.7496
 3821SOL     OW22921   2.499   4.722  14.864  0.2510 -0.0366 -0.5832
 3821SOL    HW122922   2.481   0.081  14.822 -0.2618  0.0572 -0.1726
 3821SOL    HW222923   2.450   4.651  14.822  2.3730 -1.9304  0.1651
 3822SOL     OW22924   4.242   0.087   2.098 -0.4152  0.5891 -0.0230
 3822SOL    HW122925   4.338   0.084   2.093 -0.3999 -1.0181  1.4346
 3822SOL    HW222926   4.227   0.152   2.029  1.6838 -0.1006 -1.1171
 3823SOL     OW22927   3.214   0.343   1.223  0.0909  0.1057  0.1967
 3823SOL    HW122928   3.160   0.313   1.297  1.7114 -0.3559  1.1773
 3823SOL    HW222929   3.275   0.270   1.226  0.8430  0.7950  1.6895
 3824SOL     OW22930   3.374   1.253   2.872 -0.5120  0.4664  0.4144
 3824SOL    HW122931   3.407   1.263   2.783 -0.6734 -0.3846  0.2594
 3824SOL    HW222932   3.346   1.161   2.870 -0.6395  0.5375 -1.5343
 3825SOL     OW22933   3.858   3.065   8.751  0.6696  0.0115 -0.1867
 3825SOL    HW122934   3.924   3.024   8.696 -0.3312  0.1418 -1.5024
 3825SOL    HW222935   3.783   3.017   8.717  1.1313 -0.9095  0.1137
 3826SOL     OW22936   1.938   2.567   6.537 -0.0990  0.3355 -0.5871
 3826SOL    HW122937   1.942   2.641   6.597  0.9328 -0.7448  0.6554
 3826SOL    HW222938   1.936   2.607   6.450 -2.3244 -1.6716 -1.4707
 3827SOL     OW22939   3.894   0.761   3.028 -0.8317  0.5867  0.0804
 3827SOL    HW122940   3.865   0.691   3.087  0.2039  0.9010  0.9582
 3827SOL    HW222941   3.923   0.820   3.098  0.6424  0.7877 -0.7188
 3828SOL     OW22942   4.005   0.203  15.772  0.3452 -0.4757  0.2340
 3828SOL    HW122943   3.990   0.135  15.838 -0.3193 -0.4019  0.1621
 3828SOL    HW222944   3.916   0.240  15.771  0.0876 -1.0884  0.1704
 3829SOL     OW22945   2.861   0.778   8.652  0.0805  0.2413  0.9780
 3829SOL    HW122946   2.913   0.827   8.714  1.5948  1.9306 -1.6388
 3829SOL    HW222947   2.776   0.764   8.695 -0.6004  0.8452 -0.1580
 3830SOL     OW22948   2.545   0.079  11.726  0.3131 -0.0528 -0.0898
 3830SOL    HW122949   2.494   0.096  11.647 -0.6488 -1.2698  0.2618
 3830SOL    HW222950   2.634   0.096  11.694  1.1101  0.1546  2.2253
 3831SOL     OW22951   1.286   3.227   2.650  0.6980  0.3833  0.0166
 3831SOL    HW122952   1.352   3.158   2.654  2.1092  1.7316  0.3244
 3831SOL    HW222953   1.211   3.191   2.603 -0.3060  1.0654  1.0958
 3832SOL     OW22954   1.900   1.398   5.530  0.1959 -0.2504 -0.0710
 3832SOL    HW122955   1.890   1.336   5.458 -0.6232 -1.0504  0.7297
 3832SOL    HW222956   1.808   1.420   5.545  0.1772 -0.5418  0.2406
 3833SOL     OW22957   3.627   1.087   2.940 -0.1639 -0.0357 -0.0327
 3833SOL    HW122958   3.540   1.108   2.975 -0.5459 -1.7182  0.0416
 3833SOL    HW222959   3.670   1.133   3.012 -1.1491  0.6760  0.1165
 3834SOL     OW22960   3.216   0.900   6.742 -0.5820 -0.1876  0.3026
 3834SOL    HW122961   3.147   0.884   6.806 -0.4080 -1.6988  0.0942
 3834SOL    HW222962   3.270   0.821   6.740 -1.7470 -0.9761  0.3623
 3835SOL     OW22963   1.715   1.461  13.917 -0.3189 -0.7807  0.0304
 3835SOL    HW122964   1.728   1.448  13.823 -0.4791 -0.5543 -0.0216
 3835SOL    HW222965   1.692   1.369  13.934  0.3253 -0.8843  0.3375
 3836SOL     OW22966   3.390   2.917   3.505 -0.2623  0.5916 -0.3827
 3836SOL    HW122967   3.485   2.918   3.495 -0.1838  0.0494  0.3162
 3836SOL    HW222968   3.370   2.930   3.412 -0.2540  0.4227 -0.4080
 3837SOL     OW22969   2.994   0.057   3.496  0.2229 -0.3309  0.1597
 3837SOL    HW122970   2.926   0.085   3.435 -1.4662 -1.1290  1.6627
 3837SOL    HW222971   2.984   4.687   3.498  1.1705 -0.4337 -0.4920
 3838SOL     OW22972   1.523   0.629   7.502  0.7380  0.3058 -0.0908
 3838SOL    HW122973   1.598   0.570   7.501 -1.5916 -2.5382 -3.1630
 3838SOL    HW222974   1.452   0.565   7.500  0.1722  0.9454 -0.5011
 3839SOL     OW22975   2.899   2.213   0.448  0.0023  0.0340 -0.2322
 3839SOL    HW122976   2.957   2.168   0.509  0.5637  1.8952  0.6220
 3839SOL    HW222977   2.970   2.227   0.386  0.0562 -2.6601 -0.7473
 3840SOL     OW22978   1.911   1.671  12.214 -0.3664  0.3159 -0.0070
 3840SOL    HW122979   1.955   1.586  12.211  0.9056  1.0061 -0.9141
 3840SOL    HW222980   1.870   1.679  12.300 -0.6392  0.6716 -0.1691
 3841SOL     OW22981   1.437   2.687   9.535 -0.1088 -0.1786  0.7362
 3841SOL    HW122982   1.515   2.741   9.523  1.4196 -2.5349  0.0721
 3841SOL    HW222983   1.410   2.699   9.626 -0.7264  2.2264  0.2333
 3842SOL     OW22984   2.525   3.321   0.328 -0.2187  0.0065  0.0632
 3842SOL    HW122985   2.549   3.279   0.246  1.5943  0.3409  0.4272
 3842SOL    HW222986   2.496   3.247   0.382  1.5753 -0.2137  0.7423
 3843SOL     OW22987   1.654   2.403   7.238  0.1748 -0.3505 -0.0511
 3843SOL    HW122988   1.703   2.483   7.217  1.5356 -1.0952  0.3123
 3843SOL    HW222989   1.679   2.347   7.165  1.2801  2.2120 -1.6396
 3844SOL     OW22990   0.216   4.345   1.436  0.1704 -0.4434  0.1827
 3844SOL    HW122991   0.131   4.326   1.397 -1.5002 -0.0917  3.6234
 3844SOL    HW222992   0.224   4.440   1.427 -0.5198 -0.4790 -0.7749
 3845SOL     OW22993   3.558   0.025   6.030 -0.5443 -0.2915  0.0976
 3845SOL    HW122994   3.614   0.006   6.105 -1.8699 -0.8796  0.9431
 3845SOL    HW222995   3.474   0.012   6.074 -1.3798 -1.8926 -1.9419
 3846SOL     OW22996   0.758   1.983  14.394 -0.6579 -0.7008 -0.2460
 3846SOL    HW122997   0.844   1.963  14.431  0.0304  1.8715 -0.4642
 3846SOL    HW222998   0.769   1.958  14.302 -0.0306  1.3099 -0.7073
 3847SOL     OW22999   4.458   3.382   2.613 -0.9478 -0.4979 -0.0318
 3847SOL    HW123000   4.400   3.350   2.544 -2.5535 -0.1039  1.1199
 3847SOL    HW223001   4.538   3.340   2.581  0.1737  1.8744 -0.3274
 3848SOL     OW23002   2.247   1.698   3.823  0.3392 -0.1359 -0.5862
 3848SOL    HW123003   2.190   1.675   3.749  0.7436 -2.0783 -0.2864
 3848SOL    HW223004   2.198   1.764   3.872 -0.2531  0.0527 -1.4311
 3849SOL     OW23005   4.366   2.874   5.571  0.5678 -0.5341  0.1485
 3849SOL    HW123006   4.359   2.932   5.495  0.7085 -0.4476  0.2031
 3849SOL    HW223007   4.313   2.925   5.633 -0.3040 -0.8277 -0.3511
 3850SOL     OW23008   3.267   1.932   0.798 -0.3092 -0.1340 -0.1504
 3850SOL    HW123009   3.226   1.866   0.853 -3.3132  1.4846 -0.4732
 3850SOL    HW223010   3.340   1.876   0.771 -0.5272 -0.4689 -0.0434
 3851SOL     OW23011   1.665   3.376   6.296 -0.0075  0.3275  0.1762
 3851SOL    HW123012   1.697   3.347   6.210 -1.3069  0.3261 -0.3062
 3851SOL    HW223013   1.663   3.470   6.280 -3.8426  0.4124  1.3353
 3852SOL     OW23014   3.902   1.849   2.559 -0.3548  0.1725  0.2807
 3852SOL    HW123015   3.932   1.766   2.522  0.5843  0.7502 -0.2611
 3852SOL    HW223016   3.966   1.907   2.517  0.0092  1.2419  2.3443
 3853SOL     OW23017   0.296   4.315   5.935  0.2556 -0.2034 -0.2204
 3853SOL    HW123018   0.287   4.371   6.012 -0.2271  1.7155 -1.6969
 3853SOL    HW223019   0.372   4.260   5.957  1.1897  0.3336 -2.1045
 3854SOL     OW23020   4.184   0.619  11.110 -0.3640 -0.2355  0.5604
 3854SOL    HW123021   4.093   0.612  11.081  0.7181 -0.6109 -2.8305
 3854SOL    HW223022   4.201   0.712  11.098 -1.0480 -0.1760  0.0357
 3855SOL     OW23023   3.419   4.020   8.236  0.1112  0.4694 -0.4077
 3855SOL    HW123024   3.483   4.070   8.286 -0.7547  3.3237 -2.1758
 3855SOL    HW223025   3.471   4.002   8.158 -1.5532  0.3174 -1.4760
 3856SOL     OW23026   4.290   2.051   4.710 -0.3479 -0.1190 -0.4604
 3856SOL    HW123027   4.382   2.053   4.736 -0.3116  1.7472 -0.7142
 3856SOL    HW223028   4.296   1.962   4.675 -1.3825 -0.3714 -0.0047
 3857SOL     OW23029   0.892   0.853   6.422 -0.0536  0.4989 -0.5457
 3857SOL    HW123030   0.859   0.938   6.448 -1.2723  0.1280 -0.8667
 3857SOL    HW223031   0.927   0.867   6.334 -0.2686 -3.1625 -1.2260
 3858SOL     OW23032   2.234   1.699   6.833 -0.0421 -0.0491 -0.2864
 3858SOL    HW123033   2.276   1.685   6.749 -0.1943 -1.1559 -0.1749
 3858SOL    HW223034   2.293   1.759   6.879  1.5785 -1.6281 -0.3315
 3859SOL     OW23035   2.495   2.699   5.682  0.5383 -0.1157 -1.1176
 3859SOL    HW123036   2.486   2.776   5.627 -2.1832  0.8658  0.6792
 3859SOL    HW223037   2.471   2.735   5.768  2.9399  0.2411 -0.6038
 3860SOL     OW23038   3.984   2.404   6.426 -0.0374 -0.3782  0.3390
 3860SOL    HW123039   4.023   2.430   6.343 -0.7057  0.5729  0.3305
 3860SOL    HW223040   3.917   2.338   6.405  0.2042  0.5762 -3.3111
 3861SOL     OW23041   4.084   1.434   9.191 -0.2308  0.2699  0.1941
 3861SOL    HW123042   4.045   1.445   9.104  0.0290 -1.0497 -0.0899
 3861SOL    HW223043   4.005   1.404   9.236  2.1920 -4.3571  1.4282
 3862SOL     OW23044   0.276   3.978  15.015 -0.4659 -0.4935  0.3522
 3862SOL    HW123045   0.294   4.031  14.938 -1.9770 -1.5353 -0.7098
 3862SOL    HW223046   0.267   4.032  15.093  3.3137  0.5244  0.1004
 3863SOL     OW23047   3.777   3.701  16.557 -0.6669 -0.5975 -0.0980
 3863SOL    HW123048   3.829   3.700  16.638 -1.8108 -0.6560  0.6325
 3863SOL    HW223049   3.692   3.716  16.599  0.4734  1.3677  1.5180
 3864SOL     OW23050   2.244   3.489   8.640 -0.1118 -0.1789  0.2858
 3864SOL    HW123051   2.152   3.466   8.652  0.3441 -2.3038 -0.1764
 3864SOL    HW223052   2.275   3.412   8.592  1.6934  0.7160  0.0416
 3865SOL     OW23053   4.567   2.236   2.448 -0.2988  1.0062  0.5193
 3865SOL    HW123054   4.508   2.237   2.373  1.4089  0.7230 -0.8234
 3865SOL    HW223055   4.557   2.327   2.477  0.4968  0.7943  1.4685
 3866SOL     OW23056   2.804   3.443   6.700  0.3167  0.1794  0.1270
 3866SOL    HW123057   2.771   3.370   6.646 -1.7448  1.6601 -0.6308
 3866SOL    HW223058   2.890   3.449   6.660  0.8440 -0.8289  1.1075
 3867SOL     OW23059   2.282   1.631   4.507  0.0910  0.2189  0.5603
 3867SOL    HW123060   2.241   1.545   4.516 -0.0168  0.6275  3.7589
 3867SOL    HW223061   2.334   1.646   4.586  0.8194 -1.1045  0.3379
 3868SOL     OW23062   4.007   0.970   8.598 -0.1327  0.3469 -0.3299
 3868SOL    HW123063   3.981   0.998   8.685  2.9334 -0.8845  0.9806
 3868SOL    HW223064   3.988   0.876   8.602  1.2648  0.0513 -0.6948
 3869SOL     OW23065   1.595   0.505  11.200 -0.0994  0.0442 -0.1822
 3869SOL    HW123066   1.532   0.479  11.267 -0.8997  1.3050 -0.4474
 3869SOL    HW223067   1.532   0.533  11.133 -1.1143 -0.5293  0.5381
 3870SOL     OW23068   0.665   0.115  11.149  0.4001  0.0089  0.0621
 3870SOL    HW123069   0.747   0.097  11.102  0.0901  0.3767 -0.6069
 3870SOL    HW223070   0.713   0.176  11.205 -0.3008 -0.8763  1.6155
 3871SOL     OW23071   2.222   3.131   9.161 -0.0528  0.4359 -0.2829
 3871SOL    HW123072   2.317   3.136   9.154 -0.2241  0.1995 -2.6964
 3871SOL    HW223073   2.195   3.075   9.089  0.4017  0.7095 -0.6626
 3872SOL     OW23074   2.364   0.891  16.786 -0.3255 -0.2209  0.0382
 3872SOL    HW123075   2.303   0.820  16.804  0.8335 -0.9548  1.0974
 3872SOL    HW223076   2.315   0.933  16.715 -0.7959 -0.2731  0.3389
 3873SOL     OW23077   3.182   2.675   4.128  0.0225 -0.3510  0.2536
 3873SOL    HW123078   3.227   2.643   4.205 -0.5275 -0.9365  0.3298
 3873SOL    HW223079   3.256   2.696   4.071 -0.9008  0.3961 -0.6813
 3874SOL     OW23080   1.687   3.673   6.213  0.0331 -0.7985  0.3619
 3874SOL    HW123081   1.771   3.641   6.181 -0.8855 -1.6256 -1.1957
 3874SOL    HW223082   1.640   3.701   6.135  1.5119  3.0838  0.8866
 3875SOL     OW23083   2.921   4.332   3.926  0.1670 -1.0461  0.1828
 3875SOL    HW123084   3.010   4.344   3.891  0.9108  0.6177  2.6458
 3875SOL    HW223085   2.880   4.273   3.863 -3.4352  3.1120 -1.3828
 3876SOL     OW23086   4.241   0.549  10.612  0.1988  0.0541  0.0992
 3876SOL    HW123087   4.308   0.616  10.600  0.3716 -0.4703 -1.8839
 3876SOL    HW223088   4.286   0.471  10.579  0.3684 -0.0824  0.6522
 3877SOL     OW23089   2.820   3.837   6.479  0.6298 -0.0902 -0.0942
 3877SOL    HW123090   2.874   3.914   6.493  0.2505  0.4732 -1.6907
 3877SOL    HW223091   2.778   3.852   6.394  0.7522 -0.5384 -0.2351
 3878SOL     OW23092   4.325   2.043   9.781  0.0354  0.0464 -0.0159
 3878SOL    HW123093   4.366   1.979   9.724  1.7481  2.0626 -1.0301
 3878SOL    HW223094   4.232   2.019   9.783 -0.7152  2.9459  1.0673
 3879SOL     OW23095   2.494   3.221  15.434 -0.0485  0.2393 -0.0342
 3879SOL    HW123096   2.544   3.284  15.487 -1.0128  1.0067 -0.0443
 3879SOL    HW223097   2.438   3.174  15.496  0.8957  0.3326  0.8885
 3880SOL     OW23098   1.228   1.178   5.136  0.4671 -0.1721  0.4495
 3880SOL    HW123099   1.133   1.164   5.136  0.3775  0.4609 -0.2822
 3880SOL    HW223100   1.240   1.230   5.215 -1.8809  0.3463  0.4565
 3881SOL     OW23101   3.142   1.825  14.211  0.3189 -0.0088 -0.2112
 3881SOL    HW123102   3.099   1.849  14.129 -0.5849 -1.9921 -0.3164
 3881SOL    HW223103   3.149   1.729  14.204  0.9464 -0.0639  1.0978
 3882SOL     OW23104   0.609   3.885   7.394 -0.1033 -0.3911  0.0067
 3882SOL    HW123105   0.573   3.838   7.319  2.0862 -0.6303 -0.8717
 3882SOL    HW223106   0.598   3.972   7.356 -0.6808 -1.4376 -2.2171
 3883SOL     OW23107   2.422   3.149   2.433 -0.2737 -0.1490  0.4626
 3883SOL    HW123108   2.333   3.179   2.448  0.1513  1.9925 -1.3239
 3883SOL    HW223109   2.470   3.210   2.488 -0.3940 -0.8362  1.3273
 3884SOL     OW23110   3.630   2.482   7.168  0.2919  0.2254 -0.1642
 3884SOL    HW123111   3.651   2.482   7.262  0.2534 -0.2008 -0.1535
 3884SOL    HW223112   3.712   2.469   7.120 -1.1424 -0.0725 -2.5123
 3885SOL     OW23113   4.593   3.004   2.260  0.4514 -0.0852  0.2364
 3885SOL    HW123114   4.629   2.977   2.175 -0.2763  0.8074 -0.3576
 3885SOL    HW223115   4.672   3.045   2.295 -0.9610  1.3235  1.7570
 3886SOL     OW23116   2.492   3.444   2.991 -0.9303 -0.1704 -0.0009
 3886SOL    HW123117   2.547   3.520   2.970 -2.8337  1.1715 -0.1147
 3886SOL    HW223118   2.458   3.469   3.077 -0.9436  0.1922 -0.1096
 3887SOL     OW23119   4.317   1.261   2.344 -0.7371  0.0014 -0.1416
 3887SOL    HW123120   4.312   1.235   2.252  0.1767 -1.4946  0.2355
 3887SOL    HW223121   4.396   1.222   2.379 -0.7386 -1.2564 -1.5164
 3888SOL     OW23122   1.641   2.500   2.739  0.4800 -0.3902 -0.0516
 3888SOL    HW123123   1.627   2.495   2.644  0.4511  0.0232 -0.0689
 3888SOL    HW223124   1.568   2.454   2.780  1.6169  0.1211  2.5459
 3889SOL     OW23125   3.716   0.781   4.603 -0.1444  0.1276 -0.2324
 3889SOL    HW123126   3.785   0.717   4.588  1.7006  1.7459  1.2740
 3889SOL    HW223127   3.656   0.767   4.530 -2.9740  0.1065  2.1179
 3890SOL     OW23128   0.178   2.093   7.385 -0.4844 -0.1831 -0.0012
 3890SOL    HW123129   0.267   2.124   7.399 -0.4138  0.4720 -1.9277
 3890SOL    HW223130   0.165   2.135   7.300  2.1597  0.6460  0.0189
 3891SOL     OW23131   1.126   0.787  16.764 -0.5724  0.1916 -0.2351
 3891SOL    HW123132   1.038   0.779  16.801 -1.2050  0.7912 -1.6266
 3891SOL    HW223133   1.175   0.732  16.825  0.5764  1.1064 -0.3359
 3892SOL     OW23134   3.044   1.737  15.753 -0.0840 -0.3896  0.1954
 3892SOL    HW123135   2.959   1.762  15.788  0.6332  2.4343 -0.1166
 3892SOL    HW223136   3.040   1.775  15.665  2.0564 -0.6665 -0.0060
 3893SOL     OW23137   3.514   3.067   4.313  0.4698  0.4981  0.2667
 3893SOL    HW123138   3.581   3.124   4.275  0.7988 -0.2926 -0.3275
 3893SOL    HW223139   3.535   3.069   4.407 -0.8861 -2.6592  0.6370
 3894SOL     OW23140   2.223   0.960  16.285 -0.1028  0.0397 -0.4268
 3894SOL    HW123141   2.188   0.897  16.221 -0.1503 -1.3977  1.0122
 3894SOL    HW223142   2.262   1.028  16.230  0.7849 -1.1337 -1.2374
 3895SOL     OW23143   2.617   1.066   3.133  0.1318  0.0317  0.1938
 3895SOL    HW123144   2.600   0.981   3.092 -0.1809  1.4952 -2.7118
 3895SOL    HW223145   2.584   1.122   3.062  1.2443  0.1351 -0.2341
 3896SOL     OW23146   0.699   0.929   5.831 -0.1242  0.5037  0.3535
 3896SOL    HW123147   0.616   0.971   5.853 -0.6910 -0.4221 -0.0119
 3896SOL    HW223148   0.699   0.870   5.906 -2.2295  1.4243  1.0804
 3897SOL     OW23149   2.622   2.267  11.760 -0.1461  0.0690  0.4032
 3897SOL    HW123150   2.599   2.176  11.743 -0.7662  0.3307 -0.2202
 3897SOL    HW223151   2.572   2.301  11.834 -0.4992 -0.6026  0.4737
 3898SOL     OW23152   2.777   2.322   8.808 -0.1283  0.5035  0.0018
 3898SOL    HW123153   2.777   2.226   8.814 -3.0518  0.4966 -0.3907
 3898SOL    HW223154   2.687   2.354   8.803 -1.0291 -1.7368  2.0540
 3899SOL     OW23155   2.291   2.943   6.193  0.2604 -0.0309 -0.4583
 3899SOL    HW123156   2.279   2.996   6.272  0.8680 -1.4297  0.5688
 3899SOL    HW223157   2.201   2.937   6.160  0.1010 -0.9965  0.1772
 3900SOL     OW23158   0.726   1.670   5.028 -0.6956  0.0119  0.7058
 3900SOL    HW123159   0.814   1.701   5.048 -0.5744  0.3387 -0.2979
 3900SOL    HW223160   0.668   1.725   5.081 -1.1975  0.6271 -0.4690
 3901SOL     OW23161   2.119   4.091   1.456  0.3613  0.0098  0.3408
 3901SOL    HW123162   2.135   4.157   1.388 -1.8422 -0.9543 -1.1352
 3901SOL    HW223163   2.040   4.135   1.489  1.5097  2.4635 -0.1337
 3902SOL     OW23164   1.792   1.343  15.058  0.3872 -0.1707  0.4586
 3902SOL    HW123165   1.737   1.421  15.064  0.1985 -0.1820 -1.0213
 3902SOL    HW223166   1.765   1.285  14.987 -2.0551  1.0847  0.3706
 3903SOL     OW23167   0.766   0.368   0.609  0.5079 -0.4190 -0.5796
 3903SOL    HW123168   0.722   0.426   0.672  1.5583  0.5364 -0.7234
 3903SOL    HW223169   0.770   0.297   0.674 -0.9182  0.6921  0.7359
 3904SOL     OW23170   4.630   0.029   7.662 -0.1266 -0.2925  0.3290
 3904SOL    HW123171   4.717   0.047   7.698  0.0298  2.3263 -1.3824
 3904SOL    HW223172   4.581   0.107   7.688  1.1792  0.3601  0.8111
 3905SOL     OW23173   1.069   2.918   8.232 -0.0815 -0.1721  0.6272
 3905SOL    HW123174   1.137   2.867   8.276  0.1055 -0.4070  0.0779
 3905SOL    HW223175   1.004   2.848   8.235  1.2675 -1.4654 -0.2862
 3906SOL     OW23176   2.019   0.528   9.165  0.3938  0.4583 -0.1169
 3906SOL    HW123177   1.967   0.608   9.161 -1.1392 -0.3836  3.1461
 3906SOL    HW223178   1.953   0.459   9.155  3.9324 -2.7980 -1.1381
 3907SOL     OW23179   1.331   2.692   9.757  0.2166 -0.3990  0.3678
 3907SOL    HW123180   1.272   2.761   9.727 -0.7022 -2.2120 -1.9993
 3907SOL    HW223181   1.367   2.733   9.835  0.6928  1.6318 -0.9325
 3908SOL     OW23182   4.083   3.006  16.208 -0.3065 -0.3215  0.2321
 3908SOL    HW123183   4.141   3.077  16.180 -2.2087 -0.6470 -4.5441
 3908SOL    HW223184   4.134   2.933  16.243 -0.3661  0.0081  0.9975
 3909SOL     OW23185   0.231   0.551  14.252 -0.3431  0.1137 -0.2928
 3909SOL    HW123186   0.236   0.627  14.194 -1.9767  1.6994  1.6101
 3909SOL    HW223187   0.324   0.534  14.263  0.0334  1.2047 -1.8438
 3910SOL     OW23188   3.105   3.607  11.361 -0.1666  0.6168  0.9348
 3910SOL    HW123189   3.032   3.610  11.299  0.1576  3.5533  0.7036
 3910SOL    HW223190   3.134   3.521  11.329 -0.9721  0.4408  0.6652
 3911SOL     OW23191   3.897   3.191   6.341 -0.0403  0.2985  0.5215
 3911SOL    HW123192   3.836   3.256   6.309  0.3492  0.6143  0.4207
 3911SOL    HW223193   3.906   3.228   6.429  0.8581 -2.3574  1.5610
 3912SOL     OW23194   0.241   3.939  15.641 -0.5673  0.2808  0.0777
 3912SOL    HW123195   0.233   4.034  15.648  1.3036  0.4880 -0.5368
 3912SOL    HW223196   0.216   3.911  15.553 -2.7592  0.2574  0.7060
 3913SOL     OW23197   1.613   3.286   7.103  0.1602  0.1462  0.2061
 3913SOL    HW123198   1.618   3.338   7.183 -0.0596  1.5539 -0.6953
 3913SOL    HW223199   1.635   3.360   7.047  0.1004  1.3005  1.7292
 3914SOL     OW23200   0.821   0.464  10.188 -0.5513  0.5181  0.6547
 3914SOL    HW123201   0.907   0.435  10.158  0.3067  1.1290  2.4933
 3914SOL    HW223202   0.860   0.542  10.228 -0.9730  0.7510  0.6091
 3915SOL     OW23203   0.084   0.666   5.718  0.0994 -0.3116 -0.5879
 3915SOL    HW123204   0.019   0.604   5.753  2.4564 -1.4729  1.6560
 3915SOL    HW223205   0.035   0.748   5.720 -0.3060 -0.6174  1.4665
 3916SOL     OW23206   1.564   3.010   6.239 -0.0350  0.2787  0.4626
 3916SOL    HW123207   1.539   3.033   6.328  1.9696 -1.0214  1.3684
 3916SOL    HW223208   1.548   3.090   6.188  0.6446 -0.3015 -0.6815
 3917SOL     OW23209   1.697   0.265   6.468  0.8336  0.4184 -0.2575
 3917SOL    HW123210   1.653   0.285   6.551 -1.5369  1.5255 -1.7725
 3917SOL    HW223211   1.670   0.341   6.417 -1.9534  0.3552  1.1383
 3918SOL     OW23212   1.777   3.808   2.869  0.1372 -0.1774  0.2067
 3918SOL    HW123213   1.692   3.846   2.891  0.4627 -1.7731  4.1968
 3918SOL    HW223214   1.798   3.745   2.938 -0.7372  0.5361  1.1298
 3919SOL     OW23215   4.700   0.366  15.094 -0.2665 -0.6755 -0.0794
 3919SOL    HW123216   4.680   0.353  15.002  0.7513  0.6447 -0.4901
 3919SOL    HW223217   4.664   0.455  15.104  0.6197 -0.4652  1.2874
 3920SOL     OW23218   4.316   4.401  12.445  0.0688 -0.0042 -0.4521
 3920SOL    HW123219   4.257   4.332  12.477  1.0821 -0.5675  0.2225
 3920SOL    HW223220   4.344   4.438  12.529 -1.2061 -0.4400  0.1639
 3921SOL     OW23221   4.713   1.917   1.253 -0.5689  0.2838 -0.4573
 3921SOL    HW123222   0.045   1.875   1.318  0.4410  2.5358  0.1252
 3921SOL    HW223223   0.013   1.878   1.169  2.3857 -0.8222  0.9197
 3922SOL     OW23224   3.297   2.984   4.073  0.7220  0.3530 -0.1029
 3922SOL    HW123225   3.303   2.943   4.159  2.6130  2.0538  0.5673
 3922SOL    HW223226   3.202   2.981   4.057  0.6098 -0.2550  0.6261
 3923SOL     OW23227   2.948   0.401  11.832  0.2416  0.1054  0.0495
 3923SOL    HW123228   3.018   0.337  11.817 -1.6146 -1.8448 -0.3693
 3923SOL    HW223229   2.986   0.460  11.896  0.3520  0.3662 -0.2570
 3924SOL     OW23230   1.433   1.015   1.544  0.0966 -0.2379 -0.3557
 3924SOL    HW123231   1.385   0.977   1.617 -0.5285  0.9875 -0.1263
 3924SOL    HW223232   1.438   1.108   1.568 -3.9641 -0.0947 -0.0389
 3925SOL     OW23233   3.079   3.359  17.240 -0.0251  0.1126 -0.3223
 3925SOL    HW123234   3.124   3.443  17.243  0.4477 -0.1196 -0.9650
 3925SOL    HW223235   3.035   3.363  17.325 -3.4456 -0.1500 -2.0653
 3926SOL     OW23236   2.291   4.109  10.674 -0.2059 -0.1283 -0.1738
 3926SOL    HW123237   2.384   4.096  10.656  0.3599  1.3935  1.5386
 3926SOL    HW223238   2.267   4.017  10.681  1.1933 -0.4287  0.8287
 3927SOL     OW23239   1.369   3.478   9.192  0.0073  0.8648 -0.2265
 3927SOL    HW123240   1.421   3.454   9.269 -0.0531 -1.0067 -0.7611
 3927SOL    HW223241   1.311   3.402   9.192  0.4749  0.5118 -0.0379
 3928SOL     OW23242   3.397   2.314   9.369  0.0748 -0.1283  0.4032
 3928SOL    HW123243   3.402   2.370   9.446  2.4030  1.6645 -1.0313
 3928SOL    HW223244   3.393   2.375   9.296 -2.1619  0.0834  0.7103
 3929SOL     OW23245   0.151   3.794   3.715 -0.1901 -0.2831 -0.1289
 3929SOL    HW123246   0.151   3.884   3.683 -3.0946  0.0610  0.8338
 3929SOL    HW223247   0.235   3.794   3.761 -0.3583 -0.2035  0.1774
 3930SOL     OW23248   0.598   4.631  15.859  0.0069  0.1650 -0.0480
 3930SOL    HW123249   0.646   4.714  15.865  1.5692 -0.7699  0.4953
 3930SOL    HW223250   0.632   4.595  15.941 -2.1682  0.6073  1.0423
 3931SOL     OW23251   0.416   3.277   2.398 -0.3898  0.0637 -0.4256
 3931SOL    HW123252   0.390   3.203   2.343  0.5397 -1.3970  1.1188
 3931SOL    HW223253   0.511   3.278   2.388 -0.1234  1.7176  2.3168
 3932SOL     OW23254   4.213   3.712   8.835  0.5891  0.3955 -0.3817
 3932SOL    HW123255   4.130   3.667   8.823  1.1796 -0.8103  0.1043
 3932SOL    HW223256   4.222   3.749   8.747  0.3020 -1.4109 -1.1725
 3933SOL     OW23257   1.455   4.693   9.526 -0.4347  0.5254  0.0077
 3933SOL    HW123258   1.399   4.699   9.449  2.1178 -1.0933 -1.9800
 3933SOL    HW223259   1.406   0.024   9.586 -0.5703  0.8159 -0.3738
 3934SOL     OW23260   2.748   2.804  16.303  0.0862  0.1022 -0.2514
 3934SOL    HW123261   2.691   2.880  16.315  1.4099  0.9308  0.6886
 3934SOL    HW223262   2.831   2.849  16.315  0.9622 -1.5777 -0.1104
 3935SOL     OW23263   4.701   4.541  17.329 -0.2743  0.8266 -0.2462
 3935SOL    HW123264   0.067   4.522  17.355  0.1265  2.0932 -0.7407
 3935SOL    HW223265   4.721   4.529  17.236 -1.9851  2.6293 -0.8214
 3936SOL     OW23266   3.521   1.407   3.215  0.1071 -0.1145  0.0514
 3936SOL    HW123267   3.531   1.341   3.283 -0.3223  0.5738  0.7719
 3936SOL    HW223268   3.613   1.436   3.212  0.0470  0.0156 -0.4952
 3937SOL     OW23269   1.119   4.366  16.445  0.3738  0.3201  0.7280
 3937SOL    HW123270   1.148   4.310  16.517  0.7982  0.9278  1.0293
 3937SOL    HW223271   1.051   4.413  16.492 -0.3805 -0.7037  0.6547
 3938SOL     OW23272   4.460   3.408   8.938 -0.3842 -0.3981  0.1384
 3938SOL    HW123273   4.387   3.428   8.997 -0.1261  0.3839  0.2051
 3938SOL    HW223274   4.485   3.318   8.958 -3.4061 -1.6833 -1.8318
 3939SOL     OW23275   0.257   4.462   5.711 -0.2418 -0.3952 -0.3577
 3939SOL    HW123276   0.284   4.410   5.787 -1.0062  0.1631  0.2976
 3939SOL    HW223277   0.346   4.490   5.689  0.2466 -1.9128 -0.2668
 3940SOL     OW23278   4.153   4.698   9.178  0.0109 -0.3005 -0.7623
 3940SOL    HW123279   4.091   4.631   9.207  0.3249 -0.6594 -0.9181
 3940SOL    HW223280   4.117   4.720   9.093 -0.5808 -1.8547 -0.9249
 3941SOL     OW23281   1.854   0.544  11.098  0.1341  0.7273  0.8388
 3941SOL    HW123282   1.766   0.539  11.138  0.3438 -0.4745  1.1308
 3941SOL    HW223283   1.906   0.542  11.178  0.4162 -3.0399  0.5354
 3942SOL     OW23284   3.355   1.323   7.235  0.0954  0.0818  0.0082
 3942SOL    HW123285   3.436   1.285   7.201  0.3434 -0.8615  1.6707
 3942SOL    HW223286   3.334   1.276   7.315 -0.5202  1.4621  0.6556
 3943SOL     OW23287   1.455   1.257   7.710 -0.0416  0.4943  0.3836
 3943SOL    HW123288   1.460   1.313   7.788  3.4440 -1.1409  1.3771
 3943SOL    HW223289   1.453   1.326   7.644  0.1077 -0.1143 -0.2640
 3944SOL     OW23290   1.480   0.823   7.272  0.0214 -0.5328 -0.2724
 3944SOL    HW123291   1.405   0.783   7.230 -1.1106 -0.8708  2.0738
 3944SOL    HW223292   1.507   0.756   7.335  0.9112 -0.0454 -0.1351
 3945SOL     OW23293   3.392   3.718   2.138  0.2140  0.7607  0.5984
 3945SOL    HW123294   3.427   3.694   2.224  1.1093 -0.6559 -0.1630
 3945SOL    HW223295   3.329   3.649   2.116 -2.2544  2.7190  1.5023
 3946SOL     OW23296   0.296   3.049   2.273 -0.2839  0.5471 -0.1595
 3946SOL    HW123297   0.249   2.988   2.216  0.5038  0.5849 -0.8415
 3946SOL    HW223298   0.223   3.072   2.331 -0.1322 -1.1688  0.7309
 3947SOL     OW23299   0.484   2.798   9.464 -0.6295 -0.3919  0.2046
 3947SOL    HW123300   0.505   2.818   9.555  0.1715 -0.8570  0.1251
 3947SOL    HW223301   0.520   2.709   9.456 -2.0369 -0.8170 -1.2838
 3948SOL     OW23302   2.171   0.373   8.811  0.4322 -0.4524  0.0508
 3948SOL    HW123303   2.138   0.448   8.861  3.0788  0.1425  0.8763
 3948SOL    HW223304   2.098   0.354   8.753 -0.0291 -1.9631  1.1072
 3949SOL     OW23305   2.890   2.406   9.880  0.3064  0.3936  0.1963
 3949SOL    HW123306   2.978   2.394   9.917  1.2722 -1.3202 -2.7114
 3949SOL    HW223307   2.841   2.328   9.905 -0.4502  0.2971 -1.6743
 3950SOL     OW23308   3.344   4.284   3.846  0.2304  0.1516  0.2779
 3950SOL    HW123309   3.283   4.353   3.872  0.3601  0.3038  0.1743
 3950SOL    HW223310   3.349   4.297   3.751  0.8664 -0.3526  0.2417
 3951SOL     OW23311   4.415   2.869   7.536  0.0945  0.1863  0.3536
 3951SOL    HW123312   4.364   2.934   7.583 -1.1703 -1.1305  0.7944
 3951SOL    HW223313   4.446   2.816   7.609 -2.8873 -0.8351  0.8969
 3952SOL     OW23314   2.534   2.434  11.235  0.2699 -0.2114  0.4430
 3952SOL    HW123315   2.609   2.445  11.292  0.9853 -1.6952 -0.1961
 3952SOL    HW223316   2.476   2.388  11.296 -0.7970  2.0652  1.1276
 3953SOL     OW23317   1.466   0.203   6.970 -0.5911 -0.7409  0.5650
 3953SOL    HW123318   1.390   0.203   7.028 -1.1573  0.2731 -0.1742
 3953SOL    HW223319   1.527   0.255   7.022 -1.2200  0.1504  0.4198
 3954SOL     OW23320   3.075   3.194   1.099  0.1808 -0.8290 -0.2764
 3954SOL    HW123321   2.994   3.168   1.143  0.9041 -2.0701  0.3266
 3954SOL    HW223322   3.128   3.124   1.137  1.8776  0.8442  0.4115
 3955SOL     OW23323   2.777   4.642   4.827  0.1504  0.0835  0.0645
 3955SOL    HW123324   2.693   4.668   4.788  1.1203  2.7282 -0.2422
 3955SOL    HW223325   2.741   4.581   4.891  0.4924 -1.4027 -1.1586
 3956SOL     OW23326   1.532   3.816   9.017 -0.7113  0.2097 -0.3783
 3956SOL    HW123327   1.442   3.784   9.016  0.0431 -1.8763 -0.4547
 3956SOL    HW223328   1.569   3.788   9.100 -1.3703  0.7633  0.0993
 3957SOL     OW23329   1.609   1.593  10.898 -0.4821  0.2027 -0.2325
 3957SOL    HW123330   1.575   1.504  10.911  2.0810 -0.6976  0.1823
 3957SOL    HW223331   1.703   1.578  10.887 -0.4099  0.7495 -0.3386
 3958SOL     OW23332   3.883   2.152  16.252  0.2968  0.0185 -0.2057
 3958SOL    HW123333   3.865   2.087  16.184 -0.7008  0.5013 -0.4036
 3958SOL    HW223334   3.860   2.228  16.198  2.7588  0.6448 -0.4015
 3959SOL     OW23335   1.836   4.521   9.125  0.0211  0.1849  0.4425
 3959SOL    HW123336   1.892   4.594   9.100  0.5248 -1.0924 -2.0958
 3959SOL    HW223337   1.844   4.528   9.221 -0.8611  0.3434  0.5144
 3960SOL     OW23338   1.388   2.026  12.836  0.2362 -0.1227  0.6942
 3960SOL    HW123339   1.394   1.932  12.815  1.5610 -0.1133  1.0319
 3960SOL    HW223340   1.441   2.074  12.773 -0.5297  1.0286  0.9282
 3961SOL     OW23341   4.688   0.089   3.620  0.0411  0.3630 -0.0284
 3961SOL    HW123342   0.047   0.054   3.650 -0.2876 -0.6313 -0.2674
 3961SOL    HW223343   4.646   0.011   3.583 -1.0622  0.0608  1.8453
 3962SOL     OW23344   2.219   3.338  11.528  0.0370 -0.4485 -0.6412
 3962SOL    HW123345   2.276   3.346  11.452  0.1003  1.0870 -0.4466
 3962SOL    HW223346   2.135   3.370  11.497 -0.0605  0.3298  0.3993
 3963SOL     OW23347   1.573   2.630   6.259 -0.4486  0.2186 -0.0840
 3963SOL    HW123348   1.572   2.664   6.349 -0.5225 -1.2932  0.4909
 3963SOL    HW223349   1.481   2.603   6.256  0.2117 -1.8890 -1.0512
 3964SOL     OW23350   2.943   0.090   9.485  0.2218 -0.3035  0.1599
 3964SOL    HW123351   2.939   0.024   9.554  0.0830  0.0087  0.4487
 3964SOL    HW223352   2.849   0.094   9.465  0.8273 -0.5789 -2.6930
 3965SOL     OW23353   4.433   2.380  12.585  0.1611 -0.5898  0.3988
 3965SOL    HW123354   4.406   2.437  12.513  0.8221  0.1795  0.7655
 3965SOL    HW223355   4.389   2.299  12.560  1.1579 -0.7586 -0.8369
 3966SOL     OW23356   1.216   3.526  13.418  0.0766  0.1517  0.3032
 3966SOL    HW123357   1.154   3.565  13.479 -0.5457  1.4041 -1.1450
 3966SOL    HW223358   1.274   3.602  13.415  0.5228 -0.3034 -2.3271
 3967SOL     OW23359   2.639   3.312   0.070 -0.1724  0.1567  0.1256
 3967SOL    HW123360   2.648   3.358  17.687  2.2310 -0.0949  0.2484
 3967SOL    HW223361   2.573   3.244   0.053  0.6327 -0.5065 -0.3510
 3968SOL     OW23362   4.222   2.096   1.770 -0.5098  0.5509  0.2188
 3968SOL    HW123363   4.212   2.142   1.853  1.5898 -1.4851  1.6205
 3968SOL    HW223364   4.311   2.065   1.786 -0.5212  0.2531 -0.3123
 3969SOL     OW23365   3.731   3.399   6.252  0.5808  0.1042 -0.6602
 3969SOL    HW123366   3.743   3.473   6.193 -1.8519  0.7423 -0.3672
 3969SOL    HW223367   3.666   3.441   6.309 -0.4021 -0.4949 -1.3358
 3970SOL     OW23368   0.470   2.509   6.924 -0.1318  1.0202  0.5661
 3970SOL    HW123369   0.390   2.465   6.895  2.0740 -2.0031 -0.9327
 3970SOL    HW223370   0.437   2.594   6.952 -0.5949  1.3213 -0.8907
 3971SOL     OW23371   0.077   4.289  13.226 -0.1096  0.6296  0.3526
 3971SOL    HW123372   0.141   4.253  13.287  1.7684 -0.3198 -2.1945
 3971SOL    HW223373   0.042   4.218  13.173  1.6480  1.2729 -1.6615
 3972SOL     OW23374   3.314   2.245   9.038 -0.1059  0.2574  0.2533
 3972SOL    HW123375   3.368   2.280   9.109 -1.2229 -0.3597  1.4292
 3972SOL    HW223376   3.228   2.238   9.081  0.0919 -0.1900  0.5734
 3973SOL     OW23377   1.566   2.350   3.964 -0.2058 -0.6036  0.2748
 3973SOL    HW123378   1.599   2.333   3.876 -0.3599 -0.7925  0.2548
 3973SOL    HW223379   1.476   2.318   3.960 -0.6744  0.7899 -0.5198
 3974SOL     OW23380   2.330   0.326   3.749 -0.0917 -0.8372  0.1621
 3974SOL    HW123381   2.383   0.254   3.784  0.9802 -1.0881 -1.9879
 3974SOL    HW223382   2.391   0.364   3.686 -1.1662 -1.0667 -1.0183
 3975SOL     OW23383   0.733   3.471   3.797 -0.5241 -0.0416 -0.0867
 3975SOL    HW123384   0.804   3.425   3.754  0.5193  0.3136  1.2652
 3975SOL    HW223385   0.689   3.400   3.842  0.4641  2.2709  4.5404
 3976SOL     OW23386   4.019   0.014   6.545 -0.3191 -0.2126  0.0339
 3976SOL    HW123387   3.924   0.008   6.536 -0.3375  0.9023 -0.4132
 3976SOL    HW223388   4.040   4.689   6.624 -1.3006  0.0015  0.4254
 3977SOL     OW23389   2.041   1.544   4.022  0.2027  0.5581 -0.5535
 3977SOL    HW123390   2.076   1.489   3.952 -1.4918 -1.1187 -0.1014
 3977SOL    HW223391   2.104   1.537   4.094 -0.9567 -0.4881  0.3511
 3978SOL     OW23392   3.499   2.360   5.469  0.0142  0.2681 -0.0732
 3978SOL    HW123393   3.445   2.351   5.390 -4.5419  1.4203  2.9193
 3978SOL    HW223394   3.572   2.411   5.434 -1.7278  2.2457 -0.8618
 3979SOL     OW23395   1.724   2.377   3.745  0.2442 -0.0081  0.4519
 3979SOL    HW123396   1.813   2.406   3.767  1.6936 -2.6060 -1.9808
 3979SOL    HW223397   1.690   2.443   3.685 -1.2892 -1.4959 -0.3148
 3980SOL     OW23398   1.804   0.988   4.785  0.4900  0.4538 -0.3177
 3980SOL    HW123399   1.896   0.990   4.759  0.0005  0.1316 -2.0741
 3980SOL    HW223400   1.797   0.902   4.826  0.7785 -1.1541 -3.6426
 3981SOL     OW23401   0.628   1.247   9.018  0.6416  0.3369 -0.3195
 3981SOL    HW123402   0.720   1.246   9.045 -0.4744 -1.1147  3.4675
 3981SOL    HW223403   0.601   1.256   9.109  0.6087  0.0235 -0.2987
 3982SOL     OW23404   1.052   4.340  12.328 -0.3296 -0.4971 -0.4181
 3982SOL    HW123405   1.081   4.339  12.237 -0.4931  1.8055 -0.4905
 3982SOL    HW223406   1.127   4.371  12.379  0.1606  1.7144 -2.4567
 3983SOL     OW23407   2.848   3.524   5.336 -0.0180 -0.2164  0.5293
 3983SOL    HW123408   2.783   3.592   5.319  2.5543  1.7053 -1.5401
 3983SOL    HW223409   2.847   3.532   5.431  1.2663 -3.3024  0.8161
 3984SOL     OW23410   3.914   2.610   2.445 -0.1299  0.0256  0.5677
 3984SOL    HW123411   3.866   2.543   2.494  0.4480  0.2361  1.4154
 3984SOL    HW223412   4.001   2.573   2.459 -0.4702 -1.0894 -0.2833
 3985SOL     OW23413   1.530   4.612   7.222 -0.5517 -0.0144  1.0363
 3985SOL    HW123414   1.477   4.582   7.296 -0.3346 -1.4826  0.5991
 3985SOL    HW223415   1.468   4.651   7.161 -0.4418  0.9895  1.5735
 3986SOL     OW23416   3.277   0.332   5.681 -0.2687  0.4532  0.0468
 3986SOL    HW123417   3.265   0.395   5.610  1.0127  2.3643  1.4867
 3986SOL    HW223418   3.255   0.253   5.632 -0.9573  2.4358 -2.8581
 3987SOL     OW23419   0.745   1.352   1.875 -0.7073 -0.2113  0.0585
 3987SOL    HW123420   0.650   1.364   1.871 -0.3945  2.8524  1.5603
 3987SOL    HW223421   0.743   1.276   1.934  0.5448 -0.9871 -0.9104
 3988SOL     OW23422   3.647   3.761   1.969 -0.4525  0.3776  0.0723
 3988SOL    HW123423   3.682   3.673   1.982 -1.8338 -0.5359 -2.5337
 3988SOL    HW223424   3.571   3.759   2.028 -0.6136  1.2537 -0.0973
 3989SOL     OW23425   1.312   3.619   4.493  0.0722  0.5572  0.1111
 3989SOL    HW123426   1.383   3.643   4.433  2.2604  0.0245  2.4595
 3989SOL    HW223427   1.267   3.543   4.455  0.3999  0.5551 -0.2791
 3990SOL     OW23428   3.048   2.626   5.640  0.0214 -0.4460  0.3592
 3990SOL    HW123429   3.034   2.708   5.593 -1.1576 -2.6057 -3.0338
 3990SOL    HW223430   3.141   2.611   5.623 -0.0975 -0.9732  0.1667
 3991SOL     OW23431   2.122   0.820   8.705  0.3041  0.3651  0.2629
 3991SOL    HW123432   2.205   0.785   8.672  0.7033  0.0630  1.5848
 3991SOL    HW223433   2.102   0.882   8.636 -0.3112  2.0065  1.9245
 3992SOL     OW23434   2.223   2.897  12.255  0.4274 -0.1357 -0.1031
 3992SOL    HW123435   2.128   2.901  12.263  0.5737  3.4150 -0.0593
 3992SOL    HW223436   2.238   2.847  12.335 -0.3942 -0.5411 -0.1978
 3993SOL     OW23437   0.410   1.153   2.040 -0.3488 -0.0811  0.3051
 3993SOL    HW123438   0.318   1.149   2.069 -0.4434 -3.0817 -0.3330
 3993SOL    HW223439   0.433   1.064   2.068 -1.1214 -0.6937 -0.9679
 3994SOL     OW23440   3.583   1.695   6.476  0.1373 -0.3318  0.4187
 3994SOL    HW123441   3.618   1.679   6.389 -0.6837 -0.4845  0.1102
 3994SOL    HW223442   3.515   1.761   6.458  0.0434 -0.3896  0.5615
 3995SOL     OW23443   2.268   1.830   7.253  0.3954  0.1930  0.3732
 3995SOL    HW123444   2.269   1.763   7.322  0.4174 -0.1429  0.0517
 3995SOL    HW223445   2.175   1.848   7.240  0.3163 -2.2263 -2.3497
 3996SOL     OW23446   0.241   4.182  11.548 -0.0511  0.1368 -0.0099
 3996SOL    HW123447   0.192   4.110  11.507 -1.6201  1.9586 -1.3227
 3996SOL    HW223448   0.191   4.200  11.627  1.5537  2.6710  0.4381
 3997SOL     OW23449   3.768   1.064   6.444  0.0434 -0.2301  0.4969
 3997SOL    HW123450   3.762   1.105   6.358  2.8194 -2.4020 -0.7303
 3997SOL    HW223451   3.805   1.126   6.506  1.3355 -1.0066  0.4955
 3998SOL     OW23452   0.822   2.796   9.789 -0.0763 -0.6959  0.5488
 3998SOL    HW123453   0.853   2.733   9.854  0.4586  2.0611  3.0089
 3998SOL    HW223454   0.868   2.874   9.822  0.2282 -1.3381  1.6454
 3999SOL     OW23455   1.251   2.865   9.226 -0.2202  0.8321 -0.2281
 3999SOL    HW123456   1.296   2.780   9.225 -1.7540  0.0023 -0.0815
 3999SOL    HW223457   1.179   2.847   9.288  0.9751 -0.7094  0.7065
 4000SOL     OW23458   3.940   1.400   2.966 -0.2949 -0.3263  0.1318
 4000SOL    HW123459   3.970   1.332   3.026  0.7942  1.1224  1.2541
 4000SOL    HW223460   3.851   1.378   2.942 -0.5017 -0.1235  0.7084
 4001SOL     OW23461   0.788   4.690   4.000  0.6087 -0.0295  0.2532
 4001SOL    HW123462   0.720   0.016   4.045 -0.1156 -2.0673  1.4484
 4001SOL    HW223463   0.851   0.037   4.009 -1.4534  2.0353 -1.6901
 4002SOL     OW23464   0.381   1.718   9.789 -0.1240  0.2350 -0.2745
 4002SOL    HW123465   0.394   1.629   9.821 -0.1053  0.7902  1.2871
 4002SOL    HW223466   0.390   1.703   9.695  1.0851  0.9881 -0.2853
 4003SOL     OW23467   4.694   1.152   5.504 -0.0482 -0.1224  0.0373
 4003SOL    HW123468   4.665   1.170   5.593 -0.9432 -1.8208  0.0939
 4003SOL    HW223469   4.704   1.240   5.468 -1.1162 -0.5754 -1.3814
 4004SOL     OW23470   1.557   2.616   3.019  0.0706 -0.1770 -0.2800
 4004SOL    HW123471   1.604   2.680   2.966  0.7346  0.0551  0.5823
 4004SOL    HW223472   1.613   2.539   3.009 -0.8200 -0.7862 -0.6716
 4005SOL     OW23473   0.601   0.912  16.519  0.0835  0.2658  0.0220
 4005SOL    HW123474   0.634   0.846  16.580  1.5252  1.0100  0.0443
 4005SOL    HW223475   0.579   0.853  16.447  3.5805 -1.9403  0.7613
 4006SOL     OW23476   0.335   2.835   4.846  0.6198  0.4922 -0.6473
 4006SOL    HW123477   0.278   2.804   4.917  1.2286  0.1740 -0.2962
 4006SOL    HW223478   0.306   2.926   4.841  0.2637  0.3650 -0.8583
 4007SOL     OW23479   3.807   4.507  11.125  0.2009  0.1306 -0.4614
 4007SOL    HW123480   3.713   4.494  11.114 -0.3125 -0.3440  4.4599
 4007SOL    HW223481   3.807   4.596  11.162 -0.3486  0.0071 -0.1618
 4008SOL     OW23482   2.092   0.726  17.527  0.3791  0.0948  0.1053
 4008SOL    HW123483   2.139   0.800  17.563 -1.7031  0.3839  2.2025
 4008SOL    HW223484   2.155   0.706  17.457  1.0474  2.2263  0.1140
 4009SOL     OW23485   4.565   0.790   3.550  0.5580 -0.0084 -0.3472
 4009SOL    HW123486   4.629   0.731   3.590  1.3174  0.3156 -1.0830
 4009SOL    HW223487   4.485   0.751   3.586  0.2137  0.2170 -0.8592
 4010SOL     OW23488   4.256   4.677   6.242  0.1185 -0.6572 -0.0986
 4010SOL    HW123489   4.236   4.705   6.331  1.7294  2.9993 -0.8640
 4010SOL    HW223490   4.218   4.590   6.250  0.2764 -0.6130  1.0324
 4011SOL     OW23491   0.265   4.148  12.987 -0.0726 -0.2931 -0.0763
 4011SOL    HW123492   0.237   4.087  13.055 -2.1978  2.1642  1.2401
 4011SOL    HW223493   0.325   4.195  13.044 -1.3374  0.8553  0.2980
 4012SOL     OW23494   3.909   2.834   7.521  0.4883 -0.4311  0.4378
 4012SOL    HW123495   3.935   2.853   7.611  1.3129 -0.8949  0.2963
 4012SOL    HW223496   3.988   2.868   7.478  0.6478 -0.3030  0.8363
 4013SOL     OW23497   2.285   0.442   9.148  0.2157 -0.0325  0.2981
 4013SOL    HW123498   2.194   0.469   9.160  0.0515 -1.4670  2.3248
 4013SOL    HW223499   2.320   0.520   9.105 -0.6110 -1.4118 -2.9462
 4014SOL     OW23500   3.714   2.094   3.158  0.2370  0.3549  0.5778
 4014SOL    HW123501   3.758   2.012   3.182  3.2860  2.2056  1.3368
 4014SOL    HW223502   3.792   2.149   3.166 -1.2087  2.5709 -0.5010
 4015SOL     OW23503   0.430   0.375   3.363  0.6097  0.3116  0.2233
 4015SOL    HW123504   0.408   0.455   3.411  1.0046 -0.0521  0.9953
 4015SOL    HW223505   0.403   0.412   3.279  2.2630 -0.4439 -0.6332
 4016SOL     OW23506   4.043   1.220   3.541  0.2435  0.0656 -0.7395
 4016SOL    HW123507   4.106   1.272   3.491  2.2421 -0.6814  0.9837
 4016SOL    HW223508   4.072   1.133   3.513 -1.2512 -1.6096  2.9708
 4017SOL     OW23509   2.697   4.397   0.642  0.7021 -0.1333  0.3214
 4017SOL    HW123510   2.625   4.401   0.578  1.2196  0.6628 -0.2137
 4017SOL    HW223511   2.769   4.428   0.587  2.0878 -4.4595 -0.3162
 4018SOL     OW23512   1.523   3.471   8.080  0.2958 -0.0140 -0.2962
 4018SOL    HW123513   1.540   3.409   8.150  0.2735 -0.4087 -0.6362
 4018SOL    HW223514   1.602   3.524   8.094  1.8804 -2.4609  0.0083
 4019SOL     OW23515   3.689   2.522   5.348  0.2171 -0.3817  0.2633
 4019SOL    HW123516   3.651   2.491   5.266  0.5532  1.6609 -0.6639
 4019SOL    HW223517   3.765   2.464   5.342  1.8597  1.6747  1.2770
 4020SOL     OW23518   4.653   2.351  14.949  0.0930  0.6176  0.3202
 4020SOL    HW123519   4.701   2.301  15.016  0.7706 -1.5483 -1.7741
 4020SOL    HW223520   4.637   2.285  14.882  0.6734 -0.4202  1.1937
 4021SOL     OW23521   3.878   1.496   2.680 -0.1437 -0.4758  0.4760
 4021SOL    HW123522   3.813   1.461   2.741 -1.2223 -0.4916 -0.6704
 4021SOL    HW223523   3.877   1.429   2.612 -1.3317  0.7989 -0.7743
 4022SOL     OW23524   3.570   1.434  16.557 -0.1770 -0.2528 -0.5840
 4022SOL    HW123525   3.515   1.356  16.551 -2.2213  1.1154  0.5039
 4022SOL    HW223526   3.503   1.501  16.569  0.8665  0.7915 -0.5182
 4023SOL     OW23527   1.793   0.456   3.799 -0.0387  0.2049  0.2912
 4023SOL    HW123528   1.874   0.406   3.789 -0.1589  0.4986 -1.9538
 4023SOL    HW223529   1.749   0.414   3.874 -1.4883  2.1175  0.5051
 4024SOL     OW23530   3.304   0.981  17.257 -0.2546  0.0913 -0.1498
 4024SOL    HW123531   3.341   1.038  17.190  0.5449  1.7468  1.7031
 4024SOL    HW223532   3.381   0.959  17.309  0.2902  0.3352 -0.8565
 4025SOL     OW23533   2.495   1.458   2.947  0.7742 -0.0277 -0.2262
 4025SOL    HW123534   2.497   1.363   2.955 -0.4398  0.0653  1.1971
 4025SOL    HW223535   2.456   1.481   3.032 -1.7437  0.8762 -1.6370
 4026SOL     OW23536   0.905   3.794   2.246 -0.0225 -0.3415 -0.2005
 4026SOL    HW123537   0.948   3.734   2.185  0.8689  0.3583 -0.2761
 4026SOL    HW223538   0.890   3.737   2.320  0.2953 -1.3269 -0.8895
 4027SOL     OW23539   1.580   4.486   1.845  0.6168 -0.4387  0.2580
 4027SOL    HW123540   1.631   4.562   1.819 -1.0919  0.1817 -1.2238
 4027SOL    HW223541   1.628   4.463   1.925  3.8146  1.8089 -1.0381
 4028SOL     OW23542   2.104   4.608   7.834 -0.6914 -0.3206 -0.6624
 4028SOL    HW123543   2.123   4.545   7.764  0.1830 -0.2352 -0.4972
 4028SOL    HW223544   2.185   4.613   7.884  0.6283  0.0502 -2.8203
 4029SOL     OW23545   3.908   2.308   3.378  0.4627  0.9074 -0.4312
 4029SOL    HW123546   3.844   2.374   3.353 -1.8778 -0.9199  0.8217
 4029SOL    HW223547   3.896   2.247   3.305 -0.3167  0.2214  0.2713
 4030SOL     OW23548   0.077   3.170   4.571 -0.1146  0.3881  0.1178
 4030SOL    HW123549   0.106   3.081   4.552  1.4454  0.4390  2.1881
 4030SOL    HW223550   0.164   3.211   4.576  0.9854 -1.6727 -1.9296
 4031SOL     OW23551   2.372   4.236   7.426  0.6195  0.5421  0.2143
 4031SOL    HW123552   2.431   4.310   7.414  0.2195  0.9911  1.0032
 4031SOL    HW223553   2.431   4.191   7.486  0.6485  1.5613  0.9542
 4032SOL     OW23554   0.815   1.528   2.383  0.1461 -0.0163  0.1328
 4032SOL    HW123555   0.774   1.457   2.333 -1.5878  0.7101  0.5209
 4032SOL    HW223556   0.876   1.480   2.440  1.6829  0.8721 -0.7627
 4033SOL     OW23557   3.911   1.187   8.980  0.4100  0.7123  0.1270
 4033SOL    HW123558   3.914   1.099   8.944  1.2932  0.7932 -0.0138
 4033SOL    HW223559   3.918   1.175   9.075 -1.8582  0.4512  0.2487
 4034SOL     OW23560   1.673   0.032   9.322 -0.2625 -0.1228  0.0883
 4034SOL    HW123561   1.605   0.013   9.386 -2.0247  1.0069 -1.4472
 4034SOL    HW223562   1.748   4.703   9.349 -1.7632 -1.4361  1.5987
 4035SOL     OW23563   3.897   4.701  15.896  0.0112  0.0294  0.0485
 4035SOL    HW123564   3.896   4.678  15.803  1.0847 -0.7249  0.2341
 4035SOL    HW223565   3.869   4.617  15.933  0.2594 -0.5327 -1.0457
 4036SOL     OW23566   0.603   1.366   4.854  0.9702  0.2923 -0.1291
 4036SOL    HW123567   0.514   1.400   4.865  0.0254 -1.9559 -0.9039
 4036SOL    HW223568   0.640   1.454   4.861 -1.3938  1.2832  0.1678
 4037SOL     OW23569   1.744   0.834  14.874 -0.1579  0.2439  0.6317
 4037SOL    HW123570   1.717   0.896  14.942  0.5019  2.0256 -0.7464
 4037SOL    HW223571   1.778   0.759  14.924 -0.4691  1.8435  3.2339
 4038SOL     OW23572   0.876   0.223   5.978 -0.3993  0.4189 -0.1131
 4038SOL    HW123573   0.889   0.155   6.044  3.1684  0.0247 -1.1834
 4038SOL    HW223574   0.933   0.288   6.021 -2.1901  0.9681  1.4269
 4039SOL     OW23575   3.478   3.534   7.193 -0.1922  0.0877  1.0000
 4039SOL    HW123576   3.478   3.629   7.196 -2.1537  0.1122  0.4472
 4039SOL    HW223577   3.561   3.518   7.149 -0.3519  0.4418  0.5690
 4040SOL     OW23578   0.681   1.086   3.119 -0.3275  0.2706  0.7657
 4040SOL    HW123579   0.616   1.051   3.180  0.1964 -1.9647  0.0365
 4040SOL    HW223580   0.656   1.177   3.101  1.9254 -0.0351 -3.9801
 4041SOL     OW23581   3.232   4.152   3.353  0.2062 -0.2307 -0.6075
 4041SOL    HW123582   3.307   4.207   3.378 -0.2338  1.6438 -3.4276
 4041SOL    HW223583   3.180   4.165   3.431  0.1592 -0.2744 -0.6316
 4042SOL     OW23584   2.739   3.415   5.070 -0.5251  0.3641  0.2268
 4042SOL    HW123585   2.787   3.458   5.140 -0.9936 -1.4695  1.6770
 4042SOL    HW223586   2.662   3.389   5.119 -0.9645 -3.5647 -2.5115
 4043SOL     OW23587   3.467   2.765   9.542  0.7503  0.4578  0.6992
 4043SOL    HW123588   3.401   2.824   9.507 -0.3653 -1.3571 -0.2716
 4043SOL    HW223589   3.545   2.800   9.501  0.0284  2.0179  0.6482
 4044SOL     OW23590   3.790   0.109   5.415  0.0782 -0.5173 -0.5050
 4044SOL    HW123591   3.828   0.024   5.391 -0.5323 -1.6698  2.5094
 4044SOL    HW223592   3.786   0.142   5.326 -1.0652 -1.1027 -0.6682
 4045SOL     OW23593   1.184   2.110  14.519 -0.0370  0.0231 -0.1090
 4045SOL    HW123594   1.177   2.125  14.425 -1.6744 -1.9702 -0.2990
 4045SOL    HW223595   1.154   2.196  14.547  1.3799  0.0976  1.2156
 4046SOL     OW23596   1.795   2.916  12.565  0.1034 -0.9114 -0.1745
 4046SOL    HW123597   1.773   2.846  12.627  0.1031 -2.2266 -1.6527
 4046SOL    HW223598   1.800   2.981  12.635  1.0460 -0.5271 -0.6103
 4047SOL     OW23599   2.993   2.120  14.140 -0.2188  0.0037  0.0089
 4047SOL    HW123600   3.031   2.062  14.073 -1.5393 -0.5478 -0.2572
 4047SOL    HW223601   2.931   2.162  14.081 -0.2647  0.2518  0.2343
 4048SOL     OW23602   0.898   2.485   1.957  0.7522 -0.7049 -0.2173
 4048SOL    HW123603   0.919   2.397   1.925  1.7409 -0.3907 -0.4269
 4048SOL    HW223604   0.811   2.477   1.995  0.7318  0.1526 -0.1030
 4049SOL     OW23605   1.823   4.525   6.746  0.2136  0.3489 -0.7085
 4049SOL    HW123606   1.745   4.512   6.692  0.1062 -0.6852 -0.3163
 4049SOL    HW223607   1.890   4.514   6.679 -1.5586 -2.6062 -1.9961
 4050SOL     OW23608   2.245   0.338   8.362 -0.1385  0.1536 -0.2683
 4050SOL    HW123609   2.220   0.255   8.322 -0.8746  0.8219 -1.1980
 4050SOL    HW223610   2.232   0.405   8.295  0.2106 -0.8184 -1.3099
 4051SOL     OW23611   1.170   1.050  16.027  0.0263 -0.2529  0.0863
 4051SOL    HW123612   1.203   1.102  16.101 -0.7645  2.8323 -1.7403
 4051SOL    HW223613   1.102   1.103  15.986  0.0602 -0.1974  0.1009
 4052SOL     OW23614   0.475   2.478  16.315  0.0385 -0.3930  0.4328
 4052SOL    HW123615   0.444   2.568  16.322 -2.1202 -1.1865  1.0776
 4052SOL    HW223616   0.409   2.432  16.261 -0.2404  1.8915 -1.1586
 4053SOL     OW23617   2.696   0.811   5.326  0.3020 -0.1048  0.7073
 4053SOL    HW123618   2.705   0.814   5.421  0.5718  0.3282  0.6650
 4053SOL    HW223619   2.645   0.731   5.313 -0.8338  1.4400 -4.2130
 4054SOL     OW23620   3.874   0.018   5.891 -0.1067 -0.8925 -0.0882
 4054SOL    HW123621   3.828   0.039   5.971  0.7501 -1.1316  0.4728
 4054SOL    HW223622   3.934   4.675   5.925 -0.5105 -0.3455  1.6715
 4055SOL     OW23623   0.140   2.734   2.373 -0.2920 -0.3061  0.0792
 4055SOL    HW123624   0.160   2.799   2.306 -1.7918  0.0201 -0.0494
 4055SOL    HW223625   0.055   2.701   2.345  0.3939  0.0873 -2.4853
 4056SOL     OW23626   3.832   4.604   8.662  0.4414  0.1971 -0.3446
 4056SOL    HW123627   3.922   4.636   8.664 -0.6451  3.1094  1.2282
 4056SOL    HW223628   3.852   4.513   8.685  0.2351  0.3014  0.2295
 4057SOL     OW23629   1.958   1.025   2.403  0.4158  0.0151 -0.1051
 4057SOL    HW123630   1.898   0.970   2.453 -1.2809  1.1190 -0.9265
 4057SOL    HW223631   1.927   1.024   2.312  0.0233 -1.9711  0.0482
 4058SOL     OW23632   4.666   0.365  16.460  0.5532 -0.3274 -0.5311
 4058SOL    HW123633   4.645   0.418  16.383  1.1711  1.0363  0.2362
 4058SOL    HW223634   4.649   0.420  16.537 -0.0916 -3.1929  1.3509
 4059SOL     OW23635   3.132   2.289  13.758  0.4381 -0.0691  0.3348
 4059SOL    HW123636   3.217   2.312  13.795 -0.3814 -0.0311  2.1952
 4059SOL    HW223637   3.104   2.380  13.748  4.3136  1.1869  0.7342
 4060SOL     OW23638   0.913   0.038  12.929  0.4178 -0.0458  0.1335
 4060SOL    HW123639   1.003   0.038  12.898 -0.5336 -4.2516 -2.6022
 4060SOL    HW223640   0.884   0.121  12.891 -0.3811  0.5364  2.0152
 4061SOL     OW23641   0.464   0.109   8.690  0.2064  0.3053  0.1569
 4061SOL    HW123642   0.520   0.174   8.733 -0.3133  0.5614  0.4480
 4061SOL    HW223643   0.521   0.036   8.664  1.8783  1.5521  0.2961
 4062SOL     OW23644   4.050   0.715   7.582  0.4578  0.0976  0.4690
 4062SOL    HW123645   3.983   0.713   7.650  0.9013 -1.9212  0.8730
 4062SOL    HW223646   4.075   0.805   7.600 -1.3648  0.5244  0.8241
 4063SOL     OW23647   0.078   0.935  13.667  0.3852 -0.4563 -0.2259
 4063SOL    HW123648   0.014   1.006  13.673  0.2963 -0.5504 -0.0430
 4063SOL    HW223649   0.016   0.864  13.649 -1.1339  0.2889  2.0118
 4064SOL     OW23650   2.117   0.226   9.303  0.1345 -0.1330  0.2069
 4064SOL    HW123651   2.171   0.263   9.373 -0.5085  1.2189 -0.0026
 4064SOL    HW223652   2.167   0.254   9.226 -3.0043  0.5649 -1.5812
 4065SOL     OW23653   0.485   3.782   7.183 -0.2645  0.4034  0.5267
 4065SOL    HW123654   0.484   3.834   7.102  0.7863  1.7535  1.4041
 4065SOL    HW223655   0.564   3.732   7.163  0.1442  0.5659  1.7925
 4066SOL     OW23656   2.116   2.617   8.279  0.0146  0.4772  1.0822
 4066SOL    HW123657   2.061   2.687   8.315 -1.2929  0.3838 -0.7620
 4066SOL    HW223658   2.197   2.666   8.262 -0.2254  1.3994  2.6066
 4067SOL     OW23659   0.340   1.087   6.629  0.0681  0.3037 -0.0669
 4067SOL    HW123660   0.270   1.052   6.574  0.3543 -0.1067 -0.1714
 4067SOL    HW223661   0.415   1.061   6.575  0.3324 -0.6207  0.7305
 4068SOL     OW23662   3.871   0.811   4.130 -0.5407 -0.2135 -0.1341
 4068SOL    HW123663   3.962   0.780   4.135 -0.5775 -0.4338 -0.8211
 4068SOL    HW223664   3.826   0.727   4.138 -2.8550  1.0547 -0.0996
 4069SOL     OW23665   0.620   2.911   4.178 -0.1674 -0.1876  0.1531
 4069SOL    HW123666   0.647   2.883   4.266  2.0525 -0.8468 -0.7326
 4069SOL    HW223667   0.528   2.932   4.195  0.4157  1.6893  0.9679
 4070SOL     OW23668   2.253   2.614   3.626 -0.0883 -0.2065  0.9719
 4070SOL    HW123669   2.215   2.606   3.539  1.7883  0.6564  0.0868
 4070SOL    HW223670   2.297   2.529   3.636 -1.8422 -1.0997  1.0950
 4071SOL     OW23671   4.162   1.352   6.993 -0.6601 -0.3098 -0.1997
 4071SOL    HW123672   4.074   1.350   6.954 -1.7039  0.1117  2.0689
 4071SOL    HW223673   4.200   1.266   6.978  2.4193  0.9826  0.2655
 4072SOL     OW23674   4.503   1.351   9.394  0.0462 -0.1306  0.1657
 4072SOL    HW123675   4.430   1.300   9.361  0.4417 -0.2317 -0.5537
 4072SOL    HW223676   4.560   1.343   9.317  0.3403 -2.1845  0.6174
 4073SOL     OW23677   4.705   1.653   2.310 -0.3218  0.2541 -0.2123
 4073SOL    HW123678   4.656   1.573   2.292  0.7493 -0.1226 -1.4791
 4073SOL    HW223679   0.012   1.682   2.224 -0.1271 -1.3751 -0.6843
 4074SOL     OW23680   0.675   3.857   0.895  0.1549  0.5485  0.0570
 4074SOL    HW123681   0.744   3.846   0.829 -1.3260 -2.7002 -0.9227
 4074SOL    HW223682   0.729   3.847   0.973 -1.0758 -0.3631  0.7908
 4075SOL     OW23683   1.870   4.404  15.655 -0.1854  0.5417  0.6120
 4075SOL    HW123684   1.913   4.328  15.617 -0.0705  1.1955 -0.5611
 4075SOL    HW223685   1.776   4.385  15.657  0.4668 -2.5171  1.7997
 4076SOL     OW23686   2.235   4.302   9.009  0.0240  0.0261  0.1249
 4076SOL    HW123687   2.305   4.264   9.062  0.6689  1.3398  0.2219
 4076SOL    HW223688   2.185   4.223   8.990 -3.7934  2.5314 -0.3862
 4077SOL     OW23689   2.252   2.137   3.221  0.0566 -0.2943  0.4013
 4077SOL    HW123690   2.258   2.182   3.136  1.9866  0.0862  0.7481
 4077SOL    HW223691   2.219   2.049   3.200  0.1698  0.4333 -2.8948
 4078SOL     OW23692   2.514   3.906   6.619 -0.1871 -0.2246  0.3036
 4078SOL    HW123693   2.595   3.857   6.611 -0.4476 -0.6062 -0.0229
 4078SOL    HW223694   2.486   3.877   6.706 -0.3927 -0.4609  0.1607
 4079SOL     OW23695   4.479   3.634   8.809  0.2657  0.2687  0.3115
 4079SOL    HW123696   4.490   3.555   8.862  0.9218  0.5589  0.6045
 4079SOL    HW223697   4.389   3.654   8.835  0.1942  2.0450 -1.3240
 4080SOL     OW23698   1.988   3.117   1.473  0.3798  0.4431  0.0125
 4080SOL    HW123699   1.927   3.047   1.450  0.0932  0.3939  0.9174
 4080SOL    HW223700   2.072   3.077   1.448 -0.1481 -1.0044  0.5355
 4081SOL     OW23701   2.920   2.275  12.788 -0.3519  0.6010 -0.2008
 4081SOL    HW123702   2.879   2.224  12.718  0.1451  1.3827 -1.0643
 4081SOL    HW223703   2.877   2.359  12.772 -0.8417  0.2441 -0.7525
 4082SOL     OW23704   0.873   1.801  11.290 -0.3497  0.2683  0.4560
 4082SOL    HW123705   0.931   1.776  11.362 -1.0962  0.5818  1.1668
 4082SOL    HW223706   0.812   1.852  11.343  0.4403 -0.2197  1.8200
 4083SOL     OW23707   2.317   3.427  16.618 -0.1706 -0.5118 -0.1500
 4083SOL    HW123708   2.325   3.449  16.711 -1.5505 -0.2763 -0.0788
 4083SOL    HW223709   2.300   3.509  16.572  1.6702 -1.4969 -2.5522
 4084SOL     OW23710   4.039   4.275  15.544 -0.3150  0.0678 -0.1640
 4084SOL    HW123711   4.059   4.327  15.466  0.2946 -1.4310 -0.9973
 4084SOL    HW223712   4.087   4.196  15.518  1.0398  0.7362  0.2744
 4085SOL     OW23713   1.471   1.137   5.008 -0.0602 -0.0645  0.0434
 4085SOL    HW123714   1.392   1.131   5.063 -0.1233  0.3433  0.0006
 4085SOL    HW223715   1.516   1.214   5.044 -1.0216  1.1869 -1.4445
 4086SOL     OW23716   1.887   2.414  14.760 -0.1356  0.5941 -0.4239
 4086SOL    HW123717   1.973   2.371  14.764 -0.3078  0.4115  1.4978
 4086SOL    HW223718   1.867   2.402  14.853 -1.8638 -1.1178 -0.9967
 4087SOL     OW23719   1.291   4.427  12.503  0.3582  0.1009 -0.0925
 4087SOL    HW123720   1.241   4.363  12.552  2.1116 -0.6104  0.7746
 4087SOL    HW223721   1.380   4.405  12.531  0.5446 -0.5219 -1.1614
 4088SOL     OW23722   2.377   1.259  16.599 -0.4582 -0.8238 -0.4450
 4088SOL    HW123723   2.308   1.313  16.636  0.4206  0.1422 -0.2166
 4088SOL    HW223724   2.347   1.168  16.603 -2.7283  0.0697  2.6758
 4089SOL     OW23725   4.163   1.493   8.494  0.1016 -0.1532 -0.0191
 4089SOL    HW123726   4.073   1.465   8.481  0.1014  0.1130 -0.5930
 4089SOL    HW223727   4.160   1.584   8.524 -0.9362 -0.0636 -0.4041
 4090SOL     OW23728   4.241   0.149  13.383  0.0203 -0.5664  0.1907
 4090SOL    HW123729   4.336   0.146  13.395 -0.4070 -3.6995  2.8129
 4090SOL    HW223730   4.236   0.206  13.306  2.1169  1.3458  1.4774
 4091SOL     OW23731   2.826   3.531  13.677 -0.3481 -0.3326  0.1689
 4091SOL    HW123732   2.737   3.567  13.680 -0.7042 -1.3077  1.6114
 4091SOL    HW223733   2.885   3.604  13.657  0.0496 -0.4517  0.9064
 4092SOL     OW23734   1.727   0.710   5.647  0.2279 -0.2482  0.2774
 4092SOL    HW123735   1.765   0.724   5.734  1.2196  2.8291 -0.6414
 4092SOL    HW223736   1.791   0.646   5.616  0.5347  0.7459 -1.1470
 4093SOL     OW23737   1.030   0.558   9.510 -0.1771 -0.0729 -0.6333
 4093SOL    HW123738   1.092   0.539   9.439  0.7632  0.3195  0.0801
 4093SOL    HW223739   0.963   0.619   9.479 -1.4676 -1.6488 -0.9658
 4094SOL     OW23740   1.758   0.234  13.649 -0.0430  0.0938  0.6927
 4094SOL    HW123741   1.804   0.207  13.729 -1.0712 -2.2645  0.5081
 4094SOL    HW223742   1.669   0.248  13.682 -0.1061 -2.0350  1.4722
 4095SOL     OW23743   3.522   2.084   2.699  0.5594  0.0789  0.7713
 4095SOL    HW123744   3.559   2.148   2.638  1.2365 -1.1913 -0.1568
 4095SOL    HW223745   3.431   2.089   2.671  1.0605 -0.4016 -0.9514
 4096SOL     OW23746   1.888   4.328  10.849  0.1316 -0.0299  0.4431
 4096SOL    HW123747   1.929   4.404  10.889 -0.8206  0.1026  1.1569
 4096SOL    HW223748   1.915   4.339  10.758  0.4624 -1.6076  0.3461
 4097SOL     OW23749   2.901   1.786  15.041  0.2431 -0.1883  0.5648
 4097SOL    HW123750   2.853   1.704  15.028  1.8359 -0.8761 -0.8687
 4097SOL    HW223751   2.973   1.748  15.091 -0.8468 -2.2814  0.5569
 4098SOL     OW23752   0.095   4.247   3.342 -0.3543  0.6201  0.2096
 4098SOL    HW123753   0.187   4.242   3.316 -0.6787 -1.8323 -0.5298
 4098SOL    HW223754   0.067   4.310   3.276 -1.0732 -0.4092 -0.4731
 4099SOL     OW23755   3.196   1.003   4.202  0.7755 -0.3423  0.2680
 4099SOL    HW123756   3.242   1.072   4.249  1.2367  1.1422 -2.3242
 4099SOL    HW223757   3.189   1.026   4.109  0.3606 -0.4271  0.2771
 4100SOL     OW23758   2.960   2.399   3.057 -0.3476  0.1008  0.5382
 4100SOL    HW123759   3.045   2.390   3.100  1.3952 -0.5667 -3.0831
 4100SOL    HW223760   2.952   2.492   3.039 -0.6116 -0.7212 -3.7461
 4101SOL     OW23761   1.396   1.757  12.748 -0.3622 -0.8142 -0.4732
 4101SOL    HW123762   1.373   1.676  12.794 -2.4236  0.1366  0.1911
 4101SOL    HW223763   1.358   1.747  12.661 -1.9309  2.2194 -0.1420
 4102SOL     OW23764   4.666   1.510   5.054 -0.0396  0.0587  0.0862
 4102SOL    HW123765   4.668   1.590   5.000 -0.2237  0.1929  0.2776
 4102SOL    HW223766   4.599   1.532   5.120 -0.3672 -0.2822 -0.1333
 4103SOL     OW23767   1.637   2.557  10.706  0.1278 -0.1318 -0.3580
 4103SOL    HW123768   1.544   2.549  10.725  0.0039 -1.7324 -1.6631
 4103SOL    HW223769   1.674   2.535  10.792  0.2816 -1.5090 -0.7821
 4104SOL     OW23770   1.561   1.929   1.615  0.4248 -0.4603  0.6687
 4104SOL    HW123771   1.482   1.974   1.585 -0.7897 -1.4950  2.2984
 4104SOL    HW223772   1.584   1.989   1.685 -0.6969  3.4580 -2.3111
 4105SOL     OW23773   3.625   3.951   1.451 -0.5519 -0.0353 -0.0255
 4105SOL    HW123774   3.661   3.882   1.507  0.0704 -0.0536 -0.4433
 4105SOL    HW223775   3.541   3.974   1.489 -1.0384 -0.6293 -0.7387
 4106SOL     OW23776   3.001   2.947   3.155 -0.6026  0.2256  0.1303
 4106SOL    HW123777   3.020   2.853   3.164 -1.2264  0.0181 -0.7089
 4106SOL    HW223778   3.021   2.976   3.244 -1.5189  2.5539 -0.4379
 4107SOL     OW23779   4.615   0.919  13.910 -0.1655 -0.8728 -0.1344
 4107SOL    HW123780   4.569   0.995  13.875  1.8322  1.5341  2.4463
 4107SOL    HW223781   4.582   0.917  14.000 -1.2277 -0.9323 -0.5183
 4108SOL     OW23782   3.263   3.247  13.177  0.2871  0.0047  0.2414
 4108SOL    HW123783   3.216   3.330  13.177  1.0352  0.4303 -1.9310
 4108SOL    HW223784   3.352   3.273  13.154 -0.0147 -0.3555 -1.3548
 4109SOL     OW23785   4.598   3.935   6.416 -0.4379 -0.6052 -0.3116
 4109SOL    HW123786   4.663   4.003   6.434  0.5422 -0.6763 -3.6350
 4109SOL    HW223787   4.526   3.993   6.393  0.1034 -0.0203 -0.5360
 4110SOL     OW23788   1.034   4.570   8.769  0.0806  0.0949 -0.1052
 4110SOL    HW123789   1.121   4.605   8.751  0.8540 -1.3439  0.7953
 4110SOL    HW223790   1.050   4.511   8.842 -2.0817  0.7988  0.9389
 4111SOL     OW23791   3.961   4.269   8.509 -0.2190  0.5121 -0.3823
 4111SOL    HW123792   3.924   4.276   8.597  0.8564 -3.0413  0.3573
 4111SOL    HW223793   4.050   4.244   8.535 -0.5634 -0.4079 -0.0885
 4112SOL     OW23794   1.142   4.626   6.016  0.3806  0.3616 -0.3747
 4112SOL    HW123795   1.077   4.687   6.050  1.5960  0.0945  2.4423
 4112SOL    HW223796   1.218   4.684   6.007  2.3158 -1.8831  1.3579
 4113SOL     OW23797   0.408   0.521   0.808 -0.0653  0.2527  0.3290
 4113SOL    HW123798   0.409   0.616   0.802 -0.6127  0.3587  1.9722
 4113SOL    HW223799   0.501   0.503   0.826 -0.3604 -0.2791  1.3124
 4114SOL     OW23800   1.934   0.188   7.096 -0.1743  0.7897  1.4266
 4114SOL    HW123801   1.929   0.227   7.183  1.8428  3.2536  0.4334
 4114SOL    HW223802   1.930   0.094   7.116  0.7359  0.7123  1.2582
 4115SOL     OW23803   1.160   1.750   3.461  0.3018  0.1307  0.3264
 4115SOL    HW123804   1.108   1.669   3.463 -2.2893  1.7948  0.5509
 4115SOL    HW223805   1.092   1.814   3.485  1.1466  0.6457  1.3392
 4116SOL     OW23806   3.204   3.507   8.256  0.0221  0.9406 -0.0670
 4116SOL    HW123807   3.231   3.454   8.181  0.3808  3.3558 -1.6499
 4116SOL    HW223808   3.231   3.463   8.337 -1.7327 -2.2851 -1.2328
 4117SOL     OW23809   4.682   4.125   4.910  0.2487 -0.2826  0.0053
 4117SOL    HW123810   0.016   4.079   4.971  1.3475 -0.2416 -1.0103
 4117SOL    HW223811   0.016   4.187   4.866  0.9008 -1.1609 -0.3669
 4118SOL     OW23812   2.940   0.681   8.031 -0.0427  0.2523  0.6161
 4118SOL    HW123813   2.865   0.675   8.089 -0.5224 -1.0723 -0.1479
 4118SOL    HW223814   3.001   0.691   8.104  1.9900 -2.4327 -0.6944
 4119SOL     OW23815   4.374   0.346   4.247  0.4785 -0.2170 -0.1363
 4119SOL    HW123816   4.404   0.256   4.248 -0.9398 -0.7004 -1.2117
 4119SOL    HW223817   4.406   0.379   4.163  0.0585  0.4560 -0.0337
 4120SOL     OW23818   2.295   3.281  16.946  0.1432 -0.1547  0.7291
 4120SOL    HW123819   2.254   3.337  16.880 -0.4899 -0.1352  1.1408
 4120SOL    HW223820   2.251   3.307  17.027 -1.3142  1.2168 -0.5149
 4121SOL     OW23821   3.188   2.874   2.080  0.1483 -0.3112  0.6508
 4121SOL    HW123822   3.250   2.893   2.150  1.1736  0.8481 -0.5824
 4121SOL    HW223823   3.203   2.780   2.067 -1.1052 -0.5489  0.9048
 4122SOL     OW23824   1.648   3.168   3.620  0.5521 -0.1960 -0.5796
 4122SOL    HW123825   1.689   3.096   3.571 -0.0597  0.2574 -1.7573
 4122SOL    HW223826   1.635   3.234   3.552  0.1703 -0.2777 -0.5878
 4123SOL     OW23827   0.491   4.630   2.322  0.3241 -0.7381  0.3590
 4123SOL    HW123828   0.526   4.718   2.304 -1.4905  0.2605  1.6190
 4123SOL    HW223829   0.435   4.647   2.398  0.7986 -0.4243  0.6445
 4124SOL     OW23830   0.198   1.424   8.413  0.1498  0.9484  0.4145
 4124SOL    HW123831   0.246   1.366   8.473  0.8873  1.6101  0.4638
 4124SOL    HW223832   0.239   1.405   8.329  1.5130  1.8829  0.8695
 4125SOL     OW23833   2.198   2.213   9.697 -0.1089 -0.0867 -0.1461
 4125SOL    HW123834   2.214   2.222   9.791 -0.9382 -1.0571  0.0980
 4125SOL    HW223835   2.106   2.240   9.687 -0.8088 -3.1411 -1.9925
 4126SOL     OW23836   4.547   1.860   2.356 -0.4803 -0.6409  0.1192
 4126SOL    HW123837   4.586   1.917   2.289  0.0855 -0.9486  0.1835
 4126SOL    HW223838   4.604   1.784   2.366  0.4375  0.3263  2.1690
 4127SOL     OW23839   4.076   0.105   9.798  0.1729 -0.0139  0.1687
 4127SOL    HW123840   4.083   0.130   9.890 -1.1190  0.5624  0.1186
 4127SOL    HW223841   4.002   0.159   9.770  0.7366  0.6731  0.0065
 4128SOL     OW23842   2.285   1.072  15.421  0.3386  0.3737  0.0797
 4128SOL    HW123843   2.200   1.086  15.463  0.0467  1.1080 -0.7386
 4128SOL    HW223844   2.329   1.008  15.476 -0.0747  1.5479  1.7483
 4129SOL     OW23845   1.368   4.708   6.361 -0.4122  0.2891  0.0190
 4129SOL    HW123846   1.392   4.615   6.353 -0.9553  0.3020 -1.9073
 4129SOL    HW223847   1.375   0.015   6.271 -3.3360  2.4937  0.5677
 4130SOL     OW23848   1.602   2.733   8.728  0.5900  0.9675  0.3794
 4130SOL    HW123849   1.611   2.750   8.822 -0.4717  0.9802  0.4805
 4130SOL    HW223850   1.577   2.642   8.743  0.6700  0.8811 -0.0256
 4131SOL     OW23851   1.307   0.471   6.809  0.7343 -0.2667  0.4481
 4131SOL    HW123852   1.233   0.523   6.838 -0.4940 -0.8374 -1.7038
 4131SOL    HW223853   1.278   0.380   6.805  0.6109 -0.2023 -0.2165
 4132SOL     OW23854   4.586   2.836   7.319  0.2826 -0.6247 -0.1674
 4132SOL    HW123855   4.659   2.810   7.375 -0.3345  0.5106  1.1705
 4132SOL    HW223856   4.518   2.853   7.384 -0.7245 -1.6342 -0.9755
 4133SOL     OW23857   2.131   2.268  14.845 -0.1485  0.0728  0.8765
 4133SOL    HW123858   2.212   2.311  14.873  0.1889 -0.2193  0.3534
 4133SOL    HW223859   2.113   2.209  14.919 -3.9521  0.8359  0.5256
 4134SOL     OW23860   4.679   4.090   4.437 -0.4785 -0.0035  0.1491
 4134SOL    HW123861   4.603   4.067   4.383 -1.2606 -0.8065  1.6104
 4134SOL    HW223862   4.630   4.092   4.519 -1.4209 -1.2696 -0.3719
 4135SOL     OW23863   3.809   0.852  12.340  0.0870 -0.0130  0.4986
 4135SOL    HW123864   3.837   0.873  12.251 -0.5457  3.4836  1.1025
 4135SOL    HW223865   3.845   0.766  12.361 -1.4460 -0.9548 -0.7421
 4136SOL     OW23866   4.417   1.802   3.786  0.2999  0.7760  0.0033
 4136SOL    HW123867   4.398   1.721   3.738 -0.7322  0.5146  0.8481
 4136SOL    HW223868   4.348   1.863   3.758 -0.1283  0.5929  0.6509
 4137SOL     OW23869   2.019   1.287   2.970  0.4178 -0.0103 -0.0667
 4137SOL    HW123870   1.923   1.293   2.973  0.2934 -1.2484 -1.3986
 4137SOL    HW223871   2.036   1.225   2.899 -0.8202 -0.5411  0.1064
 4138SOL     OW23872   0.509   0.810   3.894  0.2356  0.1919 -0.8133
 4138SOL    HW123873   0.474   0.877   3.836 -3.1460 -0.4386  0.5002
 4138SOL    HW223874   0.595   0.801   3.853  0.3934 -1.0593 -0.2122
 4139SOL     OW23875   4.131   2.359   4.212 -0.4081  0.1069 -0.2306
 4139SOL    HW123876   4.186   2.306   4.269 -0.5411  0.2914  0.0660
 4139SOL    HW223877   4.188   2.392   4.142 -1.3266  0.3460 -0.8842
 4140SOL     OW23878   1.140   2.509   3.894 -0.6412 -0.2969 -0.1807
 4140SOL    HW123879   1.175   2.522   3.806 -3.1256 -0.0015 -1.1296
 4140SOL    HW223880   1.212   2.535   3.951  0.0033  0.3787 -1.3014
 4141SOL     OW23881   2.046   0.163   7.904 -0.6020 -0.3243  0.9073
 4141SOL    HW123882   2.118   0.179   7.965  0.9527 -0.4968 -0.9093
 4141SOL    HW223883   2.043   0.067   7.904 -0.2836 -0.3292 -0.1414
 4142SOL     OW23884   4.561   1.368   7.613  0.0545 -0.2535  0.9054
 4142SOL    HW123885   4.559   1.461   7.592  0.1465 -1.2736 -3.4942
 4142SOL    HW223886   4.589   1.332   7.529  1.4852 -0.8419  1.6360
 4143SOL     OW23887   2.357   2.728   1.198 -0.6094  0.0270 -0.1477
 4143SOL    HW123888   2.294   2.699   1.264  0.1987  1.6813  1.3419
 4143SOL    HW223889   2.429   2.739   1.261 -2.3231  2.0946  1.4467
 4144SOL     OW23890   0.978   4.146   8.961  0.2948 -0.0339 -0.1133
 4144SOL    HW123891   1.026   4.215   9.006  0.9661 -1.7743  1.8129
 4144SOL    HW223892   1.007   4.158   8.871  0.8295  0.0118  0.0677
 4145SOL     OW23893   0.066   0.377   2.602  0.5087 -0.4988  0.1917
 4145SOL    HW123894   0.117   0.440   2.652  0.6872  0.0693 -0.7159
 4145SOL    HW223895   4.706   0.404   2.638  2.7480  2.0583  3.4912
 4146SOL     OW23896   0.918   0.742   4.085 -0.0184 -0.4007 -0.3339
 4146SOL    HW123897   1.001   0.732   4.040  0.2825 -1.7628  0.5317
 4146SOL    HW223898   0.933   0.678   4.155 -0.8693  0.5185  0.6991
 4147SOL     OW23899   2.086   4.246   5.947 -0.0826  0.3365  0.7834
 4147SOL    HW123900   2.169   4.264   5.903 -2.4343 -1.3686 -4.2378
 4147SOL    HW223901   2.034   4.240   5.868  0.2313 -0.1560  0.6187
 4148SOL     OW23902   0.354   4.517   2.122  0.3131  0.1245 -0.0667
 4148SOL    HW123903   0.348   4.426   2.150  0.3734  0.5940  1.4653
 4148SOL    HW223904   0.402   4.561   2.192  0.4244  1.1141 -0.7600
 4149SOL     OW23905   1.033   4.429  16.180  0.3651  0.3729  0.1708
 4149SOL    HW123906   1.081   4.394  16.255  0.7988 -2.8979 -1.6590
 4149SOL    HW223907   1.005   4.509  16.226  1.6659  0.5297  0.7039
 4150SOL     OW23908   3.366   0.123   1.278  0.6554  0.6486  0.1353
 4150SOL    HW123909   3.364   0.037   1.237  0.3448  0.3540  0.7692
 4150SOL    HW223910   3.448   0.116   1.327  1.3131  0.8623 -0.9342
 4151SOL     OW23911   2.293   2.354   0.980  0.3431 -0.0016 -0.0682
 4151SOL    HW123912   2.319   2.446   0.978 -4.5345  1.3294 -0.7871
 4151SOL    HW223913   2.350   2.325   1.051  0.9826  3.2191  0.7259
 4152SOL     OW23914   3.720   2.573   9.716 -0.0495  0.4472 -0.5366
 4152SOL    HW123915   3.698   2.584   9.623  1.7284  2.3753 -0.7143
 4152SOL    HW223916   3.648   2.610   9.768 -0.0293 -2.1467  1.3239
 4153SOL     OW23917   3.887   1.210  10.869  0.7152  0.1009  0.3685
 4153SOL    HW123918   3.839   1.261  10.934 -1.0226 -0.1769 -0.7012
 4153SOL    HW223919   3.921   1.288  10.825 -1.9954  0.1873 -1.5838
 4154SOL     OW23920   0.737   1.649  16.480 -0.1582 -0.3813 -0.0722
 4154SOL    HW123921   0.750   1.560  16.448  0.6461 -0.1939 -0.2650
 4154SOL    HW223922   0.664   1.677  16.425  1.8411  2.8773 -1.0503
 4155SOL     OW23923   1.528   0.817   3.171  0.9030  0.3605 -0.3939
 4155SOL    HW123924   1.573   0.874   3.233 -0.0586  1.1184 -0.3979
 4155SOL    HW223925   1.437   0.832   3.193  0.1000 -2.1189 -2.0276
 4156SOL     OW23926   2.481   3.636  11.732  0.3215 -0.6334 -0.6174
 4156SOL    HW123927   2.416   3.697  11.698 -0.8976 -2.0395 -0.8373
 4156SOL    HW223928   2.423   3.577  11.779 -1.6168  1.6738 -0.1282
 4157SOL     OW23929   2.027   4.590   2.500 -0.3774 -0.5849 -0.0458
 4157SOL    HW123930   2.120   4.613   2.500  0.1306 -2.6049  1.6620
 4157SOL    HW223931   2.022   4.497   2.476  0.3354 -0.2526 -1.4689
 4158SOL     OW23932   0.246   3.083   4.853 -0.3644  0.5885 -0.3675
 4158SOL    HW123933   0.196   3.127   4.784 -0.6464  1.6918  0.5522
 4158SOL    HW223934   0.180   3.081   4.922  0.5352  1.9152  0.5105
 4159SOL     OW23935   2.487   1.736   1.836 -0.6624 -0.4675 -0.0284
 4159SOL    HW123936   2.445   1.715   1.752 -1.9825 -0.2853  0.5925
 4159SOL    HW223937   2.439   1.811   1.872  0.4675  1.3720 -2.2919
 4160SOL     OW23938   1.550   3.076   2.162 -0.0041  0.3205  0.2439
 4160SOL    HW123939   1.496   3.102   2.236 -1.7502 -2.7890  0.0685
 4160SOL    HW223940   1.632   3.075   2.212  0.0723  1.6082  0.1415
 4161SOL     OW23941   3.134   1.467  15.643 -0.0142 -0.0325  0.0635
 4161SOL    HW123942   3.160   1.557  15.628 -0.3484  0.2375  1.0939
 4161SOL    HW223943   3.117   1.476  15.737 -0.8266  1.6512 -0.2439
 4162SOL     OW23944   3.905   2.768  16.804 -0.0283  0.3222 -0.0426
 4162SOL    HW123945   3.814   2.793  16.814  0.1260 -0.2053  2.7140
 4162SOL    HW223946   3.906   2.768  16.709  0.0445  2.8780 -0.0551
 4163SOL     OW23947   4.416   4.563   7.680 -0.1078  0.4038  0.1282
 4163SOL    HW123948   4.476   4.490   7.663 -0.0559  0.8029 -1.4797
 4163SOL    HW223949   4.472   4.637   7.654 -0.6427  1.0716  0.8963
 4164SOL     OW23950   3.925   2.895   6.575  0.6232 -0.0689 -0.4861
 4164SOL    HW123951   3.908   2.805   6.601  0.8934 -0.0319 -0.1847
 4164SOL    HW223952   3.841   2.938   6.594  1.3705  1.0908  0.2155
 4165SOL     OW23953   2.192   1.134   2.122  0.0706  0.4470  0.6708
 4165SOL    HW123954   2.097   1.119   2.130  0.2573 -1.4158 -0.7441
 4165SOL    HW223955   2.203   1.188   2.043  2.5173  1.3183  1.6198
 4166SOL     OW23956   3.603   0.395   4.644  0.0813 -0.3888 -0.2212
 4166SOL    HW123957   3.589   0.314   4.595 -0.4477 -0.6620  0.3843
 4166SOL    HW223958   3.677   0.372   4.700 -2.2517 -0.2482  2.9378
 4167SOL     OW23959   1.557   0.850   2.895  0.1901 -0.4521 -0.2562
 4167SOL    HW123960   1.476   0.900   2.905 -0.4586 -1.6043  0.2871
 4167SOL    HW223961   1.577   0.838   2.988 -1.8819 -0.3530  0.2214
 4168SOL     OW23962   1.766   1.601   7.791  0.5379 -0.3258 -0.6522
 4168SOL    HW123963   1.799   1.511   7.782  4.5877  0.8034  3.1129
 4168SOL    HW223964   1.828   1.654   7.739  1.8372 -1.3002 -0.1042
 4169SOL     OW23965   1.468   4.699   5.930  0.3623  0.1158 -0.3037
 4169SOL    HW123966   1.557   4.717   5.900 -0.1583  1.0593 -1.2750
 4169SOL    HW223967   1.419   0.042   5.883 -2.4084 -0.5538  1.6283
 4170SOL     OW23968   1.405   2.104   1.491 -0.0277 -0.3360  0.3975
 4170SOL    HW123969   1.445   2.189   1.514  1.6207 -0.8517 -0.5463
 4170SOL    HW223970   1.445   2.108   1.404 -0.8545 -1.0357 -0.0165
 4171SOL     OW23971   2.473   3.270   7.042  0.2261 -0.6861  0.1546
 4171SOL    HW123972   2.382   3.239   7.041 -0.7316  2.1615 -0.1740
 4171SOL    HW223973   2.533   3.196   7.048 -0.3621 -1.1119  0.8812
 4172SOL     OW23974   3.593   1.746   4.002  0.1541 -0.1612 -0.5451
 4172SOL    HW123975   3.563   1.833   4.031  0.4903 -0.7681  1.6431
 4172SOL    HW223976   3.569   1.752   3.909 -1.2144 -0.0100 -0.1906
 4173SOL     OW23977   2.278   3.945   5.782  0.5186 -0.1398 -0.4276
 4173SOL    HW123978   2.242   3.895   5.709  0.3756 -1.8638  0.8039
 4173SOL    HW223979   2.353   3.891   5.809  0.2498 -0.3069 -0.0057
 4174SOL     OW23980   0.366   4.195   7.545  0.3007 -0.0592 -0.1517
 4174SOL    HW123981   0.417   4.187   7.626  0.0080 -0.6038 -0.0234
 4174SOL    HW223982   0.426   4.248   7.493  0.9418 -0.1700  0.4649
 4175SOL     OW23983   3.902   4.580   5.661  0.5026 -0.1970  0.5362
 4175SOL    HW123984   3.973   4.633   5.625  0.2336  0.1354  0.4975
 4175SOL    HW223985   3.847   4.640   5.711  0.2577  1.3017 -1.5337
 4176SOL     OW23986   3.402   0.690   3.972  0.0558  0.1027  0.1464
 4176SOL    HW123987   3.420   0.746   4.047 -0.6190 -0.9249  1.0697
 4176SOL    HW223988   3.450   0.731   3.900 -2.8370 -0.0817 -1.9241
 4177SOL     OW23989   4.093   0.006   8.923 -0.5055 -0.1790 -0.1664
 4177SOL    HW123990   4.100   0.027   8.830  1.8586 -0.0880  0.0293
 4177SOL    HW223991   4.013   0.052   8.950  0.5243  0.6434  1.5158
 4178SOL     OW23992   1.082   3.415   3.385 -0.4402  0.0114 -0.1180
 4178SOL    HW123993   0.999   3.397   3.429  0.1957 -0.1583  1.0177
 4178SOL    HW223994   1.098   3.327   3.352 -2.8099 -0.7850  0.8821
 4179SOL     OW23995   0.272   2.435  11.265  0.2781 -0.0323 -0.4620
 4179SOL    HW123996   0.254   2.392  11.182  1.1741 -0.1521 -0.5960
 4179SOL    HW223997   0.342   2.497  11.242  1.2795 -0.8315  0.4165
 4180SOL     OW23998   2.740   3.991   5.733 -0.1333  0.1587  0.3323
 4180SOL    HW123999   2.799   3.938   5.680 -0.8274 -1.5866  1.3203
 4180SOL    HW224000   2.694   3.924   5.783  1.8145  0.1550  2.1492
 4181SOL     OW24001   0.738   2.925  15.518 -0.0118 -0.6362  0.2108
 4181SOL    HW124002   0.723   3.003  15.465 -0.1127  0.5946  2.0389
 4181SOL    HW224003   0.714   2.960  15.604 -0.1680 -1.4045  0.4779
 4182SOL     OW24004   1.191   3.997   6.827 -0.1824 -0.0413  0.4744
 4182SOL    HW124005   1.101   3.965   6.824 -0.1042 -0.3985  1.9974
 4182SOL    HW224006   1.164   4.087   6.846  0.9479  0.4905 -0.3678
 4183SOL     OW24007   2.419   3.724  16.515 -0.4283 -0.2896 -0.2075
 4183SOL    HW124008   2.343   3.757  16.563 -0.5045 -1.0723  0.2006
 4183SOL    HW224009   2.402   3.747  16.423  0.7852 -1.8325 -0.8279
 4184SOL     OW24010   2.491   1.482   1.932 -0.5510 -0.5893 -0.1300
 4184SOL    HW124011   2.419   1.501   1.992  0.6407 -0.4411  1.2523
 4184SOL    HW224012   2.503   1.566   1.887 -1.5581  0.0882  0.8723
 4185SOL     OW24013   1.116   2.770   5.247 -0.1154  0.0003 -0.1517
 4185SOL    HW124014   1.101   2.727   5.163  2.7136 -0.8538 -0.2216
 4185SOL    HW224015   1.052   2.737   5.309  1.5827 -2.7165  0.1258
 4186SOL     OW24016   4.308   0.749   8.386 -0.3784 -0.5958 -0.1252
 4186SOL    HW124017   4.313   0.791   8.472 -1.2559  1.4170 -1.0564
 4186SOL    HW224018   4.395   0.763   8.350 -0.2308 -4.0770 -1.0661
 4187SOL     OW24019   2.885   4.452   0.444  0.6120 -0.1413 -0.3759
 4187SOL    HW124020   2.963   4.400   0.425  0.4744 -0.6834  0.5087
 4187SOL    HW224021   2.905   4.535   0.401 -1.0991  1.1932  1.4044
 4188SOL     OW24022   1.270   0.015  15.918  0.4104 -0.3689 -0.5132
 4188SOL    HW124023   1.297   0.098  15.960  2.6745 -2.1981  1.6743
 4188SOL    HW224024   1.350   4.703  15.881  0.6113 -2.3652  1.8901
 4189SOL     OW24025   2.111   4.650   0.198 -0.0156 -0.0191  0.0489
 4189SOL    HW124026   2.204   4.638   0.177 -0.0704 -0.3502  0.0057
 4189SOL    HW224027   2.066   4.585   0.144 -0.1867  0.2294 -0.1049
 4190SOL     OW24028   0.500   0.912   2.105 -0.4022  0.0250  0.2752
 4190SOL    HW124029   0.561   0.848   2.069 -0.1878 -0.0455  0.7666
 4190SOL    HW224030   0.513   0.905   2.199  2.1039  3.5041  0.1840
 4191SOL     OW24031   3.006   4.677   2.039 -0.1054  0.3508 -0.2062
 4191SOL    HW124032   3.084   4.705   1.990 -1.1213  0.9990 -1.4293
 4191SOL    HW224033   2.955   0.029   2.061 -1.2406 -0.5937  0.4404
 4192SOL     OW24034   1.201   1.481  12.532  0.0265  0.5633  0.5549
 4192SOL    HW124035   1.197   1.572  12.503  0.3602  0.6321  0.7338
 4192SOL    HW224036   1.292   1.454  12.524 -0.6848 -1.3619 -1.4597
 4193SOL     OW24037   3.434   0.100  10.451  0.7358 -0.0927  0.2255
 4193SOL    HW124038   3.425   0.127  10.360  2.4547  1.5658  0.5398
 4193SOL    HW224039   3.439   0.180  10.503  0.5615 -0.8171  1.3683
 4194SOL     OW24040   3.068   1.893   2.460  0.1228  0.5768 -0.1363
 4194SOL    HW124041   3.105   1.918   2.375  0.7969 -0.1380 -0.0534
 4194SOL    HW224042   3.019   1.812   2.449  0.6105  0.5221 -1.9365
 4195SOL     OW24043   4.716   1.826   5.739 -0.0317 -0.1901 -0.0864
 4195SOL    HW124044   4.688   1.883   5.811  1.7233  1.1179 -0.4291
 4195SOL    HW224045   0.069   1.877   5.717  0.0057 -0.3120 -0.2349
 4196SOL     OW24046   3.531   3.172  17.617  0.1821 -0.3851  0.1571
 4196SOL    HW124047   3.610   3.213  17.650 -0.2823  2.0322 -1.7820
 4196SOL    HW224048   3.523   3.114  17.693  1.3255  1.6002  1.7788
 4197SOL     OW24049   2.915   4.413   7.086 -0.4675 -0.1255  0.6253
 4197SOL    HW124050   2.977   4.353   7.126  0.8219  1.0393  0.3811
 4197SOL    HW224051   2.841   4.354   7.098 -0.7489  0.4746  1.8665
 4198SOL     OW24052   1.996   1.384  14.467  0.0998  0.4116 -0.1039
 4198SOL    HW124053   1.932   1.348  14.406  1.2504 -2.2304  0.2494
 4198SOL    HW224054   2.003   1.472  14.432  0.7684 -0.6831 -2.7416
 4199SOL     OW24055   3.065   1.417  10.260  0.4397 -0.1469  0.0539
 4199SOL    HW124056   3.020   1.502  10.258 -4.2799 -2.6688  0.7933
 4199SOL    HW224057   3.148   1.444  10.298 -0.1196  1.8669 -0.1517
 4200SOL     OW24058   4.168   4.694   0.883  0.4173  0.6550  0.2171
 4200SOL    HW124059   4.073   4.706   0.873  0.3459 -0.2879 -0.1869
 4200SOL    HW224060   4.195   0.032   0.816 -0.9382  0.4685 -0.5130
 4201SOL     OW24061   0.629   1.503   3.912  0.0886 -0.5678  0.0798
 4201SOL    HW124062   0.664   1.508   3.823 -2.2064  2.5489 -0.6635
 4201SOL    HW224063   0.610   1.409   3.921 -0.8715 -0.1621  2.2682
 4202SOL     OW24064   2.314   0.179   6.094  0.4475  0.0051 -0.1716
 4202SOL    HW124065   2.261   0.147   6.167  0.8869 -0.3315 -0.0037
 4202SOL    HW224066   2.337   0.264   6.131 -0.4825  0.6929 -1.1639
 4203SOL     OW24067   1.728   1.549   8.722 -0.5438  0.5781  0.7559
 4203SOL    HW124068   1.820   1.560   8.700 -1.4179  1.2989 -2.6146
 4203SOL    HW224069   1.699   1.486   8.655 -0.8064  2.0597 -0.5415
 4204SOL     OW24070   2.802   3.623  12.619 -0.4746  0.1011 -0.9694
 4204SOL    HW124071   2.802   3.718  12.628  3.5553 -0.0081  0.4437
 4204SOL    HW224072   2.823   3.586  12.705 -1.3803  2.6873  0.3539
 4205SOL     OW24073   1.093   1.599   9.782  0.0473  0.1858  0.2690
 4205SOL    HW124074   1.066   1.533   9.846  1.0258 -0.4943 -0.0229
 4205SOL    HW224075   1.000   1.616   9.764  0.1507 -0.3860 -0.8508
 4206SOL     OW24076   3.837   3.195  12.081  0.6876  0.1096 -0.0751
 4206SOL    HW124077   3.853   3.254  12.154  2.2536  0.0204 -0.3352
 4206SOL    HW224078   3.922   3.150  12.090 -0.9340 -2.1758  3.5026
 4207SOL     OW24079   1.237   0.191  12.003  0.2208 -0.2476 -0.1261
 4207SOL    HW124080   1.221   0.280  12.033  1.7958 -0.7611  2.2094
 4207SOL    HW224081   1.310   0.158  12.055  1.5899  1.6081 -0.8610
 4208SOL     OW24082   0.935   1.784   7.769 -0.3764  0.0524  0.3036
 4208SOL    HW124083   0.988   1.705   7.776  0.2879  0.3061 -1.7845
 4208SOL    HW224084   0.852   1.738   7.768 -0.1655 -0.3581  2.1239
 4209SOL     OW24085   1.392   2.193   3.491 -0.0443  0.1370  0.1536
 4209SOL    HW124086   1.316   2.238   3.530 -1.2609 -1.5695 -0.2684
 4209SOL    HW224087   1.378   2.106   3.527 -0.2540  0.5137  0.9801
 4210SOL     OW24088   3.986   4.243  16.958  0.0025  0.2359  0.2891
 4210SOL    HW124089   3.964   4.303  16.887 -3.0158 -0.1527  0.8762
 4210SOL    HW224090   4.080   4.261  16.961  0.2990 -1.1310 -0.8148
 4211SOL     OW24091   3.868   1.804   9.019 -0.8484 -0.5997  0.4186
 4211SOL    HW124092   3.775   1.809   9.042 -0.9050  1.2946 -0.2448
 4211SOL    HW224093   3.918   1.821   9.099  0.5367 -2.5498 -0.0227
 4212SOL     OW24094   4.509   2.861   1.881  1.0246  0.0127 -0.0477
 4212SOL    HW124095   4.579   2.852   1.945  0.1678  0.5044  0.9544
 4212SOL    HW224096   4.433   2.825   1.926  1.4915 -0.5059  0.3164
 4213SOL     OW24097   2.553   4.284  13.187 -0.1442  0.4336 -0.5274
 4213SOL    HW124098   2.623   4.238  13.140 -2.3549 -1.8122 -1.6348
 4213SOL    HW224099   2.556   4.365  13.136 -1.1807  0.0198 -1.2509
 4214SOL     OW24100   3.036   4.370  11.978  0.2713 -0.5093 -0.3809
 4214SOL    HW124101   3.118   4.415  11.997 -0.0914 -0.2813  0.6102
 4214SOL    HW224102   3.069   4.293  11.931  4.8720  2.5685 -2.1946
 4215SOL     OW24103   1.945   4.491   1.379  0.2787  0.1816  0.4273
 4215SOL    HW124104   1.914   4.557   1.441 -0.1024  1.9511 -1.6544
 4215SOL    HW224105   1.939   4.535   1.294 -1.3412  0.0666  0.4763
 4216SOL     OW24106   1.549   3.841   7.759 -0.1263  0.2454  0.1966
 4216SOL    HW124107   1.636   3.819   7.725 -0.0066 -0.9865  1.2633
 4216SOL    HW224108   1.532   3.929   7.727 -0.7499 -0.6539 -1.9323
 4217SOL     OW24109   2.207   4.307   8.341  0.1752 -0.1683 -0.0930
 4217SOL    HW124110   2.177   4.227   8.297 -1.5971  0.4131  0.0667
 4217SOL    HW224111   2.274   4.270   8.400 -2.0321  1.6160  3.4952
 4218SOL     OW24112   2.358   4.574   7.931  0.1291 -0.0138  0.4451
 4218SOL    HW124113   2.334   4.495   7.978  0.5027 -1.6230 -2.0674
 4218SOL    HW224114   2.419   4.621   7.988  0.1361 -1.4214  1.5969
 4219SOL     OW24115   0.808   1.870   3.392  0.1622 -1.0146  0.4445
 4219SOL    HW124116   0.798   1.856   3.298 -0.2976  1.0694  0.1630
 4219SOL    HW224117   0.735   1.815   3.418 -1.1401 -0.9760 -3.1560
 4220SOL     OW24118   4.341   3.953   3.924 -0.4821  0.0966 -0.2703
 4220SOL    HW124119   4.250   3.978   3.909 -0.1567  0.6114 -1.3792
 4220SOL    HW224120   4.389   4.010   3.863  1.8875 -0.2404  1.2737
 4221SOL     OW24121   0.134   2.963   9.570 -0.8189 -0.6567 -0.1772
 4221SOL    HW124122   0.078   2.907   9.623 -1.6254 -1.4771 -1.9045
 4221SOL    HW224123   0.157   2.901   9.502  2.0520  0.1411  0.0503
 4222SOL     OW24124   2.941   1.388   6.295 -0.4545  0.4185  0.2115
 4222SOL    HW124125   3.016   1.447   6.301 -1.1336  1.1356  1.5551
 4222SOL    HW224126   2.943   1.343   6.379 -2.7292  2.4216  1.3360
 4223SOL     OW24127   1.654   0.071   3.140  0.4719 -0.2171 -0.1435
 4223SOL    HW124128   1.677   0.143   3.082 -0.5984  1.6586  1.7522
 4223SOL    HW224129   1.659   4.722   3.080 -1.0247  0.3744 -0.9881
 4224SOL     OW24130   0.362   4.260   4.429  0.4201  0.5182  0.2955
 4224SOL    HW124131   0.430   4.221   4.484 -1.4971 -2.5488  0.5165
 4224SOL    HW224132   0.335   4.182   4.380 -0.0288  0.7628  0.1623
 4225SOL     OW24133   0.695   2.554   5.418 -0.0106  0.0300  0.2515
 4225SOL    HW124134   0.703   2.465   5.384  2.0294  0.2041  0.2425
 4225SOL    HW224135   0.656   2.593   5.339  1.2739  0.7209 -0.0351
 4226SOL     OW24136   2.710   2.557  16.747 -0.4572  0.0594 -0.2650
 4226SOL    HW124137   2.658   2.586  16.672 -1.3083 -1.0396 -0.1004
 4226SOL    HW224138   2.799   2.564  16.714  0.0093 -4.0643  0.0296
 4227SOL     OW24139   4.060   1.817   6.273  0.0692  0.3214 -0.3834
 4227SOL    HW124140   4.011   1.820   6.191 -0.0867  0.4934 -0.2833
 4227SOL    HW224141   4.091   1.906   6.285 -0.4782  0.4280  0.2000
 4228SOL     OW24142   4.247   2.351  11.120 -0.1501 -0.0170  0.2780
 4228SOL    HW124143   4.281   2.440  11.130 -0.6773  0.4791 -2.2968
 4228SOL    HW224144   4.320   2.304  11.079  0.8489  0.8633  1.0567
 4229SOL     OW24145   3.908   2.965   4.733  0.3711  0.2397 -0.0039
 4229SOL    HW124146   3.847   2.945   4.803 -0.7013 -0.1745 -1.0590
 4229SOL    HW224147   3.976   3.013   4.781  0.8422  0.7128 -1.1487
 4230SOL     OW24148   0.661   0.601   3.021 -0.2011 -0.3219  0.0181
 4230SOL    HW124149   0.721   0.589   3.094 -1.5646 -0.7385  1.0742
 4230SOL    HW224150   0.617   0.517   3.033  1.2337 -1.1236 -0.3190
 4231SOL     OW24151   2.967   1.345  13.629  0.2131  0.1946  0.4437
 4231SOL    HW124152   2.956   1.334  13.723  0.4709  1.8512  0.6641
 4231SOL    HW224153   3.046   1.295  13.607 -0.1474  0.0001 -0.4314
 4232SOL     OW24154   3.878   2.028   6.870  0.1009  0.2081 -0.6160
 4232SOL    HW124155   3.870   2.120   6.895 -0.2173 -0.2670  1.0253
 4232SOL    HW224156   3.902   2.031   6.777 -0.0504  1.5254 -0.6190
 4233SOL     OW24157   2.717   2.264   4.968  0.2498 -0.5354  0.1154
 4233SOL    HW124158   2.705   2.172   4.988  0.4149 -0.6100 -0.1225
 4233SOL    HW224159   2.648   2.299   5.024 -0.6231 -1.3605 -0.4391
 4234SOL     OW24160   3.793   4.029   5.747 -0.3512 -0.3615 -0.4438
 4234SOL    HW124161   3.716   4.083   5.730 -1.0565 -0.8716  1.1713
 4234SOL    HW224162   3.839   4.042   5.664  0.3992  1.4558  0.2487
 4235SOL     OW24163   3.783   1.587   5.488 -0.0300 -0.6544  0.4883
 4235SOL    HW124164   3.843   1.647   5.534 -1.4512  1.9168 -0.9844
 4235SOL    HW224165   3.728   1.566   5.563 -2.2993  2.1087 -0.3788
 4236SOL     OW24166   0.973   4.610   3.677 -0.0800  0.5687 -0.3705
 4236SOL    HW124167   0.916   4.687   3.676 -0.3571  0.3595 -0.7894
 4236SOL    HW224168   0.981   4.600   3.772 -2.1164 -2.6866 -0.5532
 4237SOL     OW24169   1.337   1.334   7.225  0.1900 -0.3343 -0.0890
 4237SOL    HW124170   1.350   1.424   7.254  1.3431 -0.9021  1.1519
 4237SOL    HW224171   1.407   1.290   7.274  2.4050  1.9719 -1.1622
 4238SOL     OW24172   4.651   2.430   8.864  0.3995  0.1956 -0.4059
 4238SOL    HW124173   4.719   2.369   8.837  0.7025  1.1191 -1.7324
 4238SOL    HW224174   4.602   2.381   8.929  1.3176  0.4861  0.5095
 4239SOL     OW24175   0.658   2.602   2.567 -0.1489 -0.0523  0.1186
 4239SOL    HW124176   0.578   2.627   2.614 -0.1751 -0.5493  0.3409
 4239SOL    HW224177   0.707   2.682   2.587 -1.9043  1.3169 -1.0860
 4240SOL     OW24178   3.208   3.909  14.791  0.1978 -0.2980  0.3437
 4240SOL    HW124179   3.208   3.994  14.746  2.6459 -0.4193  0.0914
 4240SOL    HW224180   3.302   3.896  14.806  0.2722 -0.3053 -0.1051
 4241SOL     OW24181   3.845   0.475   3.917 -0.3753  0.1909 -0.5626
 4241SOL    HW124182   3.907   0.536   3.877 -0.6079 -0.2303 -1.5652
 4241SOL    HW224183   3.806   0.518   3.993  0.4165 -0.5890  0.2793
 4242SOL     OW24184   1.934   0.248  14.180 -0.1770 -0.2754 -0.4393
 4242SOL    HW124185   1.912   0.196  14.257 -0.3410  0.6809  0.1525
 4242SOL    HW224186   1.964   0.173  14.128  4.0483 -0.2177  1.9270
 4243SOL     OW24187   1.608   1.682   7.990 -0.0030  0.5024 -0.4262
 4243SOL    HW124188   1.678   1.694   8.054  0.4466 -1.9480 -0.4513
 4243SOL    HW224189   1.651   1.664   7.907 -2.9515 -2.1781 -1.3818
 4244SOL     OW24190   0.787   2.191   7.651  0.1099  0.8541 -0.1542
 4244SOL    HW124191   0.837   2.116   7.618 -1.6701  1.1127 -3.3829
 4244SOL    HW224192   0.825   2.257   7.594  2.0470 -3.0197 -3.4141
 4245SOL     OW24193   0.556   1.992   8.242  0.3514 -0.2445 -0.0781
 4245SOL    HW124194   0.526   1.903   8.257  0.9777 -0.3237  0.6789
 4245SOL    HW224195   0.647   1.976   8.216  0.5461  1.9906 -0.8012
 4246SOL     OW24196   1.769   3.750   9.560 -0.7696 -0.3645  0.1025
 4246SOL    HW124197   1.842   3.755   9.498  0.5964 -0.1694  1.7118
 4246SOL    HW224198   1.798   3.790   9.642  0.4355 -2.2593  0.6219
 4247SOL     OW24199   1.710   3.048  15.155 -0.3842  0.1823  0.1147
 4247SOL    HW124200   1.766   3.064  15.232  2.2406 -1.6144 -1.4232
 4247SOL    HW224201   1.627   3.025  15.198 -1.3196  0.0294 -1.7704
 4248SOL     OW24202   1.763   4.635   7.857  0.8249  0.3267  0.2424
 4248SOL    HW124203   1.839   4.638   7.798  0.7882  1.9237  0.2856
 4248SOL    HW224204   1.701   4.675   7.796  1.6350  0.9496 -0.1658
 4249SOL     OW24205   4.192   1.913  11.682 -0.4733  0.0056 -0.0085
 4249SOL    HW124206   4.169   1.896  11.590 -0.2318  1.4882 -0.3440
 4249SOL    HW224207   4.172   2.007  11.684  1.8636  0.5740 -1.6330
 4250SOL     OW24208   2.646   0.277  11.148 -0.3663 -0.1591  0.2049
 4250SOL    HW124209   2.553   0.297  11.161 -0.2825  0.7500 -0.5636
 4250SOL    HW224210   2.690   0.358  11.175 -1.5263 -0.3899  2.8566
 4251SOL     OW24211   2.865   0.803   6.796 -0.4405  0.7021 -0.4017
 4251SOL    HW124212   2.899   0.847   6.719  2.0536  0.2429  0.4231
 4251SOL    HW224213   2.771   0.807   6.780 -0.1949  0.8141 -1.7708
 4252SOL     OW24214   1.858   4.656   4.316  0.5704  0.2768 -0.0530
 4252SOL    HW124215   1.794   4.713   4.359 -0.4998 -1.6401  0.9016
 4252SOL    HW224216   1.804   4.589   4.276  2.0713 -0.3060 -1.1075
 4253SOL     OW24217   3.291   3.258  12.147 -0.8751 -0.2067  0.9776
 4253SOL    HW124218   3.380   3.265  12.112 -0.4476 -1.6577  1.7616
 4253SOL    HW224219   3.269   3.165  12.157  0.0148 -0.4651  0.5578
 4254SOL     OW24220   0.109   1.698  17.012  0.2677  0.2859  0.0531
 4254SOL    HW124221   0.146   1.695  16.924  1.4524 -0.7094  0.5724
 4254SOL    HW224222   0.085   1.790  17.010 -3.5734 -0.6803  2.8492
 4255SOL     OW24223   2.187   1.977  16.781  0.0850 -0.9229  0.7323
 4255SOL    HW124224   2.272   1.992  16.823  0.3537 -1.6437  0.4505
 4255SOL    HW224225   2.138   2.016  16.853 -1.5818 -1.5145 -0.0744
 4256SOL     OW24226   1.290   1.066   4.261  0.2725  0.2077  0.2100
 4256SOL    HW124227   1.320   1.105   4.179  1.3225 -1.5203 -0.2287
 4256SOL    HW224228   1.244   1.138   4.304 -1.6603 -0.7990 -0.1592
 4257SOL     OW24229   1.031   4.319   7.091  0.7621 -0.6690 -0.3252
 4257SOL    HW124230   1.102   4.266   7.126  0.5127 -0.8301 -0.0666
 4257SOL    HW224231   1.075   4.338   7.008  0.9736 -0.2523 -0.1167
 4258SOL     OW24232   1.489   0.584   6.630 -0.4216 -0.2919  0.1396
 4258SOL    HW124233   1.431   0.585   6.706 -2.5321 -0.7220 -1.4926
 4258SOL    HW224234   1.417   0.585   6.567 -0.2728 -1.7277 -0.0490
 4259SOL     OW24235   1.532   2.025   0.938  0.3551 -0.3598 -0.0647
 4259SOL    HW124236   1.505   2.081   0.865 -0.2765 -2.3578 -1.3672
 4259SOL    HW224237   1.542   1.941   0.894 -0.2965 -0.9085  0.8491
 4260SOL     OW24238   3.085   4.251   9.474 -0.2454  0.5371 -0.5241
 4260SOL    HW124239   3.168   4.252   9.522 -0.2844  1.5141 -0.4775
 4260SOL    HW224240   3.104   4.312   9.402 -1.2029 -1.2121 -2.2551
 4261SOL     OW24241   2.383   1.972   1.943  0.4881  0.2911  0.0786
 4261SOL    HW124242   2.366   1.976   2.037  0.6765  2.1767  0.0283
 4261SOL    HW224243   2.339   2.049   1.907 -2.1016 -0.7926  0.9182
 4262SOL     OW24244   1.732   1.348  11.503  0.0647  0.2519  0.8739
 4262SOL    HW124245   1.743   1.374  11.595  2.4313  0.6494  0.4729
 4262SOL    HW224246   1.737   1.435  11.462 -0.0362 -0.2719 -0.2364
 4263SOL     OW24247   0.878   2.952   3.505  0.5380  0.6600 -0.0074
 4263SOL    HW124248   0.813   2.883   3.489  0.0064  0.9698  0.8549
 4263SOL    HW224249   0.870   2.998   3.421 -0.3463  2.0829  0.8760
 4264SOL     OW24250   2.101   1.392   3.201  0.0757 -0.1767  0.1473
 4264SOL    HW124251   2.041   1.459   3.233 -1.9385 -1.5543 -0.7102
 4264SOL    HW224252   2.063   1.377   3.114 -0.1321 -1.2369  0.4118
 4265SOL     OW24253   2.817   3.388   4.392  0.1457 -0.0345  0.4087
 4265SOL    HW124254   2.853   3.456   4.335 -1.5125  0.1073 -0.4885
 4265SOL    HW224255   2.891   3.343   4.432  0.3566 -0.1574 -0.1193
 4266SOL     OW24256   2.499   0.205   1.573 -0.0170 -0.0208  0.0758
 4266SOL    HW124257   2.483   0.139   1.505  0.5677  0.5472 -0.6094
 4266SOL    HW224258   2.573   0.162   1.615  0.1112  0.3207  0.1991
 4267SOL     OW24259   2.310   2.878  11.987  0.0244 -0.6964 -0.3325
 4267SOL    HW124260   2.304   2.783  11.988  1.1172 -0.7128  3.4773
 4267SOL    HW224261   2.265   2.896  12.070 -2.0013  0.3552 -1.6742
 4268SOL     OW24262   4.226   3.331   5.124  0.3755 -0.2434 -0.2310
 4268SOL    HW124263   4.133   3.351   5.114 -0.0196 -0.4297  3.1691
 4268SOL    HW224264   4.253   3.372   5.041 -3.4260  0.7157 -0.9819
 4269SOL     OW24265   1.225   0.280   3.705  0.6889  0.2624 -0.0003
 4269SOL    HW124266   1.264   0.198   3.737 -1.4047 -0.0742  1.6721
 4269SOL    HW224267   1.149   0.285   3.763  1.3472 -2.4413  1.1119
 4270SOL     OW24268   1.929   4.322   2.713 -0.3771 -0.4553 -0.1212
 4270SOL    HW124269   1.958   4.281   2.795  1.5091 -0.0882 -0.6220
 4270SOL    HW224270   1.835   4.301   2.720 -0.5599  0.0352 -1.0681
 4271SOL     OW24271   0.339   3.056   2.747  0.3764 -0.1063 -0.9643
 4271SOL    HW124272   0.355   2.965   2.774  0.3272  0.4337  0.8810
 4271SOL    HW224273   0.287   3.040   2.669 -0.4804  0.5546 -0.5252
 4272SOL     OW24274   0.131   4.386  11.310  0.2670 -1.0714  0.5663
 4272SOL    HW124275   0.104   4.297  11.290  1.4248 -1.3614  0.3265
 4272SOL    HW224276   0.050   4.437  11.301  0.7525 -0.4938 -0.4771
 4273SOL     OW24277   0.792   3.491   5.008 -0.5499 -0.0342  0.6106
 4273SOL    HW124278   0.742   3.570   5.028 -2.1077 -0.2361 -2.4240
 4273SOL    HW224279   0.744   3.448   4.937 -2.5819  0.2250  1.8231
 4274SOL     OW24280   0.833   3.336  15.732 -0.2914 -0.0142  0.3056
 4274SOL    HW124281   0.856   3.428  15.717 -0.0394 -0.3463 -1.4059
 4274SOL    HW224282   0.910   3.311  15.784 -1.6356 -1.6986  1.4889
 4275SOL     OW24283   0.641   0.180  14.628  0.4451 -0.4603 -0.0932
 4275SOL    HW124284   0.595   0.239  14.686 -1.3264  0.4755 -2.4353
 4275SOL    HW224285   0.731   0.188  14.660  0.3928  0.3873 -0.1637
 4276SOL     OW24286   1.311   2.086   6.417  0.0019 -0.0866 -0.5943
 4276SOL    HW124287   1.240   2.111   6.357 -1.6156  0.3352  1.4942
 4276SOL    HW224288   1.367   2.163   6.412  1.3211 -1.0915 -1.3265
 4277SOL     OW24289   3.997   0.695   3.836 -0.5425 -0.1793  0.0358
 4277SOL    HW124290   4.026   0.783   3.812  0.4561 -0.7137 -0.7350
 4277SOL    HW224291   4.055   0.679   3.911  0.0754 -0.4857 -0.5058
 4278SOL     OW24292   0.209   3.801  13.838 -0.3668 -0.4990  0.4433
 4278SOL    HW124293   0.299   3.797  13.807  0.0171 -0.1907  1.4966
 4278SOL    HW224294   0.168   3.740  13.777  0.3098 -0.5554  0.0484
 4279SOL     OW24295   2.711   3.258  16.698 -0.2050  0.1773  1.3254
 4279SOL    HW124296   2.626   3.259  16.653 -1.0182  0.2744  2.8482
 4279SOL    HW224297   2.684   3.213  16.778 -1.7559 -0.4308  0.4608
 4280SOL     OW24298   2.690   3.970  14.188  0.4006  0.2204  0.0080
 4280SOL    HW124299   2.629   4.040  14.212  0.5070 -0.0946  1.2011
 4280SOL    HW224300   2.752   3.961  14.260 -1.8468  0.6605  1.9840
 4281SOL     OW24301   1.054   2.330   1.144 -0.0730 -0.0892  0.5908
 4281SOL    HW124302   1.121   2.398   1.151  0.2728 -0.4420  0.6832
 4281SOL    HW224303   0.988   2.363   1.205 -0.5542  1.0648 -0.5448
 4282SOL     OW24304   2.528   0.566   4.078 -0.1078  0.2440  0.6132
 4282SOL    HW124305   2.616   0.563   4.041 -0.6556 -0.2340 -0.6599
 4282SOL    HW224306   2.540   0.558   4.173 -1.4724  0.1990  0.7809
 4283SOL     OW24307   1.144   3.357   3.983  0.3046 -0.0998  0.0239
 4283SOL    HW124308   1.148   3.419   3.911 -2.1425 -1.3375 -1.1957
 4283SOL    HW224309   1.072   3.396   4.033  1.3851 -0.9709  2.2260
 4284SOL     OW24310   1.726   1.773   7.423 -0.0168  0.2389 -0.7363
 4284SOL    HW124311   1.747   1.683   7.450  1.8685  0.2938 -2.0065
 4284SOL    HW224312   1.770   1.822   7.492 -1.0674  0.0912  0.0455
 4285SOL     OW24313   3.108   4.141   1.030  0.1885 -0.1275  0.4908
 4285SOL    HW124314   3.084   4.136   0.938 -1.2215  0.8734  0.8139
 4285SOL    HW224315   3.065   4.063   1.065  0.9457 -1.8654 -2.4733
 4286SOL     OW24316   2.378   4.118  12.410  0.0950 -0.4911  0.0685
 4286SOL    HW124317   2.289   4.117  12.375  0.6719  0.4346 -1.4083
 4286SOL    HW224318   2.373   4.189  12.475  0.1029 -1.6934  1.3811
 4287SOL     OW24319   1.636   3.278   2.986  0.4158  0.5830  0.1144
 4287SOL    HW124320   1.584   3.230   2.922 -0.4004  1.9861 -0.2893
 4287SOL    HW224321   1.584   3.358   2.980 -0.0754  0.1199 -1.9373
 4288SOL     OW24322   0.331   1.797   7.589 -0.3074 -0.0484 -0.7848
 4288SOL    HW124323   0.414   1.751   7.582 -1.3011 -2.1367  0.6348
 4288SOL    HW224324   0.349   1.884   7.625 -2.6173  0.3206 -0.5059
 4289SOL     OW24325   2.585   4.719  13.866  0.6685  0.0194 -0.1329
 4289SOL    HW124326   2.651   4.699  13.932  0.1251 -1.2103  0.0340
 4289SOL    HW224327   2.634   0.055  13.810 -1.7981 -0.5295 -2.8520
 4290SOL     OW24328   3.718   2.135   1.168 -0.1658 -0.3090  0.6578
 4290SOL    HW124329   3.810   2.156   1.151 -0.0405  0.0239  1.7068
 4290SOL    HW224330   3.694   2.101   1.082  4.0683  2.0606 -1.4650
 4291SOL     OW24331   3.189   3.948   4.221 -0.3914  0.1082 -0.1913
 4291SOL    HW124332   3.153   3.932   4.134  1.2614  1.8222 -1.1908
 4291SOL    HW224333   3.274   3.904   4.217 -0.3854  0.3365 -2.2617
 4292SOL     OW24334   2.213   2.097   3.850 -0.2047 -0.1748 -0.2790
 4292SOL    HW124335   2.214   2.189   3.877 -1.5000  0.1767 -1.4520
 4292SOL    HW224336   2.172   2.093   3.764  1.0549 -2.3909 -0.7723
 4293SOL     OW24337   1.465   1.832   6.433 -0.7921  0.0651 -0.6322
 4293SOL    HW124338   1.418   1.915   6.435  0.5155  0.7663  0.5686
 4293SOL    HW224339   1.446   1.807   6.342  1.5756 -0.4619 -0.9698
 4294SOL     OW24340   2.632   2.747  13.914  0.0277  0.4800 -0.3805
 4294SOL    HW124341   2.551   2.730  13.962 -0.6797  0.5454 -1.5474
 4294SOL    HW224342   2.636   2.665  13.865  0.8789  0.9694 -1.1407
 4295SOL     OW24343   3.112   2.394   7.148 -0.3190 -0.5529  1.0075
 4295SOL    HW124344   3.129   2.311   7.104 -0.3788 -0.0456  0.0218
 4295SOL    HW224345   3.189   2.406   7.203 -0.6258  1.0526  1.0862
 4296SOL     OW24346   2.266   4.530   6.837 -0.2311  0.1631  0.1495
 4296SOL    HW124347   2.285   4.618   6.869 -0.5386  0.4707 -0.5151
 4296SOL    HW224348   2.186   4.505   6.885  0.8889 -1.5246  1.1366
 4297SOL     OW24349   2.021   1.473  12.746 -0.0043  0.2960  0.4611
 4297SOL    HW124350   2.012   1.567  12.731 -0.1845  0.4407  1.4985
 4297SOL    HW224351   1.944   1.455  12.799  0.0929 -0.0554  0.4843
 4298SOL     OW24352   3.062   3.155   8.929  0.1199  0.5263  0.3689
 4298SOL    HW124353   2.984   3.174   8.877 -0.4951  1.9716  1.8095
 4298SOL    HW224354   3.049   3.219   9.000  0.9447 -0.5391  1.4913
 4299SOL     OW24355   3.847   2.300   0.903  0.7624 -0.1709  0.5625
 4299SOL    HW124356   3.903   2.263   0.971  3.5035  0.2886 -1.4014
 4299SOL    HW224357   3.800   2.219   0.885  2.2747 -1.0377  0.4747
 4300SOL     OW24358   0.909   0.832   3.198  0.0246 -0.0833  0.6357
 4300SOL    HW124359   0.857   0.753   3.213  1.6372 -0.8981  1.9432
 4300SOL    HW224360   0.914   0.872   3.285  1.0755 -0.2097  0.6356
 4301SOL     OW24361   0.062   1.320  14.654 -0.5398  0.0790 -0.2482
 4301SOL    HW124362   0.119   1.352  14.724  0.5958 -2.6111  0.0487
 4301SOL    HW224363   4.712   1.283  14.702 -1.7414 -0.7975 -2.7958
 4302SOL     OW24364   0.024   0.325  13.109 -0.4093  0.4132  0.3913
 4302SOL    HW124365   4.708   0.245  13.075  2.4086 -1.7097  2.0789
 4302SOL    HW224366   0.112   0.300  13.133 -0.2807  1.7424  1.3274
 4303SOL     OW24367   3.814   4.666   2.039 -0.6092  0.4088  0.5219
 4303SOL    HW124368   3.902   4.629   2.054 -0.6158  0.0654 -0.2664
 4303SOL    HW224369   3.820   0.028   2.077  0.0167  1.6668 -2.4559
 4304SOL     OW24370   2.499   0.006   1.392 -0.0958  0.0797  0.4667
 4304SOL    HW124371   2.524   0.054   1.313  0.0260  1.1168  1.1364
 4304SOL    HW224372   2.584   4.687   1.405 -0.1718  0.1065  1.0755
 4305SOL     OW24373   4.454   2.946   9.106 -0.5318 -0.5778  0.1017
 4305SOL    HW124374   4.468   2.852   9.093  1.7957 -0.2955  0.5948
 4305SOL    HW224375   4.473   2.952   9.199 -0.0024 -0.2341 -0.0327
 4306SOL     OW24376   3.354   0.418   3.231  0.5213  0.0782 -0.8304
 4306SOL    HW124377   3.271   0.416   3.182 -0.3755 -1.2689  0.7460
 4306SOL    HW224378   3.322   0.387   3.316  0.3724  1.1275 -0.4996
 4307SOL     OW24379   1.749   1.146  14.850  0.7123 -0.0163 -0.0751
 4307SOL    HW124380   1.706   1.098  14.921  1.2489 -0.7059 -0.2167
 4307SOL    HW224381   1.688   1.132  14.778  0.5804 -4.4010  0.8666
 4308SOL     OW24382   2.757   3.574   9.335  0.1913  0.0172 -0.4562
 4308SOL    HW124383   2.783   3.558   9.244 -1.2067 -1.0910 -0.6763
 4308SOL    HW224384   2.743   3.669   9.335  0.0485 -0.0140  2.6333
 4309SOL     OW24385   3.390   3.706   7.910  0.0566 -0.1861  0.7369
 4309SOL    HW124386   3.455   3.673   7.971 -0.5120 -0.4920  1.1819
 4309SOL    HW224387   3.308   3.700   7.959 -1.5958 -1.5783 -2.2135
 4310SOL     OW24388   0.036   2.092   3.414 -0.1861  0.2181 -0.1974
 4310SOL    HW124389   0.004   2.146   3.342 -0.0472  0.1910 -0.2779
 4310SOL    HW224390   0.113   2.051   3.377 -0.6141  1.8782 -2.8966
 4311SOL     OW24391   1.525   0.373   9.097  0.1042 -0.0346  0.0369
 4311SOL    HW124392   1.490   0.461   9.114 -0.2710  0.1351 -1.6525
 4311SOL    HW224393   1.613   0.402   9.073  0.4234 -0.5640  0.5744
 4312SOL     OW24394   3.982   4.410  13.267  0.5116 -0.0481  0.1810
 4312SOL    HW124395   3.913   4.435  13.206  0.4059 -2.4614 -0.6801
 4312SOL    HW224396   4.012   4.488  13.312 -0.0378  2.2549 -3.4717
 4313SOL     OW24397   4.054   1.195   5.479  0.1057  0.1278 -0.6280
 4313SOL    HW124398   4.088   1.264   5.422  1.1645 -0.0865 -0.2452
 4313SOL    HW224399   3.962   1.208   5.457 -0.4514  0.6183  2.0123
 4314SOL     OW24400   0.283   0.188   4.789 -0.0211  0.0922  0.1423
 4314SOL    HW124401   0.309   0.096   4.784  0.3401  0.2137 -0.2469
 4314SOL    HW224402   0.346   0.227   4.850 -0.3378  0.8534 -0.0209
 4315SOL     OW24403   1.483   2.212   9.200  0.2046  0.1164  0.3373
 4315SOL    HW124404   1.504   2.256   9.117 -3.1959 -0.1750 -0.6831
 4315SOL    HW224405   1.526   2.127   9.198 -1.0510 -0.5865  2.7695
 4316SOL     OW24406   1.445   1.648   3.829 -0.1295 -0.4319 -0.6392
 4316SOL    HW124407   1.505   1.658   3.756  1.0322 -3.2374 -0.0719
 4316SOL    HW224408   1.455   1.734   3.870  2.3485 -0.1583 -1.8251
 4317SOL     OW24409   4.660   3.455   3.552  0.0319  0.2820  0.4240
 4317SOL    HW124410   4.595   3.504   3.602 -1.3862  0.5177 -1.6373
 4317SOL    HW224411   4.665   3.512   3.475 -1.1968 -0.0518  0.0878
 4318SOL     OW24412   2.415   2.816   1.467 -0.2966 -0.1006  0.4372
 4318SOL    HW124413   2.505   2.789   1.486 -0.8967 -1.8762  0.7293
 4318SOL    HW224414   2.386   2.830   1.558  0.0200 -0.5027  0.5981
 4319SOL     OW24415   2.570   1.017  10.430 -0.0295  0.2720  0.5421
 4319SOL    HW124416   2.487   0.972  10.444 -0.1352  0.0223 -0.8685
 4319SOL    HW224417   2.640   0.954  10.448 -1.6402 -2.3379 -2.2268
 4320SOL     OW24418   0.863   3.720   9.597  0.0954 -0.2973 -0.1223
 4320SOL    HW124419   0.795   3.787   9.592  0.5295  0.2546  1.4829
 4320SOL    HW224420   0.938   3.779   9.604 -1.0469  1.0318  0.6253
 4321SOL     OW24421   0.240   4.090   0.753  0.2961 -0.3197  0.2530
 4321SOL    HW124422   0.256   4.002   0.785 -0.0192  0.1616  1.7088
 4321SOL    HW224423   0.324   4.132   0.770  0.5976 -0.8062 -0.0260
 4322SOL     OW24424   3.090   3.294   5.348  0.0100 -0.6814 -0.1922
 4322SOL    HW124425   3.023   3.320   5.411  0.0721  0.2108 -0.4963
 4322SOL    HW224426   3.164   3.284   5.408  0.9715  0.9251 -1.1136
 4323SOL     OW24427   1.229   1.038   6.665 -0.1629 -0.2483 -0.5630
 4323SOL    HW124428   1.199   1.065   6.751 -0.3878 -0.3951 -0.5961
 4323SOL    HW224429   1.300   1.101   6.652 -0.4758  0.4319  1.0644
 4324SOL     OW24430   1.859   1.486   3.769  0.4327 -0.2043  0.5066
 4324SOL    HW124431   1.844   1.539   3.691  0.5694  1.7177  1.7793
 4324SOL    HW224432   1.954   1.479   3.783  0.3977 -0.3903  0.6590
 4325SOL     OW24433   1.514   4.356  12.682  0.1485 -0.2242  0.4397
 4325SOL    HW124434   1.552   4.268  12.692 -2.0833 -1.2671 -0.3719
 4325SOL    HW224435   1.517   4.396  12.769 -4.8050  0.3472  0.3182
 4326SOL     OW24436   4.177   0.389  10.870 -0.1105  0.2802  0.1135
 4326SOL    HW124437   4.143   0.358  10.787 -1.3747  0.7015  0.4743
 4326SOL    HW224438   4.163   0.483  10.859 -0.4877  0.1411 -0.6033
 4327SOL     OW24439   1.967   2.743   1.608  0.2393  0.1123 -0.1881
 4327SOL    HW124440   1.967   2.652   1.638  0.6378  0.3916  0.6499
 4327SOL    HW224441   2.040   2.744   1.546 -0.1135 -0.1113 -0.6094
 4328SOL     OW24442   3.407   0.035  17.618  0.0980 -0.0740  0.5114
 4328SOL    HW124443   3.451   0.120  17.624 -1.3452  0.6807  0.4849
 4328SOL    HW224444   3.373   0.026  17.529  1.6920  1.1973 -0.2228
 4329SOL     OW24445   2.043   3.227  17.131 -0.5603  0.2217 -0.3885
 4329SOL    HW124446   2.057   3.132  17.131 -2.1605 -0.0118  0.2469
 4329SOL    HW224447   2.054   3.248  17.224  1.6513 -0.4880 -0.4856
 4330SOL     OW24448   0.318   0.416   8.849  0.3989 -0.3828 -0.1059
 4330SOL    HW124449   0.325   0.479   8.921 -1.0586 -0.8851  0.4758
 4330SOL    HW224450   0.273   0.347   8.899  1.6505 -0.9746  0.1953
 4331SOL     OW24451   3.947   4.243   0.076  0.0611 -0.2593  0.5154
 4331SOL    HW124452   3.934   4.207   0.164 -1.5071  0.9014  0.7746
 4331SOL    HW224453   3.862   4.282   0.057  0.9438  1.5224  0.2538
 4332SOL     OW24454   1.657   0.844  11.145  0.1380 -0.2406  0.1933
 4332SOL    HW124455   1.606   0.773  11.106  0.6940 -1.2790  1.3604
 4332SOL    HW224456   1.668   0.809  11.233  2.8187  0.2608  0.0577
 4333SOL     OW24457   0.677   4.211   6.494  0.1916 -0.3730 -0.6573
 4333SOL    HW124458   0.685   4.225   6.588  2.3457 -0.6287 -0.8080
 4333SOL    HW224459   0.725   4.129   6.484 -0.5756 -0.8707 -0.1904
 4334SOL     OW24460   0.071   4.194   3.979  0.0701  0.4424 -0.1490
 4334SOL    HW124461   0.160   4.164   3.957  0.3348  0.8378  0.3701
 4334SOL    HW224462   0.044   4.126   4.041  2.3622 -0.2761  0.0630
 4335SOL     OW24463   1.161   2.138   5.541 -0.0416  0.1126 -0.4531
 4335SOL    HW124464   1.118   2.199   5.481  0.5695  0.1559 -0.8543
 4335SOL    HW224465   1.199   2.202   5.601  0.2680  0.6976 -1.2708
 4336SOL     OW24466   3.860   2.751   3.108  0.2330 -0.0139  0.2789
 4336SOL    HW124467   3.797   2.681   3.127 -1.0788  1.5788  1.7558
 4336SOL    HW224468   3.907   2.715   3.033 -0.4153  1.1847 -0.6890
 4337SOL     OW24469   4.229   0.176   2.947  0.0273  0.0199 -0.5476
 4337SOL    HW124470   4.266   0.109   2.889 -1.3326 -0.7305 -0.5409
 4337SOL    HW224471   4.142   0.142   2.968 -0.8217  2.0175 -0.7739
 4338SOL     OW24472   4.234   0.896   8.830  0.4376  0.1441  0.2442
 4338SOL    HW124473   4.231   0.943   8.747  1.1805 -0.8745 -0.3732
 4338SOL    HW224474   4.315   0.846   8.819  0.0698 -0.5638  0.7362
 4339SOL     OW24475   2.136   2.979   5.688 -0.2859 -0.0496  0.1418
 4339SOL    HW124476   2.114   2.898   5.642 -0.7208  0.2855 -0.2423
 4339SOL    HW224477   2.207   2.949   5.745 -0.7632  1.0047  1.3096
 4340SOL     OW24478   3.937   2.829  14.368 -0.1475 -0.4969  0.2684
 4340SOL    HW124479   3.921   2.859  14.279  1.1585  0.3819  0.3304
 4340SOL    HW224480   4.031   2.814  14.365  0.2215  1.9632 -0.6382
 4341SOL     OW24481   2.982   1.267  16.203 -0.1731  0.1585 -0.3323
 4341SOL    HW124482   2.927   1.205  16.250 -1.3576  1.5886  0.1701
 4341SOL    HW224483   2.919   1.330  16.168  1.8622  3.2711  1.5418
 4342SOL     OW24484   4.148   0.875  16.942 -0.1876  0.3143  0.3380
 4342SOL    HW124485   4.226   0.824  16.966  0.4895 -1.5385 -5.9947
 4342SOL    HW224486   4.079   0.849  17.003 -0.1248 -0.4784  0.0749
 4343SOL     OW24487   1.515   2.976  12.472 -0.9601  0.1022 -1.2599
 4343SOL    HW124488   1.608   2.957  12.485 -1.2407  0.1186  0.7654
 4343SOL    HW224489   1.490   3.005  12.560  0.5737 -0.5466 -0.6118
 4344SOL     OW24490   4.549   4.125   3.377  0.4146 -0.0733 -0.1752
 4344SOL    HW124491   4.552   4.034   3.407 -2.7386 -0.3534 -0.6990
 4344SOL    HW224492   4.638   4.161   3.380  0.6310 -0.4479 -2.2509
 4345SOL     OW24493   2.583   1.234   6.499 -0.7708 -0.2939  0.3470
 4345SOL    HW124494   2.490   1.253   6.511  0.0189  2.3398  2.2526
 4345SOL    HW224495   2.607   1.318   6.461  1.5033 -0.8482  0.4978
 4346SOL     OW24496   0.416   0.321  11.173  0.3306  0.4421 -0.1039
 4346SOL    HW124497   0.501   0.276  11.172 -0.8283 -1.7362  0.2813
 4346SOL    HW224498   0.437   0.411  11.147  1.5520  0.8897  2.3265
 4347SOL     OW24499   2.161   2.873   8.555 -0.3310  0.1476  0.8121
 4347SOL    HW124500   2.129   2.868   8.645  1.2299 -0.8523  1.3143
 4347SOL    HW224501   2.090   2.837   8.502  2.3800 -2.0526 -1.3643
 4348SOL     OW24502   3.199   3.882   0.755  0.3541  0.4812 -0.0420
 4348SOL    HW124503   3.214   3.862   0.663  0.5282  0.6047 -0.0409
 4348SOL    HW224504   3.106   3.902   0.759  0.1369 -0.5971  0.4248
 4349SOL     OW24505   2.163   3.160   8.791 -0.1423  0.2283 -0.0166
 4349SOL    HW124506   2.254   3.151   8.766 -0.8528 -0.1234 -2.4633
 4349SOL    HW224507   2.159   3.098   8.864 -1.0357  0.3401  0.0278
 4350SOL     OW24508   3.199   3.204   4.394 -0.5607 -0.1028 -0.8550
 4350SOL    HW124509   3.293   3.201   4.409 -0.5906  1.6642 -0.3789
 4350SOL    HW224510   3.190   3.290   4.353  0.3038  1.5188  2.3549
 4351SOL     OW24511   2.122   3.645   2.317  0.6356 -0.2839  0.0089
 4351SOL    HW124512   2.189   3.638   2.249 -0.3347  2.1034 -1.1604
 4351SOL    HW224513   2.106   3.739   2.322  2.1124 -0.0850  1.1207
 4352SOL     OW24514   3.326   0.614   9.739 -0.4288  0.3199 -0.5167
 4352SOL    HW124515   3.275   0.610   9.820 -0.3808  0.9029 -0.4567
 4352SOL    HW224516   3.268   0.565   9.681 -1.1676  0.3368  0.1992
 4353SOL     OW24517   1.528   3.275   3.396 -0.7380 -0.2810 -0.0081
 4353SOL    HW124518   1.453   3.227   3.362 -1.1261  0.5817 -0.3552
 4353SOL    HW224519   1.479   3.346   3.437  1.7141  0.7027  1.2694
 4354SOL     OW24520   4.531   3.410   5.949 -0.4268  0.3990  0.2280
 4354SOL    HW124521   4.593   3.473   5.987 -0.3818  0.5973 -0.1731
 4354SOL    HW224522   4.543   3.432   5.856  0.4159 -1.0252  0.0019
 4355SOL     OW24523   4.584   2.118  15.845  0.0177  0.3018  0.3647
 4355SOL    HW124524   4.537   2.193  15.882 -0.4609 -0.0218  0.4132
 4355SOL    HW224525   4.668   2.116  15.891  1.7236 -0.2960 -2.8302
 4356SOL     OW24526   0.108   3.245   5.571  0.1735 -0.1695  0.1886
 4356SOL    HW124527   0.162   3.322   5.556  0.2754 -0.3961 -0.6109
 4356SOL    HW224528   0.130   3.218   5.661  1.4394  1.6412  0.4104
 4357SOL     OW24529   0.787   2.493   7.071  0.0706  0.7784 -0.0450
 4357SOL    HW124530   0.867   2.445   7.089 -1.7277 -2.1867  0.0260
 4357SOL    HW224531   0.745   2.494   7.157  0.3733 -0.6935  0.1172
 4358SOL     OW24532   3.061   2.825   4.398 -0.1060 -0.1557 -0.3011
 4358SOL    HW124533   3.141   2.820   4.451 -1.3283 -0.6837  1.4906
 4358SOL    HW224534   2.989   2.804   4.457 -0.6212  0.7628 -0.5954
 4359SOL     OW24535   4.345   3.037   8.198 -0.1555 -0.6603 -0.2339
 4359SOL    HW124536   4.421   3.019   8.143  0.4759 -1.6271  0.9647
 4359SOL    HW224537   4.352   2.970   8.267  1.0465  0.2132  0.4932
 4360SOL     OW24538   3.593   1.265   7.091  0.2197 -0.6156 -0.5436
 4360SOL    HW124539   3.602   1.190   7.032  1.6954  0.8599 -2.2127
 4360SOL    HW224540   3.621   1.340   7.038 -1.4693  1.3037  1.2921
 4361SOL     OW24541   4.461   2.685   2.746 -0.3400  0.3066 -0.1287
 4361SOL    HW124542   4.419   2.771   2.741 -0.4595  0.2858  0.5195
 4361SOL    HW224543   4.512   2.696   2.826 -1.4220 -1.4787  0.8140
 4362SOL     OW24544   3.687   3.759  13.111 -0.3662 -0.3290  1.0272
 4362SOL    HW124545   3.772   3.800  13.124 -0.3028 -0.8528  2.2545
 4362SOL    HW224546   3.716   3.668  13.114 -0.6474 -0.5368 -1.9583
 4363SOL     OW24547   3.343   4.642  14.180  0.1002 -0.2320 -0.2396
 4363SOL    HW124548   3.314   4.574  14.241  2.7865 -0.3006  0.9210
 4363SOL    HW224549   3.281   4.627  14.108  0.5666 -0.5661 -0.5755
 4364SOL     OW24550   0.026   2.271  13.768 -0.6242 -0.2942 -0.4138
 4364SOL    HW124551   4.657   2.288  13.758 -0.3549  1.4598  0.0418
 4364SOL    HW224552   0.069   2.294  13.686  3.1416 -1.9852  1.1147
 4365SOL     OW24553   1.514   2.348   1.454 -0.0760 -0.1289 -0.0348
 4365SOL    HW124554   1.518   2.360   1.360 -0.5307 -0.3457 -0.0871
 4365SOL    HW224555   1.588   2.403   1.477 -0.5314  0.1144  0.8833
 4366SOL     OW24556   3.925   0.886  10.350 -0.4531  0.3144  0.5907
 4366SOL    HW124557   3.992   0.950  10.324  1.1400 -1.6363 -0.0951
 4366SOL    HW224558   3.871   0.945  10.402 -0.1441  0.5186  0.6826
 4367SOL     OW24559   0.680   4.039   8.832  0.2931 -0.2691  0.0083
 4367SOL    HW124560   0.739   4.025   8.907 -1.4820  1.4643  1.7488
 4367SOL    HW224561   0.742   4.050   8.760 -1.4726  0.5680 -1.3788
 4368SOL     OW24562   0.440   2.669  13.104 -0.6697 -0.4089  0.5145
 4368SOL    HW124563   0.516   2.612  13.092 -0.8231 -0.0044 -2.5396
 4368SOL    HW224564   0.374   2.605  13.080 -2.4002  1.0888  1.2678
 4369SOL     OW24565   0.086   1.435   5.915  0.2468  0.1369 -0.4183
 4369SOL    HW124566   0.135   1.511   5.948  1.7589 -1.7564  1.6889
 4369SOL    HW224567   0.109   1.372   5.983 -1.5747  0.1536  0.2124
 4370SOL     OW24568   0.624   0.093   2.750  0.4969  0.4087  0.1836
 4370SOL    HW124569   0.532   0.106   2.772  0.6820  0.5327  0.8865
 4370SOL    HW224570   0.648   0.179   2.716  0.5056  0.0472 -0.7303
 4371SOL     OW24571   4.317   0.675   5.806  0.1918 -0.1736  0.1439
 4371SOL    HW124572   4.314   0.765   5.772 -0.3138  0.7960  2.7154
 4371SOL    HW224573   4.299   0.688   5.899 -1.6521  1.5053 -0.4359
 4372SOL     OW24574   1.724   0.080   7.443 -0.6135 -0.3656 -0.5549
 4372SOL    HW124575   1.680   0.164   7.434 -0.4595 -0.1548  0.7024
 4372SOL    HW224576   1.686   0.049   7.525  2.6900  0.7892  1.3772
 4373SOL     OW24577   3.291   3.238  17.516  0.1160 -0.0535  0.0131
 4373SOL    HW124578   3.303   3.205  17.427  2.6729  0.2389  0.2543
 4373SOL    HW224579   3.369   3.209  17.563 -0.1808  0.4228  0.8071
 4374SOL     OW24580   3.879   4.082   3.457 -0.3270 -0.2649 -0.0084
 4374SOL    HW124581   3.904   4.054   3.369 -0.0250  1.6179 -0.5262
 4374SOL    HW224582   3.934   4.027   3.512  0.3662 -1.0459 -1.4769
 4375SOL     OW24583   3.239   3.366   3.350 -0.7578 -0.0047 -0.0371
 4375SOL    HW124584   3.190   3.444   3.323  0.4408  0.9229  0.4552
 4375SOL    HW224585   3.267   3.333   3.265  0.9112 -2.0336  1.3088
 4376SOL     OW24586   3.884   3.278   2.940 -0.2517 -0.1555  0.9722
 4376SOL    HW124587   3.894   3.195   2.894  2.4070  0.9338 -0.4270
 4376SOL    HW224588   3.823   3.251   3.008  0.5438 -0.4069  1.5835
 4377SOL     OW24589   1.969   3.529   3.940 -0.4069 -0.2524 -0.5158
 4377SOL    HW124590   1.957   3.529   3.845 -0.9034 -0.0314 -0.4536
 4377SOL    HW224591   2.058   3.495   3.949 -0.7616 -1.3493 -1.1194
 4378SOL     OW24592   2.309   1.214   2.369  0.2487 -0.6316 -0.1122
 4378SOL    HW124593   2.234   1.251   2.416  0.8077  0.6541 -0.2254
 4378SOL    HW224594   2.271   1.205   2.282 -1.0949  2.4667  0.1729
 4379SOL     OW24595   3.253   1.907   8.275 -0.7175 -0.5114 -0.4269
 4379SOL    HW124596   3.265   1.997   8.243  0.2541 -0.1468  0.9586
 4379SOL    HW224597   3.268   1.908   8.370  2.8890 -0.4952 -0.9962
 4380SOL     OW24598   4.209   1.659   2.247  0.0845 -0.4162 -0.0992
 4380SOL    HW124599   4.149   1.621   2.183 -1.8330  2.3054  0.0802
 4380SOL    HW224600   4.293   1.660   2.201  1.6599 -2.3408  2.8077
 4381SOL     OW24601   1.481   0.726   4.596 -0.2170 -0.3907  0.0585
 4381SOL    HW124602   1.448   0.788   4.661  0.6311  0.8964 -0.7307
 4381SOL    HW224603   1.455   0.776   4.518  0.5096  0.6072  0.4554
 4382SOL     OW24604   2.791   4.360  12.078 -0.4409  0.0916 -0.0765
 4382SOL    HW124605   2.886   4.353  12.075 -0.4536 -0.6126  1.2850
 4382SOL    HW224606   2.778   4.313  11.996  0.0490 -1.3856  0.7004
 4383SOL     OW24607   1.420   0.985   8.769  0.3775 -0.2674 -0.5581
 4383SOL    HW124608   1.360   0.932   8.820  0.0120 -1.6660 -2.4215
 4383SOL    HW224609   1.484   0.918   8.745  2.0219 -0.5288  4.5788
 4384SOL     OW24610   0.778   2.414   9.192 -0.1933  0.4727 -0.1671
 4384SOL    HW124611   0.807   2.504   9.204 -0.5420  0.4547  0.8518
 4384SOL    HW224612   0.689   2.409   9.159  0.2847 -0.3460 -1.3427
 4385SOL     OW24613   3.292   0.612   6.702 -0.2954  0.5012  0.5877
 4385SOL    HW124614   3.246   0.642   6.623  0.2351 -1.0273 -0.2956
 4385SOL    HW224615   3.238   0.539   6.730 -0.7645 -0.3574 -2.4926
 4386SOL     OW24616   3.522   3.095   4.600  0.1722 -0.3090 -0.2450
 4386SOL    HW124617   3.509   3.043   4.680 -1.8282 -2.0397 -1.7111
 4386SOL    HW224618   3.470   3.168   4.634  0.3106  0.7730 -2.3689
 4387SOL     OW24619   0.356   3.702   6.007 -0.2798 -0.4849  0.0464
 4387SOL    HW124620   0.316   3.664   5.929 -0.2571 -1.3497  0.4609
 4387SOL    HW224621   0.444   3.707   5.969  0.7869  1.2354  2.7742
 4388SOL     OW24622   0.066   4.261   9.420  0.8722  0.1439  0.2642
 4388SOL    HW124623   4.706   4.271   9.464  0.8621  1.1710  0.0199
 4388SOL    HW224624   0.110   4.333   9.466  2.2346 -0.1827 -0.5377
 4389SOL     OW24625   3.963   2.710   3.462  0.1722  0.3298  0.4748
 4389SOL    HW124626   4.021   2.652   3.413 -0.0198 -0.8409  1.6387
 4389SOL    HW224627   3.876   2.686   3.429  1.7046 -3.1387 -1.0774
 4390SOL     OW24628   0.609   1.086   6.164 -0.2470 -0.3470  0.0293
 4390SOL    HW124629   0.553   1.077   6.241 -0.4490  3.0057  0.2732
 4390SOL    HW224630   0.646   0.998   6.162 -1.2361 -0.7949  1.4852
 4391SOL     OW24631   0.283   1.212   5.217 -0.5876  0.4279  0.0803
 4391SOL    HW124632   0.263   1.287   5.161  0.3850  1.2695  0.8438
 4391SOL    HW224633   0.324   1.149   5.157  1.6023  2.4717 -0.5757
 4392SOL     OW24634   0.329   1.179  14.829  0.1285  0.1431  0.4911
 4392SOL    HW124635   0.347   1.212  14.741  1.4020  2.0840  1.4687
 4392SOL    HW224636   0.263   1.246  14.846  0.5836  0.0542  2.5696
 4393SOL     OW24637   4.677   4.129  15.503 -0.0941  0.2806 -0.3166
 4393SOL    HW124638   4.600   4.175  15.536  0.3608  1.5321 -0.9806
 4393SOL    HW224639   4.722   4.098  15.582 -0.5457 -2.3812 -1.0892
 4394SOL     OW24640   3.706   3.836  16.223 -0.1872  0.0216 -0.1488
 4394SOL    HW124641   3.700   3.931  16.214 -1.2609  0.1234  1.5883
 4394SOL    HW224642   3.706   3.815  16.130 -3.4772  0.8418 -0.3648
 4395SOL     OW24643   3.363   3.677   5.237  0.7091  0.0626  0.0048
 4395SOL    HW124644   3.342   3.598   5.287  0.2205  0.3409  0.2490
 4395SOL    HW224645   3.345   3.745   5.302  0.5956  1.2529 -1.2818
 4396SOL     OW24646   4.724   1.130   5.105  0.3093 -0.0759 -0.5206
 4396SOL    HW124647   0.016   1.047   5.150  1.2232 -0.2626 -1.2231
 4396SOL    HW224648   0.009   1.192   5.177 -0.2426 -0.1145 -0.4133
 4397SOL     OW24649   1.217   0.915   0.950  0.0896  0.5741 -0.0630
 4397SOL    HW124650   1.224   0.844   1.014 -0.7701 -1.4920 -2.2983
 4397SOL    HW224651   1.122   0.924   0.945 -0.2365 -1.7155  1.8170
 4398SOL     OW24652   3.620   2.960  16.687 -0.0606 -0.0548 -0.1449
 4398SOL    HW124653   3.617   2.927  16.598 -0.0242  1.4085 -0.6803
 4398SOL    HW224654   3.626   3.054  16.671 -1.1336  0.3419  1.7419
 4399SOL     OW24655   4.553   1.508   3.045  0.2174  0.1914  0.0104
 4399SOL    HW124656   4.511   1.569   2.984 -0.8127 -0.3733  0.1576
 4399SOL    HW224657   4.603   1.450   2.987  3.4663 -1.7839  4.7697
 4400SOL     OW24658   4.288   1.841   7.888 -0.2959  0.7058  0.8897
 4400SOL    HW124659   4.304   1.761   7.837  0.8990  1.1761  0.5158
 4400SOL    HW224660   4.261   1.796   7.968  1.6313 -2.4073 -0.1754
 4401SOL     OW24661   3.057   0.857   2.880 -0.4979  0.4180  0.3976
 4401SOL    HW124662   3.060   0.833   2.787 -2.8729 -0.7826  0.6149
 4401SOL    HW224663   3.146   0.878   2.906  0.2107  0.8479 -2.3080
 4402SOL     OW24664   1.767   3.222   4.642 -0.1352 -0.3287 -0.0730
 4402SOL    HW124665   1.742   3.206   4.734  2.8785 -0.6129  0.7015
 4402SOL    HW224666   1.851   3.264   4.662 -0.3108 -0.7958  1.6869
 4403SOL     OW24667   1.187   2.319   6.626 -0.4045  0.2968  0.5375
 4403SOL    HW124668   1.223   2.234   6.600 -3.0594 -1.0575  1.2632
 4403SOL    HW224669   1.209   2.315   6.719 -0.8585  3.0700  0.7569
 4404SOL     OW24670   3.571   0.090   6.938 -0.3117 -0.5513  0.1645
 4404SOL    HW124671   3.633   0.100   7.010 -1.7983  1.4944  1.1705
 4404SOL    HW224672   3.623   0.039   6.876 -0.8715  1.8732 -2.3169
 4405SOL     OW24673   3.530   2.993   6.238  0.4765  0.6379 -0.6178
 4405SOL    HW124674   3.570   2.916   6.278  0.3905  0.2546 -1.2774
 4405SOL    HW224675   3.528   3.046   6.318 -0.0000 -1.2907  0.6438
 4406SOL     OW24676   0.847   2.452   6.133  0.0400 -0.0912  0.1874
 4406SOL    HW124677   0.854   2.479   6.225 -1.6958  1.7265 -0.2172
 4406SOL    HW224678   0.922   2.497   6.094 -1.1435  0.3710 -1.5200
 4407SOL     OW24679   0.321   0.885   0.417  0.7010 -0.3285  0.6574
 4407SOL    HW124680   0.300   0.840   0.499 -1.9926 -0.0711  0.1332
 4407SOL    HW224681   0.322   0.816   0.351 -0.3749  1.5243 -1.3404
 4408SOL     OW24682   1.452   4.474   9.679 -0.5801 -0.5116 -0.1057
 4408SOL    HW124683   1.410   4.517   9.753 -2.0927 -0.3508 -1.0671
 4408SOL    HW224684   1.473   4.548   9.624 -1.9165 -0.6367 -0.7689
 4409SOL     OW24685   4.101   2.723   8.598 -0.1193 -0.5167  0.1855
 4409SOL    HW124686   4.155   2.795   8.631  1.9777 -0.4453 -3.4164
 4409SOL    HW224687   4.091   2.672   8.679 -1.1849 -0.4338  0.1113
 4410SOL     OW24688   0.184   0.893   7.265 -0.4003 -0.1089  0.6096
 4410SOL    HW124689   0.154   0.822   7.321  1.6885 -1.2889  0.2270
 4410SOL    HW224690   0.225   0.955   7.325  0.3782  1.2540 -1.3455
 4411SOL     OW24691   3.009   3.505   3.242 -0.5928 -0.0140 -0.3798
 4411SOL    HW124692   2.928   3.529   3.198 -0.3941 -1.3802 -1.4819
 4411SOL    HW224693   3.016   3.416   3.208 -0.3440 -0.1422  0.0069
 4412SOL     OW24694   1.965   0.232  10.600 -0.5567  0.4744  0.3353
 4412SOL    HW124695   1.945   0.250  10.508 -0.4891  1.3827  0.4955
 4412SOL    HW224696   1.881   0.250  10.642 -1.0813 -2.6266  0.5786
 4413SOL     OW24697   3.810   1.866   6.612 -0.8267  0.3318 -0.3585
 4413SOL    HW124698   3.766   1.787   6.579  1.1061 -0.4339 -1.1349
 4413SOL    HW224699   3.735   1.924   6.623  0.2605  1.7272 -0.2982
 4414SOL     OW24700   4.446   0.513   4.901  0.5872  0.2306  0.3364
 4414SOL    HW124701   4.386   0.556   4.960  1.7487  0.4511  1.3543
 4414SOL    HW224702   4.381   0.449   4.870 -0.2464  0.6402  1.2734
 4415SOL     OW24703   4.116   0.288   1.018  0.0661  0.5964 -0.4368
 4415SOL    HW124704   4.093   0.264   0.929  3.0545 -0.6538 -0.8628
 4415SOL    HW224705   4.159   0.207   1.044  1.7020  1.3238 -0.9084
 4416SOL     OW24706   1.476   2.393   5.564 -0.0439  0.1783 -0.5264
 4416SOL    HW124707   1.559   2.434   5.587  0.7913 -0.6939 -2.0129
 4416SOL    HW224708   1.477   2.393   5.468  0.3987 -1.6515 -0.5284
 4417SOL     OW24709   3.723   4.083   6.030  0.2186  0.2291  0.2189
 4417SOL    HW124710   3.777   4.158   6.056  2.0142 -0.5538 -1.2969
 4417SOL    HW224711   3.743   4.088   5.937 -0.7188  0.8870  0.0527
 4418SOL     OW24712   2.013   4.364   3.379  0.4409  0.1987  0.4274
 4418SOL    HW124713   1.927   4.381   3.341  0.5223 -1.3287 -0.4338
 4418SOL    HW224714   2.034   4.280   3.339 -0.9113 -0.3748  0.9332
 4419SOL     OW24715   3.527   2.760   2.873  0.3370  0.0828 -0.5026
 4419SOL    HW124716   3.483   2.681   2.841  0.9222 -0.7553  0.7406
 4419SOL    HW224717   3.589   2.784   2.804 -1.1000  1.0525 -1.4339
 4420SOL     OW24718   2.794   1.300   1.804  0.8417  0.1672  0.1794
 4420SOL    HW124719   2.752   1.215   1.815 -0.4365  0.4220 -2.8597
 4420SOL    HW224720   2.832   1.293   1.717 -2.6303  0.3900 -1.3817
 4421SOL     OW24721   3.936   1.546   2.333  0.0689 -0.7322 -0.0553
 4421SOL    HW124722   3.967   1.465   2.293  2.2417  0.2254 -0.2675
 4421SOL    HW224723   3.987   1.546   2.414  0.9570  1.7894 -0.6083
 4422SOL     OW24724   2.905   3.485  11.553 -0.8053  0.6674  0.4735
 4422SOL    HW124725   2.934   3.520  11.469 -1.2190  0.8466  0.4096
 4422SOL    HW224726   2.991   3.454  11.583 -1.2108 -0.5340  0.4122
 4423SOL     OW24727   0.182   3.761   0.074 -0.2043 -0.1070 -0.1616
 4423SOL    HW124728   0.159   3.749   0.166 -0.1097  1.1565  0.0301
 4423SOL    HW224729   0.118   3.706   0.029 -2.2552  2.4571 -0.3963
 4424SOL     OW24730   2.233   3.452  11.795 -0.8433 -0.0217 -0.0996
 4424SOL    HW124731   2.197   3.374  11.839  0.6122 -0.2339  0.7368
 4424SOL    HW224732   2.229   3.419  11.705  1.9762 -0.6595  0.0111
 4425SOL     OW24733   1.702   3.035   0.151  0.6463  0.0204  0.2890
 4425SOL    HW124734   1.765   2.971   0.117  1.3546  0.9182 -0.0891
 4425SOL    HW224735   1.662   2.991   0.225 -0.0443 -0.8138 -0.5871
 4426SOL     OW24736   0.155   1.855   7.983 -0.0793  0.6124 -0.7387
 4426SOL    HW124737   0.092   1.814   8.042  1.2588  0.2744  0.4729
 4426SOL    HW224738   0.177   1.933   8.033  1.5327 -0.2041 -0.1626
 4427SOL     OW24739   2.073   0.886   0.210  0.1404 -0.4854 -0.5850
 4427SOL    HW124740   2.129   0.831   0.265  0.0360  1.4158  1.4260
 4427SOL    HW224741   2.121   0.903   0.129 -0.3224  1.1900 -0.4998
 4428SOL     OW24742   3.518   0.173  15.854  0.5399 -0.1227  0.7221
 4428SOL    HW124743   3.449   0.110  15.835  1.3240 -1.0075  0.8229
 4428SOL    HW224744   3.477   0.233  15.917  3.3255  2.5917 -0.0583
 4429SOL     OW24745   0.360   2.642   5.364 -0.4156 -0.1243  0.3133
 4429SOL    HW124746   0.370   2.667   5.456 -0.9683  0.9664  0.0772
 4429SOL    HW224747   0.296   2.709   5.341 -2.3163 -1.9438  0.3127
 4430SOL     OW24748   1.406   0.577   2.878  0.0196 -0.1687 -0.4505
 4430SOL    HW124749   1.446   0.541   2.799  1.2547  1.9841 -0.8077
 4430SOL    HW224750   1.447   0.664   2.884  0.2028 -0.4469  2.2462
 4431SOL     OW24751   0.777   3.696   2.496  0.0138 -0.7412  0.2228
 4431SOL    HW124752   0.738   3.609   2.503 -0.8075 -0.3219  0.9055
 4431SOL    HW224753   0.700   3.747   2.471 -0.5056 -0.7796  1.7617
 4432SOL     OW24754   2.908   4.573   8.872  0.4117  0.2682  0.2029
 4432SOL    HW124755   2.845   4.519   8.921  1.3885  0.4886  1.7052
 4432SOL    HW224756   2.989   4.530   8.898 -0.2725  0.4346  2.6381
 4433SOL     OW24757   2.891   1.832   7.432  0.2800  0.2708  0.5293
 4433SOL    HW124758   2.871   1.916   7.392  3.2724  1.1389  0.8651
 4433SOL    HW224759   2.799   1.807   7.442  0.4838 -1.7446 -2.7847
 4434SOL     OW24760   0.028   4.422   0.715 -0.2113 -0.5219 -0.0705
 4434SOL    HW124761   0.020   4.502   0.663 -4.2418 -0.8485  0.0511
 4434SOL    HW224762   0.065   4.465   0.792 -2.4507  0.7244  0.3346
 4435SOL     OW24763   1.547   1.613   1.043 -0.1859 -0.3233 -0.3140
 4435SOL    HW124764   1.470   1.557   1.031  0.8512 -2.1445  1.5047
 4435SOL    HW224765   1.576   1.627   0.953 -2.5625 -0.1948 -1.0629
 4436SOL     OW24766   3.932   2.894   2.538 -0.4398  0.5261  0.4013
 4436SOL    HW124767   3.974   2.932   2.460  1.1048 -0.9002  0.5205
 4436SOL    HW224768   3.953   2.801   2.527 -0.8459  0.5655 -0.6933
 4437SOL     OW24769   2.864   0.779   3.516 -0.2217  0.1059 -0.6268
 4437SOL    HW124770   2.917   0.850   3.552 -0.4229 -1.7484  3.3019
 4437SOL    HW224771   2.923   0.723   3.465  1.3658  2.7163 -1.6431
 4438SOL     OW24772   1.694   0.433   8.663  0.3597 -0.0610  0.1691
 4438SOL    HW124773   1.670   0.347   8.697 -1.4342 -0.6911 -2.7177
 4438SOL    HW224774   1.714   0.479   8.744  0.3996 -0.9016  0.6413
 4439SOL     OW24775   3.794   3.844   5.396 -0.3849  0.2661 -0.8109
 4439SOL    HW124776   3.796   3.816   5.305  0.4851 -0.3813 -0.5880
 4439SOL    HW224777   3.883   3.856   5.428 -0.9368  0.0471  0.8312
 4440SOL     OW24778   2.907   2.611   6.106 -0.2383 -0.7221  0.1811
 4440SOL    HW124779   2.824   2.614   6.152  0.0889  1.7087  0.6219
 4440SOL    HW224780   2.876   2.594   6.017 -0.5490  0.5504  0.0407
 4441SOL     OW24781   3.398   1.572  12.824 -0.3675 -0.5346 -0.5778
 4441SOL    HW124782   3.413   1.492  12.773  1.8717 -1.1720  1.0832
 4441SOL    HW224783   3.485   1.604  12.846 -0.5075 -0.1895 -0.5255
 4442SOL     OW24784   0.960   1.163   2.751 -0.4603 -0.6021  0.6788
 4442SOL    HW124785   1.031   1.102   2.733  1.5335  1.9437 -0.0772
 4442SOL    HW224786   0.957   1.172   2.846  2.8902 -0.3940  0.7742
 4443SOL     OW24787   3.200   0.896   2.046  0.0802 -0.4297 -0.4913
 4443SOL    HW124788   3.262   0.965   2.022  0.2392  0.5025  2.5726
 4443SOL    HW224789   3.156   0.939   2.119 -2.0090  1.7933 -3.0886
 4444SOL     OW24790   3.948   0.634   4.634  0.4832  0.0098  0.1546
 4444SOL    HW124791   3.971   0.558   4.688  2.1947  1.0719  0.9421
 4444SOL    HW224792   4.029   0.650   4.586  1.2437 -0.4440  1.2702
 4445SOL     OW24793   1.553   2.537  14.030 -0.3418 -0.0304 -0.1040
 4445SOL    HW124794   1.533   2.511  14.120  3.0154  2.0844  1.2570
 4445SOL    HW224795   1.569   2.449  13.995 -2.7453 -0.7155  0.5154
 4446SOL     OW24796   2.585   3.316   4.625 -0.5908 -0.3192  0.3505
 4446SOL    HW124797   2.606   3.370   4.701  0.9932  0.3307 -0.5388
 4446SOL    HW224798   2.506   3.360   4.593  0.5035  0.3740 -1.4034
 4447SOL     OW24799   2.097   3.809   9.893 -0.9578 -0.2573 -0.6678
 4447SOL    HW124800   2.020   3.759   9.864 -1.2664  1.4838 -2.8409
 4447SOL    HW224801   2.070   3.898   9.915  0.7608  0.3139 -0.8622
 4448SOL     OW24802   1.795   3.020  13.115 -0.1571  0.7736 -0.6075
 4448SOL    HW124803   1.830   2.946  13.065 -0.6375  1.0235 -1.3104
 4448SOL    HW224804   1.706   3.031  13.081  0.3119  1.5257 -1.5938
 4449SOL     OW24805   2.123   4.602   0.713 -0.0570  0.6104 -0.5069
 4449SOL    HW124806   2.027   4.599   0.714 -0.0187 -0.5954 -0.2905
 4449SOL    HW224807   2.136   4.603   0.618 -1.4183  0.2275 -0.7076
 4450SOL     OW24808   3.119   2.160   5.933  0.0721  0.1087  0.2288
 4450SOL    HW124809   3.117   2.155   5.838  1.1952  0.1030  0.1983
 4450SOL    HW224810   3.191   2.221   5.946 -0.0932  0.6611 -1.4781
 4451SOL     OW24811   1.372   2.827   0.406  0.5765  0.2819  0.2621
 4451SOL    HW124812   1.364   2.868   0.320 -3.0333 -0.8819  0.0727
 4451SOL    HW224813   1.344   2.901   0.459 -0.8679  0.7978 -1.2517
 4452SOL     OW24814   3.679   3.213   4.147  0.2498  0.0337 -0.7065
 4452SOL    HW124815   3.726   3.296   4.140 -0.6993  0.4860 -1.5111
 4452SOL    HW224816   3.601   3.237   4.098 -3.4096  0.4842  5.3870
 4453SOL     OW24817   3.552   3.006   9.207  0.6223 -0.0856  0.1604
 4453SOL    HW124818   3.556   3.098   9.178 -0.6556  0.1131  0.6142
 4453SOL    HW224819   3.543   2.957   9.125 -0.3998  0.4735 -0.0603
 4454SOL     OW24820   0.514   2.465   9.123 -0.1572  0.7169  0.7375
 4454SOL    HW124821   0.514   2.555   9.089  0.3267  1.1735  1.9134
 4454SOL    HW224822   0.423   2.443   9.104 -0.9466  1.6952  3.3096
 4455SOL     OW24823   0.578   3.094   6.569  0.3307  0.2651 -0.0672
 4455SOL    HW124824   0.596   3.052   6.485 -0.3616 -0.7694  0.2983
 4455SOL    HW224825   0.489   3.125   6.553  0.3897 -0.1377 -1.2000
 4456SOL     OW24826   4.609   1.182   5.750 -0.7746 -0.0613 -0.3495
 4456SOL    HW124827   4.575   1.272   5.760 -1.6219 -0.1888 -2.1144
 4456SOL    HW224828   4.622   1.157   5.841 -0.4580 -1.1511 -0.7021
 4457SOL     OW24829   1.808   1.130   5.843  0.0392  0.3822 -0.5474
 4457SOL    HW124830   1.720   1.092   5.846 -0.5597  2.0303  1.9805
 4457SOL    HW224831   1.828   1.105   5.752  0.5505  1.3037 -0.6900
 4458SOL     OW24832   2.876   0.178   6.259 -0.0849  0.7353 -0.2255
 4458SOL    HW124833   2.842   0.148   6.175  1.5078 -1.1749 -0.1916
 4458SOL    HW224834   2.803   0.183   6.321  0.2822 -0.7299  0.3388
 4459SOL     OW24835   1.069   1.857   3.023  0.0429 -0.1021  0.6572
 4459SOL    HW124836   1.030   1.798   2.959 -0.2895 -0.6798  1.3937
 4459SOL    HW224837   0.996   1.855   3.085  1.3084 -1.1799  2.1186
 4460SOL     OW24838   4.059   4.689   8.309  0.2102 -0.0888  0.0916
 4460SOL    HW124839   4.088   0.055   8.319 -1.6180  0.4591  0.3172
 4460SOL    HW224840   3.966   4.699   8.289  0.5175 -0.6652 -1.6006
 4461SOL     OW24841   1.483   1.576  13.917 -0.6889  0.1441  0.0906
 4461SOL    HW124842   1.570   1.540  13.901 -0.6227  0.5202 -0.4171
 4461SOL    HW224843   1.470   1.583  14.012 -0.7049  0.3703  0.0719
 4462SOL     OW24844   2.289   4.208   5.759 -0.2063  0.2817  0.0203
 4462SOL    HW124845   2.259   4.217   5.669  1.7970 -0.3283 -0.7124
 4462SOL    HW224846   2.267   4.120   5.790 -0.3903  0.3050 -0.0424
 4463SOL     OW24847   0.588   2.482  17.615 -0.5146  0.2195 -0.6579
 4463SOL    HW124848   0.594   2.411  17.679  3.4497  1.8685  0.7717
 4463SOL    HW224849   0.504   2.516  17.646 -0.4520 -0.2408  0.0170
 4464SOL     OW24850   2.700   1.035  11.522 -0.3642 -0.0331  0.2705
 4464SOL    HW124851   2.735   0.983  11.594 -2.0226 -1.2362  0.1850
 4464SOL    HW224852   2.618   0.987  11.520 -1.0425  1.1268 -0.0244
 4465SOL     OW24853   2.283   4.325  13.058 -0.2364 -0.4915 -0.0347
 4465SOL    HW124854   2.352   4.279  13.106 -0.3585  0.4193  0.9987
 4465SOL    HW224855   2.336   4.336  12.979  0.9324 -1.7868  0.5732
 4466SOL     OW24856   0.268   4.698   6.270 -0.2220 -0.0530  0.4916
 4466SOL    HW124857   0.252   0.007   6.182  0.4386 -0.2176  0.3126
 4466SOL    HW224858   0.243   0.047   6.325  1.2266  1.9432 -1.5594
 4467SOL     OW24859   1.391   1.613   5.931 -0.0286  0.0401  0.7624
 4467SOL    HW124860   1.344   1.530   5.935  0.2696 -0.0238  2.8160
 4467SOL    HW224861   1.323   1.678   5.913  0.4594  0.5156  0.6347
 4468SOL     OW24862   3.139   1.869   4.903  0.1809 -0.4037 -0.1801
 4468SOL    HW124863   3.159   1.961   4.891 -1.2743 -0.1073 -0.2901
 4468SOL    HW224864   3.228   1.834   4.898  0.6082  0.8564 -1.3281
 4469SOL     OW24865   2.253   0.870   4.167 -0.1407 -0.5365 -0.5411
 4469SOL    HW124866   2.347   0.869   4.188 -0.0528  2.1882 -0.7638
 4469SOL    HW224867   2.262   0.822   4.085 -2.0027 -0.6527 -0.6810
 4470SOL     OW24868   3.720   0.440   6.738 -0.4264 -0.0064 -0.7474
 4470SOL    HW124869   3.720   0.476   6.649 -1.7908  0.5136 -0.5483
 4470SOL    HW224870   3.639   0.388   6.740  0.8673 -2.0487 -2.1181
 4471SOL     OW24871   1.094   4.245  14.790 -0.5557  0.1896  0.6954
 4471SOL    HW124872   1.065   4.273  14.877 -0.8875  1.3609  0.1958
 4471SOL    HW224873   1.047   4.288  14.719  0.7993  1.5483  0.6342
 4472SOL     OW24874   3.126   3.077   6.662  0.5082 -0.2819  0.2900
 4472SOL    HW124875   3.045   3.067   6.612  1.9914 -2.5482 -1.6894
 4472SOL    HW224876   3.117   3.000   6.719  1.8637  0.8906  2.0769
 4473SOL     OW24877   3.546   2.954   9.863 -0.3286 -0.4057  0.1192
 4473SOL    HW124878   3.577   2.871   9.828 -1.4598 -0.7682  0.0094
 4473SOL    HW224879   3.603   2.961   9.940 -0.4039 -0.7940  0.2094
 4474SOL     OW24880   2.873   1.777   8.476  0.3094  0.2924 -0.2513
 4474SOL    HW124881   2.906   1.866   8.465 -0.4061  0.6712  0.7107
 4474SOL    HW224882   2.798   1.783   8.535 -0.2750 -1.2683 -0.8272
 4475SOL     OW24883   3.686   3.381   0.684 -0.0993  0.3281 -0.5510
 4475SOL    HW124884   3.674   3.286   0.684  1.0776  0.1782 -0.0452
 4475SOL    HW224885   3.683   3.401   0.591  1.6290  3.1918  0.0132
 4476SOL     OW24886   1.317   3.104   8.651  0.1130  0.8428 -0.4275
 4476SOL    HW124887   1.305   3.180   8.708  1.8603 -0.4904  1.7095
 4476SOL    HW224888   1.226   3.074   8.652  0.7800 -1.1147  0.1507
 4477SOL     OW24889   3.848   3.540   4.879  0.7455 -0.0744  0.1927
 4477SOL    HW124890   3.760   3.527   4.915  0.3627 -1.3550 -1.2160
 4477SOL    HW224891   3.851   3.635   4.865 -2.0356 -0.2580 -1.5754
 4478SOL     OW24892   3.469   1.953   8.069  0.8448  0.9879 -0.3647
 4478SOL    HW124893   3.377   1.975   8.085  0.9520  2.9593 -2.4461
 4478SOL    HW224894   3.525   2.020   8.108  0.6067  0.4491  0.9055
 4479SOL     OW24895   3.456   2.681   5.863 -0.1156  0.4766  0.1398
 4479SOL    HW124896   3.456   2.688   5.768  1.3798  0.2283  0.1312
 4479SOL    HW224897   3.549   2.688   5.884 -0.0793  0.9787 -0.2017
 4480SOL     OW24898   0.589   3.645   3.013  0.2823  0.1352 -0.1899
 4480SOL    HW124899   0.590   3.740   3.011  0.3282  0.2314  3.6590
 4480SOL    HW224900   0.499   3.626   2.986  0.4206 -0.2232 -0.4073
 4481SOL     OW24901   3.635   4.211   2.595 -0.7971 -0.3779 -0.2503
 4481SOL    HW124902   3.648   4.134   2.541 -1.2950 -0.1113 -0.7465
 4481SOL    HW224903   3.607   4.167   2.676 -1.3445  1.2874  0.4640
 4482SOL     OW24904   2.480   4.080   4.356 -0.2276 -0.3411  0.1659
 4482SOL    HW124905   2.452   4.101   4.267  1.9013  0.6845 -0.2639
 4482SOL    HW224906   2.406   4.029   4.389 -1.2164 -0.6521 -2.5137
 4483SOL     OW24907   1.458   1.027  11.197  0.3911  0.0084 -0.2421
 4483SOL    HW124908   1.532   0.974  11.165 -0.3519 -1.1483 -0.0562
 4483SOL    HW224909   1.497   1.113  11.209  0.2417 -0.2137  1.8525
 4484SOL     OW24910   1.082   2.991   1.541  0.2704  0.3067 -0.2186
 4484SOL    HW124911   1.126   2.911   1.571  1.6631  0.9540 -0.5418
 4484SOL    HW224912   1.049   3.024   1.624  1.7748 -1.2455  0.9869
 4485SOL     OW24913   0.218   2.394  16.121 -0.2450  0.2801  0.3179
 4485SOL    HW124914   0.294   2.339  16.101 -1.6892 -1.9534  0.9173
 4485SOL    HW224915   0.157   2.344  16.176  1.1718 -0.3397  1.3143
 4486SOL     OW24916   2.959   0.631   4.320 -0.2916  0.4791  0.1322
 4486SOL    HW124917   2.921   0.559   4.368 -0.4244 -0.0686 -0.7889
 4486SOL    HW224918   2.920   0.628   4.233  1.2614  0.7309 -0.5877
 4487SOL     OW24919   1.083   1.546  14.052  0.5152 -0.6091 -0.2912
 4487SOL    HW124920   1.009   1.590  14.009 -0.1710  0.5807  2.1027
 4487SOL    HW224921   1.062   1.453  14.061 -2.4277  0.0933  0.1223
 4488SOL     OW24922   0.975   3.429  14.082 -0.4539 -0.6836 -0.1146
 4488SOL    HW124923   0.950   3.515  14.116 -3.4425 -1.8592  0.6861
 4488SOL    HW224924   0.909   3.411  14.016  0.5951 -0.8976 -1.1186
 4489SOL     OW24925   4.301   0.249  10.498 -0.5018  0.3455 -0.7058
 4489SOL    HW124926   4.234   0.309  10.462 -1.6552 -1.2396 -1.1931
 4489SOL    HW224927   4.371   0.245  10.433 -1.4251  1.2024 -1.7733
 4490SOL     OW24928   4.243   1.326   5.212 -0.2742 -0.6793 -0.2353
 4490SOL    HW124929   4.246   1.413   5.171  0.1564 -1.2871 -1.5056
 4490SOL    HW224930   4.168   1.335   5.271 -0.0382  0.5496 -0.1215
 4491SOL     OW24931   3.526   1.037   6.632  0.4400  0.0384 -0.1881
 4491SOL    HW124932   3.592   1.039   6.563  0.0175  1.8591 -0.5347
 4491SOL    HW224933   3.533   0.946   6.660 -1.1167  0.0607  0.2489
 4492SOL     OW24934   2.672   2.494  14.035 -0.1210 -0.6943 -0.6305
 4492SOL    HW124935   2.577   2.499  14.027 -0.1540 -0.4744 -0.1277
 4492SOL    HW224936   2.703   2.500  13.945  0.9355 -0.6471 -0.2684
 4493SOL     OW24937   1.608   3.572  11.223 -0.1183 -0.2737 -0.1830
 4493SOL    HW124938   1.569   3.655  11.196  0.0098 -0.2757 -0.3717
 4493SOL    HW224939   1.673   3.571  11.153  1.1488  1.3665  0.9579
 4494SOL     OW24940   2.668   0.743   4.721  0.3885 -0.8965 -0.1598
 4494SOL    HW124941   2.633   0.768   4.807 -0.5021 -3.3660  0.2073
 4494SOL    HW224942   2.707   0.824   4.689  0.7800 -1.3223 -0.7609
 4495SOL     OW24943   0.853   0.301   3.226  0.2394  0.0243  0.2740
 4495SOL    HW124944   0.947   0.317   3.225 -0.0248  1.3621 -3.2761
 4495SOL    HW224945   0.846   0.214   3.185 -0.6604 -0.1914  0.8885
 4496SOL     OW24946   1.171   4.598  14.496 -0.0289 -0.3657  0.0584
 4496SOL    HW124947   1.161   4.684  14.455 -1.6607 -0.2134  0.7453
 4496SOL    HW224948   1.189   4.624  14.587 -2.1584 -3.1369  1.2894
 4497SOL     OW24949   4.324   3.048   5.351 -0.0740 -0.1198 -0.3183
 4497SOL    HW124950   4.333   3.056   5.256  0.1452  1.1149 -0.2020
 4497SOL    HW224951   4.230   3.059   5.366 -0.0856 -0.8812  0.1195
 4498SOL     OW24952   4.216   2.560   9.037 -0.2011  0.4760  0.1585
 4498SOL    HW124953   4.251   2.481   9.078  0.4922  0.2204 -0.9228
 4498SOL    HW224954   4.298   2.609   9.035  0.6546 -1.0390 -2.2669
 4499SOL     OW24955   2.271   0.644  17.070 -0.4126 -0.1622 -0.3981
 4499SOL    HW124956   2.199   0.649  17.007 -0.5436  0.6208 -0.1916
 4499SOL    HW224957   2.343   0.632  17.009 -1.2710  1.9420 -1.8232
 4500SOL     OW24958   2.147   3.986   2.556 -0.6048 -0.2164  0.2175
 4500SOL    HW124959   2.105   3.951   2.634  1.1781 -1.5269  0.5961
 4500SOL    HW224960   2.228   4.021   2.594 -1.0022 -0.6687  1.4697
 4501SOL     OW24961   0.973   4.417  14.610 -0.1193 -0.3608  1.0743
 4501SOL    HW124962   0.885   4.389  14.588  0.0308 -0.9962  1.2924
 4501SOL    HW224963   0.991   4.481  14.541 -0.8825 -1.1644  0.1437
 4502SOL     OW24964   2.187   0.001   3.540  0.0843 -0.1380  0.3260
 4502SOL    HW124965   2.150   4.649   3.582  1.0789 -1.7998 -1.8531
 4502SOL    HW224966   2.111   0.034   3.492  0.0128 -0.3589  0.2877
 4503SOL     OW24967   0.912   1.958   2.106 -0.0177  0.6181  0.6503
 4503SOL    HW124968   0.863   1.887   2.148 -0.3490  1.1676  1.1836
 4503SOL    HW224969   0.913   1.926   2.016  1.4962 -0.3153  0.9957
 4504SOL     OW24970   0.482   1.924   6.584 -0.3933 -0.1046 -0.1230
 4504SOL    HW124971   0.428   1.888   6.654 -0.3380  0.8185  0.3933
 4504SOL    HW224972   0.537   1.847   6.568 -1.3212 -1.2920  2.4941
 4505SOL     OW24973   1.352   1.476  13.340 -0.5417 -0.1540  0.2794
 4505SOL    HW124974   1.325   1.511  13.425  0.6088 -1.8460  1.3393
 4505SOL    HW224975   1.307   1.393  13.332  0.6327 -0.7015 -0.5884
 4506SOL     OW24976   2.740   2.028   7.276 -0.1439 -0.4294 -0.0586
 4506SOL    HW124977   2.736   1.984   7.191 -0.3389 -0.5544  0.0148
 4506SOL    HW224978   2.714   2.115   7.247  1.9773  0.5556  1.0043
 4507SOL     OW24979   3.541   1.151   0.178  0.8306  0.7127  0.3004
 4507SOL    HW124980   3.471   1.213   0.200  0.1500 -0.5887  1.8063
 4507SOL    HW224981   3.489   1.087   0.130  0.3994  0.3337  1.2756
 4508SOL     OW24982   4.395   1.787   7.209  0.6596  0.1279  0.5700
 4508SOL    HW124983   4.327   1.726   7.237 -0.2485  0.3397 -1.1404
 4508SOL    HW224984   4.402   1.843   7.286 -0.5056 -1.3375  1.7123
 4509SOL     OW24985   4.567   2.841   6.953  0.8983 -0.3207 -0.3148
 4509SOL    HW124986   4.647   2.802   6.918  1.3036  1.2194 -1.0945
 4509SOL    HW224987   4.506   2.812   6.885 -0.5971 -0.2239  0.9771
 4510SOL     OW24988   1.935   2.520   7.483  0.3600 -0.4311 -0.3882
 4510SOL    HW124989   1.920   2.548   7.573  1.4542  2.0263 -0.9889
 4510SOL    HW224990   2.030   2.533   7.480  0.2693  0.5359  1.1023
 4511SOL     OW24991   0.653   4.134   1.550 -0.0693  0.0465 -0.4874
 4511SOL    HW124992   0.604   4.125   1.468 -0.0820 -1.5089 -0.3010
 4511SOL    HW224993   0.591   4.189   1.597  0.4495  0.0303  0.2072
 4512SOL     OW24994   4.113   3.038   3.480  0.1200  0.3369  0.2480
 4512SOL    HW124995   4.143   3.052   3.570  1.9679 -0.1293 -0.2916
 4512SOL    HW224996   4.046   3.105   3.469  0.5243  0.5786 -0.7357
 4513SOL     OW24997   2.122   3.191   3.967  0.1916 -0.5403 -0.0869
 4513SOL    HW124998   2.095   3.221   4.054 -2.0337 -0.5055 -0.7886
 4513SOL    HW224999   2.084   3.103   3.958 -0.7272 -0.0977 -0.4727
 4514SOL     OW25000   2.253   2.566   4.516 -0.1636 -0.3659 -0.1064
 4514SOL    HW125001   2.285   2.480   4.540  2.2891  0.3472 -0.8378
 4514SOL    HW225002   2.255   2.607   4.603  2.2807 -1.2196  0.2374
 4515SOL     OW25003   2.411   2.627  14.065 -0.5933  0.5032  0.0309
 4515SOL    HW125004   2.444   2.692  14.127  0.5214  0.7671 -0.8500
 4515SOL    HW225005   2.349   2.576  14.117 -1.3661  0.1609 -1.2461
 4516SOL     OW25006   2.133   1.319  16.965  0.1268  0.5061  0.3431
 4516SOL    HW125007   2.136   1.329  17.060  1.1284  0.5404  0.2982
 4516SOL    HW225008   2.038   1.335  16.964  0.0505  0.0121 -0.8740
 4517SOL     OW25009   0.299   0.801   4.603 -0.2533 -0.4901  0.0279
 4517SOL    HW125010   0.379   0.848   4.627 -0.7911 -0.3492  1.5060
 4517SOL    HW225011   0.251   0.879   4.574 -2.1966 -1.6664  0.0653
 4518SOL     OW25012   4.037   2.835   7.969 -0.5055 -0.1263  0.2665
 4518SOL    HW125013   4.117   2.792   7.939  0.2191  2.3203 -1.3099
 4518SOL    HW225014   4.033   2.906   7.905  3.1637 -0.0159  0.1742
 4519SOL     OW25015   2.104   4.359   0.220  0.0531  0.9730  0.3985
 4519SOL    HW125016   2.154   4.283   0.191  0.1772  1.7217 -1.3465
 4519SOL    HW225017   2.061   4.371   0.136 -1.2374  0.2453  0.9502
 4520SOL     OW25018   1.853   3.627   9.004  0.0578 -0.0837  0.4638
 4520SOL    HW125019   1.765   3.596   9.027 -0.2671 -0.6631 -1.5326
 4520SOL    HW225020   1.900   3.544   9.000  1.2788  0.7063 -1.5464
 4521SOL     OW25021   4.421   2.220   4.290 -0.1203 -0.3046 -0.1411
 4521SOL    HW125022   4.444   2.229   4.198  1.4780  0.9598  0.3676
 4521SOL    HW225023   4.493   2.165   4.320  0.5211  1.1775  1.1007
 4522SOL     OW25024   3.457   0.066   8.263 -0.1536  0.2388 -0.5151
 4522SOL    HW125025   3.475   0.024   8.179 -0.0976 -1.8462  0.5335
 4522SOL    HW225026   3.475   0.159   8.245  0.0019  0.0144 -1.5046
 4523SOL     OW25027   4.355   0.066   9.748  0.3247  0.2650  0.1719
 4523SOL    HW125028   4.386   0.091   9.835 -1.1897  0.2303  0.7109
 4523SOL    HW225029   4.260   0.070   9.759 -0.0352 -1.5689 -2.4672
 4524SOL     OW25030   0.118   4.677   5.816 -0.2601  0.4006  0.3735
 4524SOL    HW125031   0.167   4.604   5.777 -0.7439  0.7116 -0.8004
 4524SOL    HW225032   0.090   4.711   5.731  1.0859  0.4342 -0.0614
 4525SOL     OW25033   3.805   0.207   7.081  0.2016 -0.2263  0.5762
 4525SOL    HW125034   3.795   0.288   7.132  2.1031  0.4922 -0.1948
 4525SOL    HW225035   3.834   0.153   7.155 -0.1560 -1.4665 -0.2113
 4526SOL     OW25036   2.358   1.246   1.214  0.3302  0.0931 -0.2290
 4526SOL    HW125037   2.324   1.320   1.164  1.0599 -0.0555 -0.9421
 4526SOL    HW225038   2.447   1.226   1.187  0.0571 -2.3009  0.6058
 4527SOL     OW25039   0.283   4.502   3.584  0.4610 -0.0196 -0.4175
 4527SOL    HW125040   0.261   4.529   3.494  1.5320  1.7358 -0.1523
 4527SOL    HW225041   0.264   4.585   3.628  1.6696  0.1199 -0.1614
 4528SOL     OW25042   2.125   2.663   1.373  0.0180 -0.0223  0.1860
 4528SOL    HW125043   2.088   2.736   1.324  0.5254 -0.8070 -1.3524
 4528SOL    HW225044   2.099   2.586   1.322  0.1310 -0.5827  0.9622
 4529SOL     OW25045   3.842   4.338   9.410  0.7058 -0.1980  0.3569
 4529SOL    HW125046   3.752   4.370   9.420  1.1094  0.7950  0.7898
 4529SOL    HW225047   3.838   4.299   9.323  0.3952 -1.0441  0.7515
 4530SOL     OW25048   2.255   2.663  11.644 -0.3924 -0.0096  0.0214
 4530SOL    HW125049   2.314   2.707  11.583 -1.0417  0.7034 -0.0848
 4530SOL    HW225050   2.169   2.695  11.618 -0.2730  0.1978 -0.1084
 4531SOL     OW25051   2.674   2.353   7.168 -0.0145 -0.0612  0.5921
 4531SOL    HW125052   2.584   2.336   7.196 -0.5108  0.4053 -0.7069
 4531SOL    HW225053   2.702   2.425   7.224  0.7454  0.3836 -0.3524
 4532SOL     OW25054   3.061   3.913   7.092  0.6183 -0.3325  0.3793
 4532SOL    HW125055   3.071   3.838   7.034  0.8971  0.6782 -0.9006
 4532SOL    HW225056   3.083   3.981   7.027  1.5252 -0.6175  0.3816
 4533SOL     OW25057   4.296   1.168   4.968 -0.3897  0.0205  0.5744
 4533SOL    HW125058   4.323   1.195   5.056  1.6424 -0.5821  0.1254
 4533SOL    HW225059   4.211   1.211   4.956  0.1910  0.3518 -2.3161
 4534SOL     OW25060   4.698   4.071   5.537  0.0766 -0.3454 -0.7220
 4534SOL    HW125061   0.009   4.142   5.591 -0.7510 -0.8017  0.4325
 4534SOL    HW225062   4.680   3.997   5.595 -0.3014  0.8416  0.6939
 4535SOL     OW25063   3.608   0.136   7.686 -0.4125  0.2041 -0.1967
 4535SOL    HW125064   3.526   0.135   7.635  0.2635  1.2298 -1.3033
 4535SOL    HW225065   3.579   0.209   7.742 -0.8298 -0.5196  0.5266
 4536SOL     OW25066   4.558   2.485  14.725 -0.2744  0.4549  0.4834
 4536SOL    HW125067   4.513   2.403  14.704 -0.0352  0.4538 -0.0277
 4536SOL    HW225068   4.628   2.464  14.785 -1.8178 -1.9464  1.4455
 4537SOL     OW25069   1.477   1.190   2.625 -0.4356 -0.1671  0.0697
 4537SOL    HW125070   1.465   1.153   2.538  2.9144  1.6336 -1.1508
 4537SOL    HW225071   1.571   1.205   2.616 -0.2668 -1.3673 -0.2279
 4538SOL     OW25072   2.375   1.207   4.396 -0.0343  0.0921  0.4904
 4538SOL    HW125073   2.466   1.187   4.375 -0.4472 -0.1663 -1.0543
 4538SOL    HW225074   2.327   1.133   4.357  1.0509  1.1091 -2.7141
 4539SOL     OW25075   4.421   1.030  16.062 -0.0312 -0.1519 -0.1622
 4539SOL    HW125076   4.459   1.102  16.013 -0.4667 -0.6363 -1.1978
 4539SOL    HW225077   4.334   1.028  16.022 -0.3808  1.7132  0.5187
 4540SOL     OW25078   1.007   2.033   7.576  0.4198  0.2598  0.1090
 4540SOL    HW125079   1.007   1.961   7.512 -0.5812 -0.0928  0.5064
 4540SOL    HW225080   1.016   1.979   7.655  0.8789 -2.5961 -1.8916
 4541SOL     OW25081   2.160   0.875   9.443 -0.2685  0.1764 -0.1860
 4541SOL    HW125082   2.134   0.902   9.531 -1.4079 -0.6624 -0.2580
 4541SOL    HW225083   2.114   0.791   9.442 -1.1977  0.6549  0.9770
 4542SOL     OW25084   1.574   1.755   2.569 -0.7913  0.0621  0.1073
 4542SOL    HW125085   1.508   1.761   2.500 -1.1221  0.9076  0.4925
 4542SOL    HW225086   1.659   1.762   2.526 -0.5971  1.6142  0.7225
 4543SOL     OW25087   0.920   0.605   1.398  0.2774  0.4901  0.2009
 4543SOL    HW125088   0.950   0.555   1.322 -0.6531 -0.4259  0.4462
 4543SOL    HW225089   0.830   0.573   1.393  0.5108  0.0927 -1.4636
 4544SOL     OW25090   0.611   0.307   8.825 -0.2123  0.1694  0.3570
 4544SOL    HW125091   0.701   0.339   8.827  0.0471 -0.5213 -0.2626
 4544SOL    HW225092   0.577   0.389   8.789  0.2623 -0.7474 -2.1459
 4545SOL     OW25093   3.906   1.893   3.951  0.3775 -0.1046  0.0047
 4545SOL    HW125094   3.888   1.854   3.865  1.0550  0.6123 -0.4523
 4545SOL    HW225095   3.993   1.858   3.967 -0.2279 -1.5555  0.1119
 4546SOL     OW25096   0.611   3.959   6.950  0.3634  0.2001  0.5220
 4546SOL    HW125097   0.693   3.950   6.998  0.9221  3.1991  0.1214
 4546SOL    HW225098   0.578   4.042   6.983 -0.6259 -0.5029  1.3362
 4547SOL     OW25099   1.766   2.237   2.126  0.9866  0.3472 -0.1870
 4547SOL    HW125100   1.725   2.154   2.104  0.8639 -0.0230  1.4653
 4547SOL    HW225101   1.841   2.209   2.178 -1.0680 -0.4480  2.3077
 4548SOL     OW25102   3.946   2.576   3.878  0.0961  0.3796 -0.3430
 4548SOL    HW125103   4.027   2.554   3.922  1.0160  0.5186 -1.9597
 4548SOL    HW225104   3.950   2.671   3.878 -0.7541  0.4198  0.0983
 4549SOL     OW25105   0.768   1.540   5.804  0.2069 -0.9179 -0.6077
 4549SOL    HW125106   0.761   1.487   5.883 -2.2991  0.9139  0.3766
 4549SOL    HW225107   0.842   1.508   5.752  1.8366  0.2050  0.9939
 4550SOL     OW25108   2.390   4.457   2.474  0.1385  0.3326 -0.7469
 4550SOL    HW125109   2.344   4.538   2.495  0.3507  0.1675  0.3407
 4550SOL    HW225110   2.345   4.434   2.392  3.6186 -2.1142 -1.9618
 4551SOL     OW25111   0.398   0.912   3.607  0.6258  0.3637 -0.1821
 4551SOL    HW125112   0.468   0.945   3.664  0.4950 -2.0340  1.3684
 4551SOL    HW225113   0.406   0.960   3.525 -0.1984 -0.4406 -0.7306
 4552SOL     OW25114   1.270   3.923  10.861  0.5651 -0.3057 -0.1504
 4552SOL    HW125115   1.294   3.910  10.953 -1.4327  1.4270  0.6057
 4552SOL    HW225116   1.189   3.968  10.885 -1.4853 -2.9280 -2.1829
 4553SOL     OW25117   0.540   2.924   4.596 -0.2642 -0.4281 -0.7985
 4553SOL    HW125118   0.546   2.910   4.690 -0.2621  3.5213 -0.2171
 4553SOL    HW225119   0.520   3.017   4.595  2.1952  0.0965 -0.4653
 4554SOL     OW25120   2.714   0.465   8.611 -0.1308 -0.6127  0.3352
 4554SOL    HW125121   2.699   0.371   8.611 -0.3627 -0.5738  0.5864
 4554SOL    HW225122   2.801   0.478   8.572 -0.7946  0.0964 -0.8885
 4555SOL     OW25123   3.492   1.858   1.043 -0.6919  0.0230 -0.1798
 4555SOL    HW125124   3.565   1.918   1.057 -0.6530 -0.4228  1.5243
 4555SOL    HW225125   3.527   1.779   1.083 -0.8550 -0.7671 -1.5973
 4556SOL     OW25126   3.757   2.157  11.160 -0.6819  0.1635  0.1833
 4556SOL    HW125127   3.710   2.142  11.078 -0.0750  1.8169 -0.4787
 4556SOL    HW225128   3.794   2.244  11.145  0.1291 -0.2920 -0.4429
 4557SOL     OW25129   1.431   1.293  12.448 -0.7007  0.1525 -0.5333
 4557SOL    HW125130   1.374   1.216  12.450 -1.0127  0.4637  2.0857
 4557SOL    HW225131   1.506   1.245  12.412 -0.4869  0.6595 -0.7641
 4558SOL     OW25132   3.060   4.062  14.962  0.9397 -0.0748 -0.0372
 4558SOL    HW125133   3.123   4.079  15.032  1.4509 -0.2942 -0.4462
 4558SOL    HW225134   3.120   4.001  14.918  0.3058  0.3441 -1.4808
 4559SOL     OW25135   0.135   3.676  16.790  0.7588 -0.0758  0.5708
 4559SOL    HW125136   0.185   3.626  16.726 -0.6094  0.8225 -1.1764
 4559SOL    HW225137   0.147   3.768  16.768 -0.5214  0.1498  0.7859
 4560SOL     OW25138   2.807   4.417   7.582 -0.1497 -0.9682 -0.0695
 4560SOL    HW125139   2.816   4.363   7.661  0.7859  0.7155  0.9643
 4560SOL    HW225140   2.895   4.439   7.550 -0.5537 -1.9561 -1.8813
 4561SOL     OW25141   0.135   3.977   9.455 -0.4609 -0.2128  0.6194
 4561SOL    HW125142   0.175   3.974   9.542  0.9504 -3.0650 -0.1302
 4561SOL    HW225143   0.130   4.070   9.434  0.5684  0.8004  4.8354
 4562SOL     OW25144   2.323   3.504   8.068  0.1944  0.1199 -0.2921
 4562SOL    HW125145   2.366   3.422   8.045  1.4034  0.2294  1.5539
 4562SOL    HW225146   2.395   3.553   8.109 -0.9676 -0.2687  2.2376
 4563SOL     OW25147   1.318   1.374  10.828  0.0645 -0.0336  0.2839
 4563SOL    HW125148   1.336   1.385  10.735  0.0004  1.6049  0.4727
 4563SOL    HW225149   1.396   1.329  10.861 -0.3895 -0.6981  0.4710
 4564SOL     OW25150   2.942   2.779  12.703 -0.1633 -0.2160  0.5219
 4564SOL    HW125151   2.999   2.836  12.653  1.5316 -1.4204  1.0941
 4564SOL    HW225152   2.996   2.701  12.715 -0.9922 -0.4743  2.6906
 4565SOL     OW25153   1.884   1.868   1.777 -0.1941 -0.2795 -0.7742
 4565SOL    HW125154   1.898   1.961   1.796 -0.4623 -0.1232 -1.3405
 4565SOL    HW225155   1.810   1.840   1.830 -0.5783  0.1042 -1.1064
 4566SOL     OW25156   0.180   2.541   0.991 -0.3683 -0.2154  0.3497
 4566SOL    HW125157   0.232   2.613   0.957 -0.1850  0.1030  1.3053
 4566SOL    HW225158   0.114   2.536   0.922 -0.3519  0.9852  0.2585
 4567SOL     OW25159   1.820   2.973   8.013  0.3918 -0.2562  0.1330
 4567SOL    HW125160   1.872   2.900   8.046  0.4694 -0.5025 -0.5434
 4567SOL    HW225161   1.882   3.045   8.018  1.0445 -0.8009 -0.2103
 4568SOL     OW25162   3.914   0.563  17.220 -0.0515 -0.1098  0.2682
 4568SOL    HW125163   3.932   0.522  17.304 -2.8852  1.1023  1.4490
 4568SOL    HW225164   3.915   0.480  17.172 -1.4792  1.5889 -2.7215
 4569SOL     OW25165   3.595   2.216  15.623 -0.0230  0.0421  0.1987
 4569SOL    HW125166   3.520   2.263  15.587 -0.6216 -0.5568  0.6712
 4569SOL    HW225167   3.564   2.127  15.607  2.0782 -0.7204  0.3623
 4570SOL     OW25168   1.550   2.478   6.595 -0.0174  0.5564  0.0803
 4570SOL    HW125169   1.552   2.569   6.565  2.3739  0.5812  0.3177
 4570SOL    HW225170   1.506   2.433   6.522  1.1634  1.2097 -1.0431
 4571SOL     OW25171   3.415   3.781   5.491  0.0753 -0.2733 -0.0232
 4571SOL    HW125172   3.419   3.872   5.464  1.6023  0.4117  2.4341
 4571SOL    HW225173   3.475   3.739   5.429  1.3935  2.5320 -0.6361
 4572SOL     OW25174   4.437   0.087   1.427  0.2285  0.3716  0.7843
 4572SOL    HW125175   4.414   4.720   1.442 -1.4429  0.2837 -2.4541
 4572SOL    HW225176   4.483   0.113   1.507 -0.2973 -2.0732  1.8740
 4573SOL     OW25177   0.949   3.751   5.462  0.0856 -0.0043  0.5779
 4573SOL    HW125178   0.910   3.682   5.515  1.6202 -0.8863  0.5637
 4573SOL    HW225179   0.880   3.817   5.458 -1.2569 -1.2982  2.7949
 4574SOL     OW25180   1.230   0.401   5.572  0.2273  0.0731  0.1511
 4574SOL    HW125181   1.184   0.472   5.616  1.6626  0.6241  0.7547
 4574SOL    HW225182   1.319   0.426   5.596  0.3036 -1.0164  1.0238
 4575SOL     OW25183   2.614   3.324   9.038 -0.6327 -0.5497  0.1900
 4575SOL    HW125184   2.703   3.342   9.007  0.5740 -1.2825  3.2457
 4575SOL    HW225185   2.604   3.232   9.013 -1.2634 -0.3276 -0.3784
 4576SOL     OW25186   2.544   2.574   6.418  0.7166  0.6408 -0.4484
 4576SOL    HW125187   2.453   2.553   6.437  0.4836  0.8329 -1.3449
 4576SOL    HW225188   2.545   2.506   6.350 -2.3184  0.8617 -0.7266
 4577SOL     OW25189   0.711   3.072   3.311  0.2896 -0.8503  0.5246
 4577SOL    HW125190   0.696   3.039   3.223  2.6839  0.3206 -0.3190
 4577SOL    HW225191   0.621   3.078   3.344  0.6231  0.2524  1.2403
 4578SOL     OW25192   4.563   1.700  17.318 -0.1897 -0.4067  0.3857
 4578SOL    HW125193   4.531   1.641  17.250 -1.8841  0.2072  0.6597
 4578SOL    HW225194   4.563   1.779  17.263 -1.3487 -0.5011  0.2598
 4579SOL     OW25195   1.043   2.752   4.612 -0.2980  0.0589 -0.4714
 4579SOL    HW125196   1.005   2.761   4.525 -0.2283 -1.1312 -0.6231
 4579SOL    HW225197   1.137   2.756   4.596 -0.3693 -2.1554 -1.3822
 4580SOL     OW25198   4.449   2.855   2.456  0.2906 -0.0437 -0.1070
 4580SOL    HW125199   4.491   2.901   2.383  1.5925 -2.6223 -0.9961
 4580SOL    HW225200   4.407   2.781   2.413  0.6889 -0.3278 -0.0081
 4581SOL     OW25201   2.351   1.386   7.376 -0.5801 -0.0190 -0.4030
 4581SOL    HW125202   2.426   1.413   7.323  0.2719  0.3331  0.9639
 4581SOL    HW225203   2.304   1.332   7.314 -0.4534 -1.2184  0.5424
 4582SOL     OW25204   4.351   0.365   4.626 -0.1461 -0.3369  0.3878
 4582SOL    HW125205   4.327   0.440   4.572 -0.1936  1.1063  2.3984
 4582SOL    HW225206   4.436   0.330   4.600 -0.7432 -2.2300  0.9699
 4583SOL     OW25207   3.386   1.580   9.626  1.0493  0.4717 -0.5424
 4583SOL    HW125208   3.344   1.501   9.590 -1.5869  1.0581  1.2344
 4583SOL    HW225209   3.445   1.609   9.556  1.4922 -2.0708 -1.2277
 4584SOL     OW25210   3.228   1.493  11.981 -0.0224 -0.2879 -0.0710
 4584SOL    HW125211   3.289   1.487  11.907 -0.2227  1.0434 -0.3524
 4584SOL    HW225212   3.187   1.576  11.954 -2.3592 -0.6792  2.3646
 4585SOL     OW25213   0.078   0.511  17.468  0.4499 -0.6656  0.1697
 4585SOL    HW125214   0.106   0.600  17.489  2.2227 -1.0867 -0.3566
 4585SOL    HW225215   4.708   0.518  17.462  0.1494 -2.0699  3.5687
 4586SOL     OW25216   0.360   0.061   6.821  0.5584  0.1537  0.6163
 4586SOL    HW125217   0.386   4.716   6.762  1.3379  0.3939  0.6806
 4586SOL    HW225218   0.424   0.047   6.891  0.9484  2.1104  0.6571
 4587SOL     OW25219   2.075   3.550  12.987 -0.5573  0.0219  0.1434
 4587SOL    HW125220   2.061   3.571  12.894  2.0892 -1.9814 -0.7022
 4587SOL    HW225221   2.067   3.639  13.022  0.3346 -1.3461  3.8176
 4588SOL     OW25222   3.177   0.503   5.443 -0.1422 -0.5832  0.3573
 4588SOL    HW125223   3.116   0.454   5.388  0.6020 -0.3805 -0.6563
 4588SOL    HW225224   3.244   0.523   5.377 -0.9368 -0.9653 -0.5709
 4589SOL     OW25225   4.329   3.437  12.142 -0.0291 -1.2969 -0.2550
 4589SOL    HW125226   4.264   3.378  12.180 -0.9206 -1.4539 -2.0035
 4589SOL    HW225227   4.410   3.394  12.168  0.3499  0.3683  1.3086
 4590SOL     OW25228   3.652   0.766  13.260 -0.0078  0.2400 -0.3196
 4590SOL    HW125229   3.571   0.818  13.260  1.4311  2.4628  1.7280
 4590SOL    HW225230   3.618   0.680  13.238 -1.2884  0.9575 -1.1584
 4591SOL     OW25231   1.674   0.950  14.084  0.5756 -0.0886  0.4360
 4591SOL    HW125232   1.625   0.903  14.151  0.6839 -1.5290 -0.4979
 4591SOL    HW225233   1.760   0.913  14.101  1.9338  2.7738 -0.0776
 4592SOL     OW25234   2.537   3.436   6.842  0.6751  0.1309 -0.0356
 4592SOL    HW125235   2.597   3.384   6.787 -0.3167 -0.4235 -0.5862
 4592SOL    HW225236   2.524   3.391   6.925 -1.7433  0.2587 -0.3601
 4593SOL     OW25237   3.212   1.558  14.163  0.5228  0.0023  0.4865
 4593SOL    HW125238   3.206   1.508  14.082  0.1069 -0.7849  1.0106
 4593SOL    HW225239   3.306   1.555  14.178  0.5032  0.8626  0.7885
 4594SOL     OW25240   2.986   3.822  11.490  0.2633 -0.2766 -0.7380
 4594SOL    HW125241   2.940   3.865  11.418 -0.8754  1.4169  1.0099
 4594SOL    HW225242   3.045   3.770  11.434 -0.3691 -1.2318 -0.5309
 4595SOL     OW25243   1.399   1.945   5.907 -0.1965  0.2419 -0.0191
 4595SOL    HW125244   1.467   1.916   5.846 -0.4907  1.4588 -0.9176
 4595SOL    HW225245   1.316   1.941   5.861  0.2071  0.3577 -0.7459
 4596SOL     OW25246   4.693   4.263  16.477 -0.0834  0.6565  0.5421
 4596SOL    HW125247   0.053   4.288  16.513 -0.7580  0.2890  2.3345
 4596SOL    HW225248   4.706   4.235  16.386  0.6737 -3.3718  1.9071
 4597SOL     OW25249   3.964   3.866  10.572  0.1797 -0.1368  0.0363
 4597SOL    HW125250   4.022   3.813  10.518  1.3039 -0.5501  1.6324
 4597SOL    HW225251   3.995   3.846  10.660 -0.5360 -1.1068  0.0746
 4598SOL     OW25252   4.347   4.440   2.290 -0.1897 -0.4648  0.0178
 4598SOL    HW125253   4.288   4.404   2.224  0.1372 -1.2460  0.1532
 4598SOL    HW225254   4.282   4.470   2.352  1.5948  0.6908  1.3311
 4599SOL     OW25255   0.950   1.468   5.618 -0.0412 -0.3157 -0.0430
 4599SOL    HW125256   0.964   1.460   5.524 -0.8052  0.6208 -0.2403
 4599SOL    HW225257   1.002   1.392   5.644  1.6287  0.6950 -0.3947
 4600SOL     OW25258   2.613   0.201   8.603 -0.0289 -0.6758 -0.3109
 4600SOL    HW125259   2.533   0.229   8.647 -0.0057 -0.7067 -0.2504
 4600SOL    HW225260   2.584   0.133   8.542  1.8934 -0.5528 -1.3732
 4601SOL     OW25261   1.764   0.905   1.704  0.6569  0.3452 -0.3255
 4601SOL    HW125262   1.733   0.936   1.618  0.3717 -0.4406 -0.5076
 4601SOL    HW225263   1.832   0.846   1.670 -0.0838 -0.2615 -0.7753
 4602SOL     OW25264   2.713   3.168   8.560 -0.5934 -0.5300  0.1184
 4602SOL    HW125265   2.708   3.260   8.536  1.1102 -0.5865 -0.4178
 4602SOL    HW225266   2.721   3.123   8.475 -0.0035  0.1884 -0.2021
 4603SOL     OW25267   3.422   1.366   6.007 -0.1445  0.3598  0.4746
 4603SOL    HW125268   3.483   1.412   6.064 -0.5362 -1.2195  2.1556
 4603SOL    HW225269   3.459   1.280   6.024 -0.6678  0.3477  1.5529
 4604SOL     OW25270   0.965   2.892  12.199 -0.5122 -0.6874  0.9239
 4604SOL    HW125271   0.987   2.799  12.210 -2.1355 -1.5665 -3.4488
 4604SOL    HW225272   1.028   2.941  12.252  0.0615  1.0850 -1.3890
 4605SOL     OW25273   4.506   1.598   8.051  0.2369  0.0133  0.0241
 4605SOL    HW125274   4.525   1.691   8.065 -3.4936  0.8399 -0.5064
 4605SOL    HW225275   4.457   1.571   8.128  0.9214  3.0081  1.5048
 4606SOL     OW25276   2.469   0.879  12.612 -0.8632  0.4812  0.4623
 4606SOL    HW125277   2.469   0.786  12.632 -0.4013 -0.1192 -2.3282
 4606SOL    HW225278   2.562   0.900  12.622 -0.7161 -0.3505  0.8052
 4607SOL     OW25279   4.503   1.748  10.699 -0.6616  0.3415  0.4708
 4607SOL    HW125280   4.586   1.741  10.652 -0.3624 -1.1183  1.2045
 4607SOL    HW225281   4.440   1.728  10.629 -1.2782  0.3110  1.0421
 4608SOL     OW25282   0.630   1.735   9.174 -0.1887  0.5574  0.1482
 4608SOL    HW125283   0.689   1.673   9.217 -0.0394  0.6971  0.1421
 4608SOL    HW225284   0.637   1.810   9.232 -2.7070  0.7393  0.2113
 4609SOL     OW25285   0.846   3.269   3.407 -0.7189 -0.4718  0.2739
 4609SOL    HW125286   0.790   3.293   3.480 -3.7245  0.6711 -2.4294
 4609SOL    HW225287   0.797   3.190   3.386 -0.2595 -0.5184 -0.6361
 4610SOL     OW25288   4.456   0.784  11.907 -0.5790 -0.5163  0.0858
 4610SOL    HW125289   4.533   0.796  11.963 -1.2527  1.9590  0.5076
 4610SOL    HW225290   4.428   0.697  11.935  0.5624 -0.7182  0.6214
 4611SOL     OW25291   2.771   1.332   0.929 -0.5677  0.4486 -0.0954
 4611SOL    HW125292   2.678   1.331   0.906 -1.2193  1.7842  2.4400
 4611SOL    HW225293   2.809   1.320   0.843  1.5450  0.0962  0.8961
 4612SOL     OW25294   2.189   2.331   4.813  0.0255 -0.2328 -0.1230
 4612SOL    HW125295   2.123   2.265   4.791 -2.0678  1.5309  0.8000
 4612SOL    HW225296   2.253   2.321   4.743  0.5535 -3.3736  0.8338
 4613SOL     OW25297   2.764   2.024   2.284 -0.5646  0.1692  0.3355
 4613SOL    HW125298   2.807   2.075   2.353  0.6001  0.3256 -0.5155
 4613SOL    HW225299   2.729   1.953   2.337 -1.3301  0.9318  0.8665
 4614SOL     OW25300   1.791   3.653   3.104 -0.2448  0.8686  0.0617
 4614SOL    HW125301   1.860   3.594   3.136 -0.9752 -0.8926 -1.5843
 4614SOL    HW225302   1.722   3.617   3.160 -0.0096  3.1311  1.7544
 4615SOL     OW25303   4.351   0.516   6.318  0.1778  0.0385  0.2381
 4615SOL    HW125304   4.402   0.597   6.317 -1.5543  1.1146 -0.4093
 4615SOL    HW225305   4.316   0.522   6.407 -0.4360  1.0193 -0.0728
 4616SOL     OW25306   2.999   2.959   4.753 -0.2916  0.0305 -0.6059
 4616SOL    HW125307   2.923   2.957   4.810  0.8054 -2.6517  0.7732
 4616SOL    HW225308   2.966   3.007   4.677  1.2319  1.1278 -0.5852
 4617SOL     OW25309   1.354   1.596   6.522 -0.1071  0.0472 -0.0013
 4617SOL    HW125310   1.398   1.603   6.607  0.6036 -1.0393 -0.2649
 4617SOL    HW225311   1.392   1.676   6.486 -0.6324  0.0330 -0.5869
 4618SOL     OW25312   0.564   3.473   7.518  0.4286 -0.1068 -0.1501
 4618SOL    HW125313   0.521   3.538   7.573  0.6072  0.3139 -0.5070
 4618SOL    HW225314   0.655   3.501   7.526  1.0179 -1.8496 -0.6228
 4619SOL     OW25315   0.758   1.598   8.476  0.3257 -0.3830 -0.2540
 4619SOL    HW125316   0.670   1.623   8.503  0.2003 -1.6934  0.5844
 4619SOL    HW225317   0.789   1.594   8.566 -1.1203  2.3201  0.3419
 4620SOL     OW25318   3.720   0.170   0.838  0.0792 -0.0674 -0.1421
 4620SOL    HW125319   3.648   0.194   0.778  0.3223 -2.3743 -1.3425
 4620SOL    HW225320   3.690   0.210   0.919  0.7843  0.2611 -0.0448
 4621SOL     OW25321   0.828   2.476   3.154 -0.0411  0.1923 -0.0647
 4621SOL    HW125322   0.807   2.385   3.133 -2.8423  0.8184  0.0544
 4621SOL    HW225323   0.739   2.510   3.154  1.0195  2.9500 -0.9179
 4622SOL     OW25324   4.189   2.067   6.275  0.5009 -0.2820  0.2190
 4622SOL    HW125325   4.264   2.007   6.274 -0.1061 -0.9909 -1.3911
 4622SOL    HW225326   4.223   2.133   6.214 -0.6946 -1.3444 -1.5869
 4623SOL     OW25327   3.328   2.564   5.567  0.2648  0.2988  0.0450
 4623SOL    HW125328   3.371   2.479   5.560 -1.8650 -0.7236 -0.8035
 4623SOL    HW225329   3.406   2.617   5.554  0.2107 -0.0217 -1.4959
 4624SOL     OW25330   3.564   3.584   6.702  0.3174 -0.4908 -0.0188
 4624SOL    HW125331   3.610   3.549   6.778  0.3604 -0.1246  0.1242
 4624SOL    HW225332   3.596   3.673   6.692 -1.6906 -0.1181 -3.2197
 4625SOL     OW25333   0.566   0.304   8.399 -0.2704  0.7888 -0.1439
 4625SOL    HW125334   0.551   0.352   8.318  1.6840  1.8226  0.1252
 4625SOL    HW225335   0.491   0.343   8.445 -0.3698  0.3213  0.0880
 4626SOL     OW25336   4.149   4.002  15.461  0.1433  0.4677  0.0436
 4626SOL    HW125337   4.193   3.970  15.383 -0.9970 -0.0887 -0.3716
 4626SOL    HW225338   4.065   3.955  15.466 -0.2014  1.0435 -0.3396
 4627SOL     OW25339   2.332   2.234   9.949 -0.0085 -0.2884  0.3513
 4627SOL    HW125340   2.369   2.189  10.025 -0.3830  0.7132  1.1231
 4627SOL    HW225341   2.317   2.324   9.977 -1.6809 -0.1773 -0.8819
 4628SOL     OW25342   4.643   4.522   9.200 -0.0080 -0.2503  0.5086
 4628SOL    HW125343   4.689   4.495   9.120 -1.6608  2.6398 -1.4359
 4628SOL    HW225344   4.601   4.604   9.174  0.0921 -0.0691  0.9154
 4629SOL     OW25345   4.335   3.632   4.675  0.2503 -0.7974 -0.0396
 4629SOL    HW125346   4.352   3.668   4.762 -0.8577  0.2715 -0.2683
 4629SOL    HW225347   4.252   3.587   4.686 -1.2834  1.3585 -2.6549
 4630SOL     OW25348   3.329   4.010   2.355  0.4132 -0.0894  0.3767
 4630SOL    HW125349   3.381   3.933   2.378 -0.4275 -1.1225 -1.2406
 4630SOL    HW225350   3.260   3.972   2.301  1.3132 -0.3919 -0.5519
 4631SOL     OW25351   3.582   1.627   6.984  0.6569 -0.3957  0.3427
 4631SOL    HW125352   3.593   1.722   6.992  1.4694 -0.4296 -0.4036
 4631SOL    HW225353   3.526   1.600   7.057 -1.5508  0.2313 -1.1431
 4632SOL     OW25354   1.845   1.449   4.994 -0.1745 -0.0459  0.7320
 4632SOL    HW125355   1.883   1.495   5.070 -2.6871  0.2691  1.8010
 4632SOL    HW225356   1.917   1.388   4.980  0.3589  1.1997 -1.7958
 4633SOL     OW25357   1.417   3.759  13.035 -0.3852  0.3864 -0.1649
 4633SOL    HW125358   1.366   3.773  12.956  0.4234 -0.2821 -0.8009
 4633SOL    HW225359   1.352   3.731  13.100  0.1876 -0.6493 -0.0286
 4634SOL     OW25360   0.103   3.835   6.881  0.2377  0.0532 -0.3153
 4634SOL    HW125361   0.099   3.741   6.898  1.7767  0.6509  3.3671
 4634SOL    HW225362   0.172   3.827   6.815 -0.7571 -1.0868 -1.2100
 4635SOL     OW25363   0.027   0.767   7.935 -0.0171 -0.0432  0.2695
 4635SOL    HW125364   4.656   0.763   7.928  0.0368 -1.6511  0.2633
 4635SOL    HW225365   0.042   0.721   8.018  2.0665 -0.1895 -0.1903
 4636SOL     OW25366   0.306   2.627  15.503  0.0871 -0.4055  0.1228
 4636SOL    HW125367   0.290   2.575  15.582  2.1658  0.5689  1.1754
 4636SOL    HW225368   0.348   2.562  15.448 -1.9697 -1.7923  0.1714
 4637SOL     OW25369   1.092   0.904  11.017  0.5083  0.1880 -0.5870
 4637SOL    HW125370   1.143   0.941  10.944  3.2068 -1.1253  0.6090
 4637SOL    HW225371   1.041   0.857  10.951 -0.9174  0.4767  0.3192
 4638SOL     OW25372   4.630   2.361   9.470 -0.0960  0.1857 -0.5045
 4638SOL    HW125373   4.565   2.368   9.540 -0.8817  0.7921 -1.3087
 4638SOL    HW225374   4.707   2.404   9.507  0.6957 -0.5516 -1.2913
 4639SOL     OW25375   3.784   0.225   8.322  0.3471 -0.1288 -0.5980
 4639SOL    HW125376   3.768   0.308   8.278  2.7776  2.4666  3.4788
 4639SOL    HW225377   3.717   0.242   8.389  1.6313  2.7477 -0.0515
 4640SOL     OW25378   2.076   1.333   8.539 -0.3198 -0.5579 -0.2987
 4640SOL    HW125379   2.054   1.342   8.632  3.2492  1.4519  0.3908
 4640SOL    HW225380   2.002   1.278   8.515 -0.4140 -0.8408  0.6617
 4641SOL     OW25381   2.042   2.201   2.246 -0.3923  0.0772  0.5845
 4641SOL    HW125382   2.120   2.146   2.251 -0.1860  0.6157  3.6037
 4641SOL    HW225383   2.084   2.287   2.242 -1.7349  0.6013 -1.8773
 4642SOL     OW25384   0.565   4.273  16.645  0.0152 -0.1537  0.4278
 4642SOL    HW125385   0.542   4.243  16.733  1.2515 -0.0331  0.7958
 4642SOL    HW225386   0.491   4.235  16.597 -0.0914  0.2232  0.2893
 4643SOL     OW25387   0.915   4.145   4.929  1.1999 -0.2530  0.1859
 4643SOL    HW125388   1.005   4.115   4.916  0.5390 -1.8090 -0.8523
 4643SOL    HW225389   0.928   4.238   4.943 -0.4520  0.3014 -1.9835
 4644SOL     OW25390   4.114   3.928   7.160  0.2875  0.0850  0.3852
 4644SOL    HW125391   4.198   3.934   7.115 -0.1614  2.8904 -0.0736
 4644SOL    HW225392   4.137   3.983   7.235  2.2139 -0.0761 -0.1005
 4645SOL     OW25393   1.281   4.048   4.457  0.2047 -0.3445 -0.2245
 4645SOL    HW125394   1.242   3.983   4.516 -0.3601  1.7071  1.6461
 4645SOL    HW225395   1.278   4.001   4.374  0.7748  2.4900 -1.8398
 4646SOL     OW25396   3.456   4.135  13.626  0.0531 -0.2781  0.0106
 4646SOL    HW125397   3.373   4.164  13.589  0.3817  0.5371 -0.1111
 4646SOL    HW225398   3.485   4.211  13.677 -1.4195 -0.3778  0.9922
 4647SOL     OW25399   3.897   0.221   8.868  0.9584  0.4451 -0.5198
 4647SOL    HW125400   3.811   0.180   8.865  1.1548  0.0726 -1.0937
 4647SOL    HW225401   3.898   0.255   8.957 -2.7854 -1.2733  0.1936
 4648SOL     OW25402   2.756   3.617   2.808 -0.2421 -0.5727 -0.2410
 4648SOL    HW125403   2.719   3.577   2.729  0.2102 -0.6655 -0.4051
 4648SOL    HW225404   2.801   3.698   2.785  0.5105 -1.4682 -1.8760
 4649SOL     OW25405   1.501   3.228   6.103  0.3677 -0.1560 -0.3126
 4649SOL    HW125406   1.468   3.278   6.028 -0.7711 -0.7594 -0.2147
 4649SOL    HW225407   1.591   3.261   6.108 -0.2813  1.6988 -0.5748
 4650SOL     OW25408   2.955   1.180  13.130 -0.1501  0.2224 -0.1483
 4650SOL    HW125409   3.044   1.215  13.124 -0.3598  0.6269 -0.8836
 4650SOL    HW225410   2.946   1.140  13.217  0.0741  0.9900  0.2235
 4651SOL     OW25411   1.041   2.315   5.361 -0.0193 -0.0150  0.1347
 4651SOL    HW125412   1.011   2.302   5.272  1.9139  0.5046 -0.5885
 4651SOL    HW225413   1.081   2.402   5.357  1.2605 -0.6397 -0.4370
 4652SOL     OW25414   2.495   0.918   4.304 -0.2314 -0.6062  0.3589
 4652SOL    HW125415   2.524   0.941   4.216  0.0074 -1.8491  0.1122
 4652SOL    HW225416   2.573   0.956   4.345  0.5696 -1.4704 -0.3893
 4653SOL     OW25417   4.576   0.249   4.508  0.1487 -0.1605  0.6686
 4653SOL    HW125418   4.643   0.275   4.444 -3.1573  0.2697 -2.6094
 4653SOL    HW225419   4.540   0.179   4.454 -0.7782  1.5846 -0.9906
 4654SOL     OW25420   3.295   3.748   3.581 -0.0345  0.1089 -0.2247
 4654SOL    HW125421   3.294   3.669   3.634  0.9028  0.0256 -0.3348
 4654SOL    HW225422   3.213   3.737   3.535 -0.7770 -0.2381  1.1764
 4655SOL     OW25423   3.352   4.449   2.282 -0.1351  0.4888 -0.5392
 4655SOL    HW125424   3.420   4.428   2.345 -1.1605  0.9908  0.7454
 4655SOL    HW225425   3.338   4.544   2.288 -1.4262  0.3022 -0.4205
 4656SOL     OW25426   0.187   3.389   9.564  0.0350  0.3122 -0.6024
 4656SOL    HW125427   0.249   3.318   9.584 -0.9743 -0.0381  1.2341
 4656SOL    HW225428   0.250   3.458   9.545 -1.0623  1.6307  0.5904
 4657SOL     OW25429   4.380   4.184  10.460 -0.1045  0.2120 -0.3879
 4657SOL    HW125430   4.293   4.224  10.456 -0.3446 -0.4813 -2.1085
 4657SOL    HW225431   4.400   4.197  10.553 -0.5660 -0.3327 -0.2073
 4658SOL     OW25432   0.784   1.230  13.719  0.0167 -0.3035  0.1237
 4658SOL    HW125433   0.851   1.293  13.696 -0.3121  0.6818  1.8313
 4658SOL    HW225434   0.716   1.264  13.661  0.3080 -0.8487 -0.5256
 4659SOL     OW25435   2.842   1.013   7.841  0.7109  0.2474  0.3920
 4659SOL    HW125436   2.839   1.047   7.751 -0.5289  0.2585  0.4460
 4659SOL    HW225437   2.874   0.924   7.824  2.3067  1.2345 -1.8121
 4660SOL     OW25438   1.486   1.492   4.206 -0.2282 -0.8469 -0.2418
 4660SOL    HW125439   1.552   1.507   4.138  0.2551  0.1471  0.4574
 4660SOL    HW225440   1.498   1.398   4.219  1.5559 -0.8130 -1.6431
 4661SOL     OW25441   4.541   0.752   4.195  0.0978  0.3629 -0.6825
 4661SOL    HW125442   4.499   0.724   4.276  0.6431  0.5001 -0.3545
 4661SOL    HW225443   4.628   0.744   4.233 -0.9601 -0.4845  1.5784
 4662SOL     OW25444   1.041   4.171   3.560 -0.0828  0.2762 -0.1839
 4662SOL    HW125445   1.132   4.140   3.560 -0.0165  0.4380  1.5223
 4662SOL    HW225446   1.021   4.163   3.467  1.4992 -2.3766 -0.2930
 4663SOL     OW25447   0.078   0.900  11.042  0.0729 -0.3177 -0.3188
 4663SOL    HW125448   0.053   0.992  11.036  1.4431  0.1935  1.6041
 4663SOL    HW225449   0.160   0.907  10.992 -0.5463 -0.4132 -1.3333
 4664SOL     OW25450   4.053   0.362   5.065  0.1316  0.0846  0.0985
 4664SOL    HW125451   4.037   0.269   5.047 -0.6253  0.1816  0.2762
 4664SOL    HW225452   4.098   0.346   5.148 -1.0005 -1.6334  0.3993
 4665SOL     OW25453   1.906   2.558   2.797 -0.0011  0.3559  0.1514
 4665SOL    HW125454   1.812   2.549   2.779 -0.6698  1.2283  3.2239
 4665SOL    HW225455   1.937   2.482   2.845  1.1089  0.3262 -0.6056
 4666SOL     OW25456   0.035   4.611   6.797  0.1017 -0.0809 -0.0889
 4666SOL    HW125457   4.688   4.549   6.790 -0.5097  0.3556  2.3097
 4666SOL    HW225458   0.068   4.599   6.708  2.5158 -0.6454  0.8749
 4667SOL     OW25459   1.410   1.623   1.888  0.1518  0.1955  0.7260
 4667SOL    HW125460   1.399   1.717   1.873 -2.4695 -0.5911 -2.2792
 4667SOL    HW225461   1.329   1.601   1.934  1.0344  0.0205  2.2048
 4668SOL     OW25462   4.231   1.188   4.399  0.0365  0.0790 -0.8369
 4668SOL    HW125463   4.185   1.190   4.482  0.6428 -0.4767 -0.4857
 4668SOL    HW225464   4.201   1.105   4.360 -1.0230  0.0681  0.0194
 4669SOL     OW25465   0.733   0.642   7.690 -0.6807  0.5238  0.3704
 4669SOL    HW125466   0.662   0.683   7.642 -3.2332 -3.2680  0.9166
 4669SOL    HW225467   0.798   0.629   7.621 -0.1650 -3.5190  1.5616
 4670SOL     OW25468   2.089   1.218  15.743 -0.4753 -0.5820  0.5772
 4670SOL    HW125469   2.033   1.294  15.728 -0.4293 -0.3515  1.5827
 4670SOL    HW225470   2.056   1.152  15.681  0.3307  0.6319 -1.1527
 4671SOL     OW25471   2.294   4.186  10.963 -0.2865  0.3651  0.1031
 4671SOL    HW125472   2.226   4.124  10.936 -0.4391  0.3359  0.5435
 4671SOL    HW225473   2.345   4.197  10.884  0.4174 -0.5698  0.4351
 4672SOL     OW25474   1.211   2.479   4.487 -0.2296 -0.1102 -0.5008
 4672SOL    HW125475   1.234   2.540   4.557 -1.4707  0.8257 -0.8940
 4672SOL    HW225476   1.284   2.487   4.426 -0.6363  0.9253 -0.8539
 4673SOL     OW25477   3.771   1.689   8.422 -0.2145 -0.6278 -0.1883
 4673SOL    HW125478   3.730   1.727   8.344  0.0475  0.9277  0.4275
 4673SOL    HW225479   3.711   1.702   8.495  2.4533  3.8127  1.1919
 4674SOL     OW25480   1.569   2.758   8.206  0.2265 -0.5050 -0.1765
 4674SOL    HW125481   1.597   2.834   8.258  0.8326 -1.0312  0.2736
 4674SOL    HW225482   1.511   2.714   8.268  0.3143  1.1959  1.1251
 4675SOL     OW25483   1.598   0.078   4.410 -0.4077  0.0319 -0.2151
 4675SOL    HW125484   1.607   0.157   4.464 -0.3786 -0.7595  0.9503
 4675SOL    HW225485   1.528   0.106   4.352  0.2584  3.0281  0.4278
 4676SOL     OW25486   2.285   3.231  12.421 -0.2451 -0.0761 -0.0814
 4676SOL    HW125487   2.265   3.229  12.328 -0.2147 -0.4193 -0.0777
 4676SOL    HW225488   2.278   3.324  12.443 -0.2450 -0.2148  0.5274
 4677SOL     OW25489   1.344   0.178  16.908  0.2139  0.0457 -0.0790
 4677SOL    HW125490   1.317   0.173  16.999 -0.8781 -1.2649 -0.4685
 4677SOL    HW225491   1.267   0.222  16.873  0.1256  0.3073  0.4495
 4678SOL     OW25492   1.301   2.657   4.109  0.4004 -0.0153 -0.5539
 4678SOL    HW125493   1.385   2.687   4.075 -0.0370  1.1875 -0.5517
 4678SOL    HW225494   1.322   2.637   4.200 -0.0385  3.4334  0.2785
 4679SOL     OW25495   1.292   1.033   2.206  0.0914  0.0307  0.7226
 4679SOL    HW125496   1.265   0.966   2.144  1.0561  1.1996 -0.9380
 4679SOL    HW225497   1.234   1.103   2.177 -2.2748 -1.0544  2.7730
 4680SOL     OW25498   0.751   1.526   3.667  0.2555  0.3336  0.1935
 4680SOL    HW125499   0.740   1.578   3.588  2.3141 -2.2658 -1.7918
 4680SOL    HW225500   0.829   1.567   3.704 -0.0301  1.7639 -0.7650
 4681SOL     OW25501   3.274   0.617   4.753 -0.1936  0.0642 -0.0559
 4681SOL    HW125502   3.184   0.620   4.784 -0.5960 -1.1273 -1.0900
 4681SOL    HW225503   3.258   0.591   4.662  0.9633 -0.3448 -0.1484
 4682SOL     OW25504   4.589   0.942  10.699  0.4752 -0.4317 -1.1144
 4682SOL    HW125505   4.567   1.028  10.737  2.2682 -0.7349  0.5971
 4682SOL    HW225506   4.586   0.884  10.775  2.5251 -0.9992 -1.4675
 4683SOL     OW25507   0.633   3.163   7.126  0.1911 -0.2876 -0.2415
 4683SOL    HW125508   0.621   3.256   7.145  0.5242  0.1015 -1.9767
 4683SOL    HW225509   0.703   3.160   7.061 -1.2101 -0.3917 -1.7536
 4684SOL     OW25510   3.649   2.295   3.549 -0.1503  0.3368 -0.1492
 4684SOL    HW125511   3.630   2.235   3.621  0.0826 -1.1478 -1.3117
 4684SOL    HW225512   3.734   2.327   3.579 -0.9735  1.4826  0.9660
 4685SOL     OW25513   0.122   2.051  10.284  0.4770 -0.0626  0.6486
 4685SOL    HW125514   0.131   2.080  10.375  0.6925  1.4196  0.1510
 4685SOL    HW225515   0.214   2.031  10.265 -0.0275 -1.1816 -0.6340
 4686SOL     OW25516   0.319   1.043   7.415  0.2862 -0.2516 -0.8453
 4686SOL    HW125517   0.381   1.028   7.486  0.8448  1.3750 -0.9905
 4686SOL    HW225518   0.254   1.098   7.460  1.4369 -0.3032  0.8671
 4687SOL     OW25519   2.383   4.089  15.120  0.1588 -0.2716 -0.3141
 4687SOL    HW125520   2.321   4.143  15.168 -0.1851  0.5730 -1.7048
 4687SOL    HW225521   2.344   4.002  15.115 -2.9410  1.0805  0.6087
 4688SOL     OW25522   3.361   2.458   7.238  0.4036 -0.1281  0.0483
 4688SOL    HW125523   3.406   2.539   7.259  1.0809 -0.8480  1.4101
 4688SOL    HW225524   3.440   2.426   7.194  1.2147 -1.3212  2.3726
 4689SOL     OW25525   0.537   2.302   4.346 -0.0072 -0.0030  0.2813
 4689SOL    HW125526   0.583   2.364   4.402 -0.0068 -0.1736  0.4702
 4689SOL    HW225527   0.506   2.235   4.407 -0.3309  3.0848  3.5282
 4690SOL     OW25528   3.085   1.973  14.544  0.0213 -0.3328 -0.3770
 4690SOL    HW125529   3.084   1.922  14.624  0.4827  0.9139  0.4208
 4690SOL    HW225530   2.992   1.990  14.529 -0.0681 -0.6373 -0.1563
 4691SOL     OW25531   0.099   2.874   7.131 -0.3205  0.5295  0.1019
 4691SOL    HW125532   0.005   2.858   7.128  0.0586 -1.2954 -2.1661
 4691SOL    HW225533   0.100   2.967   7.154  1.0082  0.4392  0.4624
 4692SOL     OW25534   4.305   1.231  10.193 -0.0481 -0.0959  0.2683
 4692SOL    HW125535   4.378   1.172  10.176 -0.8247 -1.3671  1.2954
 4692SOL    HW225536   4.325   1.305  10.136  0.4234 -0.6401 -0.2669
 4693SOL     OW25537   4.630   2.103   4.385  0.2209  0.2183  0.3557
 4693SOL    HW125538   4.641   2.166   4.456 -0.2828  1.1755 -0.4068
 4693SOL    HW225539   4.724   2.097   4.366  0.0002 -0.1863 -0.5994
 4694SOL     OW25540   3.060   4.656  11.513 -0.0508 -0.3915  0.1823
 4694SOL    HW125541   3.124   0.000  11.495  0.3527 -0.6987  0.4375
 4694SOL    HW225542   3.116   4.602  11.568 -0.6909 -1.2470 -0.0045
 4695SOL     OW25543   2.296   3.871   9.006 -0.2712 -0.0413 -0.0784
 4695SOL    HW125544   2.332   3.812   8.940  1.7379  0.6219  0.4437
 4695SOL    HW225545   2.350   3.863   9.085  2.7429  2.6533 -1.8967
 4696SOL     OW25546   0.948   0.948   4.386  0.1781 -0.3850 -0.0537
 4696SOL    HW125547   1.033   0.907   4.371  0.7561  1.2186 -1.1719
 4696SOL    HW225548   0.936   1.005   4.310  3.3935  0.3015 -0.0529
 4697SOL     OW25549   3.989   3.637   2.616  0.1967 -0.6252 -0.7505
 4697SOL    HW125550   4.075   3.595   2.617  0.1540 -0.7114 -0.5745
 4697SOL    HW225551   3.935   3.558   2.625  1.6218 -1.5072  0.1582
 4698SOL     OW25552   1.007   2.325   9.558  0.6309 -0.2706 -0.1048
 4698SOL    HW125553   0.995   2.382   9.634  1.2976  0.3854 -0.4994
 4698SOL    HW225554   1.098   2.299   9.575  0.0810 -1.9259  0.2905
 4699SOL     OW25555   0.889   0.524   0.927 -0.6413  0.3505 -0.6254
 4699SOL    HW125556   0.979   0.523   0.895 -1.1038  0.5479 -1.9295
 4699SOL    HW225557   0.907   0.469   1.003  0.1330 -0.1423 -1.1756
 4700SOL     OW25558   3.525   2.272   8.523  0.0621 -0.1105 -0.2073
 4700SOL    HW125559   3.469   2.323   8.581 -1.6610 -1.5258 -0.6118
 4700SOL    HW225560   3.610   2.316   8.524 -0.3138  0.5940  0.0498
 4701SOL     OW25561   3.710   4.710   6.490 -0.3573 -0.0057 -0.8353
 4701SOL    HW125562   3.617   0.009   6.492  0.3826  2.8500 -0.3961
 4701SOL    HW225563   3.716   4.686   6.583 -3.0323  0.2521 -0.6013
 4702SOL     OW25564   2.493   2.493   4.829 -0.1128  0.6925 -0.3896
 4702SOL    HW125565   2.404   2.471   4.804 -0.5499  2.5431 -0.4508
 4702SOL    HW225566   2.488   2.498   4.925  3.0700  2.5089 -0.3248
 4703SOL     OW25567   3.710   4.063   1.781 -0.0384 -0.1714  0.0616
 4703SOL    HW125568   3.640   4.123   1.755 -0.1477 -1.3890 -2.4760
 4703SOL    HW225569   3.683   3.974   1.756 -3.1067  0.1154  2.4067
 4704SOL     OW25570   1.426   3.357   5.878  0.7456 -0.2185  0.5786
 4704SOL    HW125571   1.442   3.417   5.805 -0.8019  1.2004  1.3912
 4704SOL    HW225572   1.367   3.301   5.828  1.0192  0.0040  0.0073
 4705SOL     OW25573   2.463   0.909   5.187  0.2581 -0.0437 -0.3068
 4705SOL    HW125574   2.483   0.977   5.252 -0.5420 -0.4489  0.3605
 4705SOL    HW225575   2.438   0.839   5.247 -0.0284 -0.4882 -0.9424
 4706SOL     OW25576   1.450   4.370   4.889  0.3853  0.5678  0.5203
 4706SOL    HW125577   1.464   4.447   4.834 -1.5469  1.4244  1.2279
 4706SOL    HW225578   1.444   4.303   4.820 -1.9309  0.8851  0.4228
 4707SOL     OW25579   0.223   2.870   3.014 -0.1009  0.0959  0.4214
 4707SOL    HW125580   0.143   2.849   2.966 -0.3221 -1.2405  1.3693
 4707SOL    HW225581   0.292   2.850   2.950 -0.0704  0.3497  0.3779
 4708SOL     OW25582   3.262   2.548   4.615  0.2527  0.1392  0.2203
 4708SOL    HW125583   3.254   2.478   4.680  1.2615 -1.5932 -1.5209
 4708SOL    HW225584   3.181   2.597   4.629 -0.5997 -1.3039  0.3496
 4709SOL     OW25585   3.625   3.919  15.502 -0.1364 -0.3072  0.2785
 4709SOL    HW125586   3.678   3.996  15.483 -1.9092  0.6522 -0.7832
 4709SOL    HW225587   3.667   3.886  15.581 -1.4152  0.3298  1.2298
 4710SOL     OW25588   3.401   3.866  13.393  0.1385  0.1344  0.8067
 4710SOL    HW125589   3.483   3.914  13.407  0.0003  1.1233 -1.7569
 4710SOL    HW225590   3.339   3.928  13.431  1.0443  1.3485  0.3175
 4711SOL     OW25591   3.852   3.062   0.266 -0.1850  0.4731 -0.2455
 4711SOL    HW125592   3.913   3.014   0.322  0.4328  3.7655  1.8711
 4711SOL    HW225593   3.818   2.989   0.213 -1.5422  0.9786 -0.0551
 4712SOL     OW25594   3.181   0.078   9.079  0.5550  0.5304  0.4020
 4712SOL    HW125595   3.124   0.097   9.005 -0.6956 -0.1034  1.1901
 4712SOL    HW225596   3.132   0.016   9.134 -1.6227  1.4020 -0.5473
 4713SOL     OW25597   1.379   0.078   1.741  0.2004 -0.7963  0.3702
 4713SOL    HW125598   1.371   4.715   1.779 -1.7553 -0.4011  0.8867
 4713SOL    HW225599   1.354   0.067   1.649 -0.1695  0.7293  0.2946
 4714SOL     OW25600   2.672   1.434   7.571 -0.0706  0.0386  0.0006
 4714SOL    HW125601   2.728   1.462   7.644 -1.8075  1.7801  0.6571
 4714SOL    HW225602   2.612   1.509   7.570 -0.0822 -0.0105 -2.1690
 4715SOL     OW25603   2.550   4.711   9.474  0.0874 -0.6111 -0.1857
 4715SOL    HW125604   2.521   4.623   9.453  0.1407 -0.6223 -0.2143
 4715SOL    HW225605   2.601   0.016   9.398 -0.4794  0.9373  0.0378
 4716SOL     OW25606   3.151   1.521   3.998  0.4135 -0.2028 -0.5321
 4716SOL    HW125607   3.135   1.600   4.050  0.3045  0.1232 -1.0604
 4716SOL    HW225608   3.238   1.497   4.031  0.8479  1.5046 -0.4479
 4717SOL     OW25609   0.678   2.157   4.592  0.0894 -0.1864  0.3651
 4717SOL    HW125610   0.715   2.218   4.655  0.2351 -0.6246  0.7032
 4717SOL    HW225611   0.587   2.171   4.618  0.3993  1.2758  0.6852
 4718SOL     OW25612   1.506   3.139   5.579  0.3758 -0.1002 -0.2623
 4718SOL    HW125613   1.449   3.062   5.575  0.1033  0.1162 -0.5222
 4718SOL    HW225614   1.589   3.106   5.612  1.2848  0.4542 -1.9920
 4719SOL     OW25615   1.789   4.127   8.399  0.1528 -0.4881  1.1427
 4719SOL    HW125616   1.821   4.166   8.317 -1.5556 -1.3790  0.0617
 4719SOL    HW225617   1.762   4.206   8.444 -1.9086  0.5936 -2.0075
 4720SOL     OW25618   2.086   1.163  12.807  0.0993 -0.6533  0.4958
 4720SOL    HW125619   2.121   1.135  12.892 -0.0416  0.7552  1.0304
 4720SOL    HW225620   1.992   1.151  12.820 -0.1686 -1.4356 -2.1108
 4721SOL     OW25621   2.022   3.061  13.777 -0.1421 -0.4917  0.5101
 4721SOL    HW125622   2.019   2.968  13.752  2.2482 -1.5225  4.0191
 4721SOL    HW225623   1.931   3.086  13.766 -0.1675 -1.7259 -2.1473
 4722SOL     OW25624   3.093   2.145   0.644  0.0051 -0.2825  0.5510
 4722SOL    HW125625   3.139   2.083   0.700  0.8196  0.1914  0.4081
 4722SOL    HW225626   3.088   2.223   0.700  0.9976  0.0514  0.1716
 4723SOL     OW25627   1.408   3.487   3.502  0.1222  0.5972 -0.3284
 4723SOL    HW125628   1.410   3.505   3.596  1.2078 -1.0511 -0.0502
 4723SOL    HW225629   1.314   3.467   3.496  0.1002  0.3968  0.5492
 4724SOL     OW25630   4.258   0.182   8.235  0.3622 -0.4773  0.0616
 4724SOL    HW125631   4.278   0.275   8.229 -2.5036  0.2921  2.5501
 4724SOL    HW225632   4.333   0.156   8.289  2.1398  0.0500 -2.1788
 4725SOL     OW25633   3.501   2.063   2.976 -0.7618 -0.0785  0.0368
 4725SOL    HW125634   3.574   2.073   3.036  2.4467  0.1354 -3.8654
 4725SOL    HW225635   3.542   2.079   2.891 -0.8280 -2.7383 -0.4719
 4726SOL     OW25636   3.804   1.489   7.192  0.0000  0.5153 -0.3814
 4726SOL    HW125637   3.759   1.573   7.185  0.6131  0.9068  0.3611
 4726SOL    HW225638   3.863   1.490   7.117  0.5353  1.2495  0.0472
 4727SOL     OW25639   1.823   0.385   6.887  0.1632  0.3691  0.3151
 4727SOL    HW125640   1.813   0.299   6.845  2.8890 -0.1238  0.7171
 4727SOL    HW225641   1.768   0.437   6.828  1.4814 -0.0037 -1.2329
 4728SOL     OW25642   4.667   1.994  14.968  0.4174  0.5561 -0.5839
 4728SOL    HW125643   4.707   2.035  15.044  0.0021  0.8185 -0.5094
 4728SOL    HW225644   4.657   2.064  14.904 -0.2662 -2.5394 -3.8745
 4729SOL     OW25645   3.158   2.265   3.856  0.3383 -0.2487  0.1972
 4729SOL    HW125646   3.077   2.228   3.891  0.0571 -1.2416 -1.5533
 4729SOL    HW225647   3.181   2.212   3.780 -2.6305 -1.0328 -0.1624
 4730SOL     OW25648   2.853   4.229  15.385 -0.4990 -0.2792 -0.1580
 4730SOL    HW125649   2.879   4.234  15.293  0.3829  3.5424  0.2979
 4730SOL    HW225650   2.933   4.200  15.429  0.6826  0.9837 -1.4823
 4731SOL     OW25651   0.210   3.492   7.961  0.2684 -0.1364 -0.0170
 4731SOL    HW125652   0.305   3.493   7.973  0.4049 -2.7818 -0.8768
 4731SOL    HW225653   0.199   3.496   7.866 -1.0956  3.3442  0.2978
 4732SOL     OW25654   4.579   0.856  15.163 -0.6232  0.1974  0.3985
 4732SOL    HW125655   4.535   0.942  15.160  0.5397  0.8320  1.4955
 4732SOL    HW225656   4.671   0.882  15.164 -0.9032  1.3358 -4.0565
 4733SOL     OW25657   1.939   2.385   7.080  0.1804  0.1177  0.4751
 4733SOL    HW125658   1.850   2.365   7.051  0.0500  0.9515  0.3068
 4733SOL    HW225659   1.917   2.445   7.150  0.3160 -0.6258  1.1526
 4734SOL     OW25660   0.858   3.623  15.198 -0.2244  0.3922  0.2798
 4734SOL    HW125661   0.885   3.685  15.130 -0.1348  1.3702  1.2101
 4734SOL    HW225662   0.939   3.595  15.239  0.6268  0.8551 -1.0660
 4735SOL     OW25663   2.108   2.151   6.143 -0.4744  0.0385  0.0193
 4735SOL    HW125664   2.038   2.169   6.081  0.3523  0.7490 -0.7157
 4735SOL    HW225665   2.082   2.062   6.167  0.4645  0.0499  1.0804
 4736SOL     OW25666   3.004   1.101   7.051  0.0016  0.3757 -0.1890
 4736SOL    HW125667   2.935   1.039   7.026 -0.2650  0.6935 -0.2421
 4736SOL    HW225668   2.967   1.138   7.131  1.3358 -0.3140  0.7435
 4737SOL     OW25669   4.205   3.309   8.693 -0.2529 -0.0085  0.1160
 4737SOL    HW125670   4.224   3.342   8.781  1.8410  1.2689 -0.8302
 4737SOL    HW225671   4.293   3.301   8.658 -0.3602  0.1114 -0.1796
 4738SOL     OW25672   2.762   2.826   4.491 -0.2407  0.3264 -0.3375
 4738SOL    HW125673   2.677   2.824   4.533 -0.4083 -0.4415 -0.7151
 4738SOL    HW225674   2.758   2.915   4.455  1.5083 -0.7766 -3.2471
 4739SOL     OW25675   2.766   3.820   2.185 -0.3405  0.0870 -0.0185
 4739SOL    HW125676   2.764   3.901   2.134 -1.0713 -0.3360 -0.6707
 4739SOL    HW225677   2.850   3.788   2.152  0.4599 -1.4847  3.5247
 4740SOL     OW25678   0.895   1.789   4.071 -0.3434 -0.1068  0.3862
 4740SOL    HW125679   0.976   1.768   4.025  0.4797  1.0840  1.2873
 4740SOL    HW225680   0.839   1.792   3.993  2.2141 -2.0673 -1.5282
 4741SOL     OW25681   0.338   4.013   6.640  0.0701 -0.1998 -0.2371
 4741SOL    HW125682   0.371   3.940   6.693  0.1638 -0.6577 -0.9311
 4741SOL    HW225683   0.325   3.966   6.557  0.8551  0.1114 -0.5344
 4742SOL     OW25684   3.103   0.285   0.268  0.0947 -0.4504 -0.3196
 4742SOL    HW125685   3.035   0.274   0.202  2.2770  0.9345 -2.7686
 4742SOL    HW225686   3.049   0.273   0.346  0.1249 -0.3736 -0.2876
 4743SOL     OW25687   1.597   4.680   3.660 -0.5067 -0.6058  0.1091
 4743SOL    HW125688   1.640   4.687   3.574  0.0282  0.0376  0.4317
 4743SOL    HW225689   1.625   4.593   3.687 -1.3328 -0.6661  0.7503
 4744SOL     OW25690   2.290   2.760   6.448 -0.1895  0.3177 -0.1182
 4744SOL    HW125691   2.371   2.798   6.481  0.1745 -1.1096  0.6059
 4744SOL    HW225692   2.224   2.827   6.467  0.0172 -0.2620  2.5117
 4745SOL     OW25693   1.064   2.922   7.572  0.2785 -0.4997  0.0884
 4745SOL    HW125694   0.995   2.880   7.520 -0.1981  1.9801 -1.2735
 4745SOL    HW225695   1.051   2.893   7.662 -0.9245 -0.8431 -0.1927
 4746SOL     OW25696   0.849   4.672  11.864  0.2289  0.3240  0.8089
 4746SOL    HW125697   0.798   4.591  11.872 -1.1918  1.0306 -1.0179
 4746SOL    HW225698   0.779   0.011  11.852 -0.3781 -0.4719  0.1149
 4747SOL     OW25699   4.352   1.818   4.605 -0.4769  0.2796  0.5267
 4747SOL    HW125700   4.400   1.771   4.537 -2.5548 -1.5668  0.3428
 4747SOL    HW225701   4.314   1.757   4.668 -0.4361 -2.3089 -1.9706
 4748SOL     OW25702   2.652   0.676   4.327  0.1110  0.3243 -0.3207
 4748SOL    HW125703   2.575   0.731   4.341 -0.9403 -0.7905 -1.6252
 4748SOL    HW225704   2.717   0.746   4.320  1.6412 -0.8424  2.3872
 4749SOL     OW25705   4.441   0.223  16.464 -0.2725  0.2139 -0.0979
 4749SOL    HW125706   4.397   0.219  16.379 -2.5571 -1.5075  1.1581
 4749SOL    HW225707   4.525   0.268  16.450 -0.3641  0.6480  0.7705
 4750SOL     OW25708   1.539   0.143   8.472 -0.1947 -0.0778 -0.2687
 4750SOL    HW125709   1.557   0.097   8.554 -0.9002 -2.7925 -1.6616
 4750SOL    HW225710   1.444   0.132   8.464 -0.1505 -0.5502 -0.1092
 4751SOL     OW25711   2.149   1.485   8.136  0.4729  0.0452 -0.5684
 4751SOL    HW125712   2.194   1.547   8.194 -1.0642 -0.5471  1.2393
 4751SOL    HW225713   2.162   1.403   8.185  0.4792  0.3796 -0.0151
 4752SOL     OW25714   2.740   1.018   5.139 -0.3741  0.2890 -0.0616
 4752SOL    HW125715   2.822   1.051   5.176  0.4533 -2.2635  0.3443
 4752SOL    HW225716   2.706   0.949   5.197  0.6068  0.6619  0.9639
 4753SOL     OW25717   3.003   0.819   8.259 -0.3024 -0.9840  0.2867
 4753SOL    HW125718   3.037   0.819   8.348 -0.1002  1.5461  0.2209
 4753SOL    HW225719   2.915   0.855   8.272  0.4224  1.2858 -1.1040
 4754SOL     OW25720   3.308   2.363  14.078  0.4362 -0.6214 -0.4582
 4754SOL    HW125721   3.351   2.327  14.001  1.0061  2.3635 -1.5538
 4754SOL    HW225722   3.216   2.341  14.064  0.1330  0.2164  0.1583
 4755SOL     OW25723   3.612   4.400   6.359 -0.2278  0.2448 -0.3492
 4755SOL    HW125724   3.614   4.496   6.352  0.6894  0.2529  0.0817
 4755SOL    HW225725   3.546   4.388   6.427 -0.6680  1.6286 -0.5218
 4756SOL     OW25726   2.230   2.890   4.341  0.4288 -0.1464  0.1598
 4756SOL    HW125727   2.155   2.892   4.281  1.6982 -1.3373 -1.4516
 4756SOL    HW225728   2.295   2.889   4.271  0.6948  4.4194  0.3122
 4757SOL     OW25729   4.649   2.150  11.385 -0.5256 -0.4242 -0.0491
 4757SOL    HW125730   4.684   2.188  11.466 -0.9062  1.0490 -0.5787
 4757SOL    HW225731   4.721   2.148  11.323  0.2747 -2.5992  0.9306
 4758SOL     OW25732   1.987   2.904   4.194 -0.2505 -0.0459  0.6652
 4758SOL    HW125733   1.958   2.839   4.258  0.1415 -1.2459 -0.3619
 4758SOL    HW225734   1.936   2.981   4.216  3.5666  1.8275  2.9424
 4759SOL     OW25735   3.914   2.231   2.850 -0.3966 -0.3211  0.4826
 4759SOL    HW125736   3.914   2.213   2.756 -0.8721 -0.6808  0.5561
 4759SOL    HW225737   3.919   2.327   2.843 -0.8136 -0.2654  0.9523
 4760SOL     OW25738   1.650   3.283   6.566  0.2765  0.0680  0.0963
 4760SOL    HW125739   1.674   3.307   6.476 -1.0365  2.6002  0.4132
 4760SOL    HW225740   1.590   3.214   6.537  2.1388 -1.7683  0.6597
 4761SOL     OW25741   0.569   4.075   0.750  0.2863  0.2638  0.6703
 4761SOL    HW125742   0.646   4.032   0.787 -0.1990 -0.2539  1.0756
 4761SOL    HW225743   0.524   4.022   0.684 -0.4554  1.7156  0.0036
 4762SOL     OW25744   0.447   0.900   2.684 -0.6078 -0.2463 -0.8203
 4762SOL    HW125745   0.531   0.927   2.722 -0.3653 -0.4970 -1.1783
 4762SOL    HW225746   0.388   0.973   2.703 -1.9124 -0.8909 -2.4613
 4763SOL     OW25747   2.849   3.249   8.797  0.3371  0.4314 -0.0769
 4763SOL    HW125748   2.844   3.344   8.806  2.5658  0.4122  1.4683
 4763SOL    HW225749   2.773   3.227   8.743 -0.3317 -1.8104  1.7547
 4764SOL     OW25750   1.850   3.542  14.704 -0.5522  0.0985  0.1398
 4764SOL    HW125751   1.899   3.507  14.629  0.3495  3.0349 -0.6680
 4764SOL    HW225752   1.843   3.633  14.674  2.0911  0.3452  0.2556
 4765SOL     OW25753   3.521   3.234   8.313  0.0916  0.0530 -0.3363
 4765SOL    HW125754   3.475   3.211   8.394 -0.2455  2.8832  0.2851
 4765SOL    HW225755   3.556   3.319   8.339 -2.0149  0.1563  2.1983
 4766SOL     OW25756   1.532   0.308   6.708 -0.2653 -0.1800  0.4329
 4766SOL    HW125757   1.488   0.390   6.688 -0.4589 -0.1273  1.0858
 4766SOL    HW225758   1.478   0.273   6.778  0.3000 -0.3520  0.7896
 4767SOL     OW25759   2.053   1.261   5.904 -0.0837 -0.4431  0.0537
 4767SOL    HW125760   2.100   1.214   5.973  0.0856  2.8784  2.1923
 4767SOL    HW225761   1.974   1.207   5.901  0.9752 -1.7767 -3.0674
 4768SOL     OW25762   1.308   2.855   5.879 -0.0294 -0.4210 -0.0134
 4768SOL    HW125763   1.259   2.930   5.913 -0.9912 -1.3029  0.5576
 4768SOL    HW225764   1.334   2.888   5.793  1.4256  1.7841  1.2829
 4769SOL     OW25765   0.046   1.547  12.370 -0.4241 -0.7918 -0.3737
 4769SOL    HW125766   4.688   1.591  12.390 -1.1618 -1.8995 -0.9998
 4769SOL    HW225767   0.100   1.614  12.328 -0.8680 -0.4632 -0.4247
 4770SOL     OW25768   2.026   0.818   1.578 -0.4376  0.1387  0.2336
 4770SOL    HW125769   2.111   0.850   1.546 -0.4639  0.6029  0.6334
 4770SOL    HW225770   1.993   0.798   1.490  0.8885  0.3714 -0.3255
 4771SOL     OW25771   4.617   0.463  12.776  0.4951 -0.1543 -0.4521
 4771SOL    HW125772   4.641   0.517  12.851  1.2303 -0.4090 -0.5019
 4771SOL    HW225773   4.662   0.380  12.788  0.2310 -0.2395 -0.0558
 4772SOL     OW25774   0.963   2.864  11.905 -0.1617  0.1867 -0.2118
 4772SOL    HW125775   0.891   2.801  11.899  1.3684 -1.3778 -1.8426
 4772SOL    HW225776   0.977   2.868  11.999  0.6924  0.8171 -0.3625
 4773SOL     OW25777   0.181   1.084   5.768  0.4707  0.3777 -0.3170
 4773SOL    HW125778   0.141   1.070   5.854 -0.6989  1.0367 -0.7518
 4773SOL    HW225779   0.171   1.178   5.753 -0.4325  0.0441 -1.7346
 4774SOL     OW25780   2.523   1.364   3.550 -0.2359  0.5954  0.5444
 4774SOL    HW125781   2.477   1.396   3.628  1.1323  2.0274  0.7515
 4774SOL    HW225782   2.615   1.389   3.560 -0.2317  1.3780 -1.3946
 4775SOL     OW25783   2.616   3.969  11.732 -0.0918  0.7652 -0.5271
 4775SOL    HW125784   2.657   3.889  11.700  0.2349  0.3720  0.8803
 4775SOL    HW225785   2.530   3.929  11.750 -0.3132  0.4034 -2.3966
 4776SOL     OW25786   0.756   0.300   5.726  0.6119  0.7666  0.0609
 4776SOL    HW125787   0.789   0.271   5.811 -0.2298 -3.8035 -1.1588
 4776SOL    HW225788   0.819   0.267   5.662  0.1830  1.4559 -0.7176
 4777SOL     OW25789   0.697   4.706  17.313  0.1335  0.2002  0.0587
 4777SOL    HW125790   0.718   4.688  17.221  0.5717  2.0255 -0.1992
 4777SOL    HW225791   0.655   4.623  17.334  0.4085  0.3100  1.0179
 4778SOL     OW25792   1.931   3.364   8.964 -0.6439  0.1605 -0.4460
 4778SOL    HW125793   2.013   3.343   8.918 -0.7839 -1.3671 -0.0060
 4778SOL    HW225794   1.874   3.291   8.942 -0.5777  0.4184 -1.4702
 4779SOL     OW25795   1.737   2.264   6.380 -0.2783  0.1823 -0.2103
 4779SOL    HW125796   1.819   2.314   6.376 -0.3239  0.2834  0.1262
 4779SOL    HW225797   1.751   2.184   6.430 -0.2257  1.1273  1.2627
 4780SOL     OW25798   1.329   0.971   6.971 -0.1402  0.0092  0.1240
 4780SOL    HW125799   1.291   1.055   6.998 -1.3712  0.2725 -2.3739
 4780SOL    HW225800   1.424   0.985   6.963 -0.0850 -0.7166 -0.4415
 4781SOL     OW25801   3.091   2.615  14.153 -0.1545  0.3942  0.4528
 4781SOL    HW125802   3.012   2.562  14.167  1.6406 -2.0302  1.3721
 4781SOL    HW225803   3.065   2.670  14.080 -2.8662  1.4560  2.2215
 4782SOL     OW25804   4.570   1.047  11.802 -0.3270 -0.2906 -0.2286
 4782SOL    HW125805   4.519   0.968  11.823  0.3798 -0.1412  2.0707
 4782SOL    HW225806   4.512   1.096  11.743 -1.6719  0.4743  1.7072
 4783SOL     OW25807   3.883   3.259   6.637  0.1853  0.1372  0.2696
 4783SOL    HW125808   3.853   3.348   6.654  0.3098  0.1054  0.6435
 4783SOL    HW225809   3.959   3.257   6.694 -1.1911  1.3187  2.1367
 4784SOL     OW25810   3.486   1.105   3.989 -0.2373 -0.7829  0.2744
 4784SOL    HW125811   3.506   1.121   4.081 -0.2136  2.9924 -0.3663
 4784SOL    HW225812   3.546   1.032   3.975 -0.2957 -0.8235  0.2318
 4785SOL     OW25813   3.191   2.476   6.404  0.2186 -0.2100 -0.1869
 4785SOL    HW125814   3.143   2.460   6.323 -1.1578  0.3349  0.5220
 4785SOL    HW225815   3.213   2.385   6.424  0.7560 -0.2863 -1.1287
 4786SOL     OW25816   1.243   1.408   5.313 -0.0686 -0.0933 -0.6313
 4786SOL    HW125817   1.271   1.403   5.404 -0.0042  0.1340 -0.6389
 4786SOL    HW225818   1.320   1.460   5.290  0.9875 -0.1415  2.9123
 4787SOL     OW25819   0.905   3.075   8.064  0.2490  0.1588 -0.5447
 4787SOL    HW125820   0.964   3.112   7.999  0.6848  4.2492  2.2027
 4787SOL    HW225821   0.963   3.017   8.113  0.3700 -1.8407 -3.0163
 4788SOL     OW25822   2.696   0.380   0.391  0.0959 -0.1051 -0.1949
 4788SOL    HW125823   2.678   0.457   0.446  1.5026  1.1830 -1.5555
 4788SOL    HW225824   2.787   0.376   0.421 -0.8827 -0.1028  2.8176
 4789SOL     OW25825   1.918   4.363   8.667  0.6249 -0.6795 -0.7218
 4789SOL    HW125826   1.825   4.370   8.643  0.7778 -0.3777 -1.2340
 4789SOL    HW225827   1.920   4.352   8.762 -3.5600  1.5613 -0.3413
 4790SOL     OW25828   0.920   1.741  13.501 -0.1614 -0.1611 -0.4592
 4790SOL    HW125829   0.951   1.781  13.583 -2.4099 -1.2633  0.9042
 4790SOL    HW225830   0.881   1.658  13.528  0.4267  0.0354  0.9842
 4791SOL     OW25831   4.608   2.388   7.054 -0.1278  0.0507  0.5403
 4791SOL    HW125832   4.603   2.428   6.967 -0.4908  1.2683  1.1257
 4791SOL    HW225833   4.526   2.339   7.065  1.3179 -2.1769  1.4627
 4792SOL     OW25834   2.999   1.109   2.624  0.7934  0.2838  0.7151
 4792SOL    HW125835   2.910   1.114   2.659  0.9165  1.2466  0.8828
 4792SOL    HW225836   3.031   1.024   2.656  0.5120 -1.1169 -2.6763
 4793SOL     OW25837   3.894   2.296   5.387 -0.0190  1.1643 -0.4998
 4793SOL    HW125838   3.957   2.302   5.315  0.6309 -1.4501 -0.1412
 4793SOL    HW225839   3.823   2.255   5.337 -0.3685  1.5384 -0.2986
 4794SOL     OW25840   4.219   0.913   5.035 -0.5665 -0.2076 -0.2183
 4794SOL    HW125841   4.292   0.851   5.029  1.1702  1.8134 -0.0895
 4794SOL    HW225842   4.274   0.990   5.018 -1.5755  0.6813  0.5111
 4795SOL     OW25843   1.693   2.740   1.105 -0.3250  0.0247 -0.6347
 4795SOL    HW125844   1.640   2.711   1.031 -1.0923 -0.9594  0.3048
 4795SOL    HW225845   1.684   2.835   1.104 -0.0043  0.0748  1.3363
 4796SOL     OW25846   1.745   4.582   3.962  0.0856  0.6736 -0.0969
 4796SOL    HW125847   1.722   4.513   4.024 -0.2449 -0.3550 -1.3779
 4796SOL    HW225848   1.774   4.521   3.895  1.1759  0.8005  0.2631
 4797SOL     OW25849   2.555   3.477   6.021 -0.0776 -0.2211  0.2723
 4797SOL    HW125850   2.499   3.416   6.069  0.6711 -0.0806  1.3258
 4797SOL    HW225851   2.495   3.549   6.005 -0.7726 -1.1066 -1.0420
 4798SOL     OW25852   2.788   4.469  12.924  0.2120  0.1105 -0.2500
 4798SOL    HW125853   2.772   4.445  12.833 -0.6708  0.1575 -0.1130
 4798SOL    HW225854   2.786   4.381  12.962  0.5424  0.8926  1.5661
 4799SOL     OW25855   2.028   1.493   6.198 -0.0325  0.1485  0.3434
 4799SOL    HW125856   2.117   1.481   6.231  0.1417  1.9420  0.5413
 4799SOL    HW225857   2.030   1.589   6.204 -1.4217  0.2311 -0.6605
 4800SOL     OW25858   2.992   3.804   2.023 -0.1160 -0.0552  0.1273
 4800SOL    HW125859   3.086   3.786   2.028  0.1843  1.8876  1.7131
 4800SOL    HW225860   2.976   3.831   1.933  2.1072  0.8526  0.0084
 4801SOL     OW25861   0.181   1.415  14.876  0.3662 -0.4363 -0.0794
 4801SOL    HW125862   0.192   1.422  14.971 -1.5354  0.5677  0.0629
 4801SOL    HW225863   0.177   1.505  14.846 -2.4023 -0.4398  0.2471
 4802SOL     OW25864   0.225   3.203   5.806  0.1918 -0.1444  0.1622
 4802SOL    HW125865   0.218   3.248   5.890  1.8261  1.5986 -0.6513
 4802SOL    HW225866   0.307   3.234   5.769  0.2958 -0.2565  0.2977
 4803SOL     OW25867   1.549   0.735   0.875 -0.1454 -0.1490  0.2712
 4803SOL    HW125868   1.546   0.825   0.842  1.5804 -1.1173 -2.5149
 4803SOL    HW225869   1.467   0.726   0.924 -0.7211 -0.3136 -0.7038
 4804SOL     OW25870   2.004   3.761   0.518 -0.4865  0.5251  0.1221
 4804SOL    HW125871   2.085   3.745   0.469 -0.5184 -0.1072  0.2788
 4804SOL    HW225872   1.987   3.677   0.560 -0.6243 -0.0709 -1.1411
 4805SOL     OW25873   1.901   0.046   5.010  0.6280  0.4217  0.1857
 4805SOL    HW125874   1.963   0.000   4.953  1.1355 -0.0388  1.0995
 4805SOL    HW225875   1.856   0.098   4.943  1.4958 -0.4884 -1.1024
 4806SOL     OW25876   1.317   1.182  13.353 -0.6125  0.0180 -0.3071
 4806SOL    HW125877   1.309   1.190  13.448  2.5912 -0.0331 -0.0345
 4806SOL    HW225878   1.264   1.108  13.324  0.3188 -1.2982  1.3790
 4807SOL     OW25879   3.489   2.788   2.118 -0.1906  0.6044  0.3444
 4807SOL    HW125880   3.566   2.785   2.174  0.4463 -1.9729 -0.6613
 4807SOL    HW225881   3.464   2.696   2.128  0.4839  0.5969  1.9435
 4808SOL     OW25882   2.824   2.916   2.220 -0.2851 -0.0215 -0.3254
 4808SOL    HW125883   2.819   2.821   2.210  0.1492 -0.0228 -0.5438
 4808SOL    HW225884   2.730   2.935   2.220 -0.6979 -2.0599 -0.1418
 4809SOL     OW25885   2.836   0.958   4.615  0.2583  0.4781 -0.4918
 4809SOL    HW125886   2.917   0.941   4.567  0.8554  1.9423  0.0220
 4809SOL    HW225887   2.832   1.052   4.628 -0.4515  0.5546 -1.2783
 4810SOL     OW25888   2.126   2.118   7.395 -0.1444 -0.2298  0.2168
 4810SOL    HW125889   2.060   2.168   7.442 -0.7200  0.3282 -1.1837
 4810SOL    HW225890   2.079   2.082   7.319  3.7611 -1.3843 -1.6813
 4811SOL     OW25891   4.287   2.320   5.421 -0.3498 -0.0155 -0.1323
 4811SOL    HW125892   4.238   2.402   5.430  0.7063  0.5415  0.5298
 4811SOL    HW225893   4.259   2.291   5.334  0.5336 -2.3984  0.3659
 4812SOL     OW25894   4.276   4.026   3.332  0.6302  0.3729 -0.5868
 4812SOL    HW125895   4.356   4.047   3.285  1.4606 -0.1147  0.6029
 4812SOL    HW225896   4.298   3.942   3.373 -1.3070  0.5299  0.7675
 4813SOL     OW25897   1.771   3.810   5.275 -0.0311  0.3188  0.0738
 4813SOL    HW125898   1.841   3.802   5.340 -0.2532 -0.6700  0.1926
 4813SOL    HW225899   1.707   3.743   5.300  1.7269 -2.3972 -2.8395
 4814SOL     OW25900   3.113   0.536   5.934  0.0629  0.7046 -0.3368
 4814SOL    HW125901   3.077   0.548   5.846  0.4307  0.9227 -0.4560
 4814SOL    HW225902   3.201   0.499   5.924  0.0513  0.3241  1.0134
 4815SOL     OW25903   3.216   1.976  10.641  0.2878 -0.4716  0.4519
 4815SOL    HW125904   3.227   2.056  10.692  0.3173 -0.9108  1.1293
 4815SOL    HW225905   3.121   1.965  10.651  0.0193  0.8619 -0.5556
 4816SOL     OW25906   1.967   2.637   2.526 -0.4417 -0.3424  0.1654
 4816SOL    HW125907   1.937   2.602   2.610 -0.7160 -0.4897  0.0057
 4816SOL    HW225908   2.058   2.659   2.547  0.0436 -1.3017 -0.8891
 4817SOL     OW25909   4.310   3.220   2.406 -0.2030 -0.3857  0.5156
 4817SOL    HW125910   4.338   3.282   2.339 -2.4094  0.9035  0.8182
 4817SOL    HW225911   4.307   3.141   2.352 -0.3612  0.0706 -0.1395
 4818SOL     OW25912   2.785   2.391  13.544  0.4160  0.5096  0.2301
 4818SOL    HW125913   2.749   2.305  13.564  1.8983 -0.7437 -2.4083
 4818SOL    HW225914   2.863   2.387  13.600  0.7278 -2.5513 -0.4063
 4819SOL     OW25915   3.890   3.517   7.084 -0.2494 -0.3554 -0.0735
 4819SOL    HW125916   3.875   3.568   7.164 -0.5942  0.1720 -0.4738
 4819SOL    HW225917   3.968   3.558   7.047  0.2713  0.4400  1.8697
 4820SOL     OW25918   2.932   0.154   6.822  0.1941  0.1884 -0.4418
 4820SOL    HW125919   2.870   0.227   6.831 -0.6140 -0.5969  0.3306
 4820SOL    HW225920   2.875   0.078   6.809 -1.9342  1.7321 -0.1411
 4821SOL     OW25921   1.419   3.292   4.405  0.0677  1.1826  0.0792
 4821SOL    HW125922   1.376   3.289   4.490  0.9170 -1.7211  0.4238
 4821SOL    HW225923   1.344   3.308   4.348  0.7219  0.2979 -1.0523
 4822SOL     OW25924   3.003   1.282   8.730  0.2143  0.1315  0.7939
 4822SOL    HW125925   3.037   1.289   8.819 -0.6838 -1.0867  1.2332
 4822SOL    HW225926   2.923   1.334   8.740  0.4005  0.3301  1.2445
 4823SOL     OW25927   0.621   2.557   9.491  0.0962  0.5593  0.1261
 4823SOL    HW125928   0.656   2.520   9.410  0.2126  0.4455  0.2272
 4823SOL    HW225929   0.700   2.571   9.543  0.4605  1.0514 -0.5550
 4824SOL     OW25930   3.313   0.114   0.775 -0.0968  0.0870  0.1369
 4824SOL    HW125931   3.283   0.174   0.844  1.4992 -0.0488  0.9564
 4824SOL    HW225932   3.368   0.161   0.713  2.0153 -2.2057  0.2754
 4825SOL     OW25933   4.361   2.623  14.471 -0.1060 -0.5188  0.0233
 4825SOL    HW125934   4.437   2.626  14.413  0.3852 -1.6469  0.6161
 4825SOL    HW225935   4.397   2.658  14.553  1.3828  0.5721 -1.1014
 4826SOL     OW25936   3.356   1.852  17.271  0.0743 -0.2107  0.2026
 4826SOL    HW125937   3.320   1.763  17.277  0.5186 -0.2625  2.1066
 4826SOL    HW225938   3.416   1.839  17.197 -0.4057  0.9556 -0.3916
 4827SOL     OW25939   1.591   1.250   6.366 -0.5148 -0.2743  0.3343
 4827SOL    HW125940   1.665   1.244   6.426  0.7423 -0.5306 -1.2320
 4827SOL    HW225941   1.605   1.336   6.325 -0.2167  0.0533  1.1036
 4828SOL     OW25942   3.737   3.992   7.871 -0.1045  0.3504  0.1896
 4828SOL    HW125943   3.730   4.073   7.922  1.2192  1.0206 -0.7077
 4828SOL    HW225944   3.790   3.939   7.931  0.6406 -1.8927 -2.4462
 4829SOL     OW25945   3.739   1.049   5.056  0.9504  0.0718 -0.7688
 4829SOL    HW125946   3.663   0.990   5.059 -2.0631  4.0551  1.6569
 4829SOL    HW225947   3.782   1.022   4.975 -3.3472 -2.4456 -2.2134
 4830SOL     OW25948   0.578   1.434   7.967  0.4831  0.2062 -0.1543
 4830SOL    HW125949   0.485   1.429   7.988  0.3965 -1.9939 -1.1672
 4830SOL    HW225950   0.616   1.506   8.019 -0.6465  0.3851  0.4307
 4831SOL     OW25951   0.683   0.311   3.834  0.2645  0.4220 -0.2419
 4831SOL    HW125952   0.732   0.393   3.824  0.5861  0.3637  0.8366
 4831SOL    HW225953   0.609   0.336   3.890  1.3433  2.1613  0.4262
 4832SOL     OW25954   2.302   2.135  17.611  0.1830  0.4953  0.2559
 4832SOL    HW125955   2.326   2.061  17.667 -1.1778  0.4619  0.7786
 4832SOL    HW225956   2.341   2.208  17.660 -0.6124  1.2666 -0.2679
 4833SOL     OW25957   2.484   3.912   2.903  0.3431  0.2444 -0.2442
 4833SOL    HW125958   2.531   3.908   2.820 -1.5828 -1.6885 -1.2292
 4833SOL    HW225959   2.561   3.885   2.952 -1.7732 -0.0845  2.9196
 4834SOL     OW25960   3.372   0.846   0.995  0.6076  0.2628 -0.1232
 4834SOL    HW125961   3.296   0.886   0.953  0.4390  2.0631  1.9105
 4834SOL    HW225962   3.346   0.757   1.017  0.1884  0.7564  1.3435
 4835SOL     OW25963   1.259   1.587   4.057 -0.2534 -0.1050 -0.3006
 4835SOL    HW125964   1.353   1.580   4.038 -0.3453 -1.9827 -0.0518
 4835SOL    HW225965   1.259   1.579   4.152  1.1782  0.4118 -0.2517
 4836SOL     OW25966   4.455   2.654   9.045 -0.0114 -0.5310  0.2121
 4836SOL    HW125967   4.533   2.697   9.012 -1.0629  0.7276 -0.6606
 4836SOL    HW225968   4.489   2.585   9.101 -0.2642 -1.4144 -0.7211
 4837SOL     OW25969   0.558   4.178  16.284 -0.3262 -0.7106 -0.1490
 4837SOL    HW125970   0.490   4.200  16.348 -1.1504 -1.8535 -0.6284
 4837SOL    HW225971   0.600   4.263  16.273 -1.3605  0.1359  2.2988
 4838SOL     OW25972   1.533   1.230   8.566 -0.2248 -0.0735  0.2109
 4838SOL    HW125973   1.490   1.213   8.650 -1.3372  0.7486 -0.1961
 4838SOL    HW225974   1.563   1.143   8.542 -0.6643 -0.2812  0.4157
 4839SOL     OW25975   4.019   2.475   0.126  0.1412 -0.1286 -0.3544
 4839SOL    HW125976   4.064   2.484   0.210 -1.0663  0.8124  0.1904
 4839SOL    HW225977   4.097   2.443   0.081 -0.8491 -1.6138 -1.0332
 4840SOL     OW25978   0.349   0.870   2.996 -0.3199  0.6032  0.2381
 4840SOL    HW125979   0.310   0.867   2.908  0.7520  3.7428 -0.3363
 4840SOL    HW225980   0.437   0.902   2.979  0.2691 -0.4238  1.3893
 4841SOL     OW25981   0.250   3.601   7.421 -0.4541  0.2442 -0.3601
 4841SOL    HW125982   0.240   3.695   7.414 -1.1017  0.2865  1.1787
 4841SOL    HW225983   0.176   3.573   7.367 -0.3722  1.0792 -0.8922
 4842SOL     OW25984   1.287   0.872   8.218 -0.0477  0.1698  0.1335
 4842SOL    HW125985   1.293   0.965   8.240  2.9828  0.6207 -2.5312
 4842SOL    HW225986   1.282   0.837   8.306  0.5390 -2.4047 -0.8567
 4843SOL     OW25987   4.269   0.337  11.126 -0.1450  0.7977 -0.4689
 4843SOL    HW125988   4.252   0.419  11.078 -2.4498  0.3214 -0.4662
 4843SOL    HW225989   4.245   0.280  11.053 -1.1467  0.8334 -0.1579
 4844SOL     OW25990   3.279   3.000   8.230  0.6092 -0.3855  0.1985
 4844SOL    HW125991   3.340   2.996   8.157  0.1078 -0.0140 -0.2431
 4844SOL    HW225992   3.296   2.915   8.270 -0.1721 -0.8368 -0.4158
 4845SOL     OW25993   0.095   3.480   3.820 -0.0178  0.5578  0.1093
 4845SOL    HW125994   0.058   3.493   3.732  2.0707 -2.0289 -1.1626
 4845SOL    HW225995   0.027   3.507   3.881 -0.7603  0.7433 -0.8062
 4846SOL     OW25996   3.235   2.000   2.651 -0.2326 -0.1586 -0.1217
 4846SOL    HW125997   3.182   1.941   2.704  0.5460 -0.3076  0.5074
 4846SOL    HW225998   3.185   1.992   2.570  0.7184 -0.7021 -0.6570
 4847SOL     OW25999   0.132   0.926   7.003  0.5250  0.4244 -0.0591
 4847SOL    HW126000   0.079   1.004   7.014 -1.4934 -1.0513  0.6396
 4847SOL    HW226001   0.158   0.922   7.095 -1.3652 -2.9826  0.3432
 4848SOL     OW26002   0.210   2.302  14.882 -0.3601 -0.1604  0.1860
 4848SOL    HW126003   0.162   2.269  14.806  0.6632  1.4574 -1.1666
 4848SOL    HW226004   0.164   2.271  14.960 -2.1908 -0.0440 -0.8461
 4849SOL     OW26005   3.680   3.698   8.715 -0.2604  0.1036 -0.2782
 4849SOL    HW126006   3.657   3.688   8.623 -0.5207  0.6190 -0.2639
 4849SOL    HW226007   3.609   3.744   8.759  1.2665  1.3143  0.9005
 4850SOL     OW26008   0.933   0.409   7.624  0.2657  0.8015  0.0368
 4850SOL    HW126009   0.888   0.363   7.554 -0.5944  0.6132  0.7142
 4850SOL    HW226010   1.022   0.416   7.589 -0.5706  0.5009 -2.0903
 4851SOL     OW26011   2.219   4.613   6.545 -0.4943  0.1115  0.6213
 4851SOL    HW126012   2.147   4.553   6.564  0.6681 -1.8142 -1.0648
 4851SOL    HW226013   2.291   4.578   6.597 -0.4112 -0.2300  0.2728
 4852SOL     OW26014   2.734   2.713   4.811  0.2715 -0.0641  0.5179
 4852SOL    HW126015   2.783   2.671   4.881 -0.5435  0.6059  1.4788
 4852SOL    HW226016   2.744   2.804   4.839  1.0225 -0.0444  0.2144
 4853SOL     OW26017   2.689   1.190   5.593 -0.0125 -0.6266 -0.0255
 4853SOL    HW126018   2.735   1.134   5.656 -1.2744 -1.9646 -0.2852
 4853SOL    HW226019   2.772   1.224   5.560 -0.8548  1.6002  0.1937
 4854SOL     OW26020   0.080   4.144   6.055 -0.6426 -0.1243 -0.0480
 4854SOL    HW126021   0.120   4.106   6.133  0.1738 -1.8855 -1.3282
 4854SOL    HW226022   0.071   4.234   6.085 -2.8967  0.1278 -1.4598
 4855SOL     OW26023   2.324   2.682   8.918  0.5011 -0.3044 -0.2285
 4855SOL    HW126024   2.352   2.603   8.871 -1.1559 -0.9276 -0.1767
 4855SOL    HW226025   2.356   2.672   9.008  0.3294 -0.2832 -0.1646
 4856SOL     OW26026   2.889   1.170   4.280  0.6590  1.1038 -0.4792
 4856SOL    HW126027   2.958   1.205   4.223  0.0229  0.2098 -1.8136
 4856SOL    HW226028   2.906   1.228   4.354  0.2874  0.3472  0.2047
 4857SOL     OW26029   4.321   2.081   8.023 -0.2174  0.0214 -0.1122
 4857SOL    HW126030   4.345   2.012   7.961 -3.1785 -2.6874  1.8065
 4857SOL    HW226031   4.254   2.041   8.077 -1.8572 -0.2924 -2.3801
 4858SOL     OW26032   0.479   2.110   7.000 -0.1080 -0.0851 -0.1657
 4858SOL    HW126033   0.495   2.183   7.060  1.3789  0.7917 -1.6376
 4858SOL    HW226034   0.569   2.081   6.985 -0.4982 -1.5027  0.2234
 4859SOL     OW26035   2.370   2.504   4.140 -0.2552 -0.2551 -0.7502
 4859SOL    HW126036   2.381   2.582   4.195 -2.1228  0.3667 -1.2502
 4859SOL    HW226037   2.335   2.540   4.059 -0.9846 -1.7809 -1.1180
 4860SOL     OW26038   1.327   1.879   1.876 -0.0164 -0.4144  0.0954
 4860SOL    HW126039   1.338   1.973   1.892 -1.4052 -0.2996  0.3709
 4860SOL    HW226040   1.304   1.883   1.784  0.3976 -1.0672 -0.0408
 4861SOL     OW26041   2.643   2.615  16.998 -0.1176  0.1086  0.0442
 4861SOL    HW126042   2.686   2.595  16.916 -0.5657  0.9063 -0.3892
 4861SOL    HW226043   2.574   2.673  16.965 -0.9485 -0.8288  0.1066
 4862SOL     OW26044   4.137   4.281   3.045 -0.0159  0.1753  0.1029
 4862SOL    HW126045   4.158   4.262   2.953 -2.3461  1.1199 -0.6386
 4862SOL    HW226046   4.201   4.347   3.072 -1.1366  0.6774  1.5352
 4863SOL     OW26047   3.107   3.062   0.855 -0.0193 -0.0573 -0.4752
 4863SOL    HW126048   3.053   3.111   0.917  1.8110  2.2340 -0.6961
 4863SOL    HW226049   3.055   3.092   0.780  0.1979  0.6047 -0.3628
 4864SOL     OW26050   1.119   3.536   9.607  0.0253 -0.1027  0.6058
 4864SOL    HW126051   1.194   3.553   9.663  1.0719 -2.3256 -0.0959
 4864SOL    HW226052   1.131   3.607   9.544  1.2456  1.4405  2.6070
 4865SOL     OW26053   2.698   3.586   2.515  0.3109  0.6496  0.0782
 4865SOL    HW126054   2.675   3.495   2.497  2.2360  0.1375  0.1517
 4865SOL    HW226055   2.645   3.638   2.455  0.8724 -0.2511 -1.2190
 4866SOL     OW26056   2.630   4.175   5.561 -0.2774  0.1102 -0.4232
 4866SOL    HW126057   2.552   4.203   5.610  1.1307  1.1012  1.2326
 4866SOL    HW226058   2.663   4.109   5.622  1.0918  1.7344  0.6058
 4867SOL     OW26059   0.826   3.481   7.423 -0.4052  0.7194  0.6288
 4867SOL    HW126060   0.830   3.385   7.424  0.0227  0.7214 -1.4828
 4867SOL    HW226061   0.910   3.505   7.462  0.2822 -3.5094  1.8278
 4868SOL     OW26062   0.619   1.772   6.314  0.1098 -0.9363  0.6814
 4868SOL    HW126063   0.632   1.680   6.289 -0.1233 -0.9075  0.4470
 4868SOL    HW226064   0.621   1.769   6.409 -2.0147 -0.1636  0.7407
 4869SOL     OW26065   0.652   2.800   9.126 -0.0999 -0.1915 -0.4522
 4869SOL    HW126066   0.596   2.815   9.202  0.6848 -1.2777  0.3414
 4869SOL    HW226067   0.703   2.880   9.135  4.6144 -3.4931  2.0184
 4870SOL     OW26068   0.629   0.609   8.407  0.3401  0.3128 -0.1208
 4870SOL    HW126069   0.557   0.584   8.349  0.3453  0.5856 -0.2429
 4870SOL    HW226070   0.659   0.686   8.358 -1.3565  0.5400 -0.7958
 4871SOL     OW26071   1.898   0.260   4.054  0.3892 -0.1414 -0.2802
 4871SOL    HW126072   1.945   0.196   4.000 -2.0254 -1.8489 -0.3311
 4871SOL    HW226073   1.815   0.217   4.075  0.7054  0.6883  2.7669
 4872SOL     OW26074   3.414   0.184   3.071 -0.2888  0.5229 -0.2279
 4872SOL    HW126075   3.357   0.202   2.996 -0.6770 -0.0034 -0.0597
 4872SOL    HW226076   3.400   0.265   3.120  0.5718  0.8927 -0.5923
 4873SOL     OW26077   0.333   1.533   3.687  0.5920  0.0404 -0.0436
 4873SOL    HW126078   0.396   1.558   3.754 -0.1623 -2.9598  1.7908
 4873SOL    HW226079   0.364   1.592   3.619 -1.3230  1.1369  0.0223
 4874SOL     OW26080   3.277   1.657  15.469  0.1075 -0.1443 -0.2826
 4874SOL    HW126081   3.257   1.736  15.418 -0.5670 -0.3895 -0.4021
 4874SOL    HW226082   3.263   1.582  15.411  0.1308 -0.9905  0.8149
 4875SOL     OW26083   2.825   3.662   8.236 -0.0001 -0.4743 -0.0841
 4875SOL    HW126084   2.860   3.747   8.212  1.4571 -1.0401  0.0611
 4875SOL    HW226085   2.857   3.654   8.326 -1.5660 -0.3036  0.5002
 4876SOL     OW26086   3.345   1.603   6.240 -0.3847 -0.4291  0.0541
 4876SOL    HW126087   3.308   1.669   6.182 -2.2566 -0.9939  0.6222
 4876SOL    HW226088   3.269   1.585   6.295  0.4411  0.2323  1.3988
 4877SOL     OW26089   3.674   3.855   9.398 -0.0101 -0.3179  0.0277
 4877SOL    HW126090   3.637   3.799   9.466 -2.1792  2.6983  1.2820
 4877SOL    HW226091   3.708   3.924   9.455 -0.1789  0.7628 -1.1803
 4878SOL     OW26092   0.554   4.036  16.045 -0.0626  0.2140 -0.3205
 4878SOL    HW126093   0.482   3.974  16.032  0.3038 -0.9730  3.2177
 4878SOL    HW226094   0.526   4.066  16.132  0.3161 -3.2396  0.9914
 4879SOL     OW26095   0.851   0.417   8.450  0.4299  0.0113 -0.0598
 4879SOL    HW126096   0.796   0.343   8.474 -0.9875  0.9016 -0.5965
 4879SOL    HW226097   0.786   0.482   8.424 -0.5666 -0.8300  0.3133
 4880SOL     OW26098   0.627   1.235   8.172 -0.6777  0.4605  0.5716
 4880SOL    HW126099   0.547   1.186   8.189  0.6808 -0.5881  3.9244
 4880SOL    HW226100   0.588   1.314   8.133 -0.1142 -0.3687 -1.6570
 4881SOL     OW26101   3.444   1.010   7.860 -0.3178  0.1961  0.7205
 4881SOL    HW126102   3.450   1.029   7.954 -0.3655 -1.1223  0.9874
 4881SOL    HW226103   3.353   0.984   7.846 -0.8847  0.3837  3.9411
 4882SOL     OW26104   1.282   3.444   4.672 -0.6453  0.0654 -0.5913
 4882SOL    HW126105   1.300   3.532   4.637  0.4956  0.5708  1.2679
 4882SOL    HW226106   1.205   3.460   4.726  0.7148  2.0596  0.7500
 4883SOL     OW26107   1.341   0.173   7.478  0.1751  0.0403  0.4603
 4883SOL    HW126108   1.417   0.122   7.506 -0.8168 -0.7140  1.8309
 4883SOL    HW226109   1.385   0.221   7.408 -0.0944  0.8309  0.8402
 4884SOL     OW26110   0.054   1.736  10.286 -0.1100  0.3149  0.1480
 4884SOL    HW126111   0.118   1.686  10.234 -0.6697  0.8738 -1.0727
 4884SOL    HW226112   0.103   1.814  10.312  0.5696  0.3285 -1.1673
 4885SOL     OW26113   3.548   4.224   5.651 -0.1292  0.0806 -0.1572
 4885SOL    HW126114   3.468   4.172   5.651  0.8953 -1.5071 -1.2658
 4885SOL    HW226115   3.536   4.265   5.565  0.5474  0.3164 -0.1368
 4886SOL     OW26116   1.290   4.685   8.044 -0.5113  0.2054  0.1703
 4886SOL    HW126117   1.238   4.620   7.996 -0.4734  0.4994 -0.2742
 4886SOL    HW226118   1.294   4.638   8.127  0.4766 -1.3432 -0.7429
 4887SOL     OW26119   1.386   2.925  16.483  0.2988  0.2795  0.2099
 4887SOL    HW126120   1.396   2.888  16.570 -1.1215 -2.2480 -0.7206
 4887SOL    HW226121   1.448   2.997  16.498  0.2182  0.3584  0.1653
 4888SOL     OW26122   0.038   0.377   3.911  0.0832 -0.0233  0.2019
 4888SOL    HW126123   0.119   0.419   3.882 -0.0308  0.1306  0.1054
 4888SOL    HW226124   0.042   0.403   4.003 -1.0113 -0.9438  0.5183
 4889SOL     OW26125   4.571   3.833   3.610 -0.7037 -0.2294 -0.2452
 4889SOL    HW126126   4.643   3.774   3.629 -0.8918 -0.5355 -0.4680
 4889SOL    HW226127   4.568   3.886   3.690 -1.6371 -0.8110  0.1037
 4890SOL     OW26128   1.839   0.283  15.817  0.5148  0.3264 -0.3557
 4890SOL    HW126129   1.837   0.189  15.799  1.4636  0.8414 -3.0426
 4890SOL    HW226130   1.782   0.297  15.893  2.2182  0.1584  0.9470
 4891SOL     OW26131   0.289   4.480   9.182 -0.2681 -0.1190  0.4078
 4891SOL    HW126132   0.246   4.565   9.183  1.7777  0.9056  1.9243
 4891SOL    HW226133   0.232   4.435   9.120  2.0189 -0.8920 -1.1243
 4892SOL     OW26134   0.186   3.767  13.260 -0.2408 -0.1506  0.2496
 4892SOL    HW126135   0.228   3.842  13.219 -2.9030  0.2184 -1.8401
 4892SOL    HW226136   0.169   3.715  13.181 -1.1244 -1.0100  1.0096
 4893SOL     OW26137   4.077   0.934   4.765 -0.1092 -0.0708  0.1347
 4893SOL    HW126138   3.983   0.950   4.771 -0.5401 -2.7572  0.6373
 4893SOL    HW226139   4.103   0.934   4.857  2.3240  3.4589 -0.5516
 4894SOL     OW26140   4.460   3.852   4.899  0.3549  0.2407  0.2008
 4894SOL    HW126141   4.402   3.928   4.902  3.0659  2.3437 -0.5281
 4894SOL    HW226142   4.479   3.832   4.990  0.3045 -1.2546 -0.1245
 4895SOL     OW26143   2.598   2.676  12.756  0.2153 -0.0516 -0.3335
 4895SOL    HW126144   2.520   2.729  12.768  1.0791  1.2545 -0.4983
 4895SOL    HW226145   2.673   2.734  12.742 -0.2944  0.9743  1.2544
 4896SOL     OW26146   1.471   0.921   3.808 -0.1348  0.3753 -0.1530
 4896SOL    HW126147   1.545   0.861   3.801 -0.0440  0.2006  2.2385
 4896SOL    HW226148   1.513   0.988   3.862  0.1602  0.4257 -0.4466
 4897SOL     OW26149   2.043   3.456  14.879  1.1664  0.0898 -0.2192
 4897SOL    HW126150   1.983   3.432  14.809  0.4313 -0.0755  0.4600
 4897SOL    HW226151   1.988   3.517  14.929  0.4080 -2.4778  2.0877
 4898SOL     OW26152   1.039   1.337  10.807  0.2544 -0.4936  0.1489
 4898SOL    HW126153   1.125   1.301  10.828  0.9601  0.9282 -0.2677
 4898SOL    HW226154   1.018   1.290  10.726  0.0472  0.7577 -0.5297
 4899SOL     OW26155   1.392   4.383   7.385 -0.8011  0.0677 -0.0560
 4899SOL    HW126156   1.326   4.442   7.420 -0.6031 -1.0292  2.1842
 4899SOL    HW226157   1.450   4.379   7.461 -0.3782  0.9053 -0.3388
 4900SOL     OW26158   3.911   0.444   1.130 -0.0596  0.2261  0.0501
 4900SOL    HW126159   3.907   0.525   1.079 -1.7006  0.3349  0.3519
 4900SOL    HW226160   3.978   0.386   1.094  0.5786 -0.3481  2.1830
 4901SOL     OW26161   2.265   3.457  13.174  0.3002 -0.2779 -0.1035
 4901SOL    HW126162   2.179   3.492  13.153  0.1529 -0.3706  0.3255
 4901SOL    HW226163   2.303   3.439  13.089  2.3593  0.4163  0.6841
 4902SOL     OW26164   3.519   1.041   4.686 -0.2662 -0.0430  0.0680
 4902SOL    HW126165   3.452   1.058   4.620 -1.3515  1.4358  1.5603
 4902SOL    HW226166   3.468   0.973   4.730 -1.7517  1.2224  0.3077
 4903SOL     OW26167   0.832   1.420   6.921 -0.2797 -0.9826 -0.2007
 4903SOL    HW126168   0.850   1.348   6.859 -2.9706 -1.6640 -0.1929
 4903SOL    HW226169   0.766   1.382   6.979 -0.6342 -1.6968 -1.0650
 4904SOL     OW26170   3.697   2.220  13.087  0.0982  0.0312  0.7057
 4904SOL    HW126171   3.702   2.177  13.002  0.9190  0.0599  0.7430
 4904SOL    HW226172   3.602   2.226  13.097  0.1298 -2.3033  2.3093
 4905SOL     OW26173   0.066   1.891   8.342  0.5805  0.1879 -0.1906
 4905SOL    HW126174   0.106   1.940   8.270  0.4922 -1.5143 -1.4092
 4905SOL    HW226175   4.703   1.883   8.305  0.6191 -0.3271 -0.1708
 4906SOL     OW26176   3.100   2.828   6.824  0.1861 -0.3495 -0.0107
 4906SOL    HW126177   3.065   2.883   6.894 -0.5985 -0.4264 -0.3521
 4906SOL    HW226178   3.115   2.756   6.884  2.1242 -0.8280 -1.0555
 4907SOL     OW26179   4.250   2.703  15.883  0.1032  0.2897  0.7252
 4907SOL    HW126180   4.176   2.719  15.941  0.7218 -1.2936  1.9658
 4907SOL    HW226181   4.296   2.645  15.945  1.6393  1.1344  0.3888
 4908SOL     OW26182   2.847   0.937  10.545 -0.2400 -0.0516 -0.0030
 4908SOL    HW126183   2.927   0.990  10.548  0.6523 -1.3828 -0.2044
 4908SOL    HW226184   2.843   0.900  10.634  0.5947 -1.2834 -0.4809
 4909SOL     OW26185   2.721   2.129  11.451  0.2457  0.0228  0.3977
 4909SOL    HW126186   2.791   2.191  11.467  0.1953 -0.1466  1.2351
 4909SOL    HW226187   2.765   2.044  11.451 -1.8329 -1.0508 -0.5858
 4910SOL     OW26188   2.930   1.299  10.048  0.0881  0.7707 -0.1811
 4910SOL    HW126189   2.963   1.323  10.135  1.2375  1.0992 -0.7100
 4910SOL    HW226190   2.942   1.378   9.995 -0.7676  1.5624  0.7983
 4911SOL     OW26191   1.448   4.485   3.422  0.4432  0.3028 -0.0837
 4911SOL    HW126192   1.356   4.506   3.439  0.6797  1.9633 -0.8477
 4911SOL    HW226193   1.444   4.446   3.335 -1.1606 -0.4088  0.3074
 4912SOL     OW26194   0.312   3.558  16.615 -0.1195  0.2777 -0.3315
 4912SOL    HW126195   0.321   3.501  16.691  1.6468 -1.0959 -1.5777
 4912SOL    HW226196   0.387   3.534  16.561  2.1591  1.5433  2.2867
 4913SOL     OW26197   4.315   3.765   8.330 -0.6744  0.6063 -0.5324
 4913SOL    HW126198   4.392   3.821   8.315 -0.2736  0.6578  1.7685
 4913SOL    HW226199   4.352   3.704   8.394  0.8789  0.1375 -1.8610
 4914SOL     OW26200   4.525   4.436   8.069  0.2428  0.2631  0.1098
 4914SOL    HW126201   4.490   4.456   8.156 -0.4439 -0.6551  0.0559
 4914SOL    HW226202   4.558   4.524   8.050  1.1413  0.3654  2.0859
 4915SOL     OW26203   2.432   3.392   7.280  0.6142  1.2427  0.7305
 4915SOL    HW126204   2.438   3.343   7.198  0.4676 -0.1999  1.5907
 4915SOL    HW226205   2.520   3.380   7.315  0.9930  0.5251 -0.4580
 4916SOL     OW26206   4.470   1.256   8.382  0.8720 -0.6663 -0.1440
 4916SOL    HW126207   4.416   1.184   8.349  1.0491 -0.1726 -1.5391
 4916SOL    HW226208   4.556   1.229   8.350  1.2991 -0.1647  0.5932
 4917SOL     OW26209   4.609   2.541  12.707  0.2357  0.0791  0.1364
 4917SOL    HW126210   4.546   2.487  12.660  0.7937  0.1221 -0.6678
 4917SOL    HW226211   4.691   2.539  12.657  1.8233 -0.5732  2.7482
 4918SOL     OW26212   0.215   4.670   3.378  0.3296 -0.1431  0.2914
 4918SOL    HW126213   0.196   0.037   3.399 -0.4957 -0.4002  0.6927
 4918SOL    HW226214   0.251   4.678   3.290 -0.7341  0.8000 -0.0555
 4919SOL     OW26215   4.424   1.823   9.654 -0.0624  0.3284 -0.1859
 4919SOL    HW126216   4.472   1.812   9.736  1.0903  0.7973 -0.8007
 4919SOL    HW226217   4.403   1.732   9.633 -0.6609  1.2175 -3.4376
 4920SOL     OW26218   2.130   3.813   3.208 -0.2221 -0.5716 -0.3520
 4920SOL    HW126219   2.055   3.871   3.196 -0.6209 -0.6942  1.5541
 4920SOL    HW226220   2.104   3.748   3.274 -0.2742 -0.5009 -0.3033
 4921SOL     OW26221   3.929   3.802  10.198 -0.3653 -0.0334 -0.3392
 4921SOL    HW126222   3.991   3.872  10.178 -1.2503  0.3383 -1.7877
 4921SOL    HW226223   3.977   3.730  10.157  0.0916  0.0037  0.1376
 4922SOL     OW26224   0.121   1.388   1.998  0.3456  0.1975 -0.0893
 4922SOL    HW126225   0.119   1.292   2.001  0.9796  0.2254  1.1343
 4922SOL    HW226226   0.030   1.414   2.014  0.6265 -1.6382  4.5285
 4923SOL     OW26227   0.616   4.524  11.932  0.2570  0.0595  1.1747
 4923SOL    HW126228   0.541   4.516  11.990 -0.1235  0.0756  0.6824
 4923SOL    HW226229   0.572   4.494  11.852  1.9966  0.7251 -0.0275
 4924SOL     OW26230   1.625   1.680   0.791 -0.4428 -0.4576  0.0986
 4924SOL    HW126231   1.578   1.618   0.735  0.5175 -2.1782  1.2092
 4924SOL    HW226232   1.627   1.751   0.728 -1.4744 -0.4107  0.1105
 4925SOL     OW26233   0.724   2.240  13.143 -0.4121 -0.4347 -0.4676
 4925SOL    HW126234   0.774   2.193  13.210  0.4066 -0.7967 -1.3438
 4925SOL    HW226235   0.736   2.183  13.067 -2.5582  0.2074 -1.2794
 4926SOL     OW26236   4.700   4.080   7.435 -0.1372  0.2763  0.1674
 4926SOL    HW126237   0.034   4.015   7.396 -0.0474 -0.0613  0.8695
 4926SOL    HW226238   4.688   4.046   7.523  0.8825  2.4374  1.1297
 4927SOL     OW26239   0.567   1.381   3.377  0.2768 -0.3999  0.3375
 4927SOL    HW126240   0.550   1.355   3.286 -0.5636 -0.6562  0.5627
 4927SOL    HW226241   0.506   1.454   3.384 -0.0514 -0.6788  0.4151
 4928SOL     OW26242   0.854   4.428  13.142  0.6280 -0.6892  0.5153
 4928SOL    HW126243   0.815   4.423  13.229  0.2008  0.8730  0.4114
 4928SOL    HW226244   0.843   4.336  13.116 -0.8702 -0.2322 -0.4839
 4929SOL     OW26245   2.353   1.850   8.366 -0.4518 -0.2738 -0.3179
 4929SOL    HW126246   2.439   1.893   8.368  0.0314 -1.2582  0.1515
 4929SOL    HW226247   2.307   1.907   8.428 -2.7204 -1.4560 -0.9327
 4930SOL     OW26248   1.167   3.676   5.970 -0.4465  0.2261  0.3010
 4930SOL    HW126249   1.104   3.698   5.900 -0.5329  0.1763  0.3631
 4930SOL    HW226250   1.249   3.692   5.922  1.1110 -2.2790  2.1534
 4931SOL     OW26251   1.972   0.183  12.461 -0.0016 -0.1480  0.6011
 4931SOL    HW126252   1.955   0.238  12.385 -0.4320  0.2583  0.9888
 4931SOL    HW226253   1.997   0.252  12.523 -4.0330 -0.2905  2.4099
 4932SOL     OW26254   4.418   3.488  12.619 -0.6865 -0.0809 -0.4775
 4932SOL    HW126255   4.503   3.476  12.662 -1.8117  0.5829  1.9353
 4932SOL    HW226256   4.359   3.473  12.694 -2.1534  1.3558 -1.3490
 4933SOL     OW26257   3.051   0.608   7.328 -0.0080  0.3954 -0.1683
 4933SOL    HW126258   3.032   0.698   7.352 -0.4039  0.6442 -1.4184
 4933SOL    HW226259   3.121   0.610   7.262 -2.0236 -1.2237 -2.3502
 4934SOL     OW26260   1.878   1.101   1.325 -0.0082  0.1574 -0.4121
 4934SOL    HW126261   1.964   1.129   1.294  0.3939 -0.9484 -0.2882
 4934SOL    HW226262   1.892   1.016   1.366 -0.0424  0.6978  0.7064
 4935SOL     OW26263   2.606   3.579   0.567 -0.0840  0.1556 -0.8537
 4935SOL    HW126264   2.586   3.561   0.659 -0.2921  1.5726 -0.6173
 4935SOL    HW226265   2.555   3.658   0.547 -0.1452  0.6821  1.4021
 4936SOL     OW26266   4.255   4.494   7.373 -0.2446 -0.0893 -0.2239
 4936SOL    HW126267   4.293   4.581   7.380  0.0748 -0.0233 -3.0077
 4936SOL    HW226268   4.331   4.438   7.361  0.8132  1.2566  0.2631
 4937SOL     OW26269   3.416   1.141   0.802 -0.0244 -0.2422  0.6786
 4937SOL    HW126270   3.365   1.077   0.853 -1.7325  0.1287 -0.5391
 4937SOL    HW226271   3.454   1.198   0.868 -0.0458  1.7777 -1.0657
 4938SOL     OW26272   3.179   0.869   2.369  0.4544 -0.1704  0.5138
 4938SOL    HW126273   3.112   0.924   2.328  0.1896 -0.4316  0.5967
 4938SOL    HW226274   3.189   0.799   2.304  0.1801 -1.3864  1.7938
 4939SOL     OW26275   2.786   2.941  12.898  0.1687  0.0014 -0.3695
 4939SOL    HW126276   2.752   3.020  12.856  1.4337  1.0622  0.6081
 4939SOL    HW226277   2.844   2.912  12.827  0.5393  2.0479 -0.9029
 4940SOL     OW26278   3.459   0.758   0.150  0.7444 -0.2878  0.1281
 4940SOL    HW126279   3.430   0.799   0.231  0.4118  2.2682 -1.2582
 4940SOL    HW226280   3.432   0.826   0.088  0.0867 -0.0525  0.6729
 4941SOL     OW26281   0.389   4.261   2.224  0.3138  0.5704  0.8355
 4941SOL    HW126282   0.374   4.214   2.142  1.3596  0.5830  0.6376
 4941SOL    HW226283   0.483   4.280   2.227  0.3370  0.5534  0.0933
 4942SOL     OW26284   2.083   0.860  11.646 -0.1395 -0.3929 -0.2829
 4942SOL    HW126285   2.161   0.876  11.594 -0.9222 -0.6683 -1.5317
 4942SOL    HW226286   2.024   0.843  11.573  0.1846 -1.0581 -0.3911
 4943SOL     OW26287   2.150   2.889   9.312 -0.2469 -0.2053 -0.5120
 4943SOL    HW126288   2.057   2.867   9.312 -0.2589 -0.1504 -0.7035
 4943SOL    HW226289   2.162   2.923   9.224 -1.0974  1.9026  0.1817
 4944SOL     OW26290   0.429   2.972   7.144  0.5596 -0.0755  0.1237
 4944SOL    HW126291   0.511   3.020   7.131 -0.1842 -0.0300 -4.2006
 4944SOL    HW226292   0.368   3.027   7.095  0.5972  1.2216  1.5040
 4945SOL     OW26293   0.622   1.237   5.273 -0.8049  0.1600  0.2731
 4945SOL    HW126294   0.575   1.190   5.204 -1.3013  1.4809 -0.3040
 4945SOL    HW226295   0.660   1.309   5.223  1.0352  0.5261  2.2037
 4946SOL     OW26296   1.987   2.659  15.086  0.3145  0.4481 -0.4980
 4946SOL    HW126297   2.035   2.714  15.025  1.7881  1.9012  1.9569
 4946SOL    HW226298   1.982   2.579  15.034 -1.2555  1.5149 -1.9967
 4947SOL     OW26299   3.779   1.354   0.194 -0.2784 -0.0927 -0.5414
 4947SOL    HW126300   3.822   1.293   0.134  0.8899  0.1486  0.0639
 4947SOL    HW226301   3.691   1.316   0.199  0.8175 -2.4994  0.2740
 4948SOL     OW26302   2.106   3.514   5.759 -0.2335 -0.4997 -0.0622
 4948SOL    HW126303   2.175   3.455   5.789  0.8996  1.9573  2.2364
 4948SOL    HW226304   2.084   3.549   5.845  0.1366 -0.9130  0.2009
 4949SOL     OW26305   1.601   2.765   7.587 -0.1909  0.2906  0.0364
 4949SOL    HW126306   1.535   2.705   7.622  0.6037 -3.2157 -4.4720
 4949SOL    HW226307   1.655   2.784   7.663 -0.8471 -1.0632  0.8384
 4950SOL     OW26308   0.687   2.380   3.797 -0.1847 -0.2458  0.6033
 4950SOL    HW126309   0.618   2.382   3.863 -1.4138 -0.4615 -0.6745
 4950SOL    HW226310   0.759   2.437   3.824 -1.0095  0.7848  0.6322
 4951SOL     OW26311   1.826   2.419   9.176  0.0407  0.0840  0.6374
 4951SOL    HW126312   1.883   2.496   9.173 -1.2769  0.8991 -3.2097
 4951SOL    HW226313   1.768   2.445   9.247 -1.0692  0.2213 -0.3104
 4952SOL     OW26314   0.928   0.079   9.338 -0.0696 -0.1014 -1.0799
 4952SOL    HW126315   0.912   0.174   9.333 -1.3757 -0.3582 -1.7797
 4952SOL    HW226316   0.866   0.057   9.408  1.0259 -1.1621 -0.4656
 4953SOL     OW26317   2.703   0.949   7.384 -0.4404  0.2466  0.8888
 4953SOL    HW126318   2.690   0.964   7.478 -0.3202  0.3175  0.8946
 4953SOL    HW226319   2.658   1.029   7.357 -1.2762 -0.7351 -0.5854
 4954SOL     OW26320   3.217   0.171  11.138 -0.4308  0.2727 -0.8537
 4954SOL    HW126321   3.259   0.129  11.213 -0.2037  1.3427 -0.3739
 4954SOL    HW226322   3.288   0.226  11.106 -0.1915  0.8264  0.6468
 4955SOL     OW26323   2.966   3.834   5.001  0.4283  0.7569 -0.0248
 4955SOL    HW126324   2.917   3.774   4.944  1.2968  0.0546 -0.0460
 4955SOL    HW226325   2.986   3.779   5.077  1.2738  0.7355 -0.2566
 4956SOL     OW26326   4.156   1.949   6.724 -0.2264  0.3127 -0.1602
 4956SOL    HW126327   4.180   1.873   6.671 -0.6075 -0.1655  0.3382
 4956SOL    HW226328   4.096   1.992   6.663 -0.5679  1.2950  0.8665
 4957SOL     OW26329   0.118   4.486  15.670  0.2750  0.6453 -0.1248
 4957SOL    HW126330   0.117   4.390  15.663 -0.3553  0.4511  3.0619
 4957SOL    HW226331   0.149   4.512  15.583  0.3983 -1.2562 -0.6546
 4958SOL     OW26332   3.506   1.919   6.319  0.2432  0.3451  0.1501
 4958SOL    HW126333   3.578   1.970   6.281 -0.1580 -0.6369 -1.9487
 4958SOL    HW226334   3.452   1.920   6.240 -1.8658 -0.9008  1.6026
 4959SOL     OW26335   3.629   4.535   4.815  0.0678 -0.3472  0.1484
 4959SOL    HW126336   3.578   4.600   4.863  0.4132  0.3154 -0.3739
 4959SOL    HW226337   3.572   4.531   4.738  1.6824 -0.2046 -1.0617
 4960SOL     OW26338   3.792   3.518   8.515  0.3415  0.2120  0.8045
 4960SOL    HW126339   3.852   3.494   8.445  0.4303 -1.0974  1.3371
 4960SOL    HW226340   3.706   3.506   8.474  0.5207  2.4305 -0.2345
 4961SOL     OW26341   0.693   1.326   2.209 -0.0816 -0.7335  0.1109
 4961SOL    HW126342   0.776   1.294   2.244  1.5706  0.9921 -2.2264
 4961SOL    HW226343   0.690   1.263   2.137  0.1916 -1.0402  0.3646
 4962SOL     OW26344   0.226   3.986   7.093  0.4390 -0.2695 -0.1283
 4962SOL    HW126345   0.257   4.061   7.042  0.6628  0.3874  0.9586
 4962SOL    HW226346   0.167   3.948   7.028 -1.6159  2.6722  0.0499
 4963SOL     OW26347   0.339   3.989   3.456 -0.0078  0.0172 -0.4699
 4963SOL    HW126348   0.417   4.040   3.430 -1.0485  1.8653  0.0309
 4963SOL    HW226349   0.285   4.008   3.379  2.4032  0.9346 -1.9332
 4964SOL     OW26350   4.044   3.705   1.345 -0.1292 -0.3184 -0.3217
 4964SOL    HW126351   4.015   3.666   1.263 -1.3382 -0.9370  0.3907
 4964SOL    HW226352   4.138   3.690   1.342 -0.0370 -0.0442  0.8951
 4965SOL     OW26353   0.871   1.228   4.463 -0.2450 -0.2166  0.4119
 4965SOL    HW126354   0.865   1.134   4.477  1.0723 -0.2062  1.0301
 4965SOL    HW226355   0.931   1.240   4.536  0.3181  0.4057 -0.1494
 4966SOL     OW26356   4.460   2.169   6.741 -0.1867  0.5883  0.2249
 4966SOL    HW126357   4.481   2.085   6.780 -2.4120 -0.7975 -1.6037
 4966SOL    HW226358   4.369   2.165   6.771  0.2827 -1.2629  1.3659
 4967SOL     OW26359   1.379   2.410   2.764 -0.1149  0.2447 -0.1256
 4967SOL    HW126360   1.396   2.320   2.792  0.1996 -0.1603 -1.6152
 4967SOL    HW226361   1.306   2.395   2.704 -0.4549  4.0459 -0.6546
 4968SOL     OW26362   2.274   4.435   8.762  0.0002 -0.0867 -0.2544
 4968SOL    HW126363   2.259   4.437   8.856  1.8955 -3.0402  0.0866
 4968SOL    HW226364   2.307   4.346   8.755 -0.6115 -0.2875 -0.6826
 4969SOL     OW26365   3.908   2.161   3.645  0.1217  0.3104  0.7347
 4969SOL    HW126366   3.867   2.244   3.671 -0.0540  0.1835  0.8648
 4969SOL    HW226367   3.916   2.166   3.550 -1.7180  1.0735  0.6264
 4970SOL     OW26368   0.836   1.571   6.668 -0.2066 -0.1589  0.1488
 4970SOL    HW126369   0.897   1.548   6.738 -0.0097 -1.4341 -0.4390
 4970SOL    HW226370   0.890   1.605   6.596 -1.8846 -0.4545 -1.2712
 4971SOL     OW26371   4.269   0.478  11.639  0.0387  0.4407 -0.3115
 4971SOL    HW126372   4.257   0.468  11.733  1.3573 -0.0413 -0.1989
 4971SOL    HW226373   4.298   0.568  11.621 -0.9842  0.5827 -1.3271
 4972SOL     OW26374   4.369   3.940   6.653  0.8114  0.3039 -0.3531
 4972SOL    HW126375   4.385   3.924   6.559 -3.1995 -0.4693 -0.8877
 4972SOL    HW226376   4.439   3.884   6.686  0.5116  0.9634  1.3998
 4973SOL     OW26377   4.245   2.809   2.006  0.3778  0.1598  0.4591
 4973SOL    HW126378   4.238   2.733   1.949  0.5676 -0.1498  0.8526
 4973SOL    HW226379   4.155   2.838   2.022  0.0305  0.2973 -1.7366
 4974SOL     OW26380   0.014   4.345   4.272 -0.1044 -0.0720  0.1014
 4974SOL    HW126381   4.717   4.259   4.308 -0.7853  0.1318  0.1749
 4974SOL    HW226382   0.071   4.318   4.201 -0.9782 -0.1324 -0.5741
 4975SOL     OW26383   2.027   1.136   7.421  0.3154 -0.2123 -0.7201
 4975SOL    HW126384   2.064   1.214   7.462  1.4403 -0.9358 -0.3731
 4975SOL    HW226385   1.950   1.111   7.473 -0.3336 -0.1954 -1.6852
 4976SOL     OW26386   4.206   0.787  11.422 -0.2975 -0.2798  0.0555
 4976SOL    HW126387   4.206   0.693  11.401 -2.5378 -0.7134  1.9107
 4976SOL    HW226388   4.251   0.797  11.506  3.0483  0.2047 -1.8401
 4977SOL     OW26389   4.511   0.402   8.252  0.6619 -0.4232 -0.1049
 4977SOL    HW126390   4.451   0.370   8.319  1.0944  0.5331  0.7509
 4977SOL    HW226391   4.599   0.387   8.284  0.0821 -2.9736  0.2806
 4978SOL     OW26392   2.070   4.561   7.394  0.0023 -0.7262 -0.1181
 4978SOL    HW126393   2.129   4.582   7.322  0.6542 -1.6148  0.1565
 4978SOL    HW226394   2.004   4.512   7.346 -0.4635  1.7919 -2.0130
 4979SOL     OW26395   3.920   4.383   8.254 -0.0449 -0.0492  0.3919
 4979SOL    HW126396   3.838   4.430   8.240  2.0878  3.3716 -0.5896
 4979SOL    HW226397   3.923   4.357   8.346  1.4736  1.1616  0.6875
 4980SOL     OW26398   4.689   2.210   2.000 -0.5267 -0.6301 -0.4562
 4980SOL    HW126399   0.059   2.211   2.010 -0.7185 -0.3425  1.3375
 4980SOL    HW226400   4.679   2.296   1.960  1.4732 -0.7267 -1.1587
 4981SOL     OW26401   3.031   3.505   7.653  0.1454  0.3618  0.1961
 4981SOL    HW126402   2.966   3.439   7.679 -2.2861  3.9646  3.1681
 4981SOL    HW226403   2.973   3.563   7.604 -0.8155 -1.2611 -0.6138
 4982SOL     OW26404   0.517   2.705   8.303  0.3166  0.0120  0.0609
 4982SOL    HW126405   0.427   2.695   8.335  0.5972 -2.5638 -0.0291
 4982SOL    HW226406   0.553   2.750   8.379 -0.0728 -0.8469  0.7493
 4983SOL     OW26407   3.505   0.725   2.978 -0.4600  0.4500  0.1774
 4983SOL    HW126408   3.589   0.683   2.960 -0.3876 -0.0806  1.7120
 4983SOL    HW226409   3.470   0.741   2.891  1.6876  3.9474 -0.0505
 4984SOL     OW26410   0.691   4.697  13.070  0.1072  0.1309 -0.2774
 4984SOL    HW126411   0.744   4.636  13.121 -0.0755 -0.6877 -1.0690
 4984SOL    HW226412   0.764   0.017  13.028  0.0728  0.8851  0.4628
 4985SOL     OW26413   2.691   0.392  11.950 -0.5122 -0.5397 -0.2390
 4985SOL    HW126414   2.782   0.393  11.921 -0.7835  1.0139 -1.0337
 4985SOL    HW226415   2.680   0.304  11.987  0.6539 -0.4497  0.3517
 4986SOL     OW26416   3.455   3.446  11.599 -0.8881  0.0069  0.1412
 4986SOL    HW126417   3.431   3.536  11.619  2.0235  0.8336 -0.0639
 4986SOL    HW226418   3.380   3.407  11.644 -4.2599  2.5412 -3.2956
 4987SOL     OW26419   2.186   0.272   5.273  0.2037  0.4879  0.1460
 4987SOL    HW126420   2.279   0.251   5.269 -0.1812 -0.9913 -0.9596
 4987SOL    HW226421   2.168   0.274   5.179  0.4247 -2.5381  0.0502
 4988SOL     OW26422   3.451   2.626   3.687  0.2175 -0.1649  0.4649
 4988SOL    HW126423   3.471   2.613   3.594 -1.0435 -0.7078  0.2752
 4988SOL    HW226424   3.365   2.584   3.696 -0.8300  1.7363 -0.5536
 4989SOL     OW26425   2.710   1.148   6.934 -0.7506 -0.5457 -0.2242
 4989SOL    HW126426   2.748   1.148   6.846  1.8257 -0.4397  0.8785
 4989SOL    HW226427   2.722   1.057   6.961 -0.0808  0.1950  1.9163
 4990SOL     OW26428   4.288   4.199   6.758  0.4003 -0.1271  0.2209
 4990SOL    HW126429   4.343   4.124   6.736 -1.5998 -1.8088  0.9489
 4990SOL    HW226430   4.343   4.244   6.822 -0.8648  0.2346  1.0605
 4991SOL     OW26431   4.188   3.333   3.923 -0.0709 -0.1131  0.0981
 4991SOL    HW126432   4.262   3.277   3.948 -0.2662 -0.1979  0.4911
 4991SOL    HW226433   4.184   3.389   4.000  1.0378  0.3031 -0.1389
 4992SOL     OW26434   4.031   1.701   3.355 -0.2130  0.7109  0.5288
 4992SOL    HW126435   4.124   1.707   3.376  0.0478 -0.6690 -0.1972
 4992SOL    HW226436   3.998   1.647   3.427  0.6378 -1.3000 -0.5888
 4993SOL     OW26437   4.223   2.179  12.391  0.2967 -0.3245  1.1506
 4993SOL    HW126438   4.269   2.168  12.308  0.0269 -0.0269  0.9621
 4993SOL    HW226439   4.238   2.089  12.419  1.8494 -0.1388  0.9550
 4994SOL     OW26440   4.002   2.588  16.986  0.1110  0.4081  0.4337
 4994SOL    HW126441   3.977   2.653  16.921  0.7635  1.0550  0.8350
 4994SOL    HW226442   4.041   2.650  17.048 -1.5160  2.6517 -0.8004
 4995SOL     OW26443   3.607   2.149   9.082  0.0441 -0.1645  0.2146
 4995SOL    HW126444   3.622   2.183   8.994  0.0790 -0.0997  0.2459
 4995SOL    HW226445   3.689   2.169   9.126  1.8497 -1.2764 -2.6857
 4996SOL     OW26446   0.616   1.869  10.555 -0.5932  0.4751  0.4815
 4996SOL    HW126447   0.554   1.797  10.550  2.5237 -2.0902 -1.3801
 4996SOL    HW226448   0.683   1.839  10.493  1.4392  1.7836  2.0545
 4997SOL     OW26449   4.460   1.795   2.046 -0.4625  0.4595 -0.0715
 4997SOL    HW126450   4.465   1.887   2.020  0.6601 -0.1761 -2.0849
 4997SOL    HW226451   4.503   1.798   2.132 -0.6243  0.2412  0.0154
 4998SOL     OW26452   1.540   4.011   8.297  0.0722  0.0561 -0.0408
 4998SOL    HW126453   1.620   4.054   8.329 -0.6597  1.0515  0.4408
 4998SOL    HW226454   1.527   4.038   8.206 -0.2027  0.2114  0.0449
 4999SOL     OW26455   3.331   2.778   7.997 -0.8200  0.9311 -0.3217
 4999SOL    HW126456   3.380   2.784   8.078 -1.0356  1.3517 -0.2235
 4999SOL    HW226457   3.402   2.800   7.938  0.6740 -0.5593  0.9241
 5000SOL     OW26458   0.776   3.436   7.052 -0.1558  0.3362 -0.2748
 5000SOL    HW126459   0.790   3.499   6.981 -2.2970 -0.0053 -0.9943
 5000SOL    HW226460   0.824   3.362   7.015 -1.9672 -0.9390 -0.0863
 5001SOL     OW26461   1.524   4.137   8.049 -0.6838  0.1450 -0.0508
 5001SOL    HW126462   1.610   4.132   8.007  1.0285 -0.4288  3.4835
 5001SOL    HW226463   1.496   4.216   8.004  1.2907  1.0931  0.3839
 5002SOL     OW26464   0.363   3.321   8.286 -0.7696  0.3859 -0.2018
 5002SOL    HW126465   0.307   3.293   8.214  3.3588  0.0197 -3.2485
 5002SOL    HW226466   0.387   3.233   8.314 -1.3522  0.2069 -0.2708
 5003SOL     OW26467   1.147   0.596   5.705  0.1948  0.1703 -0.1840
 5003SOL    HW126468   1.061   0.632   5.729  1.3268  2.9951 -0.3161
 5003SOL    HW226469   1.182   0.587   5.794  0.1470 -0.6384 -0.2489
 5004SOL     OW26470   1.339   4.073   5.396 -0.1251 -0.3556 -0.2413
 5004SOL    HW126471   1.253   4.098   5.429 -0.7683 -2.0047 -0.6338
 5004SOL    HW226472   1.313   4.031   5.314 -1.5568 -0.7220  0.4024
 5005SOL     OW26473   3.452   3.817   3.838  0.2158  0.1790  0.4965
 5005SOL    HW126474   3.362   3.851   3.840  1.0550  2.5187 -1.4480
 5005SOL    HW226475   3.496   3.878   3.779  0.4961 -0.3055  0.2028
 5006SOL     OW26476   0.472   3.010   5.254 -0.4627  0.2407 -0.2678
 5006SOL    HW126477   0.395   2.954   5.242  0.3235 -0.4613 -1.9360
 5006SOL    HW226478   0.472   3.069   5.179 -1.2998  2.7757  1.7009
 5007SOL     OW26479   1.545   4.228   8.860 -0.3417 -0.3936  0.2782
 5007SOL    HW126480   1.479   4.159   8.853 -0.5853 -0.2852  1.4832
 5007SOL    HW226481   1.619   4.172   8.884  0.1106  0.2435  0.3763
 5008SOL     OW26482   0.585   1.813   5.202 -0.4665 -0.0655  0.2131
 5008SOL    HW126483   0.501   1.771   5.220  0.6220 -2.1801  0.3405
 5008SOL    HW226484   0.641   1.781   5.273  0.9195  0.7494 -0.5216
 5009SOL     OW26485   1.115   1.265   5.683 -0.0352  0.5699  0.7032
 5009SOL    HW126486   1.074   1.182   5.709  0.6152 -0.2746 -1.0008
 5009SOL    HW226487   1.206   1.241   5.668 -0.5221 -0.4602 -0.6381
 5010SOL     OW26488   3.949   0.600   5.745  0.0511  0.6597 -0.5359
 5010SOL    HW126489   4.026   0.584   5.799 -0.6124  2.2358  0.8834
 5010SOL    HW226490   3.881   0.564   5.802  0.3809  1.4864  0.3699
 5011SOL     OW26491   2.585   2.044   2.560  0.2789  0.2121  0.1659
 5011SOL    HW126492   2.658   2.004   2.513 -0.4818 -1.7995  0.7211
 5011SOL    HW226493   2.517   1.976   2.561 -1.4628  1.9310 -0.4463
 5012SOL     OW26494   1.199   0.858   8.876 -0.0877  0.3458 -0.2872
 5012SOL    HW126495   1.196   0.766   8.903  2.7511 -0.3574 -2.3191
 5012SOL    HW226496   1.129   0.888   8.934 -0.6000 -0.5581 -0.4344
 5013SOL     OW26497   1.780   4.069   5.135  0.1577  0.5679  0.2649
 5013SOL    HW126498   1.768   4.060   5.040 -2.0460 -1.0240  0.7095
 5013SOL    HW226499   1.774   3.978   5.164  0.5466  0.4231 -0.1051
 5014SOL     OW26500   0.341   2.923  17.101  0.2906  0.5963 -0.0652
 5014SOL    HW126501   0.424   2.876  17.110  1.0813  1.6079 -1.9055
 5014SOL    HW226502   0.330   2.920  17.006 -4.4424 -2.3200  0.6164
 5015SOL     OW26503   1.626   0.868   6.837  0.1339 -0.0478  0.0436
 5015SOL    HW126504   1.609   0.918   6.917  0.5948  0.6161 -0.2752
 5015SOL    HW226505   1.568   0.911   6.773 -0.2176 -1.2071 -0.4211
 5016SOL     OW26506   0.115   0.803   6.763  0.3256 -0.1713 -0.0126
 5016SOL    HW126507   0.026   0.766   6.765  0.7532 -1.1544  0.5737
 5016SOL    HW226508   0.123   0.832   6.853  0.2488  2.6409 -0.9366
 5017SOL     OW26509   0.892   3.121   2.179 -0.1526 -0.2794 -0.6184
 5017SOL    HW126510   0.910   3.042   2.229 -0.2813 -0.6488 -1.1494
 5017SOL    HW226511   0.923   3.095   2.092  0.2833 -0.2045 -0.4875
 5018SOL     OW26512   2.372   1.995   1.563  0.3333 -0.5403  0.1097
 5018SOL    HW126513   2.349   2.053   1.635  0.1800 -0.5616  0.0776
 5018SOL    HW226514   2.342   1.907   1.588 -1.8658 -0.4986 -2.4555
 5019SOL     OW26515   2.064   4.698   9.210  0.1412  0.0573  0.4936
 5019SOL    HW126516   2.056   4.709   9.115 -0.7206 -0.7889  0.4744
 5019SOL    HW226517   2.082   0.062   9.240  0.4743 -0.1353  0.8669
 5020SOL     OW26518   1.330   3.594   4.200  0.1927 -0.1840  0.1461
 5020SOL    HW126519   1.410   3.594   4.147 -0.0895 -0.1643 -0.2776
 5020SOL    HW226520   1.263   3.651   4.162  0.1162  0.4050  1.1790
 5021SOL     OW26521   0.922   0.836   6.141  0.0377 -0.6293 -0.2446
 5021SOL    HW126522   0.857   0.766   6.136  0.4210 -0.9899 -0.1763
 5021SOL    HW226523   0.996   0.780   6.167  0.2269 -0.1963  0.1546
 5022SOL     OW26524   2.873   0.742  10.346  0.2402  0.1417 -0.0401
 5022SOL    HW126525   2.957   0.738  10.301  0.2872 -1.4941  0.1901
 5022SOL    HW226526   2.887   0.820  10.400  0.7817 -0.2857  0.4351
 5023SOL     OW26527   0.445   0.513   8.229  0.3985  0.2760 -0.5341
 5023SOL    HW126528   0.461   0.574   8.157  1.9483  0.3477 -0.1299
 5023SOL    HW226529   0.350   0.497   8.223  0.5495 -0.4767 -0.8885
 5024SOL     OW26530   2.900   2.719  13.967  0.0693 -0.2007 -0.3413
 5024SOL    HW126531   2.901   2.799  13.915 -0.8284  0.0924  0.0856
 5024SOL    HW226532   2.811   2.712  14.002 -0.2743 -0.4968 -1.2938
 5025SOL     OW26533   3.208   3.856   0.457 -0.4139  0.5500  0.0542
 5025SOL    HW126534   3.254   3.772   0.465 -1.1384 -0.0529 -2.1433
 5025SOL    HW226535   3.235   3.876   0.368 -0.9524  0.9018 -0.0287
 5026SOL     OW26536   0.564   3.471   4.817  0.6698  0.1990 -0.2367
 5026SOL    HW126537   0.481   3.489   4.862  1.0691 -3.6155  1.9925
 5026SOL    HW226538   0.531   3.394   4.771 -1.9203  1.1603 -0.0169
 5027SOL     OW26539   0.264   3.628   6.256  0.0383  0.1530  0.4703
 5027SOL    HW126540   0.205   3.703   6.251 -1.2817 -0.9426 -0.2964
 5027SOL    HW226541   0.299   3.642   6.168  0.2944  0.1601  0.5736
 5028SOL     OW26542   2.242   2.074  12.958 -0.2922 -0.1598  0.0065
 5028SOL    HW126543   2.239   2.041  12.868 -0.2391  1.6935 -0.6671
 5028SOL    HW226544   2.150   2.056  12.978  0.3063 -0.9828  2.0514
 5029SOL     OW26545   3.826   3.592   7.748  0.0148  0.3932 -0.3654
 5029SOL    HW126546   3.905   3.636   7.778  0.9970 -2.0541  0.6888
 5029SOL    HW226547   3.779   3.661   7.702  0.5135  0.4927 -0.7218
 5030SOL     OW26548   1.309   3.105   1.746 -0.1652 -0.5979 -0.2296
 5030SOL    HW126549   1.222   3.112   1.785  0.6349  1.4154  1.2174
 5030SOL    HW226550   1.380   3.120   1.810 -0.2328  2.3786 -0.8468
 5031SOL     OW26551   0.595   1.315   4.586  0.1262 -0.7058  0.1215
 5031SOL    HW126552   0.617   1.317   4.679 -0.4060 -1.3727  0.2637
 5031SOL    HW226553   0.513   1.268   4.574 -0.0654 -0.1581 -0.7031
 5032SOL     OW26554   2.465   3.795   9.250 -0.4431  0.0795 -0.6770
 5032SOL    HW126555   2.447   3.707   9.216  1.7925 -1.0357  1.0809
 5032SOL    HW226556   2.560   3.793   9.259 -0.5551  1.9896  0.8535
 5033SOL     OW26557   3.203   2.119  14.345 -0.6486  0.3152 -0.5177
 5033SOL    HW126558   3.143   2.098  14.274 -0.4387  0.2807 -0.6872
 5033SOL    HW226559   3.160   2.079  14.420 -1.0326  1.1398 -0.2959
 5034SOL     OW26560   1.762   0.659   6.616  0.0983 -0.2191 -0.1452
 5034SOL    HW126561   1.794   0.739   6.659 -0.5386 -0.0534  0.0187
 5034SOL    HW226562   1.670   0.664   6.640 -0.6656  0.1315 -3.1089
 5035SOL     OW26563   1.390   3.006  12.221  0.5236  0.2333 -0.5282
 5035SOL    HW126564   1.449   2.994  12.295 -0.7102 -0.7483  0.2956
 5035SOL    HW226565   1.305   3.013  12.264  1.0403 -2.9871  1.0462
 5036SOL     OW26566   2.790   0.591  14.261 -0.1258  0.3873  0.5986
 5036SOL    HW126567   2.758   0.579  14.172 -1.7827 -1.8229  1.5049
 5036SOL    HW226568   2.885   0.582  14.255 -0.2484  0.4362 -1.3994
 5037SOL     OW26569   0.547   3.675   5.482 -0.4546 -0.7054 -0.0227
 5037SOL    HW126570   0.544   3.755   5.429 -0.1576 -0.2523  0.6462
 5037SOL    HW226571   0.512   3.613   5.418 -0.2215 -1.0346  0.1720
 5038SOL     OW26572   3.870   2.634   0.542  0.1527 -0.4515  0.1361
 5038SOL    HW126573   3.854   2.544   0.515 -1.8908  0.5790 -2.1741
 5038SOL    HW226574   3.865   2.609   0.635  0.7040  3.3150  1.1856
 5039SOL     OW26575   4.560   2.314   4.050  0.7698  0.0314  0.2006
 5039SOL    HW126576   4.575   2.396   4.096  1.9764 -0.4270  0.6355
 5039SOL    HW226577   4.501   2.340   3.980 -0.5266 -1.7587  0.6268
 5040SOL     OW26578   4.515   4.050   2.027  0.7455 -0.1722  0.2010
 5040SOL    HW126579   4.495   3.956   2.025  0.7612 -0.1801  0.3795
 5040SOL    HW226580   4.472   4.074   2.109 -1.2454 -1.8804 -0.3381
 5041SOL     OW26581   2.258   0.555   6.010  0.0166  0.4674 -0.2340
 5041SOL    HW126582   2.352   0.541   5.996 -0.3173 -0.4037 -1.5520
 5041SOL    HW226583   2.231   0.464   6.017 -3.7019  1.5688 -0.2006
 5042SOL     OW26584   1.276   4.690   8.657  0.1249  0.2920  0.5157
 5042SOL    HW126585   1.321   4.608   8.673 -0.3096 -0.2906 -1.1986
 5042SOL    HW226586   1.281   4.691   8.561 -0.1457 -2.1208  0.4942
 5043SOL     OW26587   1.820   0.529   4.080 -0.5289  0.0973 -0.8317
 5043SOL    HW126588   1.862   0.579   4.009  2.3778 -0.1541  0.7372
 5043SOL    HW226589   1.845   0.439   4.062 -0.2363  0.5034 -2.5159
 5044SOL     OW26590   3.597   0.483   5.504 -0.1026 -0.0480 -0.0146
 5044SOL    HW126591   3.595   0.412   5.568 -2.8847  0.1150  0.0682
 5044SOL    HW226592   3.577   0.567   5.546 -0.6975 -0.4016  0.3979
 5045SOL     OW26593   0.393   2.534   2.759 -0.0330 -0.1765  0.1681
 5045SOL    HW126594   0.360   2.480   2.831 -2.2657 -1.4180 -1.8212
 5045SOL    HW226595   0.415   2.467   2.695  3.8439  0.1520  1.1327
 5046SOL     OW26596   4.141   0.981  15.985  0.3331  0.0148  0.3218
 5046SOL    HW126597   4.056   0.946  16.014  0.4263  1.3908  2.2347
 5046SOL    HW226598   4.116   1.013  15.898  0.7973 -0.2857  0.0778
 5047SOL     OW26599   2.087   0.328   6.917 -0.8726  0.3670  0.7165
 5047SOL    HW126600   2.055   0.276   6.991  1.3140 -2.3581 -0.2735
 5047SOL    HW226601   2.001   0.369   6.905 -1.4922 -1.2001 -0.0961
 5048SOL     OW26602   3.185   0.043   6.746 -0.3046  0.2037  0.2370
 5048SOL    HW126603   3.223   0.093   6.818  0.1834 -0.8585  0.7194
 5048SOL    HW226604   3.093   0.065   6.760 -0.4666 -0.7348  0.7066
 5049SOL     OW26605   4.439   0.696   8.781  0.3096 -0.0356 -0.0038
 5049SOL    HW126606   4.470   0.680   8.692  0.5764  1.6383 -0.2169
 5049SOL    HW226607   4.376   0.627   8.800  0.3065 -0.0550 -0.0823
 5050SOL     OW26608   3.158   3.095  17.204  0.4294  0.3124 -0.1196
 5050SOL    HW126609   3.244   3.096  17.246  0.4209 -0.6077 -0.0814
 5050SOL    HW226610   3.130   3.187  17.196 -2.5770 -0.6249 -0.3434
 5051SOL     OW26611   3.515   1.998  16.566  0.9191  0.0339 -0.1201
 5051SOL    HW126612   3.438   1.973  16.514  1.7613 -0.2308 -1.2499
 5051SOL    HW226613   3.563   2.052  16.502 -0.0586  0.8151 -0.1979
 5052SOL     OW26614   2.396   3.958   5.047 -0.7688 -0.3720  0.8731
 5052SOL    HW126615   2.308   3.921   5.055 -0.5691 -0.8483  0.8838
 5052SOL    HW226616   2.378   4.024   4.980  0.4204 -0.1070  0.8173
 5053SOL     OW26617   2.142   4.063   8.700  0.5129  0.2579 -0.4293
 5053SOL    HW126618   2.129   4.062   8.795 -1.3069  0.1386 -0.6645
 5053SOL    HW226619   2.068   4.019   8.657 -0.1094  0.4761  0.4230
 5054SOL     OW26620   0.350   0.872  13.757  0.2657  0.3445 -0.1280
 5054SOL    HW126621   0.377   0.860  13.666  1.1358 -2.0892  0.4540
 5054SOL    HW226622   0.254   0.874  13.749 -0.0529  0.9883  3.7620
 5055SOL     OW26623   0.006   0.540   5.128 -0.2782 -0.6591  0.0237
 5055SOL    HW126624   4.647   0.536   5.082 -0.9923 -2.2632  1.4811
 5055SOL    HW226625   4.717   0.471   5.192  1.7649  0.5933  1.8011
 5056SOL     OW26626   4.113   0.643   1.033  1.1518  0.4301  0.1780
 5056SOL    HW126627   4.075   0.699   0.965 -0.4883  1.5402  1.9857
 5056SOL    HW226628   4.135   0.699   1.108  1.3760 -1.4780  1.5269
 5057SOL     OW26629   2.020   2.989   2.479 -0.1340 -0.3657 -0.1170
 5057SOL    HW126630   2.034   2.986   2.574  0.2719  1.4969 -0.1049
 5057SOL    HW226631   2.102   3.035   2.458 -1.1496  1.2900 -0.5286
 5058SOL     OW26632   0.494   3.230   3.623  0.4912 -0.5246 -0.0687
 5058SOL    HW126633   0.494   3.201   3.532 -2.4711  3.4090 -1.2855
 5058SOL    HW226634   0.429   3.299   3.615  1.1238 -0.1113 -1.5317
 5059SOL     OW26635   3.979   0.843   0.881  0.0315 -0.1976  0.6397
 5059SOL    HW126636   4.026   0.882   0.807 -1.0468  0.5274  0.3423
 5059SOL    HW226637   3.910   0.909   0.889  1.2827  1.3351 -1.3625
 5060SOL     OW26638   4.275   2.007  13.005  0.1252  0.6161  0.8290
 5060SOL    HW126639   4.334   1.964  12.942  1.2587  1.4622  1.3186
 5060SOL    HW226640   4.277   1.936  13.069  0.0018 -1.0608 -0.9961
 5061SOL     OW26641   2.392   1.996   5.958  0.2542 -0.3671  0.3583
 5061SOL    HW126642   2.347   1.954   6.032 -1.3787 -0.2581 -0.5567
 5061SOL    HW226643   2.332   1.964   5.890 -0.6684  0.9681  0.5458
 5062SOL     OW26644   3.405   4.051   1.592 -1.1022 -0.4372 -0.1988
 5062SOL    HW126645   3.372   4.088   1.510 -0.2587  1.0065  0.1165
 5062SOL    HW226646   3.442   4.126   1.638 -1.8697 -0.0075 -0.2849
 5063SOL     OW26647   2.491   3.174   3.201  0.1419 -0.3188  0.4361
 5063SOL    HW126648   2.468   3.226   3.278  0.1060  2.1445 -1.2404
 5063SOL    HW226649   2.573   3.147   3.241  0.9580 -0.4153 -1.3124
 5064SOL     OW26650   4.053   3.728   1.981 -0.0825  0.0412  0.0987
 5064SOL    HW126651   4.023   3.683   1.903  1.0087  1.7702 -1.3406
 5064SOL    HW226652   4.093   3.803   1.936 -1.7700  1.3047  0.7239
 5065SOL     OW26653   4.025   0.017   0.436 -0.0504 -0.0962  0.2488
 5065SOL    HW126654   4.027   4.652   0.469 -1.7981  0.5693  2.1709
 5065SOL    HW226655   4.010   4.720   0.344 -1.6729  0.8525  0.2940
 5066SOL     OW26656   4.397   1.028   5.995  0.1755  0.6205 -0.4311
 5066SOL    HW126657   4.303   1.049   6.001  0.0831 -0.4964  1.7113
 5066SOL    HW226658   4.398   1.004   5.902 -3.3591 -1.8551  0.1731
 5067SOL     OW26659   3.586   3.457   5.910  0.6587 -0.0593  0.8067
 5067SOL    HW126660   3.634   3.471   5.991  2.0630  0.7315 -0.1590
 5067SOL    HW226661   3.596   3.541   5.866  2.1253 -0.5163  0.2597
 5068SOL     OW26662   0.110   2.659  16.885 -0.2810 -0.1162  0.0058
 5068SOL    HW126663   0.166   2.621  16.817 -0.6395  0.3277 -0.5406
 5068SOL    HW226664   0.072   2.576  16.914  1.0539 -1.2911 -1.6097
 5069SOL     OW26665   0.999   2.503   7.899  0.0916  0.1745  0.6439
 5069SOL    HW126666   1.060   2.538   7.965 -1.3315 -1.6579  2.9282
 5069SOL    HW226667   1.015   2.409   7.912  0.6750  0.1294 -0.4238
 5070SOL     OW26668   4.615   3.183   8.988 -0.2522 -0.5712 -0.6596
 5070SOL    HW126669   4.601   3.099   9.031 -1.9911 -0.0240 -0.1265
 5070SOL    HW226670   4.691   3.170   8.932 -1.2188  3.5021 -2.9817
 5071SOL     OW26671   0.781   4.242   8.512 -0.2208 -0.0415 -0.4328
 5071SOL    HW126672   0.718   4.181   8.550  1.0550  0.3061  2.2311
 5071SOL    HW226673   0.817   4.189   8.441  3.9228  1.4715  0.5024
 5072SOL     OW26674   0.563   2.801   8.548 -0.0411 -0.1582  0.7090
 5072SOL    HW126675   0.659   2.796   8.550 -0.0645 -0.5493  0.8657
 5072SOL    HW226676   0.549   2.776   8.640 -1.1558  0.0178  0.5825
 5073SOL     OW26677   2.185   0.546  11.442  0.1663  0.0347 -0.3745
 5073SOL    HW126678   2.107   0.516  11.395  0.1782 -0.7108  0.0914
 5073SOL    HW226679   2.197   0.633  11.403 -0.0553 -0.4092 -1.4381
 5074SOL     OW26680   1.792   2.509   6.053 -0.3272  0.0241  0.1033
 5074SOL    HW126681   1.816   2.492   6.144 -1.0858 -0.8083  0.1453
 5074SOL    HW226682   1.879   2.521   6.016  0.2277  1.3408  1.8465
 5075SOL     OW26683   4.287   1.700  12.663 -0.0058  0.3556  0.2419
 5075SOL    HW126684   4.193   1.681  12.670 -0.1240  0.4821 -0.9579
 5075SOL    HW226685   4.322   1.612  12.647  2.0589  1.3906 -0.9371
 5076SOL     OW26686   3.853   3.848   8.973  0.0963  0.0684  0.4474
 5076SOL    HW126687   3.797   3.884   9.042 -2.5021  1.9690 -2.6327
 5076SOL    HW226688   3.933   3.889   9.007  1.4473 -0.3060 -2.2260
 5077SOL     OW26689   3.538   3.537   8.437  0.1732  0.6844  0.0154
 5077SOL    HW126690   3.458   3.533   8.488  0.3270  2.0943  0.3584
 5077SOL    HW226691   3.534   3.627   8.405  2.2706  0.4425 -0.9117
 5078SOL     OW26692   0.606   2.131   6.205 -0.6541  0.5397  0.1306
 5078SOL    HW126693   0.596   2.150   6.298 -0.8601  0.6720  0.0809
 5078SOL    HW226694   0.539   2.062   6.196 -0.8348  0.3833  2.5095
 5079SOL     OW26695   2.569   4.460   5.371  0.2576 -0.3424  0.2145
 5079SOL    HW126696   2.633   4.481   5.438 -0.5644  2.2287  0.1780
 5079SOL    HW226697   2.493   4.453   5.429 -0.2534 -0.0115 -0.4233
 5080SOL     OW26698   0.083   1.172   6.752 -0.3432  0.2818 -0.1347
 5080SOL    HW126699   0.061   1.188   6.844  0.4282 -0.2977  0.1574
 5080SOL    HW226700   0.114   1.082   6.744 -1.3217  0.0443 -1.2092
 5081SOL     OW26701   0.907   3.762   8.405 -0.4412  0.6402 -0.7653
 5081SOL    HW126702   0.883   3.671   8.390  2.0942 -0.3009  0.8795
 5081SOL    HW226703   0.999   3.744   8.424 -0.8218  0.8446  1.2408
 5082SOL     OW26704   3.378   1.552   4.486 -1.1225  0.8639 -0.2536
 5082SOL    HW126705   3.452   1.522   4.433 -0.0725  0.8754  1.2257
 5082SOL    HW226706   3.310   1.503   4.440  0.1280 -1.2056  0.1209
 5083SOL     OW26707   3.731   3.751   3.849 -0.2293 -0.0516 -0.2841
 5083SOL    HW126708   3.744   3.666   3.808  0.9823  0.4614 -0.9257
 5083SOL    HW226709   3.636   3.756   3.864 -0.6099 -0.7557 -2.5884
 5084SOL     OW26710   2.486   0.848   5.819  0.3094  0.4143 -0.1506
 5084SOL    HW126711   2.421   0.904   5.777  0.6678  0.0942 -1.1604
 5084SOL    HW226712   2.569   0.895   5.811 -0.0765  1.1146  0.0648
 5085SOL     OW26713   1.038   2.187   4.179 -0.1881  0.6051 -0.1425
 5085SOL    HW126714   1.008   2.235   4.102  0.0632  0.8302 -0.0998
 5085SOL    HW226715   0.960   2.133   4.186 -0.0586  0.4482  0.1026
 5086SOL     OW26716   0.524   4.191   7.809  0.6440  0.6219 -0.5210
 5086SOL    HW126717   0.473   4.212   7.888 -0.5819 -0.4223 -1.0251
 5086SOL    HW226718   0.575   4.270   7.794  1.0016  0.2003 -1.4750
 5087SOL     OW26719   3.758   3.867   6.206 -0.0405 -0.8830  0.1036
 5087SOL    HW126720   3.752   3.955   6.171  1.5548 -0.0881  1.8406
 5087SOL    HW226721   3.844   3.863   6.248 -0.6673 -4.0946  1.1298
 5088SOL     OW26722   0.052   0.140  16.337  0.5609 -0.0456 -0.6719
 5088SOL    HW126723   0.027   0.226  16.370 -0.8987 -0.1481 -1.5111
 5088SOL    HW226724   0.079   0.159  16.247 -0.4828  0.5097 -0.8605
 5089SOL     OW26725   3.061   1.771   5.250  0.1390 -0.0942  0.6025
 5089SOL    HW126726   2.968   1.761   5.228 -0.0440  1.3629  0.6768
 5089SOL    HW226727   3.095   1.689   5.215  0.7003 -0.1238  1.2186
 5090SOL     OW26728   0.717   4.003   2.545 -0.4211  0.4023  0.0214
 5090SOL    HW126729   0.715   3.945   2.622  0.1095 -1.3155 -1.2485
 5090SOL    HW226730   0.672   3.943   2.485 -1.3367  4.0774 -2.8844
 5091SOL     OW26731   2.616   2.646   8.965  0.0979 -0.1054  0.1690
 5091SOL    HW126732   2.640   2.614   9.052  1.8918  0.2275 -0.2002
 5091SOL    HW226733   2.700   2.681   8.936 -0.7049  2.6209  1.0927
 5092SOL     OW26734   2.087   1.554   7.675  0.2564  0.4663 -0.2624
 5092SOL    HW126735   2.071   1.618   7.744  1.0847  0.9475 -0.5205
 5092SOL    HW226736   2.045   1.480   7.719 -1.1476  1.4942  0.1142
 5093SOL     OW26737   0.786   1.851   3.119 -0.0582 -0.1653  0.6782
 5093SOL    HW126738   0.755   1.779   3.065 -0.4382 -0.6662  1.5546
 5093SOL    HW226739   0.721   1.918   3.097  0.0259 -0.3901 -0.2470
 5094SOL     OW26740   1.459   0.956   5.706 -0.1604  0.0382  0.3715
 5094SOL    HW126741   1.491   0.986   5.791  1.5127  1.0153 -0.5971
 5094SOL    HW226742   1.368   0.944   5.732 -0.9396 -0.7425 -2.7735
 5095SOL     OW26743   3.196   0.045   7.987 -0.1844 -0.4950  0.5080
 5095SOL    HW126744   3.235   0.114   7.935  0.2906  1.4369  3.4342
 5095SOL    HW226745   3.199   0.079   8.076  0.7847  0.0666  0.2542
 5096SOL     OW26746   3.349   1.813   3.042 -0.9678  0.2711  0.0675
 5096SOL    HW126747   3.354   1.898   2.998  0.3305  0.9553  1.5251
 5096SOL    HW226748   3.424   1.765   3.006 -1.8053 -0.3682 -0.8199
 5097SOL     OW26749   3.920   3.850  15.443 -0.2138  0.4786 -0.3547
 5097SOL    HW126750   3.852   3.892  15.390 -1.1695  1.5196  1.6905
 5097SOL    HW226751   3.897   3.758  15.436 -0.1450  0.3753  0.8343
 5098SOL     OW26752   1.283   3.507  16.998  0.3817 -0.0122  0.2278
 5098SOL    HW126753   1.218   3.499  17.068 -0.2296  1.3491 -0.1844
 5098SOL    HW226754   1.363   3.465  17.028 -0.0197 -3.1428 -3.0894
 5099SOL     OW26755   0.917   0.119  10.173  0.5606  0.3021 -0.1868
 5099SOL    HW126756   0.952   0.203  10.200 -2.9901  2.0574 -0.9915
 5099SOL    HW226757   0.906   0.152  10.083 -0.2048 -0.2539 -0.2960
 5100SOL     OW26758   0.009   0.226   4.866  0.1639 -0.0385  0.3914
 5100SOL    HW126759   0.101   0.203   4.860  0.0046 -0.0882 -1.5892
 5100SOL    HW226760   0.005   0.302   4.809 -0.0743  0.1697  0.6842
 5101SOL     OW26761   4.553   2.902   8.765  0.1238 -0.4829 -0.4568
 5101SOL    HW126762   4.632   2.953   8.745  0.3594 -1.1953 -1.3422
 5101SOL    HW226763   4.578   2.845   8.837 -0.0685  0.8336  0.6638
 5102SOL     OW26764   0.292   0.384   6.400  0.7843  0.5697 -0.0154
 5102SOL    HW126765   0.239   0.425   6.332  0.8720 -2.7362 -2.0858
 5102SOL    HW226766   0.290   0.446   6.472  0.7041  1.5237 -0.8354
 5103SOL     OW26767   3.277   0.574   7.173 -0.0903  0.1728 -0.5122
 5103SOL    HW126768   3.305   0.552   7.085  2.1964 -3.0057  1.0222
 5103SOL    HW226769   3.348   0.532   7.221 -0.1215  1.7083  0.8969
 5104SOL     OW26770   2.475   0.026   3.572  0.0044  0.5132  0.0039
 5104SOL    HW126771   2.384   0.003   3.554  0.0601 -0.4833  0.9545
 5104SOL    HW226772   2.463   0.086   3.645 -1.2860  1.2586 -0.8268
 5105SOL     OW26773   2.255   0.900   6.463 -0.6569  0.3369 -0.2552
 5105SOL    HW126774   2.269   0.852   6.381  0.9358 -0.0608  0.2671
 5105SOL    HW226775   2.341   0.900   6.505  0.5858  0.1772 -2.7569
 5106SOL     OW26776   0.957   1.094   7.318 -0.8040 -0.1616 -0.4082
 5106SOL    HW126777   0.990   1.087   7.408  0.6766  1.3459 -0.8282
 5106SOL    HW226778   0.863   1.098   7.336 -0.3811  0.3306  1.7528
 5107SOL     OW26779   2.581   3.775   7.043 -0.1528  0.0073  0.0157
 5107SOL    HW126780   2.619   3.695   7.007 -0.5395 -0.4184  0.5423
 5107SOL    HW226781   2.654   3.815   7.090 -0.6429  1.7453 -0.7122
 5108SOL     OW26782   1.209   1.824   8.936  0.0661  0.0377 -0.5690
 5108SOL    HW126783   1.299   1.851   8.918 -0.6186  0.6809 -2.9846
 5108SOL    HW226784   1.172   1.835   8.849 -0.8569  0.8432 -0.0809
 5109SOL     OW26785   1.528   1.164  16.467  0.0841 -0.2298  0.2237
 5109SOL    HW126786   1.500   1.075  16.447  0.1294 -0.3685  0.8045
 5109SOL    HW226787   1.445   1.211  16.467  0.9132  1.2386 -1.2134
 5110SOL     OW26788   2.568   3.148  16.888  0.2365  0.5344  0.0913
 5110SOL    HW126789   2.480   3.186  16.884  0.1833  0.1205 -3.1672
 5110SOL    HW226790   2.590   3.176  16.977  0.5002  0.4987  0.0371
 5111SOL     OW26791   0.610   4.432   9.691  0.1306 -0.1162  0.0525
 5111SOL    HW126792   0.596   4.417   9.784 -1.4726  0.6751 -0.0557
 5111SOL    HW226793   0.592   4.526   9.684  0.2649 -0.0138  1.1030
 5112SOL     OW26794   0.948   0.864   9.709 -0.6825  0.4134 -0.0318
 5112SOL    HW126795   0.855   0.864   9.688 -0.8659  0.0311  0.7778
 5112SOL    HW226796   0.977   0.923   9.640  1.5506 -0.1114  0.4536
 5113SOL     OW26797   3.295   4.628   6.322  0.5230 -0.3376  0.4317
 5113SOL    HW126798   3.238   4.690   6.367  0.0778 -1.8764  1.9591
 5113SOL    HW226799   3.332   4.585   6.399  3.3813  0.2504 -0.6202
 5114SOL     OW26800   3.573   1.987  10.039 -0.3284  0.2329 -0.3079
 5114SOL    HW126801   3.558   1.932  10.116  0.2346 -1.7358 -1.5974
 5114SOL    HW226802   3.492   1.970   9.990 -1.5109  1.6558  1.1420
 5115SOL     OW26803   4.037   2.438   8.571 -0.0803 -0.6121  0.7535
 5115SOL    HW126804   4.057   2.476   8.657 -0.1803 -1.2937  1.0714
 5115SOL    HW226805   4.129   2.421   8.551  0.3461  0.9941  1.3200
 5116SOL     OW26806   4.069   1.060   3.922 -0.4535 -0.4497  0.0589
 5116SOL    HW126807   4.157   1.062   3.961 -0.5308  0.7740  0.1804
 5116SOL    HW226808   4.020   1.075   4.003 -0.0966 -2.8226  0.6942
 5117SOL     OW26809   1.056   4.595   9.187  0.1110  0.0857  0.0994
 5117SOL    HW126810   1.022   4.685   9.188 -3.2416 -1.1784 -1.1223
 5117SOL    HW226811   1.120   4.595   9.258 -0.6005  2.7863  0.7621
 5118SOL     OW26812   3.899   3.621   4.512  0.3417 -0.0333 -0.4845
 5118SOL    HW126813   3.818   3.611   4.562  1.3166 -0.7985  0.9303
 5118SOL    HW226814   3.951   3.694   4.546 -2.4352  1.1126  1.2814
 5119SOL     OW26815   4.709   3.651   4.947  0.0708  0.1439  0.3975
 5119SOL    HW126816   4.677   3.701   5.022 -2.2296 -0.2581 -0.3385
 5119SOL    HW226817   0.060   3.699   4.911 -0.0459  0.4390  0.5439
 5120SOL     OW26818   2.627   1.550   3.916 -0.4125 -0.3774  0.0048
 5120SOL    HW126819   2.554   1.555   3.855 -1.0467  0.7269  0.8492
 5120SOL    HW226820   2.667   1.470   3.883  2.7133  0.4974  1.6546
 5121SOL     OW26821   0.381   0.911   6.881  0.2181  0.9089  0.0014
 5121SOL    HW126822   0.382   0.986   6.822  0.4890  0.2090 -0.8803
 5121SOL    HW226823   0.290   0.919   6.907 -0.3658 -1.5533 -1.2616
 5122SOL     OW26824   0.947   0.133   8.994 -0.5256  0.9699 -0.1803
 5122SOL    HW126825   0.953   0.140   9.089 -0.9991  3.0166 -0.3091
 5122SOL    HW226826   1.039   0.129   8.968 -0.9848  0.5373 -1.6956
 5123SOL     OW26827   1.335   3.225   7.011 -0.1072 -0.3805  0.4128
 5123SOL    HW126828   1.321   3.178   6.928 -1.0831 -1.2864  1.0815
 5123SOL    HW226829   1.430   3.227   7.019 -0.1223  2.2407 -0.1318
 5124SOL     OW26830   1.017   3.617  13.578  0.2263 -0.2149  0.1887
 5124SOL    HW126831   0.935   3.568  13.583  0.3379 -0.2593  1.8876
 5124SOL    HW226832   0.984   3.707  13.577 -0.6498 -0.5384  0.0389
 5125SOL     OW26833   0.563   2.037   5.373  0.0778 -0.0195 -0.6342
 5125SOL    HW126834   0.605   2.017   5.289 -2.6440  1.3690 -2.3109
 5125SOL    HW226835   0.582   1.959   5.426  0.0846 -0.5034 -1.3518
 5126SOL     OW26836   0.856   3.591   9.359 -0.0703 -0.4302  0.1516
 5126SOL    HW126837   0.893   3.503   9.372 -0.1312 -0.2016  1.9590
 5126SOL    HW226838   0.866   3.635   9.444 -3.0327  1.0309 -0.2716
 5127SOL     OW26839   0.729   2.442  17.391  0.2156 -0.3897  0.0244
 5127SOL    HW126840   0.686   2.463  17.474  1.0827  0.4252  0.2628
 5127SOL    HW226841   0.666   2.469  17.324 -2.1388 -0.0471  2.3691
 5128SOL     OW26842   1.330   0.233   8.171 -0.2492  0.3446  0.1074
 5128SOL    HW126843   1.263   0.193   8.226  0.1523 -0.5842 -0.0821
 5128SOL    HW226844   1.350   0.153   8.122 -0.5087  1.1438 -1.3069
 5129SOL     OW26845   2.380   3.631   5.107  0.0338 -0.4982 -0.3764
 5129SOL    HW126846   2.467   3.638   5.069 -1.1439  0.0600 -2.9640
 5129SOL    HW226847   2.382   3.714   5.155 -1.2503 -0.9849  0.5165
 5130SOL     OW26848   3.886   2.252   4.190  0.3459  1.1520 -0.6133
 5130SOL    HW126849   3.981   2.259   4.194  0.4555 -0.9896  0.1482
 5130SOL    HW226850   3.861   2.309   4.117 -0.3065  2.0582  0.3033
 5131SOL     OW26851   1.446   3.019   4.198  0.2132  0.0238  0.3420
 5131SOL    HW126852   1.354   3.017   4.175 -0.0251  0.9439  1.2270
 5131SOL    HW226853   1.466   3.112   4.187  0.9742 -0.5168 -2.7670
 5132SOL     OW26854   2.057   2.702  15.357 -0.0238  0.5107 -0.8302
 5132SOL    HW126855   1.991   2.765  15.386  1.1548  0.9467  0.8905
 5132SOL    HW226856   2.027   2.673  15.271 -0.0403 -0.2192 -0.5769
 5133SOL     OW26857   0.080   2.611   4.740 -0.1375 -0.2854  0.6278
 5133SOL    HW126858   0.099   2.701   4.767 -0.4943  0.1689 -0.6002
 5133SOL    HW226859   0.020   2.578   4.808 -1.3151 -0.2663 -0.3923
 5134SOL     OW26860   2.066   1.694  12.556 -0.5386 -0.0433  0.4855
 5134SOL    HW126861   2.037   1.783  12.536 -0.2327  0.2127  1.1856
 5134SOL    HW226862   2.161   1.697  12.560 -0.5825  0.3070  1.2477
 5135SOL     OW26863   0.313   2.010   9.753 -0.2409 -0.1170 -0.4446
 5135SOL    HW126864   0.312   1.923   9.793 -1.6696  0.1616  0.1346
 5135SOL    HW226865   0.334   1.983   9.663  1.7556 -1.6688  0.4822
 5136SOL     OW26866   3.343   0.293   6.081  0.1501 -0.2428 -0.0808
 5136SOL    HW126867   3.303   0.210   6.057 -2.4004  0.6495  1.1101
 5136SOL    HW226868   3.431   0.263   6.104 -0.6039 -2.0112  0.5195
 5137SOL     OW26869   2.299   2.533   5.549  1.1847 -0.1019 -0.4132
 5137SOL    HW126870   2.387   2.564   5.573  0.6410  0.5010  0.7862
 5137SOL    HW226871   2.298   2.549   5.455 -0.2286  0.8151 -0.2362
 5138SOL     OW26872   1.992   1.138  16.761  0.3798 -0.0294 -0.0240
 5138SOL    HW126873   2.044   1.159  16.683 -0.2921 -2.6628 -1.1577
 5138SOL    HW226874   1.926   1.207  16.768  0.6692 -0.0009  2.4812
 5139SOL     OW26875   0.143   2.317   4.403  0.0348  0.2580 -0.2764
 5139SOL    HW126876   0.170   2.236   4.360  0.0298 -0.3678  0.8878
 5139SOL    HW226877   0.106   2.358   4.325 -2.5991  0.4098  1.0352
 5140SOL     OW26878   0.863   0.387   8.952 -0.2355  0.2287  0.3725
 5140SOL    HW126879   0.889   0.295   8.950  0.8402  0.5397  0.2615
 5140SOL    HW226880   0.894   0.408   9.040  3.3498 -0.8072 -0.6415
 5141SOL     OW26881   1.964   3.926   0.779  0.5222 -0.1634  0.3200
 5141SOL    HW126882   1.998   3.963   0.860  0.5856 -1.7738  1.0183
 5141SOL    HW226883   2.022   3.853   0.761 -1.4140 -1.0503 -2.3406
 5142SOL     OW26884   2.392   0.990   4.823 -0.4064 -0.1151  1.0339
 5142SOL    HW126885   2.419   0.964   4.735  1.6087 -1.7648  2.1425
 5142SOL    HW226886   2.468   0.963   4.874  0.1094  1.3732  1.0590
 5143SOL     OW26887   1.438   2.207   0.725 -0.7822 -0.2230  0.1551
 5143SOL    HW126888   1.423   2.168   0.639  1.2189  0.0155 -0.2923
 5143SOL    HW226889   1.345   2.225   0.737  0.1555  2.9553  2.6848
 5144SOL     OW26890   1.228   3.501  12.777  0.7224 -0.4248  0.0661
 5144SOL    HW126891   1.285   3.578  12.784 -1.4748  1.2775 -0.7212
 5144SOL    HW226892   1.205   3.485  12.869 -2.7535 -0.9629 -0.8895
 5145SOL     OW26893   1.898   2.142  11.967 -0.7748  0.1598 -0.2785
 5145SOL    HW126894   1.987   2.114  11.946  0.6724  3.3215  1.6542
 5145SOL    HW226895   1.901   2.230  11.930 -1.0674  0.2691 -0.0399
 5146SOL     OW26896   1.673   1.691   5.875 -0.0185 -0.7685 -0.0407
 5146SOL    HW126897   1.659   1.757   5.807  1.0355 -1.5935 -1.0517
 5146SOL    HW226898   1.587   1.651   5.875 -0.4444  0.1261  0.6916
 5147SOL     OW26899   3.268   0.029   6.094 -0.5589  0.4202  0.2666
 5147SOL    HW126900   3.183   4.714   6.075 -0.2542  1.0228 -2.3467
 5147SOL    HW226901   3.281   4.706   6.176  1.6863 -1.0101 -0.9177
 5148SOL     OW26902   2.079   3.313  13.659 -0.5374  0.2135 -0.5302
 5148SOL    HW126903   2.074   3.220  13.682 -1.2498  0.3793 -0.0399
 5148SOL    HW226904   2.042   3.322  13.571  0.0058  0.5912 -0.7196
 5149SOL     OW26905   3.230   3.092   9.174 -0.4129  0.3056  0.3523
 5149SOL    HW126906   3.170   3.154   9.215 -1.3536 -0.0567 -0.4482
 5149SOL    HW226907   3.215   3.008   9.218 -3.4718  0.1761 -0.8868
 5150SOL     OW26908   0.231   1.988   6.996 -0.5688  0.0048 -0.2846
 5150SOL    HW126909   0.192   2.062   7.043  0.5704 -1.4307  2.9636
 5150SOL    HW226910   0.316   2.028   6.978  0.5220 -2.3282 -0.3096
 5151SOL     OW26911   1.760   4.623  14.146  0.1576 -0.3549  0.3856
 5151SOL    HW126912   1.828   4.683  14.175  1.4631 -1.3354 -0.6272
 5151SOL    HW226913   1.690   4.633  14.211  0.0004 -2.8049  0.6131
 5152SOL     OW26914   3.918   1.250   8.159  0.3188  0.3445 -0.0877
 5152SOL    HW126915   3.883   1.220   8.243  0.3036  0.6732  0.0246
 5152SOL    HW226916   3.854   1.205   8.104  1.0605 -0.7687 -0.0395
 5153SOL     OW26917   4.106   2.204   4.577 -0.0145 -0.4767 -0.0159
 5153SOL    HW126918   4.175   2.150   4.615  0.8227 -0.5490 -1.6599
 5153SOL    HW226919   4.140   2.292   4.596 -0.8399 -0.2593  0.4139
 5154SOL     OW26920   2.881   1.390   6.944  0.1544 -0.2937  0.3785
 5154SOL    HW126921   2.947   1.412   7.010 -0.0610 -2.4925  1.3054
 5154SOL    HW226922   2.822   1.341   7.001 -0.9059  0.1204 -0.3647
 5155SOL     OW26923   2.633   0.262   4.110 -0.0393 -0.6663 -0.8012
 5155SOL    HW126924   2.674   0.176   4.103  1.3828  0.1070 -1.7650
 5155SOL    HW226925   2.641   0.287   4.017  0.1118 -1.1421 -0.9131
 5156SOL     OW26926   2.898   3.570  10.104 -0.1696 -0.2573  0.2624
 5156SOL    HW126927   2.965   3.551  10.038 -1.7892 -4.5172 -0.1462
 5156SOL    HW226928   2.831   3.507  10.077 -1.6319  1.7052 -0.6538
 5157SOL     OW26929   2.769   0.300  11.551 -0.2414 -0.3256  0.3652
 5157SOL    HW126930   2.674   0.306  11.544 -0.1772 -0.2502 -0.4775
 5157SOL    HW226931   2.786   0.384  11.593 -1.9094  0.8854 -1.3983
 5158SOL     OW26932   1.540   0.459   2.682 -0.4457 -0.2201 -0.0795
 5158SOL    HW126933   1.568   0.398   2.614  1.3556  0.0906  0.3819
 5158SOL    HW226934   1.613   0.453   2.743 -0.6465  0.7906  0.2634
 5159SOL     OW26935   3.527   3.579   8.119  0.1702 -0.1290 -0.4744
 5159SOL    HW126936   3.472   3.523   8.173 -1.1845  0.7551 -0.9529
 5159SOL    HW226937   3.561   3.518   8.053 -0.5812 -1.3056  0.2309
 5160SOL     OW26938   0.880   0.104   8.695 -0.0645  0.2861  0.6898
 5160SOL    HW126939   0.926   0.025   8.722  0.3812  1.1856  2.6021
 5160SOL    HW226940   0.799   0.104   8.745 -0.3932  2.8492  0.1658
 5161SOL     OW26941   3.374   0.375   0.884  0.1371 -0.1918 -0.4050
 5161SOL    HW126942   3.359   0.451   0.941  1.4943 -0.1792 -0.0704
 5161SOL    HW226943   3.441   0.325   0.931 -1.1933 -0.5963  1.0998
 5162SOL     OW26944   4.459   1.008   1.448  0.0986  0.3959  0.0358
 5162SOL    HW126945   4.381   1.054   1.417 -0.7120  0.3995  2.0601
 5162SOL    HW226946   4.430   0.918   1.458  0.7374 -0.0064 -1.7860
 5163SOL     OW26947   1.740   1.497   7.460 -0.0235  0.3135 -0.2547
 5163SOL    HW126948   1.788   1.446   7.525 -0.4133 -0.2607 -0.4236
 5163SOL    HW226949   1.747   1.447   7.379 -1.7011  1.9038 -1.3868
 5164SOL     OW26950   0.777   3.105   4.110  0.0143 -0.4088 -0.3173
 5164SOL    HW126951   0.720   3.036   4.142 -1.3981  0.6832 -0.4825
 5164SOL    HW226952   0.716   3.126   4.039 -1.1366 -2.4263  0.0880
 5165SOL     OW26953   3.844   2.815  13.530  0.3512  0.6739 -0.0490
 5165SOL    HW126954   3.864   2.875  13.458 -0.3902  0.5952 -0.3192
 5165SOL    HW226955   3.875   2.739  13.481 -3.0878 -1.5252  1.2416
 5166SOL     OW26956   0.318   3.347   5.213  0.3802  0.9630  0.8227
 5166SOL    HW126957   0.249   3.290   5.248  0.6933 -1.0204 -1.7629
 5166SOL    HW226958   0.353   3.288   5.146 -3.2334 -2.9530  2.4188
 5167SOL     OW26959   3.840   0.875  16.015  0.1628  0.0353  0.0580
 5167SOL    HW126960   3.756   0.921  16.020 -0.4760 -0.9085 -1.8511
 5167SOL    HW226961   3.831   0.816  16.090  0.6152 -1.8284 -1.3424
 5168SOL     OW26962   1.251   1.758  12.506  0.2167 -0.1320  0.1180
 5168SOL    HW126963   1.196   1.829  12.472  0.7081  0.0958 -0.1987
 5168SOL    HW226964   1.313   1.752  12.433  1.8173 -0.8658  1.5581
 5169SOL     OW26965   3.247   3.241   8.760  0.3335  0.1603  0.1184
 5169SOL    HW126966   3.182   3.204   8.700 -1.3576 -1.0893  2.7092
 5169SOL    HW226967   3.189   3.226   8.835 -1.5009 -0.8913 -1.4896
 5170SOL     OW26968   2.562   0.570   5.168 -0.4103 -0.3272  0.3123
 5170SOL    HW126969   2.485   0.618   5.137 -0.1954 -0.1019  0.1310
 5170SOL    HW226970   2.526   0.493   5.212 -2.5171  0.3511 -0.2393
 5171SOL     OW26971   1.928   3.410   3.221 -0.1790  0.0384 -0.6554
 5171SOL    HW126972   1.938   3.382   3.130  0.0283 -0.6578 -0.4166
 5171SOL    HW226973   1.903   3.329   3.264  1.5618 -0.5921 -0.8128
 5172SOL     OW26974   0.817   2.890   8.533  0.0467  0.4777 -0.0070
 5172SOL    HW126975   0.882   2.841   8.484  0.7113  2.4837 -1.1277
 5172SOL    HW226976   0.867   2.911   8.612  2.0463 -0.9178 -0.9081
 5173SOL     OW26977   2.592   3.385  10.194  0.1787  0.3451  0.6076
 5173SOL    HW126978   2.675   3.401  10.239  0.7422  0.9807 -0.6504
 5173SOL    HW226979   2.523   3.445  10.221 -0.5205  0.7912 -2.2711
 5174SOL     OW26980   2.736   3.345   2.392 -0.2823  0.2947 -0.0970
 5174SOL    HW126981   2.720   3.315   2.481 -0.9509 -0.1565 -0.3664
 5174SOL    HW226982   2.811   3.290   2.371 -0.2035  0.0125  0.9458
 5175SOL     OW26983   3.069   2.674   3.152 -0.6976 -0.2086  0.6757
 5175SOL    HW126984   3.150   2.629   3.129 -0.2120  1.4811 -0.9529
 5175SOL    HW226985   3.048   2.628   3.233 -2.5498 -1.4496 -0.5133
 5176SOL     OW26986   4.351   1.442   2.048 -0.7417 -0.7037 -0.2754
 5176SOL    HW126987   4.255   1.444   2.050 -0.6989  1.5003 -1.0212
 5176SOL    HW226988   4.366   1.445   1.953  0.3394 -1.3691 -0.1222
 5177SOL     OW26989   1.814   1.331   7.643  0.1956 -0.1857  0.7397
 5177SOL    HW126990   1.859   1.275   7.707 -0.3713 -1.1992  0.2554
 5177SOL    HW226991   1.751   1.278   7.595 -0.4558  1.3463 -0.0987
 5178SOL     OW26992   1.972   3.191   6.843 -0.2951 -0.6094  0.2866
 5178SOL    HW126993   2.058   3.160   6.874 -0.4120 -1.4998 -0.2694
 5178SOL    HW226994   1.966   3.280   6.878 -0.2664 -0.3180 -0.4581
 5179SOL     OW26995   0.498   3.239   5.691 -0.0417 -0.0998  0.6825
 5179SOL    HW126996   0.520   3.294   5.616  0.0896 -2.9391 -1.3586
 5179SOL    HW226997   0.565   3.264   5.754 -0.7190  0.8871  1.0127
 5180SOL     OW26998   2.002   2.587  15.630 -0.2420 -0.5484 -0.3479
 5180SOL    HW126999   2.031   2.597  15.540 -1.3150 -1.6623 -0.8179
 5180SOL    HW227000   1.934   2.520  15.621 -0.1677 -0.8699  1.5486
 5181SOL     OW27001   3.976   3.979   2.360 -0.4935  0.1412 -0.4192
 5181SOL    HW127002   4.053   3.971   2.304  0.2564  1.2981  0.4627
 5181SOL    HW227003   3.946   3.889   2.371  2.1062 -0.4159  2.1275
 5182SOL     OW27004   0.703   3.214   8.378 -0.3206 -0.3163  0.5170
 5182SOL    HW127005   0.795   3.201   8.398  0.4300  0.1540 -2.6044
 5182SOL    HW227006   0.661   3.213   8.464  0.5044 -0.9167  0.9182
 5183SOL     OW27007   0.669   2.518   4.476 -0.7714 -0.0505  0.0343
 5183SOL    HW127008   0.758   2.485   4.463 -0.2800  0.8718  1.0658
 5183SOL    HW227009   0.638   2.484   4.560  0.3794 -0.4580  0.2882
 5184SOL     OW27010   2.354   1.653   6.090  0.5607 -0.1635  0.7459
 5184SOL    HW127011   2.379   1.566   6.121 -0.7250 -0.6080  0.5546
 5184SOL    HW227012   2.340   1.637   5.997 -0.4592  2.6125  0.4029
 5185SOL     OW27013   0.838   2.404   8.505 -0.4129 -0.3003  0.3197
 5185SOL    HW127014   0.745   2.396   8.487 -0.5829 -0.8099  1.4380
 5185SOL    HW227015   0.879   2.334   8.453  0.5525 -0.2375  0.9921
 5186SOL     OW27016   0.981   4.398   0.592 -0.4402 -0.3460 -0.1668
 5186SOL    HW127017   0.970   4.305   0.572  0.0018 -0.4789  0.2039
 5186SOL    HW227018   1.014   4.425   0.506  0.8589 -1.3820  0.0005
 5187SOL     OW27019   2.309   0.646  16.603 -0.3513  1.0137  0.0774
 5187SOL    HW127020   2.394   0.609  16.623 -0.6753  1.3956  2.2561
 5187SOL    HW227021   2.317   0.650  16.508  0.4989  2.4534  0.2087
 5188SOL     OW27022   1.847   4.072   5.515  0.2756  0.2980  0.0463
 5188SOL    HW127023   1.913   4.003   5.505 -1.1421 -1.3583  2.0003
 5188SOL    HW227024   1.836   4.101   5.424  0.4036 -0.0166 -0.0715
 5189SOL     OW27025   0.336   3.549   2.961 -0.0572  0.4716 -0.1377
 5189SOL    HW127026   0.274   3.478   2.944  0.0677 -0.2672  2.4369
 5189SOL    HW227027   0.283   3.608   3.016 -0.1391 -2.7261  3.2167
 5190SOL     OW27028   1.148   3.740   5.257  0.3839 -0.1817 -0.4735
 5190SOL    HW127029   1.139   3.834   5.269  0.1139 -0.2550 -0.0991
 5190SOL    HW227030   1.094   3.720   5.333  0.2173  1.0137 -0.2758
 5191SOL     OW27031   0.415   1.313   6.764 -0.5730  0.3665  0.0885
 5191SOL    HW127032   0.382   1.243   6.707  1.7520 -0.8665  0.2093
 5191SOL    HW227033   0.421   1.387   6.704 -1.2860  1.1158  0.9412
 5192SOL     OW27034   1.328   0.694  10.321  0.2753  0.6868 -0.6169
 5192SOL    HW127035   1.347   0.654  10.406 -0.8610  1.3125 -0.0603
 5192SOL    HW227036   1.269   0.631  10.278 -0.7478  2.2981 -1.5570
 5193SOL     OW27037   2.310   3.426   3.440 -0.0419  0.1048  0.0622
 5193SOL    HW127038   2.230   3.477   3.422  0.9176  1.6892  0.2590
 5193SOL    HW227039   2.266   3.342   3.450  0.9759 -0.4848 -0.4668
 5194SOL     OW27040   1.445   4.044  16.904 -0.1208  0.8230 -0.8911
 5194SOL    HW127041   1.409   3.957  16.886 -2.0500  2.0241 -2.8760
 5194SOL    HW227042   1.391   4.091  16.841  0.7687 -0.5716 -2.6832
 5195SOL     OW27043   3.816   2.001   7.785  0.0125 -0.1168  0.2109
 5195SOL    HW127044   3.904   1.970   7.766 -0.5380 -0.5782 -1.6103
 5195SOL    HW227045   3.825   2.051   7.866 -0.2155  0.1995  0.0409
 5196SOL     OW27046   4.243   0.115  10.863  0.1060  0.2687  0.3690
 5196SOL    HW127047   4.244   0.209  10.847 -1.1418 -0.0287 -1.4085
 5196SOL    HW227048   4.333   0.098  10.892  0.8707 -0.8651 -2.6902
 5197SOL     OW27049   0.712   0.502   1.754 -0.1508 -0.3609 -0.0064
 5197SOL    HW127050   0.704   0.409   1.735 -0.4956 -0.3648  0.1535
 5197SOL    HW227051   0.646   0.545   1.700  0.4777  0.9792  0.2893
 5198SOL     OW27052   3.184   1.410   4.344 -0.4113  0.6467  0.0528
 5198SOL    HW127053   3.240   1.333   4.353 -2.1122 -0.6584 -0.4901
 5198SOL    HW227054   3.155   1.393   4.255 -0.3803  1.5959 -0.1408
 5199SOL     OW27055   3.827   0.635   4.933 -0.6517 -0.0215  0.0930
 5199SOL    HW127056   3.816   0.584   4.853 -1.9171  3.1621 -1.7514
 5199SOL    HW227057   3.751   0.693   4.931  0.3909  1.3012 -1.1781
 5200SOL     OW27058   4.557   0.668   4.693 -0.8343 -0.2259  0.6234
 5200SOL    HW127059   4.627   0.645   4.754  0.3661  0.0196 -0.6787
 5200SOL    HW227060   4.482   0.632   4.742 -0.9912 -2.1592 -1.0287
 5201SOL     OW27061   0.457   1.740   8.251 -0.3316 -0.5429 -0.3383
 5201SOL    HW127062   0.377   1.703   8.214 -1.5894  1.5091  0.2999
 5201SOL    HW227063   0.497   1.665   8.295 -2.3239 -3.3488 -3.3659
 5202SOL     OW27064   1.870   0.593   5.138  0.1527  0.5945  0.6947
 5202SOL    HW127065   1.852   0.650   5.063  4.4313 -1.1277 -1.6609
 5202SOL    HW227066   1.906   0.656   5.200  2.7259 -0.4985  0.3035
 5203SOL     OW27067   1.386   1.898   8.654  0.6364 -0.1743 -0.1996
 5203SOL    HW127068   1.463   1.846   8.630  0.9639  0.6143 -0.8812
 5203SOL    HW227069   1.420   1.956   8.723 -0.2073 -1.6044  1.4367
 5204SOL     OW27070   3.703   2.655   6.208 -0.3354  0.6357  0.2180
 5204SOL    HW127071   3.767   2.686   6.273 -0.6912  3.6058 -0.8592
 5204SOL    HW227072   3.731   2.710   6.136 -0.7239  0.3005 -0.1898
 5205SOL     OW27073   0.914   0.126  11.027 -0.1331  0.0253 -0.3938
 5205SOL    HW127074   0.950   0.174  10.953 -0.1515  3.4582  1.8261
 5205SOL    HW227075   0.983   0.064  11.050  0.8233  0.4864 -2.0526
 5206SOL     OW27076   4.570   1.679  12.530 -0.6811 -0.1758  0.1940
 5206SOL    HW127077   4.493   1.650  12.579 -0.9285 -0.9867 -0.6604
 5206SOL    HW227078   4.618   1.724  12.599 -2.2892 -1.7208  2.3197
 5207SOL     OW27079   3.535   4.667   3.157  0.0708  0.2749 -0.4516
 5207SOL    HW127080   3.498   0.028   3.137 -3.4905 -1.4047 -1.0265
 5207SOL    HW227081   3.469   4.639   3.221 -0.2826 -0.3273 -1.0871
 5208SOL     OW27082   1.984   1.005   3.309  0.7099  0.1369  0.4326
 5208SOL    HW127083   2.008   0.938   3.373  0.7270 -1.2714 -1.0535
 5208SOL    HW227084   2.048   1.071   3.338 -1.1777  1.9811  0.3798
 5209SOL     OW27085   0.401   0.236   3.912  0.1388 -0.5412  0.0500
 5209SOL    HW127086   0.358   0.175   3.973  0.6808 -0.3413  0.6355
 5209SOL    HW227087   0.437   0.184   3.840  0.7778 -0.0762  0.0364
 5210SOL     OW27088   4.362   0.894   7.431  0.3425  0.6241 -0.3499
 5210SOL    HW127089   4.453   0.919   7.416 -0.0880  2.4831  0.1115
 5210SOL    HW227090   4.340   0.973   7.481  1.8365  0.3905  0.6891
 5211SOL     OW27091   3.903   3.928  12.477 -0.9201  0.7952 -0.3439
 5211SOL    HW127092   3.846   3.852  12.476  0.0972 -0.0079  3.9252
 5211SOL    HW227093   3.968   3.895  12.415  1.5481  2.6350  1.2248
 5212SOL     OW27094   3.012   0.426   6.256 -0.2312 -0.2720 -0.1024
 5212SOL    HW127095   2.974   0.339   6.252  1.5585 -0.9692 -2.5040
 5212SOL    HW227096   2.967   0.465   6.181 -0.9984  0.3673  0.6880
 5213SOL     OW27097   0.277   3.304  13.040  0.2440 -0.0519  0.3381
 5213SOL    HW127098   0.308   3.250  13.112  1.0953 -0.3570 -0.2636
 5213SOL    HW227099   0.274   3.243  12.966  1.6938  1.1762 -0.7393
 5214SOL     OW27100   3.620   0.291   2.508  0.2821  0.0134 -0.9522
 5214SOL    HW127101   3.652   0.202   2.527 -0.4448 -0.4090 -1.6969
 5214SOL    HW227102   3.587   0.274   2.420 -0.7085 -0.9945 -0.3825
 5215SOL     OW27103   0.357   4.575   7.227  0.1490  0.6267  0.3269
 5215SOL    HW127104   0.394   4.653   7.267 -0.4400  0.3236  1.4435
 5215SOL    HW227105   0.411   4.506   7.264 -3.3939 -1.1756  2.0930
 5216SOL     OW27106   1.775   2.950   1.864  0.0723 -0.4148  0.5272
 5216SOL    HW127107   1.763   3.043   1.883 -2.9807 -0.1760 -2.6106
 5216SOL    HW227108   1.848   2.953   1.802 -1.2135 -1.0188 -1.0122
 5217SOL     OW27109   3.330   4.504  17.448  0.4632  0.4765  0.5441
 5217SOL    HW127110   3.308   4.592  17.417 -0.5879  0.5282  1.4379
 5217SOL    HW227111   3.247   4.475  17.485 -0.2729  1.1315 -0.5999
 5218SOL     OW27112   2.825   3.364   9.708  1.0715 -1.2258 -0.0554
 5218SOL    HW127113   2.840   3.353   9.802 -1.3293  1.5127  0.6337
 5218SOL    HW227114   2.732   3.341   9.700  0.6044  0.8470 -0.3571
 5219SOL     OW27115   0.695   2.240   5.142  0.2465 -0.8460  0.0508
 5219SOL    HW127116   0.726   2.153   5.169 -1.6673 -0.5521  3.1558
 5219SOL    HW227117   0.775   2.284   5.112 -0.4304 -1.1166 -2.2040
 5220SOL     OW27118   2.964   0.289   5.338 -0.0656 -0.4424  0.2244
 5220SOL    HW127119   2.891   0.254   5.286  1.1249 -0.3916 -1.4696
 5220SOL    HW227120   2.973   0.216   5.399 -0.9976 -0.9364 -0.2247
 5221SOL     OW27121   1.296   0.003   4.563  0.1707 -0.5554 -0.5077
 5221SOL    HW127122   1.356   0.061   4.609 -1.1514  0.7922 -0.4971
 5221SOL    HW227123   1.360   4.658   4.545  0.8264  0.4841 -2.1113
 5222SOL     OW27124   1.946   0.988  16.234  0.1745 -0.1410 -0.3360
 5222SOL    HW127125   1.977   1.030  16.154 -1.2367 -0.4288 -1.0170
 5222SOL    HW227126   1.947   0.895  16.211  0.5963 -0.8234  2.4387
 5223SOL     OW27127   4.706   0.890   7.614  0.5400  0.2561 -0.0525
 5223SOL    HW127128   0.048   0.954   7.640 -0.3468  2.0965 -2.2480
 5223SOL    HW227129   4.636   0.896   7.679  0.2202 -0.8830 -0.2863
 5224SOL     OW27130   0.724   1.106   1.997  0.6602  0.0983  0.1830
 5224SOL    HW127131   0.749   1.017   2.020  0.5755  0.1757  0.5913
 5224SOL    HW227132   0.630   1.086   1.995  0.7189 -0.4180  2.2836
 5225SOL     OW27133   1.508   1.243  13.626 -0.1727 -0.4573  0.1276
 5225SOL    HW127134   1.527   1.189  13.702 -0.3864  1.1131  1.2936
 5225SOL    HW227135   1.413   1.250  13.633 -0.0194  0.2673  1.4357
 5226SOL     OW27136   4.378   3.488  11.846 -0.2683  0.3970  0.1649
 5226SOL    HW127137   4.326   3.459  11.920 -1.2683  3.4540  0.6200
 5226SOL    HW227138   4.411   3.571  11.879 -1.0141  0.2649  1.2357
 5227SOL     OW27139   4.195   0.188   6.446  0.2026 -0.5340 -0.0375
 5227SOL    HW127140   4.139   0.125   6.491  0.3621 -0.3572  0.4073
 5227SOL    HW227141   4.135   0.261   6.462  0.3737  0.4212 -3.8267
 5228SOL     OW27142   2.726   3.032   1.910  0.0477 -0.4498  0.5696
 5228SOL    HW127143   2.747   3.093   1.980 -1.2969  1.7548 -0.9585
 5228SOL    HW227144   2.698   3.088   1.837 -2.0927 -0.4122  1.4325
 5229SOL     OW27145   4.114   1.104   6.504 -0.4221 -0.0655 -0.0941
 5229SOL    HW127146   4.073   1.189   6.486 -0.7108 -0.8016 -2.8111
 5229SOL    HW227147   4.192   1.137   6.548 -1.6670  0.4559  1.7594
 5230SOL     OW27148   0.890   4.487   8.529 -0.7502  0.2094 -0.3639
 5230SOL    HW127149   0.853   4.402   8.552 -1.9557  1.0300  0.7237
 5230SOL    HW227150   0.943   4.502   8.607  0.7282  0.3372 -1.3931
 5231SOL     OW27151   0.111   3.475  15.812  0.3746  0.1241  0.1042
 5231SOL    HW127152   0.206   3.476  15.826  0.4700  1.9167 -0.5867
 5231SOL    HW227153   0.103   3.554  15.759  1.2102  0.3502  0.3027
 5232SOL     OW27154   1.600   2.743  14.558 -0.3782 -0.0334 -0.5482
 5232SOL    HW127155   1.603   2.815  14.496 -0.3931  0.2201 -0.2550
 5232SOL    HW227156   1.692   2.720  14.573  0.5203  3.0654 -1.3653
 5233SOL     OW27157   4.319   1.748   6.073  0.4170 -0.0920 -0.2095
 5233SOL    HW127158   4.309   1.656   6.095 -2.0369 -0.2115 -1.8319
 5233SOL    HW227159   4.262   1.759   5.997  1.5266  1.0272 -0.8832
 5234SOL     OW27160   1.972   1.622   2.727 -0.3103 -0.3500  0.6228
 5234SOL    HW127161   2.005   1.539   2.763  0.5941  0.0704  0.7711
 5234SOL    HW227162   1.884   1.610   2.693 -0.8365 -0.4662  2.0297
 5235SOL     OW27163   4.625   1.230   7.354 -0.0469  0.1786  0.7667
 5235SOL    HW127164   4.603   1.143   7.320 -2.1437  1.7270 -1.8338
 5235SOL    HW227165   4.618   1.272   7.269  0.5374 -2.4290 -0.5796
 5236SOL     OW27166   2.779   0.471   6.570  0.1255  0.0055 -0.2816
 5236SOL    HW127167   2.725   0.484   6.648 -0.7771 -1.7987 -0.5989
 5236SOL    HW227168   2.865   0.451   6.604 -0.1702  0.5937  0.8042
 5237SOL     OW27169   2.045   1.538   0.235 -0.3172 -0.1713 -0.3372
 5237SOL    HW127170   2.021   1.446   0.247  0.7418 -0.1734  1.7482
 5237SOL    HW227171   1.957   1.577   0.230 -0.4747 -0.5782 -0.7269
 5238SOL     OW27172   2.834   3.753   3.461 -0.4592 -0.1694 -0.3886
 5238SOL    HW127173   2.818   3.841   3.426  0.6834  0.2874  0.2553
 5238SOL    HW227174   2.745   3.739   3.494 -0.3285 -0.3550 -0.1263
 5239SOL     OW27175   2.224   1.641   7.438 -0.5557 -0.1807  0.1351
 5239SOL    HW127176   2.222   1.562   7.385 -0.0606 -0.8076  1.0509
 5239SOL    HW227177   2.177   1.616   7.517  1.3978 -0.4227  1.2329
 5240SOL     OW27178   2.630   3.721  11.488  0.3308 -0.1602  0.0048
 5240SOL    HW127179   2.654   3.814  11.487 -0.2683 -0.0073 -0.1908
 5240SOL    HW227180   2.538   3.718  11.460 -0.1757  1.1171  1.4755
 5241SOL     OW27181   3.337   2.737  16.774  0.1081 -0.9747 -0.2493
 5241SOL    HW127182   3.345   2.736  16.679  1.6516 -2.3895 -0.0882
 5241SOL    HW227183   3.329   2.646  16.802 -0.1463 -0.1112  2.5409
 5242SOL     OW27184   2.898   4.053   6.776  0.3889  0.4670  0.6740
 5242SOL    HW127185   2.970   4.032   6.718 -0.3523 -0.8113  0.2190
 5242SOL    HW227186   2.891   3.974   6.831 -0.6127 -0.1570 -0.3550
 5243SOL     OW27187   4.530   2.186   6.190 -0.6815 -0.3786  0.3674
 5243SOL    HW127188   4.527   2.095   6.218  0.7994 -0.6905 -0.5065
 5243SOL    HW227189   4.451   2.183   6.137 -0.1782 -3.0652 -0.2390
 5244SOL     OW27190   4.089   1.970   7.503  0.3323 -0.1207  0.1792
 5244SOL    HW127191   3.998   1.994   7.484  1.0877  1.9809 -0.7932
 5244SOL    HW227192   4.076   1.943   7.594  0.8291 -1.2953 -0.1014
 5245SOL     OW27193   3.975   4.299  11.275 -0.2356  0.0690  0.0212
 5245SOL    HW127194   3.953   4.335  11.189  0.8523  1.2438  0.2398
 5245SOL    HW227195   3.897   4.249  11.299 -0.7359  0.3796 -0.9627
 5246SOL     OW27196   1.061   3.915   9.675  1.0357  0.4052 -0.0212
 5246SOL    HW127197   1.125   3.893   9.607  4.3969 -1.0714  3.6174
 5246SOL    HW227198   1.109   3.977   9.730 -1.7918  0.4891  2.3489
 5247SOL     OW27199   2.310   1.275   6.525 -0.1621 -0.0681  0.4137
 5247SOL    HW127200   2.250   1.264   6.452 -1.4318 -1.1723  1.6313
 5247SOL    HW227201   2.273   1.217   6.592  0.7244  0.7555  1.6260
 5248SOL     OW27202   2.901   1.499   5.809 -0.2362  0.1999  0.1521
 5248SOL    HW127203   2.985   1.521   5.849 -0.8858 -0.0999  1.6802
 5248SOL    HW227204   2.901   1.553   5.729 -1.1915 -0.0696 -0.0315
 5249SOL     OW27205   0.169   3.751   9.925 -0.6036 -0.0255  0.4059
 5249SOL    HW127206   0.134   3.718  10.008 -0.8364 -1.2633 -0.1737
 5249SOL    HW227207   0.105   3.821   9.916  0.2492  0.8904  1.6078
 5250SOL     OW27208   1.779   1.057  13.687  0.3083 -0.6118  0.7345
 5250SOL    HW127209   1.700   1.066  13.741 -1.2133  1.0015 -1.7618
 5250SOL    HW227210   1.745   0.975  13.651 -1.9241  0.8049 -0.4012
 5251SOL     OW27211   2.175   2.383   5.075  0.2168  0.2731 -0.3855
 5251SOL    HW127212   2.180   2.354   4.984 -1.9477 -0.9034 -0.1533
 5251SOL    HW227213   2.105   2.448   5.078 -1.1144 -1.2634  1.7114
 5252SOL     OW27214   2.855   2.573  16.393  0.6118  0.1890 -0.0642
 5252SOL    HW127215   2.903   2.593  16.473 -1.2903  0.8358  0.9081
 5252SOL    HW227216   2.839   2.662  16.361 -0.5369  0.3751  1.0060
 5253SOL     OW27217   2.045   3.782   7.010 -0.9625 -0.8627 -0.7330
 5253SOL    HW127218   2.039   3.864   7.059 -0.7237 -1.9097  1.0581
 5253SOL    HW227219   2.069   3.736   7.090 -1.9240 -1.3186 -0.7019
 5254SOL     OW27220   3.974   1.423  10.742  0.2368 -0.0068 -0.4586
 5254SOL    HW127221   4.039   1.477  10.697  0.7840 -1.5564 -1.5102
 5254SOL    HW227222   3.904   1.487  10.736  0.2488  0.0969  0.4207
 5255SOL     OW27223   0.192   1.282   1.633  0.1218 -0.0698  0.1373
 5255SOL    HW127224   0.155   1.345   1.572 -0.3416  0.1837  0.6806
 5255SOL    HW227225   0.115   1.252   1.682  0.4069  0.2777  0.7864
 5256SOL     OW27226   4.105   2.119  11.274 -0.4604  0.4744 -0.3263
 5256SOL    HW127227   4.178   2.168  11.237 -1.7273  1.7274 -1.1199
 5256SOL    HW227228   4.026   2.169  11.255  0.7031  3.0662  1.6423
 5257SOL     OW27229   2.310   0.812  10.413  0.0225  0.1489 -0.7330
 5257SOL    HW127230   2.377   0.758  10.371  0.4819 -1.2643  1.8281
 5257SOL    HW227231   2.236   0.770  10.370 -0.3123  0.9780 -0.9683
 5258SOL     OW27232   2.707   1.164   2.668  0.0745  0.2618 -0.1189
 5258SOL    HW127233   2.650   1.226   2.621 -1.2361  0.2334  1.4185
 5258SOL    HW227234   2.723   1.093   2.606  1.4121 -0.2253  0.8067
 5259SOL     OW27235   4.705   2.493   4.985  0.5772 -0.6483 -0.8528
 5259SOL    HW127236   4.657   2.467   5.064  1.5068  0.5969  0.1094
 5259SOL    HW227237   0.063   2.487   5.032  0.2131  0.6930 -0.0506
 5260SOL     OW27238   3.862   0.167  12.819 -0.1921 -0.3555  0.2528
 5260SOL    HW127239   3.919   0.131  12.751  0.1891 -0.2293  0.5108
 5260SOL    HW227240   3.890   0.258  12.822 -1.9580  0.2387 -0.9916
 5261SOL     OW27241   4.366   2.260   8.388  0.3089  0.2578  0.0052
 5261SOL    HW127242   4.326   2.347   8.386  2.9976  1.5287  1.9849
 5261SOL    HW227243   4.312   2.208   8.448 -0.6603  1.4650  0.1634
 5262SOL     OW27244   1.801   3.583   4.186  0.3369  0.0564 -0.2247
 5262SOL    HW127245   1.841   3.542   4.109 -0.5792  1.5308 -1.4794
 5262SOL    HW227246   1.852   3.543   4.257 -0.3748  1.8509  1.2725
 5263SOL     OW27247   4.402   2.515   6.502  0.5230  0.4373  0.0964
 5263SOL    HW127248   4.398   2.501   6.597  0.3269 -1.2749 -0.1573
 5263SOL    HW227249   4.401   2.422   6.476 -1.5338 -0.5084  3.5830
 5264SOL     OW27250   3.499   2.310  10.714 -0.2891  0.1067 -0.1532
 5264SOL    HW127251   3.406   2.288  10.721  0.4992 -2.9984  0.3249
 5264SOL    HW227252   3.495   2.386  10.655  1.1949  0.9645  0.8613
 5265SOL     OW27253   1.528   2.931   9.245 -0.0837 -0.3607 -0.6198
 5265SOL    HW127254   1.588   2.900   9.313 -0.0089 -1.0119 -0.9839
 5265SOL    HW227255   1.445   2.914   9.290  0.5253 -2.8555 -0.4436
 5266SOL     OW27256   2.063   2.303   9.046 -0.4617  0.6979  0.0721
 5266SOL    HW127257   2.037   2.286   8.955  0.3182  1.4341 -0.2827
 5266SOL    HW227258   1.979   2.328   9.085 -1.3540  2.3847 -2.9665
 5267SOL     OW27259   1.448   1.171  12.992 -0.8819  0.0271  0.2723
 5267SOL    HW127260   1.493   1.105  13.043 -0.2294 -1.3286 -2.0348
 5267SOL    HW227261   1.371   1.169  13.049 -0.7465  0.5327  0.4761
 5268SOL     OW27262   2.955   2.001   4.157 -0.0956 -0.3680  0.1822
 5268SOL    HW127263   3.018   2.038   4.218 -1.2187  0.4412  0.8359
 5268SOL    HW227264   2.934   2.081   4.109 -0.2513  0.0507  0.9506
 5269SOL     OW27265   3.069   0.380   3.184  0.1907 -0.5494  0.6852
 5269SOL    HW127266   3.091   0.288   3.201 -0.5609 -0.8771 -0.1177
 5269SOL    HW227267   2.975   0.384   3.169  0.5519  0.9433 -1.0820
 5270SOL     OW27268   1.442   4.129   6.034 -0.1743 -0.7401 -0.3417
 5270SOL    HW127269   1.384   4.203   6.051  0.9244  0.0162  0.0775
 5270SOL    HW227270   1.442   4.127   5.938  1.3692  2.2527 -0.3982
 5271SOL     OW27271   3.611   1.555   8.609 -0.3815  0.2872 -0.6891
 5271SOL    HW127272   3.559   1.513   8.677  0.6634 -0.5032 -0.3772
 5271SOL    HW227273   3.614   1.489   8.540 -2.0158 -0.6247  0.1188
 5272SOL     OW27274   2.152   2.743  17.390  0.2785  0.7002  0.8671
 5272SOL    HW127275   2.069   2.774  17.426 -0.3143 -0.5667  0.5959
 5272SOL    HW227276   2.199   2.699  17.461  1.2221  1.5710  0.7778
 5273SOL     OW27277   1.944   2.673   4.346  0.1328  0.1288  0.4510
 5273SOL    HW127278   2.031   2.633   4.336  0.0603 -0.3788  1.9797
 5273SOL    HW227279   1.922   2.665   4.438 -0.8249 -2.5389 -0.0068
 5274SOL     OW27280   4.067   3.087   4.922  0.0419 -0.1958  0.2101
 5274SOL    HW127281   4.015   3.136   4.985 -0.9726 -0.0482 -0.7397
 5274SOL    HW227282   4.090   3.164   4.869  1.3844 -1.1229 -0.5623
 5275SOL     OW27283   2.128   4.375  11.384 -0.1784 -0.4709  0.5411
 5275SOL    HW127284   2.183   4.299  11.366  0.2857 -0.3656  1.5001
 5275SOL    HW227285   2.176   4.449  11.348 -0.4941 -0.0651  0.9485
 5276SOL     OW27286   0.264   3.812   5.622  0.0849 -0.3328  0.4802
 5276SOL    HW127287   0.313   3.773   5.550  0.6653  0.8032  0.2706
 5276SOL    HW227288   0.288   3.903   5.608 -0.8836  0.5313  4.3978
 5277SOL     OW27289   1.445   2.847   5.267 -0.7469  0.5361 -0.9255
 5277SOL    HW127290   1.381   2.912   5.296 -0.0328  1.7168 -2.0270
 5277SOL    HW227291   1.422   2.779   5.330 -2.3567  0.4166 -1.6512
 5278SOL     OW27292   1.625   4.503   8.287  0.2014 -0.0482 -0.2313
 5278SOL    HW127293   1.666   4.588   8.303 -1.5262  0.7249  0.0004
 5278SOL    HW227294   1.662   4.495   8.199 -1.1998 -0.8105 -0.7483
 5279SOL     OW27295   0.268   0.493   5.072  0.5622 -0.4482 -0.1063
 5279SOL    HW127296   0.248   0.534   4.988 -0.5211  1.6421  1.1564
 5279SOL    HW227297   0.202   0.538   5.125  0.9507 -0.1976  0.1661
 5280SOL     OW27298   0.063   1.037   8.704 -0.2256 -0.1388 -0.0699
 5280SOL    HW127299   0.022   0.973   8.762  0.8265 -0.2245  0.5808
 5280SOL    HW227300   4.710   1.090   8.687 -0.3462 -0.5184 -0.7348
 5281SOL     OW27301   3.585   2.248   7.760  0.2999 -0.5238 -0.0445
 5281SOL    HW127302   3.656   2.252   7.824 -0.0125 -0.8057  0.3226
 5281SOL    HW227303   3.521   2.307   7.800 -0.4180 -1.8444  0.7363
 5282SOL     OW27304   2.337   2.653  13.818  0.5730  0.4241 -0.0530
 5282SOL    HW127305   2.361   2.561  13.805 -1.9456 -0.0117 -1.5939
 5282SOL    HW227306   2.346   2.651  13.913 -1.0056  0.2801  0.0861
 5283SOL     OW27307   0.438   3.854   4.787  0.4687 -0.4158 -0.1829
 5283SOL    HW127308   0.465   3.938   4.752 -0.5294  0.2186  0.5945
 5283SOL    HW227309   0.464   3.795   4.716  0.1166 -0.1975 -0.4876
 5284SOL     OW27310   2.154   0.780   6.096  0.2135 -0.2649  0.2468
 5284SOL    HW127311   2.207   0.754   6.172  1.5301 -1.0494 -0.9554
 5284SOL    HW227312   2.178   0.711   6.035  1.4997  1.2236 -0.9468
 5285SOL     OW27313   0.664   0.099   2.441  0.3061 -0.2220  0.5531
 5285SOL    HW127314   0.704   0.148   2.513 -1.9667  3.8369 -0.9412
 5285SOL    HW227315   0.736   0.038   2.423  0.1251 -0.4409  0.5755
 5286SOL     OW27316   4.451   4.523   0.973 -0.0976  0.0166  0.4186
 5286SOL    HW127317   4.477   4.464   0.903 -1.0382  1.2643 -0.9848
 5286SOL    HW227318   4.373   4.563   0.936 -0.5111 -0.4931  0.7501
 5287SOL     OW27319   0.618   0.990   6.967  0.1403  0.4287 -0.0159
 5287SOL    HW127320   0.604   1.014   7.058  0.0728  1.7750 -0.3889
 5287SOL    HW227321   0.535   0.952   6.940 -0.6536  2.5621 -0.5241
 5288SOL     OW27322   1.133   0.681   7.523  0.5812  0.1697  0.2059
 5288SOL    HW127323   1.155   0.698   7.614  0.5696  1.6110 -0.0654
 5288SOL    HW227324   1.198   0.615   7.500  1.5901  1.2437  0.0217
 5289SOL     OW27325   2.509   0.688  16.941 -0.3516  0.7146  0.0993
 5289SOL    HW127326   2.472   0.769  16.904  0.2372  1.4499  1.1194
 5289SOL    HW227327   2.604   0.699  16.947 -0.3363 -0.1379  1.1643
 5290SOL     OW27328   2.410   2.351   7.219  0.6435  0.1496  0.2892
 5290SOL    HW127329   2.325   2.311   7.203  1.6075 -2.3297  1.3544
 5290SOL    HW227330   2.408   2.416   7.150  0.7817 -0.4789 -0.3066
 5291SOL     OW27331   2.017   2.307   6.497  0.5749  0.0627  0.0012
 5291SOL    HW127332   2.009   2.273   6.586  0.0381 -1.8738 -0.7808
 5291SOL    HW227333   1.981   2.395   6.501  1.0276  0.1458  2.0710
 5292SOL     OW27334   0.890   3.654   4.356  0.0432 -0.2931 -0.0412
 5292SOL    HW127335   0.828   3.725   4.371 -0.0319 -0.2583 -0.5203
 5292SOL    HW227336   0.952   3.659   4.429 -1.1870 -1.7961  1.1092
 5293SOL     OW27337   2.924   4.216   2.551  0.3001  0.6776 -0.1991
 5293SOL    HW127338   2.996   4.218   2.487 -1.5171 -0.7341 -2.2884
 5293SOL    HW227339   2.850   4.223   2.491 -0.2220 -1.1569  0.2359
 5294SOL     OW27340   4.246   3.454  17.271  0.1766  0.3374  0.3139
 5294SOL    HW127341   4.175   3.400  17.306  2.1712 -1.1291  2.1346
 5294SOL    HW227342   4.223   3.450  17.179 -1.0218 -1.7718  0.6927
 5295SOL     OW27343   0.400   2.343   0.209  0.3026 -0.3526 -0.0591
 5295SOL    HW127344   0.325   2.374   0.260  0.8108  0.4590  0.2058
 5295SOL    HW227345   0.361   2.270   0.162 -1.5898  0.2576  0.5203
 5296SOL     OW27346   3.158   1.700  15.135 -0.1174  0.2337  0.6422
 5296SOL    HW127347   3.213   1.644  15.189 -1.2068 -0.8805  0.5845
 5296SOL    HW227348   3.164   1.669  15.045 -0.1829  1.8226  0.0929
 5297SOL     OW27349   3.897   4.688   7.253 -0.0569 -0.2268 -0.0986
 5297SOL    HW127350   3.808   4.674   7.285  0.1994  0.2633  0.8356
 5297SOL    HW227351   3.922   4.596   7.240  0.8222 -0.1529  1.0307
 5298SOL     OW27352   4.400   4.075  11.987 -0.1143  0.6811  0.2848
 5298SOL    HW127353   4.400   4.048  11.895 -0.0320  3.2097 -0.4585
 5298SOL    HW227354   4.495   4.075  11.999 -0.1856  1.0387  0.8301
 5299SOL     OW27355   4.291   0.538   1.963 -0.0722  0.2077 -0.2689
 5299SOL    HW127356   4.259   0.536   2.053 -0.6763  1.5996 -0.4588
 5299SOL    HW227357   4.247   0.458   1.936 -1.1275  0.9890 -0.8529
 5300SOL     OW27358   2.901   2.077   8.083 -0.1737  0.2092  0.1968
 5300SOL    HW127359   2.895   1.987   8.115 -2.6441  0.6385  0.9430
 5300SOL    HW227360   2.890   2.129   8.162  0.0831 -0.1852  0.4943
 5301SOL     OW27361   3.459   2.280  11.017 -0.4257  0.2458 -0.0559
 5301SOL    HW127362   3.530   2.217  11.006 -0.1639  0.5736 -0.2804
 5301SOL    HW227363   3.501   2.347  10.962  0.8631 -0.3588  0.1915
 5302SOL     OW27364   4.308   0.901   3.746  0.1438 -0.6155 -0.7667
 5302SOL    HW127365   4.376   0.895   3.813 -0.6690  0.5254  0.1497
 5302SOL    HW227366   4.330   0.989   3.715  1.7253 -0.8972 -0.4430
 5303SOL     OW27367   0.350   1.279   8.590  0.4797  0.3421 -0.2241
 5303SOL    HW127368   0.301   1.236   8.661 -0.2173 -0.0529 -0.9489
 5303SOL    HW227369   0.442   1.281   8.618  0.4636 -0.8655 -0.0617
 5304SOL     OW27370   4.569   3.180   6.850  0.7197 -0.1056  0.3371
 5304SOL    HW127371   4.612   3.122   6.787 -0.4820 -0.2356 -0.3744
 5304SOL    HW227372   4.506   3.118   6.887  0.3700 -0.0958 -0.2408
 5305SOL     OW27373   1.070   1.482   7.379  0.2884  0.0397  0.1375
 5305SOL    HW127374   1.097   1.572   7.400  1.5174 -0.4385  0.6280
 5305SOL    HW227375   1.021   1.491   7.298  1.0046 -2.0569 -0.5253
 5306SOL     OW27376   4.378   3.531   3.676 -0.5050 -0.0913 -0.2728
 5306SOL    HW127377   4.284   3.513   3.680 -0.2907 -1.4936 -1.3045
 5306SOL    HW227378   4.387   3.590   3.750  1.3293 -1.5750  0.6918
 5307SOL     OW27379   1.072   1.069   1.410 -0.5045  0.1055  0.2539
 5307SOL    HW127380   1.025   1.008   1.468 -0.0478 -1.2350 -0.7764
 5307SOL    HW227381   1.045   1.153   1.447  1.7894  0.7591  0.4311
 5308SOL     OW27382   2.938   2.540   2.094 -0.1737  0.1891  0.2762
 5308SOL    HW127383   2.935   2.552   2.189 -1.7038 -0.5945  0.3254
 5308SOL    HW227384   2.848   2.515   2.074  0.4809 -1.5664 -0.5091
 5309SOL     OW27385   2.342   1.305  14.887 -0.0384 -0.5785  0.1925
 5309SOL    HW127386   2.345   1.330  14.980  2.1956  0.0355 -0.0526
 5309SOL    HW227387   2.393   1.374  14.844 -1.1760 -1.3744 -2.4145
 5310SOL     OW27388   0.712   0.496   9.684  0.0553  0.1744  0.0641
 5310SOL    HW127389   0.656   0.526   9.755 -0.2586  0.7872 -0.4466
 5310SOL    HW227390   0.658   0.506   9.606 -1.0774  1.4578  1.0235
 5311SOL     OW27391   2.228   0.561   8.206  0.1653 -0.1955 -0.0372
 5311SOL    HW127392   2.246   0.653   8.188  0.6042 -0.3869 -0.6020
 5311SOL    HW227393   2.227   0.539   8.113  3.1894  0.0770 -0.1616
 5312SOL     OW27394   4.156   0.212   6.746  0.2507  0.2151 -0.0070
 5312SOL    HW127395   4.098   0.282   6.773 -1.3697 -1.0840 -0.1194
 5312SOL    HW227396   4.243   0.247   6.763  1.1327 -1.1544 -1.6290
 5313SOL     OW27397   2.289   1.592   8.640 -0.0815 -0.0104  0.0259
 5313SOL    HW127398   2.243   1.676   8.651 -0.1073 -0.0861  0.5119
 5313SOL    HW227399   2.359   1.610   8.703  0.2443  1.5603 -0.7721
 5314SOL     OW27400   4.154   3.804  10.064  0.0828  0.0861  0.1424
 5314SOL    HW127401   4.218   3.791  10.134  1.2602  1.8143 -0.6036
 5314SOL    HW227402   4.180   3.740   9.998  2.0286  0.2220  0.7812
 5315SOL     OW27403   3.003   3.513  15.759 -0.3716 -0.0055  0.4450
 5315SOL    HW127404   2.993   3.476  15.672 -1.6681 -0.0771  0.6219
 5315SOL    HW227405   2.990   3.437  15.816 -1.6243  0.5450  0.9052
 5316SOL     OW27406   2.442   4.104   7.746 -0.6353 -0.4778 -0.5112
 5316SOL    HW127407   2.523   4.115   7.698 -0.3254  0.6105  0.2746
 5316SOL    HW227408   2.449   4.143   7.833  3.1362 -0.5039 -0.8226
 5317SOL     OW27409   1.108   1.977   8.216  0.7487  0.7294  0.5670
 5317SOL    HW127410   1.037   1.917   8.239  2.7733 -2.6209 -1.8366
 5317SOL    HW227411   1.179   1.932   8.262  1.3265  0.7961 -0.2564
 5318SOL     OW27412   2.072   2.580   9.199 -0.5024  0.5143  0.1299
 5318SOL    HW127413   2.162   2.548   9.190 -0.7853 -0.7902  1.9575
 5318SOL    HW227414   2.095   2.636   9.274 -1.4985  0.6445  0.3377
 5319SOL     OW27415   3.788   3.689  14.121 -0.3324  0.2736  0.1251
 5319SOL    HW127416   3.713   3.667  14.176 -0.6952  0.9335 -0.1058
 5319SOL    HW227417   3.859   3.674  14.183  1.2675  0.7806 -1.5748
 5320SOL     OW27418   4.146   4.258   8.930  0.7465  0.2723 -0.6955
 5320SOL    HW127419   4.123   4.186   8.870 -1.7950 -0.5898  1.3006
 5320SOL    HW227420   4.160   4.336   8.877  1.1324 -0.5846 -1.8625
 5321SOL     OW27421   3.182   4.061   9.687  0.1188 -0.4030  0.3745
 5321SOL    HW127422   3.189   4.001   9.761 -0.3629  0.0949  0.8300
 5321SOL    HW227423   3.098   4.030   9.654  0.8798 -0.9831 -0.9986
 5322SOL     OW27424   4.697   1.990   5.948  0.4291 -0.6272 -0.1531
 5322SOL    HW127425   0.049   2.047   5.952  1.5264 -1.9070 -3.2066
 5322SOL    HW227426   4.685   1.951   6.035 -1.8286  0.3114 -0.0506
 5323SOL     OW27427   1.518   1.280   9.299  0.1155  0.4462  0.0195
 5323SOL    HW127428   1.507   1.326   9.382  0.5197 -2.0934  1.4623
 5323SOL    HW227429   1.481   1.196   9.327 -0.6472 -0.0638 -2.5079
 5324SOL     OW27430   2.681   2.178   7.943  0.0900 -0.0800  0.2404
 5324SOL    HW127431   2.731   2.218   7.872 -2.6123  0.8809 -1.1358
 5324SOL    HW227432   2.753   2.144   7.996  2.2636  0.1879 -2.5153
 5325SOL     OW27433   2.424   4.634   7.676  0.2399 -0.3990 -0.6612
 5325SOL    HW127434   2.404   4.626   7.769  2.9892 -1.3064 -0.1365
 5325SOL    HW227435   2.349   4.587   7.640 -0.4931  0.4984 -0.3014
 5326SOL     OW27436   3.916   4.626   5.244 -0.0862  0.3904 -0.4932
 5326SOL    HW127437   3.886   4.601   5.157 -0.6972 -0.5445 -0.0100
 5326SOL    HW227438   4.000   4.660   5.215  0.2804 -0.6117 -0.6044
 5327SOL     OW27439   2.240   2.655   3.347 -0.2740 -0.0424  0.7448
 5327SOL    HW127440   2.255   2.714   3.273  1.1067 -1.3276  0.0132
 5327SOL    HW227441   2.285   2.580   3.310  0.6788 -0.9931  3.8740
 5328SOL     OW27442   0.769   1.893   9.624 -0.0125 -0.0201  0.1542
 5328SOL    HW127443   0.838   1.857   9.568  0.3775 -2.3579  2.1683
 5328SOL    HW227444   0.771   1.840   9.703  1.8016  1.8425  1.3614
 5329SOL     OW27445   0.372   4.438  17.062 -0.1107  0.1595  0.1098
 5329SOL    HW127446   0.346   4.485  17.141  0.3465  2.0500 -0.8784
 5329SOL    HW227447   0.358   4.349  17.095 -1.4217 -0.5216 -2.2558
 5330SOL     OW27448   3.087   0.145   2.541  0.0255 -0.1154  0.1348
 5330SOL    HW127449   3.077   0.188   2.626 -1.5631  2.4417 -1.3263
 5330SOL    HW227450   3.100   0.224   2.488  1.6167 -0.4692  0.0032
 5331SOL     OW27451   1.920   3.232  14.052  0.0675  0.0266  0.8606
 5331SOL    HW127452   1.932   3.138  14.066  1.1962  0.0340 -0.0517
 5331SOL    HW227453   1.826   3.249  14.058 -0.1800 -0.7269 -0.7784
 5332SOL     OW27454   1.040   3.092   6.450  0.3685 -0.2050  0.6572
 5332SOL    HW127455   1.062   3.067   6.540 -0.1783  1.4579  1.2569
 5332SOL    HW227456   1.118   3.135   6.415  0.2545  1.2476  2.1852
 5333SOL     OW27457   3.970   4.371   2.203 -0.3260  0.6378 -0.4566
 5333SOL    HW127458   4.010   4.299   2.252 -1.5250  1.2482  1.4252
 5333SOL    HW227459   4.035   4.442   2.206  0.8015 -0.4009 -0.1188
 5334SOL     OW27460   0.760   3.190  17.479 -0.8037  0.3149 -0.1778
 5334SOL    HW127461   0.732   3.228  17.562  2.3750  1.9290  0.1742
 5334SOL    HW227462   0.822   3.260  17.456  1.9068 -2.0226  0.0376
 5335SOL     OW27463   4.316   2.853   4.687 -0.5444  0.4839  0.2836
 5335SOL    HW127464   4.271   2.788   4.635 -1.6397  0.2212  1.5560
 5335SOL    HW227465   4.403   2.849   4.646  1.5635  0.2960  4.7243
 5336SOL     OW27466   3.073   1.482  15.902 -0.0934 -0.2294 -0.2825
 5336SOL    HW127467   3.109   1.557  15.950  0.3065 -0.8574  0.3916
 5336SOL    HW227468   2.981   1.466  15.923 -0.2525  1.8274  0.6367
 5337SOL     OW27469   2.732   0.907  12.630  0.5020  0.1163  0.1361
 5337SOL    HW127470   2.774   0.842  12.574  0.0345  0.3023 -0.4275
 5337SOL    HW227471   2.777   0.892  12.713 -1.1876  1.4603  1.3056
 5338SOL     OW27472   0.795   4.219   5.274  0.1364 -0.1518 -0.6072
 5338SOL    HW127473   0.798   4.236   5.368  0.3638  0.8961 -0.8019
 5338SOL    HW227474   0.880   4.254   5.246  0.6667 -0.7712  0.2345
 5339SOL     OW27475   3.525   4.436   2.467 -0.3912 -0.1036 -0.6335
 5339SOL    HW127476   3.538   4.352   2.510  0.4876 -0.1938 -1.0582
 5339SOL    HW227477   3.614   4.471   2.460  0.3074 -1.7474  0.0955
 5340SOL     OW27478   1.224   3.762   8.029  0.5864  0.3958  0.0055
 5340SOL    HW127479   1.213   3.800   7.941 -0.6380  0.0630  0.0153
 5340SOL    HW227480   1.317   3.776   8.046  0.0656  1.7404  1.7658
 5341SOL     OW27481   2.071   3.220   6.576  0.4006  0.2325  0.2831
 5341SOL    HW127482   2.079   3.127   6.597  2.0052  0.7624  1.9874
 5341SOL    HW227483   2.005   3.242   6.642 -0.3873 -3.5423  0.7355
 5342SOL     OW27484   0.982   1.991   7.969 -0.0691 -0.0207 -0.0458
 5342SOL    HW127485   0.986   1.986   8.064 -1.0544 -1.0866 -0.0628
 5342SOL    HW227486   0.964   1.901   7.942 -0.2922 -0.2095  0.7184
 5343SOL     OW27487   4.515   4.572  10.898 -0.3070 -0.1228  0.2711
 5343SOL    HW127488   4.453   4.534  10.836 -0.6434 -0.1067  0.5994
 5343SOL    HW227489   4.565   4.498  10.932  1.2405  1.7370  2.1132
 5344SOL     OW27490   1.628   4.625   4.622 -0.1236  0.0338  0.4915
 5344SOL    HW127491   1.545   4.582   4.603  0.4372 -1.1388  0.6217
 5344SOL    HW227492   1.635   4.668   4.537 -2.4608 -0.8966 -0.1621
 5345SOL     OW27493   0.672   1.022   8.444  0.6560 -0.2213 -0.1202
 5345SOL    HW127494   0.671   1.113   8.472 -3.0181 -0.1897 -0.4752
 5345SOL    HW227495   0.678   1.028   8.348 -1.0977  1.2927 -0.1322
 5346SOL     OW27496   0.533   0.282  11.880 -0.5278  0.0677 -0.4126
 5346SOL    HW127497   0.610   0.317  11.834 -0.3715 -1.6444 -1.4370
 5346SOL    HW227498   0.538   0.191  11.852  0.4630 -0.8379  2.7681
 5347SOL     OW27499   0.179   3.131  17.221  0.3255 -0.0502 -0.0787
 5347SOL    HW127500   0.217   3.059  17.169  0.6350 -0.4065  0.6484
 5347SOL    HW227501   0.170   3.091  17.307  1.9162  1.1905  0.6552
 5348SOL     OW27502   3.253   0.822   3.741 -0.3526  0.7943 -0.1437
 5348SOL    HW127503   3.322   0.876   3.778 -1.6016  2.1751  0.1965
 5348SOL    HW227504   3.306   0.749   3.710  0.5252  1.0425  0.7720
 5349SOL     OW27505   1.631   3.751   8.771  0.1941 -0.0788  0.0043
 5349SOL    HW127506   1.675   3.669   8.793  0.2960 -0.3573 -1.2025
 5349SOL    HW227507   1.592   3.769   8.856  0.0385 -1.6879  0.2850
 5350SOL     OW27508   1.828   1.092   3.566  0.6625 -0.2875 -0.1892
 5350SOL    HW127509   1.758   1.155   3.583 -0.7867 -1.5322 -1.5834
 5350SOL    HW227510   1.900   1.154   3.554 -0.5289  0.7761 -1.7173
 5351SOL     OW27511   2.816   2.897  17.368  0.2502 -0.5047 -0.1314
 5351SOL    HW127512   2.837   2.896  17.461 -2.0315  2.3519  0.3747
 5351SOL    HW227513   2.849   2.810  17.345  1.1280  0.1886 -1.5258
 5352SOL     OW27514   0.612   1.691   6.577  0.4910  0.1457  0.8352
 5352SOL    HW127515   0.687   1.639   6.606  1.5574  0.5974 -1.0771
 5352SOL    HW227516   0.539   1.630   6.584 -0.4952  1.0165 -1.6565
 5353SOL     OW27517   3.516   4.526   2.755  0.5229  0.2404  0.0021
 5353SOL    HW127518   3.465   4.584   2.698  0.4832  2.2457  2.0602
 5353SOL    HW227519   3.445   4.467   2.778  0.2733 -0.8717 -3.7647
 5354SOL     OW27520   1.861   2.279  10.629  0.0780  0.3955  0.1445
 5354SOL    HW127521   1.836   2.341  10.560 -1.6051 -0.8510 -0.3476
 5354SOL    HW227522   1.910   2.336  10.688  1.1350 -2.4215  1.9907
 5355SOL     OW27523   3.721   1.336   0.731  0.2150 -0.1897  0.1443
 5355SOL    HW127524   3.657   1.384   0.677  0.9243 -2.8821 -3.0990
 5355SOL    HW227525   3.801   1.388   0.736  1.5932 -2.2614 -0.3965
 5356SOL     OW27526   2.293   3.625   3.997 -0.0058  0.0757  0.4286
 5356SOL    HW127527   2.381   3.591   4.015  0.6456  1.3660 -0.2904
 5356SOL    HW227528   2.268   3.571   3.922  1.6306 -1.8215  1.2588
 5357SOL     OW27529   2.120   4.624   2.997 -0.1152  0.1778 -0.3035
 5357SOL    HW127530   2.213   4.612   2.974  0.2006 -0.6180  1.4208
 5357SOL    HW227531   2.088   4.666   2.917  1.0934  3.8487  1.1065
 5358SOL     OW27532   2.466   2.068   2.232 -0.0064  0.8223 -0.2580
 5358SOL    HW127533   2.466   2.164   2.225  0.3945  0.5985 -3.1782
 5358SOL    HW227534   2.551   2.041   2.198 -0.2850 -0.5416  0.1300
 5359SOL     OW27535   4.401   2.201   2.169  0.2188 -0.5491 -0.3724
 5359SOL    HW127536   4.369   2.274   2.116  1.3985  0.5604  0.4333
 5359SOL    HW227537   4.468   2.175   2.105  2.2864  1.2046  1.0615
 5360SOL     OW27538   1.809   4.504   6.299 -0.5682 -0.2811  0.0860
 5360SOL    HW127539   1.777   4.594   6.297  3.2512  1.0583 -0.2153
 5360SOL    HW227540   1.888   4.501   6.245 -1.1733 -0.2400 -0.8011
 5361SOL     OW27541   3.308   1.195   2.335 -0.2956 -0.3607 -0.1542
 5361SOL    HW127542   3.246   1.137   2.293 -2.3697  0.9107  1.1288
 5361SOL    HW227543   3.335   1.253   2.264  1.0285 -0.0369  0.6048
 5362SOL     OW27544   0.990   2.374   4.746 -0.0463  0.0516 -0.1868
 5362SOL    HW127545   1.077   2.381   4.786  0.3314  0.8480 -1.1505
 5362SOL    HW227546   1.009   2.343   4.657  0.6245 -1.3380  0.4314
 5363SOL     OW27547   1.593   0.697   4.087  0.7413 -0.5359  0.8791
 5363SOL    HW127548   1.561   0.666   4.002  1.1308 -0.5938  0.7550
 5363SOL    HW227549   1.643   0.622   4.118 -1.3562 -3.0788 -1.9192
 5364SOL     OW27550   4.577   1.651   7.580  0.5263 -0.0159  0.4087
 5364SOL    HW127551   4.603   1.684   7.666  1.2280 -2.0695  0.9931
 5364SOL    HW227552   4.620   1.713   7.521 -1.4128  0.9697  0.0261
 5365SOL     OW27553   2.991   4.376   1.164  0.6480  0.3220  0.9533
 5365SOL    HW127554   3.012   4.295   1.117 -3.2547 -0.2280  0.1462
 5365SOL    HW227555   2.980   4.439   1.094  0.8681 -2.0570 -1.2246
 5366SOL     OW27556   2.403   2.914   2.051 -0.1367  1.1961 -0.0308
 5366SOL    HW127557   2.380   2.997   2.009 -0.2722  2.2632  2.1458
 5366SOL    HW227558   2.318   2.870   2.045  0.4777 -0.1687  1.2783
 5367SOL     OW27559   2.278   1.601   8.356 -0.0371 -0.0840  0.1515
 5367SOL    HW127560   2.283   1.568   8.446 -1.5743 -0.3059  0.1634
 5367SOL    HW227561   2.310   1.690   8.362 -0.2692 -0.0638  1.1435
 5368SOL     OW27562   0.180   2.679  17.167  0.2081 -0.0470  0.4479
 5368SOL    HW127563   0.261   2.670  17.217  0.3739 -0.4365  0.1072
 5368SOL    HW227564   0.203   2.759  17.119  0.5480  0.6191  1.7375
 5369SOL     OW27565   3.450   0.463   4.890  0.5466  0.7205 -0.1035
 5369SOL    HW127566   3.509   0.421   4.827  1.2817  1.5198  0.0547
 5369SOL    HW227567   3.411   0.537   4.844 -0.9891  0.4002  0.6994
 5370SOL     OW27568   3.558   3.152   3.743  0.2422  0.3043  0.3390
 5370SOL    HW127569   3.639   3.196   3.716 -0.0957  0.3523 -0.5964
 5370SOL    HW227570   3.568   3.063   3.710  0.0592  0.7251 -0.8541
 5371SOL     OW27571   4.456   0.970   9.328 -0.4569 -0.3263 -0.1607
 5371SOL    HW127572   4.433   0.887   9.287 -0.5580  0.2415 -1.2639
 5371SOL    HW227573   4.504   1.017   9.260 -0.4167  0.6437  0.5392
 5372SOL     OW27574   3.790   3.389   5.702 -0.8207  0.3595  0.6502
 5372SOL    HW127575   3.710   3.429   5.736 -1.7243  0.2298 -1.3353
 5372SOL    HW227576   3.845   3.372   5.778 -0.2208  1.0607  0.3698
 5373SOL     OW27577   0.112   4.698   9.272 -0.1529 -0.9072 -0.5500
 5373SOL    HW127578   0.040   4.639   9.251  0.3976 -1.6522 -0.3458
 5373SOL    HW227579   0.068   0.053   9.242 -0.3930 -0.7043  0.3540
 5374SOL     OW27580   2.673   4.068  15.119 -0.7241 -0.4734 -0.4833
 5374SOL    HW127581   2.684   3.973  15.114  0.8277 -0.2367 -1.4039
 5374SOL    HW227582   2.579   4.077  15.131 -0.2629  0.8133  2.1690
 5375SOL     OW27583   4.313   4.691  10.541  0.0877  0.0574 -0.1267
 5375SOL    HW127584   4.351   0.054  10.536  1.2463 -0.3812  0.8766
 5375SOL    HW227585   4.227   4.718  10.573  1.1017  0.1834  2.4954
 5376SOL     OW27586   1.072   3.108   6.823  0.3634 -0.4587  0.0065
 5376SOL    HW127587   1.138   3.046   6.855  0.0259 -0.2631  1.0770
 5376SOL    HW227588   1.129   3.176   6.788  0.7729 -0.7065  0.1948
 5377SOL     OW27589   1.028   1.290  12.604 -0.2165  0.1468  0.0488
 5377SOL    HW127590   1.072   1.242  12.674 -0.2535 -0.2423 -0.1963
 5377SOL    HW227591   1.102   1.345  12.581 -1.0391  1.9131  1.5536
 5378SOL     OW27592   2.707   0.421   3.170  0.2317 -0.0849 -0.1599
 5378SOL    HW127593   2.697   0.503   3.216 -0.8671 -1.3074  1.7718
 5378SOL    HW227594   2.744   0.458   3.090  1.6168  0.7053  0.8483
 5379SOL     OW27595   3.451   3.663  13.776  0.3352 -0.3020 -0.1635
 5379SOL    HW127596   3.446   3.679  13.870 -0.1793  0.0695 -0.2550
 5379SOL    HW227597   3.386   3.726  13.746 -1.6146 -1.4019  1.6948
 5380SOL     OW27598   4.311   3.130  12.675 -0.0677 -0.0224  0.0972
 5380SOL    HW127599   4.394   3.175  12.690  0.0768 -0.9196  1.9213
 5380SOL    HW227600   4.319   3.045  12.717  1.6570  0.7980  1.4007
 5381SOL     OW27601   1.039   4.047   3.293  0.1951 -0.5927  0.7991
 5381SOL    HW127602   0.977   3.979   3.266 -1.2638  1.5669 -1.2904
 5381SOL    HW227603   1.058   4.093   3.212  0.5163 -0.1205  1.1380
 5382SOL     OW27604   3.908   1.457   6.947 -0.4769 -0.0071  0.2611
 5382SOL    HW127605   3.828   1.435   6.899  0.5086 -1.0680 -0.8879
 5382SOL    HW227606   3.935   1.523   6.883  0.1213 -1.7509 -1.3064
 5383SOL     OW27607   0.501   1.094   5.057 -0.0961  0.0677  0.1366
 5383SOL    HW127608   0.533   1.145   4.983  0.0170 -1.5348 -0.9315
 5383SOL    HW227609   0.498   1.000   5.036  0.3061 -0.1165  0.8821
 5384SOL     OW27610   3.745   3.044   5.375 -0.6281  0.2943  0.3244
 5384SOL    HW127611   3.674   3.027   5.437 -1.8364 -0.2600 -1.2426
 5384SOL    HW227612   3.746   3.139   5.388 -3.3420  0.1504  1.6831
 5385SOL     OW27613   3.251   2.609   8.279  1.1408 -0.7908 -0.0903
 5385SOL    HW127614   3.224   2.627   8.369  0.2539  0.3703 -0.5840
 5385SOL    HW227615   3.334   2.657   8.271  2.2641 -2.8279 -0.4937
 5386SOL     OW27616   1.495   1.411   1.657 -0.5017  0.2785  0.2869
 5386SOL    HW127617   1.458   1.499   1.647  1.5500  1.2756  1.6661
 5386SOL    HW227618   1.417   1.358   1.672  0.9991 -1.6240  1.2956
 5387SOL     OW27619   4.519   4.372   1.558  0.2985  0.1327 -0.6488
 5387SOL    HW127620   4.491   4.290   1.599 -0.3135 -0.0841 -1.5178
 5387SOL    HW227621   4.482   4.426   1.628 -1.5919 -2.7238  0.5552
 5388SOL     OW27622   2.548   4.523  11.886 -0.1025  0.0285  0.1475
 5388SOL    HW127623   2.501   4.472  11.819 -1.0140  0.8797  0.1401
 5388SOL    HW227624   2.618   4.555  11.829 -1.3747  1.8945 -0.3351
 5389SOL     OW27625   2.368   0.326   3.459  0.2204  0.1086  0.0034
 5389SOL    HW127626   2.323   0.316   3.375 -1.5879  2.3070  0.7225
 5389SOL    HW227627   2.359   0.235   3.488  0.1563  0.6226  1.5547
 5390SOL     OW27628   3.175   3.171   1.427 -0.1242 -0.5854 -0.2018
 5390SOL    HW127629   3.176   3.195   1.520 -2.3419  0.2631 -0.4141
 5390SOL    HW227630   3.163   3.257   1.388  0.3837 -2.1057 -3.6764
 5391SOL     OW27631   0.046   4.209   2.645  0.1220 -0.4086 -0.5153
 5391SOL    HW127632   4.688   4.233   2.603  0.5183  1.2737 -0.3507
 5391SOL    HW227633   0.111   4.213   2.575  0.9688  1.7539  0.3925
 5392SOL     OW27634   1.341   2.611   9.263  0.0854  0.4241  0.0113
 5392SOL    HW127635   1.282   2.535   9.256  2.2556 -1.2241 -0.4952
 5392SOL    HW227636   1.370   2.612   9.354 -0.9384 -1.3620  0.3677
 5393SOL     OW27637   0.719   1.923  11.503  0.8531 -0.2727 -0.3922
 5393SOL    HW127638   0.769   1.947  11.581  0.5989 -1.9295  0.2916
 5393SOL    HW227639   0.668   2.004  11.497  0.2770 -0.5928  0.1699
 5394SOL     OW27640   2.552   3.399   2.225  0.5827  0.2625  0.1306
 5394SOL    HW127641   2.613   3.356   2.286 -0.6223 -1.8154 -0.1220
 5394SOL    HW227642   2.469   3.403   2.272 -0.2185  0.3883 -1.2953
 5395SOL     OW27643   4.249   4.578   3.318  0.3087  0.4739  0.0693
 5395SOL    HW127644   4.258   4.507   3.381 -1.2987  1.4645  1.3935
 5395SOL    HW227645   4.220   4.650   3.374  0.4741  0.5560  0.0508
 5396SOL     OW27646   0.189   2.104   4.218  0.1730 -0.1892  0.0344
 5396SOL    HW127647   0.133   2.116   4.141 -0.5076  3.1409  1.0533
 5396SOL    HW227648   0.276   2.101   4.178  0.2911 -1.0741  0.3713
 5397SOL     OW27649   2.184   1.944   5.534  0.3890  0.5062  0.6125
 5397SOL    HW127650   2.128   2.014   5.500  0.1556  0.6907  1.3774
 5397SOL    HW227651   2.114   1.898   5.580 -0.2642  0.6322 -0.2470
 5398SOL     OW27652   2.514   4.054   0.857 -0.1480 -0.7301  0.2143
 5398SOL    HW127653   2.492   4.121   0.922 -0.2585  0.8436 -1.4605
 5398SOL    HW227654   2.436   4.061   0.802  1.7688  0.0046 -2.4209
 5399SOL     OW27655   2.930   3.943   8.222 -0.2827 -0.2789  0.2968
 5399SOL    HW127656   2.908   3.998   8.297 -1.0980  0.3208 -0.3809
 5399SOL    HW227657   3.025   3.947   8.221 -0.3324  1.1464  1.0902
 5400SOL     OW27658   2.532   4.504  13.048 -0.5403  0.2758  0.0065
 5400SOL    HW127659   2.606   4.498  12.988 -0.9817 -0.9076 -0.4118
 5400SOL    HW227660   2.498   4.592  13.033 -3.0599 -0.8390 -0.8082
 5401SOL     OW27661   2.592   0.685   7.425  0.2617 -0.1193 -0.3625
 5401SOL    HW127662   2.668   0.626   7.423 -0.0802 -0.4756 -2.2611
 5401SOL    HW227663   2.638   0.762   7.392  0.0857 -0.0774 -0.5033
 5402SOL     OW27664   2.200   3.758  17.591  0.0693  0.1781 -0.1509
 5402SOL    HW127665   2.262   3.831  17.588 -0.0213  0.2047 -1.3821
 5402SOL    HW227666   2.271   3.694  17.583 -1.9973 -2.1159 -0.2076
 5403SOL     OW27667   2.419   2.382  13.781 -0.0056  0.0651  0.1166
 5403SOL    HW127668   2.391   2.371  13.872  0.6003  2.5905  0.5941
 5403SOL    HW227669   2.435   2.289  13.762 -0.4335  0.5393 -2.5041
 5404SOL     OW27670   4.156   2.538  16.366  0.1759 -0.0718 -0.2793
 5404SOL    HW127671   4.164   2.455  16.413 -1.6275  0.1797  0.4751
 5404SOL    HW227672   4.079   2.524  16.312 -0.9175 -1.2023  1.5685
 5405SOL     OW27673   4.037   4.142  10.268  0.7511 -0.2184  0.7744
 5405SOL    HW127674   4.092   4.200  10.215  1.6263 -1.9946 -0.2410
 5405SOL    HW227675   4.106   4.090  10.309 -0.0715 -0.1192  2.2811
 5406SOL     OW27676   2.397   0.502   7.328  0.2622  0.3046 -0.4006
 5406SOL    HW127677   2.441   0.586   7.337  2.0310 -0.5929 -0.6925
 5406SOL    HW227678   2.312   0.519   7.369 -0.1911  0.6159 -1.4913
 5407SOL     OW27679   0.072   3.058   8.716 -0.5247 -0.0486  0.2986
 5407SOL    HW127680   0.149   3.051   8.660 -2.8873  0.8793 -3.0117
 5407SOL    HW227681   0.047   3.150   8.714 -2.3683 -0.6017 -1.3083
 5408SOL     OW27682   2.278   0.492   3.996 -0.0786  0.4498  0.1296
 5408SOL    HW127683   2.359   0.523   4.036  0.7562 -0.6228 -0.7337
 5408SOL    HW227684   2.309   0.420   3.941 -0.6200  0.7196 -0.5286
 5409SOL     OW27685   3.228   0.437   3.525 -0.2190  0.1771 -0.3065
 5409SOL    HW127686   3.285   0.514   3.523  0.1575 -0.0655  1.0674
 5409SOL    HW227687   3.282   0.380   3.580 -0.1194 -1.1027 -1.7459
 5410SOL     OW27688   2.580   2.804   4.164  0.0990 -0.1700  0.0429
 5410SOL    HW127689   2.676   2.808   4.170  0.1242  0.5568 -0.8005
 5410SOL    HW227690   2.551   2.753   4.239  0.4433  0.6635  0.7422
 5411SOL     OW27691   4.573   3.508   3.963 -0.5585 -0.1189 -0.5429
 5411SOL    HW127692   4.554   3.527   4.055 -0.8936 -0.5224 -0.5287
 5411SOL    HW227693   4.520   3.582   3.933  0.1598  0.3049 -0.7483
 5412SOL     OW27694   1.336   0.171  13.716  0.4024  0.0774 -0.5919
 5412SOL    HW127695   1.420   0.135  13.745 -1.2210 -2.8749  0.4023
 5412SOL    HW227696   1.358   0.265  13.717  1.0095 -0.1163  2.6283
 5413SOL     OW27697   3.545   3.370   4.778 -0.1100 -0.5596  0.7726
 5413SOL    HW127698   3.462   3.324   4.775  0.4346 -1.5042 -0.0071
 5413SOL    HW227699   3.577   3.340   4.863  1.4824 -0.5324  0.1965
 5414SOL     OW27700   2.643   1.294   0.613 -0.2646  0.2911 -0.1350
 5414SOL    HW127701   2.666   1.327   0.526 -1.7746  1.0546 -0.2494
 5414SOL    HW227702   2.583   1.356   0.653  0.0046 -0.8003  1.9361
 5415SOL     OW27703   1.663   4.256   1.566  0.0212 -0.5466 -0.2427
 5415SOL    HW127704   1.665   4.190   1.497  0.9652 -1.6010  0.7991
 5415SOL    HW227705   1.758   4.272   1.570  0.1277 -1.7807  1.5958
 5416SOL     OW27706   4.444   1.185   2.959  0.5569  0.3974  0.3772
 5416SOL    HW127707   4.468   1.092   2.962  0.8337  0.4581  0.0899
 5416SOL    HW227708   4.526   1.225   2.986  0.9001  0.2624 -0.4624
 5417SOL     OW27709   3.282   2.769  14.347 -0.4535  0.2847  0.0082
 5417SOL    HW127710   3.354   2.831  14.357 -1.2335  1.0625  0.7472
 5417SOL    HW227711   3.231   2.780  14.427  0.4501 -1.4593  0.8289
 5418SOL     OW27712   2.340   1.899  15.146  0.0206  0.2934  0.5341
 5418SOL    HW127713   2.343   1.880  15.052 -0.4939  3.3247 -0.1183
 5418SOL    HW227714   2.272   1.838  15.175 -1.0213 -0.4214 -3.3519
 5419SOL     OW27715   0.974   2.193   8.346  0.2384 -0.7366 -0.3895
 5419SOL    HW127716   1.038   2.155   8.286 -1.6327 -0.1254 -2.7769
 5419SOL    HW227717   0.901   2.161   8.294  0.5134 -0.9248 -0.6596
 5420SOL     OW27718   3.665   1.634   7.900 -0.6662 -0.7500  0.3360
 5420SOL    HW127719   3.605   1.663   7.969 -0.8154 -1.7306  0.6167
 5420SOL    HW227720   3.632   1.689   7.829 -0.7131  1.7244  2.2618
 5421SOL     OW27721   0.131   2.645   8.670  0.3703  0.3125  0.2329
 5421SOL    HW127722   0.158   2.582   8.737 -2.3889 -1.2295 -0.1154
 5421SOL    HW227723   0.154   2.728   8.712 -0.5944  1.4506 -1.4497
 5422SOL     OW27724   1.164   2.975   8.968 -0.1975 -0.6383  0.0406
 5422SOL    HW127725   1.211   2.956   9.049  2.2069 -2.8776 -1.9045
 5422SOL    HW227726   1.216   2.931   8.901  1.1326 -0.5631  1.0310
 5423SOL     OW27727   2.608   4.535   0.165 -0.3203 -0.4747 -0.0467
 5423SOL    HW127728   2.662   4.456   0.175 -1.4891 -1.1580  0.8345
 5423SOL    HW227729   2.673   4.594   0.127 -0.2273  1.9144  3.8786
 5424SOL     OW27730   2.981   0.010   0.544  0.1613 -0.5744 -0.1785
 5424SOL    HW127731   2.891   4.701   0.544  0.5597 -1.6152 -0.6766
 5424SOL    HW227732   2.991   0.037   0.452 -1.1775  1.4922  0.2578
 5425SOL     OW27733   1.078   1.463  17.325  0.1809  0.8796  0.0034
 5425SOL    HW127734   1.155   1.409  17.341 -0.6240 -1.2360 -3.2520
 5425SOL    HW227735   1.071   1.460  17.229  0.0799  1.6898 -0.0192
 5426SOL     OW27736   0.146   3.046   2.575 -0.0756 -0.4535 -0.5658
 5426SOL    HW127737   0.070   2.994   2.600  0.0185 -1.0245 -1.4744
 5426SOL    HW227738   0.104   3.082   2.497  0.7240  1.7722  0.0226
 5427SOL     OW27739   3.902   4.373   6.058 -0.0623  0.0813  0.4991
 5427SOL    HW127740   3.958   4.368   5.981 -1.0824 -0.2134 -0.2276
 5427SOL    HW227741   3.830   4.425   6.021 -0.0817 -0.6334 -0.4710
 5428SOL     OW27742   3.084   3.938   2.242 -0.8527  0.1464 -0.6120
 5428SOL    HW127743   3.045   3.884   2.174 -1.7021  1.1313 -0.9003
 5428SOL    HW227744   3.072   3.884   2.320  0.0820 -1.3584 -1.5160
 5429SOL     OW27745   3.745   3.147   7.496 -0.0997  0.0467 -0.6104
 5429SOL    HW127746   3.750   3.238   7.468  1.1347  0.4494  0.9405
 5429SOL    HW227747   3.825   3.109   7.461  1.1292  2.8372 -0.8146
 5430SOL     OW27748   2.611   3.935   1.284  0.3237  0.0545  0.4451
 5430SOL    HW127749   2.571   3.900   1.364  0.2132 -0.0520  0.3415
 5430SOL    HW227750   2.657   4.013   1.316 -0.1364  0.2194  0.7086
 5431SOL     OW27751   0.340   2.218  15.854  0.1576  0.1696  0.0287
 5431SOL    HW127752   0.390   2.192  15.931  0.5547 -1.5876 -0.8263
 5431SOL    HW227753   0.320   2.131  15.819  2.3503 -0.1563 -0.3631
 5432SOL     OW27754   4.632   3.978   5.910  0.2078  0.3601  0.1564
 5432SOL    HW127755   4.551   4.027   5.925  0.4982  1.1897 -0.9822
 5432SOL    HW227756   4.698   4.030   5.956  1.8109 -3.1197  1.8442
 5433SOL     OW27757   3.583   0.751  16.000  0.8557  0.7853 -0.4576
 5433SOL    HW127758   3.561   0.841  15.974 -0.3159  0.7899  0.5250
 5433SOL    HW227759   3.596   0.762  16.094  0.9256 -0.9351 -0.2705
 5434SOL     OW27760   0.655   0.907   1.004 -0.5543 -0.2208  0.7039
 5434SOL    HW127761   0.613   0.982   1.046  0.1961  0.7382 -0.2606
 5434SOL    HW227762   0.648   0.841   1.073  2.0811 -0.2871  0.9284
 5435SOL     OW27763   3.294   0.652   7.751  0.7224 -0.7605 -0.0454
 5435SOL    HW127764   3.285   0.734   7.703  0.6237 -0.3025  0.7618
 5435SOL    HW227765   3.370   0.623   7.700  0.4169  1.0148 -1.5165
 5436SOL     OW27766   1.034   0.695   4.529 -0.3327  0.5352 -0.4143
 5436SOL    HW127767   1.092   0.735   4.465 -0.4210 -0.0142 -0.8374
 5436SOL    HW227768   1.063   0.741   4.608  0.0482  0.8899 -0.7598
 5437SOL     OW27769   4.594   0.889   2.553 -0.0165  0.0382  0.0471
 5437SOL    HW127770   4.567   0.868   2.642  1.1804 -1.2104  0.1193
 5437SOL    HW227771   4.671   0.833   2.541 -0.2706 -0.1994 -0.4784
 5438SOL     OW27772   3.999   0.205   8.458  0.2508  0.6387  0.3019
 5438SOL    HW127773   3.921   0.195   8.403  0.2184  0.3649  0.3957
 5438SOL    HW227774   4.003   0.300   8.465 -1.4310  0.7598 -0.3386
 5439SOL     OW27775   2.951   0.902   4.856 -0.3897  0.3469 -0.4452
 5439SOL    HW127776   2.911   0.924   4.772 -1.3358 -0.9924 -0.3264
 5439SOL    HW227777   2.927   0.811   4.872 -0.4228  0.2859 -0.8466
 5440SOL     OW27778   0.581   2.379   4.746 -0.7558  0.4657 -0.0444
 5440SOL    HW127779   0.487   2.369   4.763 -0.4350  0.6359  1.8251
 5440SOL    HW227780   0.587   2.464   4.789 -2.4497  0.6160 -0.1146
 5441SOL     OW27781   2.581   0.868   9.462  0.1081 -0.1496 -0.1083
 5441SOL    HW127782   2.570   0.773   9.464 -1.1294 -0.0255 -1.6134
 5441SOL    HW227783   2.521   0.890   9.533  1.1915  1.8260  0.2019
 5442SOL     OW27784   3.905   4.614   7.654  0.0058 -0.5786  0.0418
 5442SOL    HW127785   3.977   4.621   7.591 -1.1298  0.6320 -1.0930
 5442SOL    HW227786   3.835   4.588   7.595 -0.7829 -0.9380  1.1271
 5443SOL     OW27787   4.308   0.492  14.343  0.0291  0.1407  0.0078
 5443SOL    HW127788   4.373   0.561  14.331  0.1983  0.0616  0.4719
 5443SOL    HW227789   4.233   0.537  14.380  0.4889 -0.2066  1.3873
 5444SOL     OW27790   3.798   2.790   5.261  0.0233 -0.1940  0.4358
 5444SOL    HW127791   3.777   2.877   5.296 -1.1345 -0.3683  0.1807
 5444SOL    HW227792   3.741   2.747   5.325 -0.1841 -1.0123 -0.3097
 5445SOL     OW27793   2.940   4.057   0.490 -0.2900 -0.4560  0.3909
 5445SOL    HW127794   2.988   3.976   0.506  1.1913  0.3721  0.1504
 5445SOL    HW227795   2.863   4.046   0.544 -0.3170  0.5535  0.5574
 5446SOL     OW27796   4.683   4.163   0.681 -0.4400  0.6477  0.4946
 5446SOL    HW127797   4.692   4.253   0.712  0.3683  1.1199 -1.1241
 5446SOL    HW227798   0.042   4.125   0.708 -1.2159 -0.0774  1.8887
 5447SOL     OW27799   1.760   0.208   9.746  0.2424  0.0254  0.1348
 5447SOL    HW127800   1.731   0.254   9.824 -0.2167 -0.5314  0.2909
 5447SOL    HW227801   1.793   0.126   9.784 -1.7997  0.0553  1.9705
 5448SOL     OW27802   4.672   0.865   8.876 -0.2677 -0.4486 -0.0603
 5448SOL    HW127803   0.010   0.801   8.908 -0.3102 -0.6456 -0.3721
 5448SOL    HW227804   4.615   0.815   8.818  0.6466 -1.2725 -0.2483
 5449SOL     OW27805   2.302   1.068   2.758 -0.4331 -0.1525  0.8809
 5449SOL    HW127806   2.339   0.985   2.727 -0.5063  0.0574  0.2459
 5449SOL    HW227807   2.208   1.053   2.746 -0.2337  0.1995 -1.0609
 5450SOL     OW27808   0.720   2.012   0.840  0.8880  0.1990  0.3214
 5450SOL    HW127809   0.687   1.922   0.834  0.3221  0.5121 -1.2991
 5450SOL    HW227810   0.671   2.056   0.771 -0.1687 -1.6063 -0.0813
 5451SOL     OW27811   0.237   4.663   8.779 -0.4367 -0.8285 -0.2136
 5451SOL    HW127812   0.268   4.587   8.729  1.1560  0.6013 -1.3999
 5451SOL    HW227813   0.316   4.716   8.766 -1.7736  1.2111  0.0360
 5452SOL     OW27814   3.837   3.613   9.855 -0.4504  0.1060 -0.1637
 5452SOL    HW127815   3.874   3.595   9.941  1.7013  0.6458 -0.9884
 5452SOL    HW227816   3.787   3.536   9.826  0.3195  0.6113 -2.8095
 5453SOL     OW27817   2.913   2.974   6.533 -0.2920  0.0740  0.0064
 5453SOL    HW127818   2.826   2.935   6.536 -0.1614 -0.2347 -0.1865
 5453SOL    HW227819   2.963   2.899   6.564 -1.3799  0.1985  2.0659
 5454SOL     OW27820   1.455   0.988  10.682  0.5060  0.1043 -0.3326
 5454SOL    HW127821   1.441   0.895  10.697 -1.4400  0.6425  1.1391
 5454SOL    HW227822   1.550   0.985  10.696  0.6930  1.6121 -1.2478
 5455SOL     OW27823   0.669   1.214   7.831 -0.0061 -0.3330  0.3210
 5455SOL    HW127824   0.760   1.227   7.805  0.0067  0.3654  0.7074
 5455SOL    HW227825   0.646   1.290   7.884 -0.4519  0.5046 -1.0837
 5456SOL     OW27826   2.797   3.554   3.065 -0.0004  0.0702 -0.0175
 5456SOL    HW127827   2.779   3.616   2.995  0.0344  0.1959  0.0860
 5456SOL    HW227828   2.729   3.563   3.131  0.1881  0.2633  0.1493
 5457SOL     OW27829   3.885   1.672   5.843  0.1979  0.3471 -0.4966
 5457SOL    HW127830   3.823   1.600   5.834  1.4014 -0.6500 -0.8320
 5457SOL    HW227831   3.962   1.628   5.806  0.9306  1.4625 -0.2788
 5458SOL     OW27832   4.563   3.541   8.351  0.3268  0.0993 -0.1909
 5458SOL    HW127833   4.559   3.445   8.355  1.1805  0.0531 -0.4586
 5458SOL    HW227834   4.647   3.545   8.306  0.3800  1.8087  0.0807
 5459SOL     OW27835   1.718   4.164   2.644 -0.0329 -0.4325 -0.2108
 5459SOL    HW127836   1.692   4.142   2.555 -0.9492  1.5539 -0.4224
 5459SOL    HW227837   1.685   4.087   2.691 -0.6993  0.3604  0.6136
 5460SOL     OW27838   4.058   3.732   9.694 -0.0498  0.3187  0.7673
 5460SOL    HW127839   4.025   3.807   9.644  3.1861  1.9065  0.9961
 5460SOL    HW227840   3.984   3.704   9.747 -0.3605 -1.9855 -0.9150
 5461SOL     OW27841   2.406   4.611   2.789  0.5502 -0.0283  0.4115
 5461SOL    HW127842   2.435   4.567   2.869 -1.7755 -1.2497  0.5847
 5461SOL    HW227843   2.346   4.543   2.758 -1.4970  1.8323  0.2734
 5462SOL     OW27844   3.098   4.423   8.973  0.0056 -0.4412 -0.6756
 5462SOL    HW127845   3.152   4.450   9.047  0.7896  0.1665 -1.4647
 5462SOL    HW227846   3.092   4.330   8.994 -0.2423 -0.5530 -1.2266
 5463SOL     OW27847   4.233   1.631   3.620  0.0894  0.3754 -0.3817
 5463SOL    HW127848   4.271   1.567   3.680  0.7642  1.0660 -0.0769
 5463SOL    HW227849   4.146   1.593   3.605 -0.3863  0.6771  1.6810
 5464SOL     OW27850   0.481   0.270   2.368  0.0033  0.1330  0.4561
 5464SOL    HW127851   0.475   0.293   2.460  1.5730  0.1001  0.5699
 5464SOL    HW227852   0.530   0.187   2.363  0.5737  0.3392  2.8263
 5465SOL     OW27853   3.449   0.856  14.504  0.0099  0.1476 -0.4513
 5465SOL    HW127854   3.492   0.850  14.418 -1.9828 -0.6322 -1.3969
 5465SOL    HW227855   3.391   0.931  14.498 -0.3012  0.0911  2.1439
 5466SOL     OW27856   3.684   1.896   9.825  0.5335 -0.2234  0.1457
 5466SOL    HW127857   3.656   1.805   9.839  2.6681 -0.6395  1.8442
 5466SOL    HW227858   3.654   1.941   9.903 -0.2071 -0.1090 -0.2111
 5467SOL     OW27859   3.145   0.320   2.354  0.0323 -0.0383  0.3153
 5467SOL    HW127860   3.091   0.327   2.275 -0.2542 -4.0120  0.1329
 5467SOL    HW227861   3.224   0.293   2.308  0.9859  1.9716  0.7948
 5468SOL     OW27862   1.679   1.352   1.876  0.0456  0.3337  0.5657
 5468SOL    HW127863   1.616   1.361   1.948  0.1617  0.8644  0.6043
 5468SOL    HW227864   1.624   1.382   1.804  0.4892  0.3843  0.2491
 5469SOL     OW27865   3.584   0.993   0.656 -0.7255 -0.3625 -0.5505
 5469SOL    HW127866   3.512   1.053   0.677  0.1726  0.3779  0.4661
 5469SOL    HW227867   3.618   1.042   0.581 -0.8819  1.0497  0.2776
 5470SOL     OW27868   2.679   0.268   5.873 -0.2067 -0.1150  0.0656
 5470SOL    HW127869   2.758   0.316   5.898 -0.7194  0.8006 -0.0580
 5470SOL    HW227870   2.688   0.259   5.778 -1.0371 -2.6487  0.2166
 5471SOL     OW27871   3.053   1.707  14.451 -0.2778  0.5073  0.1145
 5471SOL    HW127872   3.089   1.792  14.477 -0.1103 -0.3089  2.4641
 5471SOL    HW227873   3.058   1.727  14.357 -0.9618  1.2524  0.2358
 5472SOL     OW27874   2.877   4.637  16.174  0.1849  0.1264 -0.2372
 5472SOL    HW127875   2.807   4.656  16.111  0.6189  0.1635 -0.7169
 5472SOL    HW227876   2.868   4.712  16.233  0.3996 -0.5616  0.6609
 5473SOL     OW27877   4.498   4.253   5.862  0.5045  0.1472  0.4522
 5473SOL    HW127878   4.406   4.227   5.874 -0.4268  2.5546 -1.4034
 5473SOL    HW227879   4.521   4.330   5.914 -0.3442  0.1518  0.8308
 5474SOL     OW27880   2.808   2.160   6.573  0.3363  0.6254 -0.4510
 5474SOL    HW127881   2.817   2.112   6.491 -3.7080 -1.2059  0.1519
 5474SOL    HW227882   2.728   2.211   6.560  0.5915  2.0548  3.4850
 5475SOL     OW27883   2.336   2.198  12.164 -0.1536  0.1066  0.0292
 5475SOL    HW127884   2.278   2.245  12.224  2.0392  0.0608  2.1920
 5475SOL    HW227885   2.406   2.177  12.226  0.3573  0.3565 -0.4624
 5476SOL     OW27886   4.189   0.365   7.186  0.1530  0.1544  0.6897
 5476SOL    HW127887   4.182   0.451   7.229 -1.5120 -0.2977  1.3166
 5476SOL    HW227888   4.133   0.313   7.243 -0.5981  0.2401  0.0249
 5477SOL     OW27889   3.346   3.017   3.258  0.0324 -0.1598  0.2104
 5477SOL    HW127890   3.390   2.981   3.180  0.8722 -1.7708  1.4245
 5477SOL    HW227891   3.270   3.070   3.234  0.4159  0.2906 -0.0031
 5478SOL     OW27892   4.041   2.279   7.743  0.2153  0.0040  0.1818
 5478SOL    HW127893   4.104   2.302   7.674 -0.2482  1.9821  0.4376
 5478SOL    HW227894   4.093   2.317   7.814 -0.9834  1.9098  0.0256
 5479SOL     OW27895   0.748   1.953  10.780  0.5866  0.0271 -0.9770
 5479SOL    HW127896   0.790   1.868  10.795 -0.1606  0.0503  1.2958
 5479SOL    HW227897   0.684   1.931  10.712 -1.2134 -1.1879  1.0937
 5480SOL     OW27898   0.847   0.885   5.261  0.1434 -0.7977 -0.6610
 5480SOL    HW127899   0.812   0.796   5.269  0.4624 -0.7376  1.5454
 5480SOL    HW227900   0.808   0.934   5.334 -2.8847 -0.9849 -2.1792
 5481SOL     OW27901   1.968   1.780   0.513  0.0511  0.0542 -0.3964
 5481SOL    HW127902   1.982   1.873   0.495 -1.5845  0.2146 -0.8108
 5481SOL    HW227903   1.912   1.749   0.442  0.3769  2.4580 -1.7022
 5482SOL     OW27904   2.936   3.910  13.712 -0.2715 -0.3521 -0.9608
 5482SOL    HW127905   3.004   3.863  13.665  0.5144  0.5755 -0.7472
 5482SOL    HW227906   2.867   3.918  13.646 -1.0151  3.7265  0.3170
 5483SOL     OW27907   2.567   4.663  17.239  0.1776  0.0962  0.4031
 5483SOL    HW127908   2.553   4.648  17.332 -0.8543  3.3170  0.7912
 5483SOL    HW227909   2.631   0.010  17.241  0.7298 -0.3847 -0.1212
 5484SOL     OW27910   0.994   0.660   8.202 -1.0109  0.5553 -0.1684
 5484SOL    HW127911   0.974   0.752   8.190  1.3105  1.6815  4.5134
 5484SOL    HW227912   0.963   0.650   8.292  1.2252 -1.9452  0.3417
 5485SOL     OW27913   1.511   1.233   5.358  0.1157 -0.3290 -0.1345
 5485SOL    HW127914   1.584   1.206   5.413 -1.6400 -2.9607  0.9141
 5485SOL    HW227915   1.509   1.328   5.351 -0.6055 -0.4908 -2.1935
 5486SOL     OW27916   1.144   3.697   7.080 -0.6001  0.7171 -0.3425
 5486SOL    HW127917   1.208   3.767   7.071 -0.3602  0.5072 -0.2726
 5486SOL    HW227918   1.193   3.622   7.114 -1.5086 -0.7128 -2.1437
 5487SOL     OW27919   1.820   1.381   7.206  1.2045 -0.1282 -0.3940
 5487SOL    HW127920   1.897   1.398   7.152  0.6798  0.5785 -0.9296
 5487SOL    HW227921   1.764   1.338   7.142 -0.4065  0.6109  0.5251
 5488SOL     OW27922   3.594   3.164  14.275  0.7227 -0.3753 -0.2601
 5488SOL    HW127923   3.686   3.139  14.290  1.5692  2.9907  0.2251
 5488SOL    HW227924   3.615   3.256  14.259  1.3753 -0.5763 -0.5649
 5489SOL     OW27925   1.260   0.629   9.941  0.1836  1.1015 -0.8711
 5489SOL    HW127926   1.169   0.656   9.932 -0.8142 -1.1462  2.3464
 5489SOL    HW227927   1.245   0.597  10.030 -2.7390 -1.0012 -2.1396
 5490SOL     OW27928   2.769   3.285   8.279  0.3778 -0.5624  0.4424
 5490SOL    HW127929   2.841   3.263   8.221 -0.1408  2.3590 -1.3355
 5490SOL    HW227930   2.741   3.359   8.224  1.5012 -0.9497 -0.6402
 5491SOL     OW27931   2.345   3.651   5.968  0.2492  0.8655  0.2894
 5491SOL    HW127932   2.253   3.648   5.994  0.1938 -1.7984 -0.2319
 5491SOL    HW227933   2.381   3.726   6.015 -1.5912  1.2758  1.0234
 5492SOL     OW27934   0.420   4.260   1.660 -0.5267  0.0760 -0.2159
 5492SOL    HW127935   0.331   4.290   1.643 -0.5642  0.5902  0.8734
 5492SOL    HW227936   0.435   4.300   1.746 -2.0919  0.2258 -0.0233
 5493SOL     OW27937   0.836   4.021   2.997 -0.1857  0.2934 -0.7556
 5493SOL    HW127938   0.906   4.082   3.018  0.0916 -0.1064 -0.5195
 5493SOL    HW227939   0.832   4.041   2.904 -1.6112  1.5083 -0.4335
 5494SOL     OW27940   3.054   1.945  17.318  0.1400 -0.1388 -0.5961
 5494SOL    HW127941   2.977   1.994  17.292 -0.8554 -0.6298  1.4109
 5494SOL    HW227942   3.099   1.931  17.235 -0.5337 -5.1062 -0.0780
 5495SOL     OW27943   0.048   3.160  16.158  0.2411 -0.6474 -0.0481
 5495SOL    HW127944   0.138   3.165  16.126 -1.1742  1.0347 -3.6835
 5495SOL    HW227945   0.009   3.223  16.098  0.5984  1.9051  2.3822
 5496SOL     OW27946   2.580   2.432  15.789  0.0958  0.3155 -0.1296
 5496SOL    HW127947   2.560   2.342  15.817 -0.4365  0.2230 -0.8021
 5496SOL    HW227948   2.573   2.427  15.694  1.3184 -0.3405 -0.1844
 5497SOL     OW27949   0.915   2.667   9.582 -0.4954  0.3699 -0.2701
 5497SOL    HW127950   0.872   2.724   9.645 -2.1925 -1.0435 -0.1302
 5497SOL    HW227951   0.917   2.579   9.619  1.3470 -0.6359 -2.7554
 5498SOL     OW27952   0.965   4.631   5.368  0.6728 -0.2439 -0.4485
 5498SOL    HW127953   1.040   4.576   5.391  1.2636  1.2317  1.2013
 5498SOL    HW227954   0.979   4.659   5.278  1.0089 -0.4125 -0.4477
 5499SOL     OW27955   0.531   0.781  16.805 -0.9112  0.3682  0.3086
 5499SOL    HW127956   0.549   0.764  16.898  1.4966 -1.5717 -0.5339
 5499SOL    HW227957   0.554   0.696  16.768  0.0809  1.1531 -0.8718
 5500SOL     OW27958   3.776   1.942   1.712 -0.2997  0.4870  0.5109
 5500SOL    HW127959   3.748   1.852   1.695  2.1758  0.0897 -1.4445
 5500SOL    HW227960   3.871   1.935   1.710 -0.3546 -0.5705  1.6491
 5501SOL     OW27961   3.213   0.932  15.020 -0.3017 -0.3695 -0.1281
 5501SOL    HW127962   3.284   0.964  14.964 -1.8872 -2.1640 -3.1254
 5501SOL    HW227963   3.252   0.861  15.070 -0.7442  0.0623  0.8325
 5502SOL     OW27964   3.299   0.190   4.125  0.0018 -0.5495 -0.2293
 5502SOL    HW127965   3.228   0.176   4.188  1.0097  2.4611  1.5869
 5502SOL    HW227966   3.249   0.210   4.045 -0.3565  0.2717  0.1992
 5503SOL     OW27967   4.536   2.342   9.122  0.0022 -0.4463 -0.0635
 5503SOL    HW127968   4.596   2.309   9.188 -0.9113  0.7000  1.3209
 5503SOL    HW227969   4.448   2.313   9.148  0.5572 -1.2778  0.9084
 5504SOL     OW27970   2.334   4.042   1.211 -0.2832 -0.0108  0.3889
 5504SOL    HW127971   2.314   4.105   1.280 -1.3308  2.6905 -2.3300
 5504SOL    HW227972   2.428   4.034   1.224 -0.3672  2.3495  2.4575
 5505SOL     OW27973   1.507   3.543  14.819  0.2464 -0.0152 -0.1375
 5505SOL    HW127974   1.461   3.460  14.833  0.8441 -0.5204 -1.1521
 5505SOL    HW227975   1.441   3.591  14.770  0.9236  1.9002  0.8270
 5506SOL     OW27976   0.548   2.465   6.139 -0.3141 -0.1418 -0.3245
 5506SOL    HW127977   0.571   2.490   6.050  0.8387  0.9514  0.2829
 5506SOL    HW227978   0.636   2.444   6.168  0.2442  1.8189 -0.6476
 5507SOL     OW27979   0.091   4.414   3.104 -0.2902  0.2929  0.5158
 5507SOL    HW127980   0.068   4.432   3.013  0.5478  0.3606  0.3102
 5507SOL    HW227981   0.186   4.405   3.093 -0.1470 -0.3635  2.2585
 5508SOL     OW27982   0.007   1.081  10.142  0.3063 -0.4375  0.0341
 5508SOL    HW127983   0.041   1.026  10.213 -3.3107 -1.2840  1.1109
 5508SOL    HW227984   0.017   1.161  10.193 -1.4375 -0.4505  0.4015
 5509SOL     OW27985   3.071   1.793   3.172 -0.3071  0.1499  0.3158
 5509SOL    HW127986   3.138   1.726   3.186  0.0484  0.7371  1.3759
 5509SOL    HW227987   3.043   1.760   3.086 -1.7722 -1.9180  1.5997
 5510SOL     OW27988   0.646   2.557   5.896  0.2685  0.2206  0.2906
 5510SOL    HW127989   0.589   2.579   5.822  1.4338 -2.1606 -1.3289
 5510SOL    HW227990   0.714   2.623   5.889 -1.0418  1.5370  0.0680
 5511SOL     OW27991   2.438   1.338  10.668 -0.6436  0.1175 -0.2281
 5511SOL    HW127992   2.490   1.260  10.687 -0.1648  0.6148  0.5272
 5511SOL    HW227993   2.491   1.370  10.596  1.6612 -0.3588  1.2402
 5512SOL     OW27994   3.119   0.801  17.129 -0.4013 -0.2843 -0.3401
 5512SOL    HW127995   3.060   0.842  17.065 -2.8572 -2.0033  0.8398
 5512SOL    HW227996   3.175   0.874  17.156  0.6289 -1.2638  0.1554
 5513SOL     OW27997   3.982   1.304  12.795  1.2578  0.2365 -0.3981
 5513SOL    HW127998   4.004   1.223  12.842  0.6537 -0.1514 -0.7873
 5513SOL    HW227999   3.919   1.271  12.731 -0.3162  2.0576  0.2147
 5514SOL     OW28000   2.435   2.224   8.765  0.1497  0.4613 -0.2693
 5514SOL    HW128001   2.422   2.263   8.851  0.3507 -3.5326  1.5461
 5514SOL    HW228002   2.515   2.270   8.738 -0.2795  2.0110  1.1366
 5515SOL     OW28003   0.934   4.541  16.589 -0.3764  0.0147  0.1105
 5515SOL    HW128004   0.925   4.625  16.634  1.8648 -0.2302  0.9991
 5515SOL    HW228005   0.941   4.487  16.668 -1.8212 -2.3032 -1.3359
 5516SOL     OW28006   0.938   3.683   6.909 -0.9509 -0.2357 -0.5136
 5516SOL    HW128007   1.025   3.677   6.949 -1.7970 -2.7556  0.9307
 5516SOL    HW228008   0.943   3.772   6.875 -0.6612  0.7794  2.2022
 5517SOL     OW28009   2.723   3.280  14.160 -0.1184  0.0284 -0.2247
 5517SOL    HW128010   2.726   3.340  14.234  1.1998  0.2586 -0.4688
 5517SOL    HW228011   2.688   3.334  14.088 -1.8494 -0.7746  0.0157
 5518SOL     OW28012   4.393   3.690  17.629  0.2603  0.5621 -0.7573
 5518SOL    HW128013   4.444   3.767  17.603 -0.8710  2.2648  2.0109
 5518SOL    HW228014   4.426   3.681   0.019 -3.2259  1.5820  0.6265
 5519SOL     OW28015   2.482   3.074   6.605 -0.4104  0.3737  0.6270
 5519SOL    HW128016   2.466   3.019   6.682 -2.6248  1.0644  0.6560
 5519SOL    HW228017   2.573   3.103   6.614 -1.1865  1.5587  4.5615
 5520SOL     OW28018   0.160   1.629   6.190 -0.4258  0.1769  0.3275
 5520SOL    HW128019   0.230   1.630   6.255  2.9717 -1.0952 -3.2426
 5520SOL    HW228020   0.202   1.656   6.108  0.0450  0.6798  0.7402
 5521SOL     OW28021   3.040   4.247   2.787  0.4370 -0.8888  0.5698
 5521SOL    HW128022   2.968   4.226   2.846  0.1904 -0.2210  0.4994
 5521SOL    HW228023   2.997   4.233   2.703  0.9070  1.1951 -0.0000
 5522SOL     OW28024   1.236   0.900  11.320  0.8300  0.2619  0.4312
 5522SOL    HW128025   1.287   0.967  11.274 -1.0443  1.0891 -0.4676
 5522SOL    HW228026   1.302   0.862  11.379  1.9562 -0.4818 -1.3139
 5523SOL     OW28027   3.266   0.900  11.403 -0.3042 -0.4936 -0.2282
 5523SOL    HW128028   3.251   0.985  11.362 -0.7328 -1.1344 -1.4034
 5523SOL    HW228029   3.360   0.893  11.387  0.1180 -0.1687  2.0072
 5524SOL     OW28030   1.707   2.584   4.063 -0.0211 -0.6869  0.0613
 5524SOL    HW128031   1.646   2.656   4.072  0.7781 -0.1143  0.9188
 5524SOL    HW228032   1.655   2.508   4.035 -2.8415  1.3771 -0.2527
 5525SOL     OW28033   1.206   1.945   1.569  0.2474 -0.6354 -0.3193
 5525SOL    HW128034   1.252   1.898   1.499  0.3204 -2.9167  1.2496
 5525SOL    HW228035   1.239   2.034   1.578 -2.1056  0.2932 -0.8448
 5526SOL     OW28036   2.659   0.123   6.414  0.3290 -0.2662 -0.3160
 5526SOL    HW128037   2.614   0.123   6.498 -0.9099  2.8454 -0.9723
 5526SOL    HW228038   2.694   0.034   6.412  1.6304  0.1513  2.6077
 5527SOL     OW28039   2.606   3.192   9.751 -0.0177 -0.0028  0.2608
 5527SOL    HW128040   2.566   3.206   9.837 -3.4487 -6.5660 -0.2734
 5527SOL    HW228041   2.532   3.157   9.701 -0.3246 -1.4719  1.7560
 5528SOL     OW28042   1.632   3.000  11.380  0.4475  0.1253  0.1835
 5528SOL    HW128043   1.537   3.013  11.383  0.5538  1.0427 -0.5766
 5528SOL    HW228044   1.642   2.924  11.438  0.3518 -0.5928 -0.7417
 5529SOL     OW28045   3.785   3.512   1.914  0.0736 -0.5455 -0.0894
 5529SOL    HW128046   3.786   3.417   1.904 -1.1695 -0.4513 -1.1953
 5529SOL    HW228047   3.852   3.539   1.851  0.2708  0.8849  0.7385
 5530SOL     OW28048   1.426   2.002   8.907  0.0764  0.0449  0.2476
 5530SOL    HW128049   1.473   1.985   8.990 -1.1915 -0.2786  0.8973
 5530SOL    HW228050   1.364   2.067   8.939 -0.7751 -0.2784 -0.7465
 5531SOL     OW28051   1.718   4.376   5.188 -0.6681  0.2020  0.6090
 5531SOL    HW128052   1.767   4.324   5.125 -2.1379 -0.3333 -0.0988
 5531SOL    HW228053   1.633   4.335   5.171 -0.0587 -0.7274 -0.1757
 5532SOL     OW28054   0.248   2.523  10.030  0.4318  0.0442 -0.3105
 5532SOL    HW128055   0.261   2.471   9.950 -0.9163  0.5123 -0.8245
 5532SOL    HW228056   0.208   2.603   9.995 -3.7505 -1.0950  1.8985
 5533SOL     OW28057   3.666   4.562   7.525 -0.1612 -0.5264  0.1292
 5533SOL    HW128058   3.579   4.526   7.541 -0.2203 -1.5478 -2.5447
 5533SOL    HW228059   3.654   4.653   7.552 -0.6928 -0.1210 -1.4734
 5534SOL     OW28060   2.850   1.927   9.069 -0.1226  0.1057  0.1601
 5534SOL    HW128061   2.778   1.958   9.123 -1.1590 -1.0711 -0.5391
 5534SOL    HW228062   2.921   1.988   9.087  0.2361 -0.5558  0.9884
 5535SOL     OW28063   0.793   0.713  16.672  0.4693  0.0072 -0.2905
 5535SOL    HW128064   0.836   0.633  16.641 -0.1753 -1.0483  1.5563
 5535SOL    HW228065   0.840   0.725  16.755 -0.9524  0.4916  0.4443
 5536SOL     OW28066   1.019   1.871  11.079  0.6094 -0.4794  0.5707
 5536SOL    HW128067   0.962   1.833  11.012 -1.8985 -0.7151  2.8579
 5536SOL    HW228068   0.962   1.847  11.152 -0.3959 -1.9017 -0.6850
 5537SOL     OW28069   0.974   1.154   5.205  0.0129 -0.2294  0.4829
 5537SOL    HW128070   0.881   1.176   5.194 -0.1179 -0.7772  0.4843
 5537SOL    HW228071   0.980   1.142   5.300 -1.2608  1.1093  0.7464
 5538SOL     OW28072   0.927   4.045   8.370  0.2310  0.7379 -1.0322
 5538SOL    HW128073   0.914   3.951   8.382 -0.1951  1.2665  2.5412
 5538SOL    HW228074   1.019   4.043   8.343  0.2571 -0.7755 -0.7887
 5539SOL     OW28075   0.106   3.604   8.210  0.2403  0.0645 -0.1999
 5539SOL    HW128076   0.107   3.561   8.124  1.8742  2.9069 -1.5890
 5539SOL    HW228077   0.164   3.679   8.198  0.2321 -0.0748 -1.1430
 5540SOL     OW28078   4.377   3.018   9.926 -0.1788  0.1569 -0.1379
 5540SOL    HW128079   4.451   2.984   9.976 -1.2151  1.5757  2.3733
 5540SOL    HW228080   4.434   3.049   9.856 -1.1917  3.4762  0.5040
 5541SOL     OW28081   1.648   0.479   5.279 -0.4247 -0.4969 -0.1614
 5541SOL    HW128082   1.727   0.490   5.225  0.2703  0.7655  1.1085
 5541SOL    HW228083   1.586   0.535   5.232 -0.2497 -1.0083 -1.0158
 5542SOL     OW28084   0.634   1.313   4.256 -0.1261  0.4176 -0.3623
 5542SOL    HW128085   0.579   1.235   4.256  1.5059 -0.7185  1.2060
 5542SOL    HW228086   0.613   1.350   4.170 -0.8858  1.1538  0.1388
 5543SOL     OW28087   2.339   3.603   6.501  0.0212  0.4358  0.4710
 5543SOL    HW128088   2.308   3.674   6.558 -0.6270  0.3252  0.2593
 5543SOL    HW228089   2.263   3.545   6.498 -0.0552  0.6089 -1.2152
 5544SOL     OW28090   0.390   2.333   2.555  0.2017 -0.0153  0.0756
 5544SOL    HW128091   0.319   2.269   2.563 -0.3774  0.6410  0.1453
 5544SOL    HW228092   0.340   2.395   2.502  1.3738 -1.9483 -3.3609
 5545SOL     OW28093   3.469   0.826  14.754  0.8292 -0.6099  0.0340
 5545SOL    HW128094   3.467   0.832  14.659  1.7704  1.0592  0.1134
 5545SOL    HW228095   3.426   0.909  14.773  0.8731 -0.5304 -0.2120
 5546SOL     OW28096   1.857   1.387   4.236 -0.2268 -0.0288 -0.1117
 5546SOL    HW128097   1.938   1.435   4.218  0.0224 -0.7097 -0.8423
 5546SOL    HW228098   1.861   1.388   4.331  4.3421 -0.2769 -0.3070
 5547SOL     OW28099   1.256   2.208  13.154 -0.3287  0.1888  0.3158
 5547SOL    HW128100   1.233   2.135  13.097 -1.2203  1.0548 -0.4391
 5547SOL    HW228101   1.245   2.280  13.091  0.1974  0.7687  0.8846
 5548SOL     OW28102   2.893   3.888   8.855 -0.4958 -0.0481  0.2540
 5548SOL    HW128103   2.867   3.870   8.945 -0.1679 -4.5527 -0.5414
 5548SOL    HW228104   2.981   3.851   8.852  0.0421  1.2798 -0.1893
 5549SOL     OW28105   2.424   0.883   7.760 -0.1947  0.3196 -0.4376
 5549SOL    HW128106   2.453   0.803   7.803 -0.0347  0.2503 -0.6692
 5549SOL    HW228107   2.440   0.942   7.833 -1.2187 -0.5621  0.4867
 5550SOL     OW28108   3.856   0.460   7.211  0.6482  0.5007 -0.1420
 5550SOL    HW128109   3.827   0.530   7.153  0.5734  0.6634  0.0923
 5550SOL    HW228110   3.942   0.486   7.243  0.8971  0.2356 -0.5893
 5551SOL     OW28111   2.347   2.518   6.999 -0.9183 -0.1254  0.0622
 5551SOL    HW128112   2.277   2.489   6.941  0.8683 -0.3177 -1.9704
 5551SOL    HW228113   2.413   2.532   6.932 -0.9796  1.5596  0.3465
 5552SOL     OW28114   4.455   3.095  15.376 -0.2090 -0.3003 -0.4087
 5552SOL    HW128115   4.393   3.074  15.446  0.7881  0.4353  0.6959
 5552SOL    HW228116   4.511   3.017  15.387  0.8511  0.4740 -0.3394
 5553SOL     OW28117   2.367   3.594  10.278 -0.3725 -0.3764  0.0928
 5553SOL    HW128118   2.343   3.627  10.365 -0.8475 -0.2995 -0.0703
 5553SOL    HW228119   2.302   3.633  10.220  0.9857  1.3119 -0.2931
 5554SOL     OW28120   2.694   3.729   7.835 -0.5761  0.0106  0.8891
 5554SOL    HW128121   2.782   3.747   7.802 -0.7409  0.7487  0.8444
 5554SOL    HW228122   2.690   3.803   7.896  2.0421  0.0607  1.0040
 5555SOL     OW28123   2.335   1.092  10.102  0.2425 -0.1524  0.1176
 5555SOL    HW128124   2.330   1.069  10.195 -0.9448 -1.4092 -0.2684
 5555SOL    HW228125   2.250   1.061  10.072 -0.2080  0.4312  0.7863
 5556SOL     OW28126   4.386   2.101  17.259  0.0673  0.0927  0.1316
 5556SOL    HW128127   4.438   2.180  17.275 -0.0367  0.2043 -0.0753
 5556SOL    HW228128   4.299   2.140  17.262  0.5147  1.3809 -2.5998
 5557SOL     OW28129   4.589   4.325  11.508  0.6046  0.2737 -0.3679
 5557SOL    HW128130   4.648   4.254  11.483  1.8609  0.8906  0.8737
 5557SOL    HW228131   4.512   4.283  11.548  0.4827  0.4376 -0.4306
 5558SOL     OW28132   1.410   3.188   7.842 -0.3426 -0.0760 -0.3904
 5558SOL    HW128133   1.399   3.117   7.780 -1.4969  0.7196 -1.0978
 5558SOL    HW228134   1.473   3.142   7.898 -0.4863 -1.7435 -1.6179
 5559SOL     OW28135   2.981   3.137   4.539 -0.5290 -0.0299  0.1020
 5559SOL    HW128136   3.020   3.217   4.574 -1.0994  0.6521 -0.8114
 5559SOL    HW228137   3.046   3.107   4.476 -0.6946 -0.7461  0.2722
 5560SOL     OW28138   2.533   4.700   8.778  0.6127 -0.3530 -0.7607
 5560SOL    HW128139   2.536   4.642   8.854 -0.1004  0.0701 -0.4117
 5560SOL    HW228140   2.458   0.034   8.789  1.1666  0.2369 -0.0582
 5561SOL     OW28141   4.066   3.178   5.715 -0.1208  0.3369 -0.4078
 5561SOL    HW128142   4.082   3.248   5.778 -1.1610  1.0486 -0.9289
 5561SOL    HW228143   3.971   3.167   5.723  0.2341 -1.1286  1.7804
 5562SOL     OW28144   3.064   3.113  11.356  0.2357 -0.2086  0.0013
 5562SOL    HW128145   3.039   3.027  11.391  2.3692 -1.0234 -0.4996
 5562SOL    HW228146   3.026   3.099  11.269  0.2474  0.7163 -0.1550
 5563SOL     OW28147   2.787   3.367   7.664 -0.0532 -0.3093 -0.0348
 5563SOL    HW128148   2.706   3.380   7.714 -1.1046 -1.0468 -1.5348
 5563SOL    HW228149   2.774   3.276   7.637  0.3094  0.2089 -1.9173
 5564SOL     OW28150   3.234   3.112   6.326 -0.1518 -0.8508 -0.8633
 5564SOL    HW128151   3.297   3.133   6.395  0.3028 -0.0358 -1.5340
 5564SOL    HW228152   3.278   3.134   6.244 -1.4645  1.5822 -0.9139
 5565SOL     OW28153   3.095   2.485   9.514 -0.4642 -0.0229  0.1875
 5565SOL    HW128154   3.060   2.396   9.524  0.9045 -0.5194  0.5308
 5565SOL    HW228155   3.159   2.485   9.585 -1.2730  0.5901  0.9311
 5566SOL     OW28156   0.467   2.435   9.714  0.6941  0.2540 -0.3652
 5566SOL    HW128157   0.535   2.479   9.663  0.7367  1.4651  0.7169
 5566SOL    HW228158   0.408   2.508   9.732 -0.7576 -0.7884 -0.9581
 5567SOL     OW28159   0.380   1.530   7.792 -0.4085 -0.4089  0.0090
 5567SOL    HW128160   0.397   1.570   7.707  0.6584  2.0127  1.3500
 5567SOL    HW228161   0.428   1.448   7.778 -0.8994 -0.7980  0.6210
 5568SOL     OW28162   0.100   4.564   0.932 -0.3399  0.6151 -0.0747
 5568SOL    HW128163   0.136   4.649   0.908  1.2251 -0.5740 -1.8701
 5568SOL    HW228164   0.081   4.579   1.025 -1.3788 -0.9674 -0.0223
 5569SOL     OW28165   2.379   3.931  11.175 -0.1244  0.0233  0.0285
 5569SOL    HW128166   2.350   3.891  11.093  0.7583 -0.2962 -0.1217
 5569SOL    HW228167   2.474   3.930  11.171 -0.0494 -1.1278  2.1843
 5570SOL     OW28168   4.259   0.758   6.070  0.1029 -0.1076 -0.4802
 5570SOL    HW128169   4.227   0.814   6.141  2.0064  1.9277 -1.2356
 5570SOL    HW228170   4.348   0.741   6.101  0.3285  0.4530 -0.8214
 5571SOL     OW28171   0.638   4.587   9.367 -0.4506  0.2146  0.1320
 5571SOL    HW128172   0.704   4.518   9.371 -0.5759  0.0871 -0.0324
 5571SOL    HW228173   0.576   4.555   9.431 -3.4861  2.2764 -1.7731
 5572SOL     OW28174   1.928   1.729   1.275  0.1148 -0.2074  0.1416
 5572SOL    HW128175   1.903   1.723   1.367 -3.2307  2.6157 -0.6064
 5572SOL    HW228176   1.841   1.754   1.247  1.3930 -0.1816 -3.7841
 5573SOL     OW28177   2.559   3.103   8.052 -0.5300 -0.0195  0.8425
 5573SOL    HW128178   2.634   3.049   8.080  1.6362  2.2359 -0.6474
 5573SOL    HW228179   2.586   3.109   7.961  0.0789  0.9541  1.0901
 5574SOL     OW28180   3.816   0.027   8.130 -0.2210 -0.6015  0.3615
 5574SOL    HW128181   3.737   0.047   8.079 -0.7017  0.0607  1.3643
 5574SOL    HW228182   3.811   0.097   8.195  2.2159  0.9677 -1.1202
 5575SOL     OW28183   2.540   4.499   4.994 -0.0174 -0.2768 -0.1015
 5575SOL    HW128184   2.626   4.484   5.034  0.3943 -0.4305 -1.0297
 5575SOL    HW228185   2.495   4.537   5.069 -2.3298  0.0255 -1.6357
 5576SOL     OW28186   0.699   3.966   9.568  0.6121  0.3260 -0.6879
 5576SOL    HW128187   0.621   3.994   9.520 -1.4385 -3.2887  0.5949
 5576SOL    HW228188   0.733   4.051   9.597  0.6436  0.1075 -0.0921
 5577SOL     OW28189   0.968   2.322   3.959  0.1637 -0.2483  0.3727
 5577SOL    HW128190   1.026   2.396   3.941 -1.0427  0.5222 -0.3335
 5577SOL    HW228191   0.999   2.269   3.886 -0.0826 -0.0349  0.1137
 5578SOL     OW28192   4.078   4.712   8.635  0.7093 -0.0040 -0.2017
 5578SOL    HW128193   4.047   0.059   8.579 -0.9290 -0.6567 -0.1511
 5578SOL    HW228194   4.119   4.661   8.565  0.8089 -0.3197  0.0834
 5579SOL     OW28195   0.678   1.628   1.968 -0.2077 -0.9145  0.2713
 5579SOL    HW128196   0.668   1.541   1.930 -0.3808 -0.4233 -0.7923
 5579SOL    HW228197   0.721   1.672   1.895  0.4295 -0.0497  1.1733
 5580SOL     OW28198   1.455   4.648   2.896  0.1497 -0.3167  0.0896
 5580SOL    HW128199   1.440   4.631   2.803  3.1407 -0.8420 -0.3048
 5580SOL    HW228200   1.399   4.584   2.940 -0.6327 -1.3400 -2.3607
 5581SOL     OW28201   4.681   2.961  16.022  0.2001  0.3822  0.1080
 5581SOL    HW128202   4.598   2.949  16.067 -0.8656  1.4419 -1.5827
 5581SOL    HW228203   4.722   3.031  16.073 -2.2251  2.4017 -0.6726
 5582SOL     OW28204   3.781   4.718   9.214  0.3519 -0.2921 -0.2977
 5582SOL    HW128205   3.739   0.053   9.152  0.3589  1.6266  1.5791
 5582SOL    HW228206   3.732   0.026   9.289  1.9113  0.7983  0.2407
 5583SOL     OW28207   3.247   0.756   3.140 -1.3211  0.0768  0.2277
 5583SOL    HW128208   3.261   0.661   3.138 -0.4802  0.2072 -0.0642
 5583SOL    HW228209   3.333   0.772   3.102 -1.7299 -0.4571 -0.9349
 5584SOL     OW28210   2.951   2.180  10.751  0.2345 -0.3917  0.5523
 5584SOL    HW128211   2.863   2.185  10.790 -0.6863 -1.0850 -1.4397
 5584SOL    HW228212   2.948   2.085  10.741 -2.8451 -0.2041 -0.2071
 5585SOL     OW28213   0.989   1.764  12.650 -0.0076 -0.1359  1.0161
 5585SOL    HW128214   0.963   1.813  12.728 -0.8105  1.1356 -0.0500
 5585SOL    HW228215   1.084   1.767  12.656  0.1648 -2.3133 -0.6243
 5586SOL     OW28216   4.268   4.091   9.803 -0.4175 -0.0508  0.7086
 5586SOL    HW128217   4.187   4.050   9.834 -0.2800 -1.9175 -1.4018
 5586SOL    HW228218   4.303   4.111   9.889  0.4207 -1.5116  0.7017
 5587SOL     OW28219   0.429   1.286   2.637  0.3961  0.0892  0.2664
 5587SOL    HW128220   0.445   1.314   2.547 -1.7584 -2.9882 -1.0707
 5587SOL    HW228221   0.514   1.248   2.661  1.6108  2.2114 -0.6858
 5588SOL     OW28222   4.378   1.525   3.266  0.5866 -0.6892 -0.4209
 5588SOL    HW128223   4.432   1.526   3.186  1.9810 -0.7539  0.5186
 5588SOL    HW228224   4.439   1.568   3.326 -1.2180 -1.0278  1.6352
 5589SOL     OW28225   1.068   4.427   0.187  0.1522 -0.3491 -0.1918
 5589SOL    HW128226   1.073   4.363   0.115  1.5718 -0.3365 -0.1021
 5589SOL    HW228227   0.979   4.412   0.220  1.6113 -0.5223  3.5782
 5590SOL     OW28228   0.400   4.533   6.708 -0.5840  0.5404  0.0384
 5590SOL    HW128229   0.427   4.527   6.616 -1.3380 -0.1777 -0.1325
 5590SOL    HW228230   0.317   4.487   6.696 -0.9423  1.7344 -2.0068
 5591SOL     OW28231   3.748   1.172   3.185 -0.0407 -0.1055 -0.1489
 5591SOL    HW128232   3.656   1.196   3.196 -0.8313 -2.5008 -1.7264
 5591SOL    HW228233   3.790   1.231   3.248 -1.3299 -0.0310  0.6460
 5592SOL     OW28234   0.959   4.420   6.644 -0.1659 -0.2027 -0.1318
 5592SOL    HW128235   0.927   4.507   6.666  0.3896 -0.6820  2.6075
 5592SOL    HW228236   0.880   4.365   6.649  1.1034 -2.1045 -1.2495
 5593SOL     OW28237   4.460   4.109   8.770 -0.2378  0.2544  0.2556
 5593SOL    HW128238   4.496   4.056   8.699  0.9633  1.1200  0.2166
 5593SOL    HW228239   4.546   4.133   8.805 -0.5916 -0.1373  1.4034
 5594SOL     OW28240   0.984   3.029   4.713 -0.3286 -0.0578  0.1281
 5594SOL    HW128241   1.025   2.950   4.677  1.1948  0.6425  0.3318
 5594SOL    HW228242   0.967   3.076   4.631 -1.0290 -1.3976 -0.4934
 5595SOL     OW28243   0.696   2.919   8.092  0.0681  0.2678 -0.2081
 5595SOL    HW128244   0.781   2.963   8.092 -0.1206  0.6383  0.0577
 5595SOL    HW228245   0.729   2.829   8.095 -1.0377 -0.2038 -2.4045
 5596SOL     OW28246   0.945   3.367   3.658 -0.2247  0.0045 -0.5524
 5596SOL    HW128247   1.009   3.438   3.653 -1.3561  1.1822  1.7454
 5596SOL    HW228248   1.002   3.289   3.655 -0.0013  0.0930  0.9786
 5597SOL     OW28249   1.196   2.325   2.158 -0.0324 -0.0733  0.1940
 5597SOL    HW128250   1.145   2.373   2.223 -0.0108 -0.7170  0.6826
 5597SOL    HW228251   1.232   2.403   2.116  0.7182 -1.4251 -1.7078
 5598SOL     OW28252   2.774   3.762   1.155 -0.6654 -0.0381 -0.4417
 5598SOL    HW128253   2.734   3.837   1.200  0.5954 -0.2847  1.0798
 5598SOL    HW228254   2.737   3.772   1.067 -0.1283  0.5554 -0.6017
 5599SOL     OW28255   2.253   0.419   2.066 -0.3639  0.5266  0.3211
 5599SOL    HW128256   2.201   0.499   2.061 -0.7816  0.1336 -1.8307
 5599SOL    HW228257   2.192   0.359   2.023  0.4029 -0.2617  0.3238
 5600SOL     OW28258   0.891   0.810  16.933  0.2791  0.6121 -0.5454
 5600SOL    HW128259   0.807   0.815  16.978  1.8921  0.1852  2.5694
 5600SOL    HW228260   0.937   0.757  16.999 -0.4427 -0.2401 -0.7393
 5601SOL     OW28261   2.252   2.482   6.468  0.2389  1.0607 -0.5900
 5601SOL    HW128262   2.203   2.563   6.485 -0.2545  0.9160 -1.2777
 5601SOL    HW228263   2.203   2.405   6.494  1.3893  2.1752  4.8221
 5602SOL     OW28264   4.616   2.695   8.531 -0.2646  0.0725 -0.1579
 5602SOL    HW128265   4.699   2.676   8.574 -0.1633 -1.0223 -0.8310
 5602SOL    HW228266   4.551   2.665   8.593  0.7142 -0.0984  0.7853
 5603SOL     OW28267   1.230   4.633   1.570  0.7212  0.6322 -0.3448
 5603SOL    HW128268   1.305   4.574   1.563  1.2840  0.8768  3.3701
 5603SOL    HW228269   1.173   4.588   1.507  1.5516  0.7496 -1.1754
 5604SOL     OW28270   1.535   3.842   3.859  0.2261 -0.1573 -0.2684
 5604SOL    HW128271   1.536   3.837   3.955 -0.9078  2.2924 -0.1065
 5604SOL    HW228272   1.525   3.937   3.845  3.0861  0.4242  1.6676
 5605SOL     OW28273   3.303   0.833   5.497 -0.0221 -0.2168  0.0641
 5605SOL    HW128274   3.374   0.805   5.555  0.4013  1.6963  0.4562
 5605SOL    HW228275   3.268   0.747   5.472  0.8798 -0.6556  0.3284
 5606SOL     OW28276   4.489   2.846  16.173  0.3603 -0.1123  0.3078
 5606SOL    HW128277   4.426   2.845  16.244  0.0976 -0.0615  0.0762
 5606SOL    HW228278   4.531   2.760  16.179  0.3443  0.0043  2.0550
 5607SOL     OW28279   2.577   1.041   0.981  0.3550 -0.4993 -0.5968
 5607SOL    HW128280   2.612   0.979   1.045 -0.5060 -1.2985 -0.8942
 5607SOL    HW228281   2.600   1.121   1.028 -0.3808 -0.7894  0.2714
 5608SOL     OW28282   1.844   0.669   8.531  0.4828  0.2209  0.3939
 5608SOL    HW128283   1.928   0.632   8.505  0.7846 -0.0903  1.8156
 5608SOL    HW228284   1.784   0.595   8.519  1.0986 -0.2779  0.4273
 5609SOL     OW28285   3.868   2.654  17.654  0.0233 -0.2994 -0.0955
 5609SOL    HW128286   3.796   2.592  17.655  0.2076 -0.5600 -2.2430
 5609SOL    HW228287   3.927   2.600   0.006  1.2633  0.8588 -0.2854
 5610SOL     OW28288   0.790   4.191   1.061 -0.6048  0.3021 -0.2605
 5610SOL    HW128289   0.828   4.110   1.095  1.8691  1.7271  0.3620
 5610SOL    HW228290   0.791   4.177   0.966  1.1427 -2.5851  0.1731
 5611SOL     OW28291   3.060   2.581  13.741 -0.0750  0.2032 -0.0764
 5611SOL    HW128292   3.014   2.605  13.822 -0.3199  3.3268 -1.1837
 5611SOL    HW228293   3.037   2.655  13.685 -0.5514 -0.9694 -1.4210
 5612SOL     OW28294   3.224   3.731  12.695  0.0796  0.2713  0.1777
 5612SOL    HW128295   3.180   3.650  12.670 -0.3333  0.5362  0.0454
 5612SOL    HW228296   3.317   3.722  12.673  0.2803  0.9312  0.7434
 5613SOL     OW28297   3.796   1.399   7.765  0.4448  0.1373  0.4063
 5613SOL    HW128298   3.821   1.459   7.835  0.5037 -0.2460  0.7158
 5613SOL    HW228299   3.704   1.423   7.752  0.5468  1.1037  1.5009
 5614SOL     OW28300   1.188   1.605   4.593 -0.4798  0.2149 -0.3851
 5614SOL    HW128301   1.101   1.576   4.619 -1.6253  1.9469 -2.2243
 5614SOL    HW228302   1.225   1.599   4.681 -1.3620 -1.2798 -0.1171
 5615SOL     OW28303   0.558   0.127   5.689  0.1179 -0.0584  0.5016
 5615SOL    HW128304   0.629   0.189   5.703  0.4708  0.0831 -1.8882
 5615SOL    HW228305   0.499   0.161   5.756  1.2268  0.4542  1.2053
 5616SOL     OW28306   2.746   1.624   2.221  0.1982  0.0510  0.1199
 5616SOL    HW128307   2.785   1.650   2.137  2.8503  1.6199  1.8477
 5616SOL    HW228308   2.713   1.536   2.202  1.2072 -0.6657  1.7186
 5617SOL     OW28309   2.536   0.489   6.003 -0.8988  0.5431  0.0591
 5617SOL    HW128310   2.563   0.535   6.082  1.5243 -0.6883 -0.0594
 5617SOL    HW228311   2.579   0.404   6.013  1.4965  1.7456  0.0990
 5618SOL     OW28312   4.724   4.623   1.201 -0.1202 -0.4101 -0.0039
 5618SOL    HW128313   4.708   4.533   1.231 -0.1147 -0.3186  0.2808
 5618SOL    HW228314   0.067   4.656   1.260 -0.4451  1.3894 -0.6525
 5619SOL     OW28315   3.529   1.157   5.203  0.5963 -0.1383  1.2190
 5619SOL    HW128316   3.513   1.066   5.176  1.5161 -0.2627  1.0925
 5619SOL    HW228317   3.624   1.151   5.201  0.5874  0.2630 -0.2812
 5620SOL     OW28318   3.800   3.271  12.897  0.4011  0.2197 -0.4792
 5620SOL    HW128319   3.739   3.197  12.896  0.6471 -0.0429  2.3880
 5620SOL    HW228320   3.860   3.242  12.829  2.1568 -2.5722  2.2456
 5621SOL     OW28321   2.043   2.957   1.778 -0.4524  0.0478 -0.1990
 5621SOL    HW128322   2.049   2.887   1.713  0.9122  2.2740 -2.4563
 5621SOL    HW228323   2.096   2.916   1.847  0.0752 -0.5621 -0.9721
 5622SOL     OW28324   1.675   2.597   5.611  0.4277  0.3840  0.0188
 5622SOL    HW128325   1.742   2.649   5.656 -0.6737  1.6940  0.1643
 5622SOL    HW228326   1.606   2.598   5.678  1.0513 -0.3595  0.6646
 5623SOL     OW28327   2.645   0.907   6.131  0.1242  0.4152  0.0190
 5623SOL    HW128328   2.615   0.927   6.220  2.4715  2.4717  0.3450
 5623SOL    HW228329   2.570   0.921   6.074 -0.5732 -0.6204  0.6977
 5624SOL     OW28330   3.649   2.558   0.076 -0.1945  0.1792 -0.0152
 5624SOL    HW128331   3.608   2.560   0.163  3.0941  0.2636  1.5232
 5624SOL    HW228332   3.588   2.608   0.022 -0.5621 -0.9465 -0.6434
 5625SOL     OW28333   3.953   4.427   7.182 -0.1710 -0.5428  0.6315
 5625SOL    HW128334   4.028   4.394   7.133  0.7306  0.9211  1.0268
 5625SOL    HW228335   3.884   4.370   7.148  0.1339 -0.0762 -0.7744
 5626SOL     OW28336   0.470   1.489   2.816 -0.4540  0.3322 -0.0775
 5626SOL    HW128337   0.425   1.569   2.789 -1.7158 -1.2971 -2.8079
 5626SOL    HW228338   0.444   1.426   2.748  3.1990  1.5558 -2.6566
 5627SOL     OW28339   3.656   1.835   0.205  0.0006  0.8309  0.2854
 5627SOL    HW128340   3.663   1.931   0.212  0.3390  0.8354 -0.0931
 5627SOL    HW228341   3.595   1.828   0.132 -2.4189 -0.6258  2.4778
 5628SOL     OW28342   2.359   0.052   4.891 -0.2132 -0.5923  0.6388
 5628SOL    HW128343   2.423   0.043   4.961  2.8252  0.6253 -1.9963
 5628SOL    HW228344   2.305   0.126   4.920  2.5365  1.9079 -0.5744
 5629SOL     OW28345   4.324   0.482   6.971  0.0624  0.2811 -0.4752
 5629SOL    HW128346   4.267   0.424   7.021 -0.7600  1.1801 -0.3527
 5629SOL    HW228347   4.252   0.545   6.958  1.2625  1.4183 -1.6282
 5630SOL     OW28348   1.137   1.421   9.497  0.0570 -0.1770  0.3069
 5630SOL    HW128349   1.143   1.499   9.552 -1.5387  0.0424  0.1689
 5630SOL    HW228350   1.172   1.463   9.418 -1.0136 -1.0550 -0.6385
 5631SOL     OW28351   2.068   1.288   2.474  0.2379 -0.3385 -0.8157
 5631SOL    HW128352   2.044   1.196   2.463  0.5608 -0.2559 -2.2269
 5631SOL    HW228353   1.983   1.328   2.456  1.3271  2.5100  0.4720
 5632SOL     OW28354   3.814   4.294   0.403  0.0149  0.3885 -0.0787
 5632SOL    HW128355   3.883   4.330   0.347 -1.3757 -0.1934 -2.1526
 5632SOL    HW228356   3.793   4.213   0.356  0.6824 -0.2451  0.7184
 5633SOL     OW28357   0.372   2.139   3.995  0.2838 -0.4329 -0.2741
 5633SOL    HW128358   0.372   2.213   3.933  1.1508  0.8497  1.2782
 5633SOL    HW228359   0.465   2.124   4.009 -0.5488 -3.8347  1.6040
 5634SOL     OW28360   1.944   2.515   8.751 -0.2225  0.1472 -0.1460
 5634SOL    HW128361   1.943   2.433   8.802  2.8423 -0.8776 -1.7394
 5634SOL    HW228362   1.865   2.520   8.697 -1.0937 -1.7529  0.9533
 5635SOL     OW28363   2.872   2.275   1.688 -0.1353 -0.3081 -0.8671
 5635SOL    HW128364   2.852   2.363   1.658 -1.2873 -0.2445  0.0937
 5635SOL    HW228365   2.920   2.294   1.769 -0.5343  0.7509 -0.8897
 5636SOL     OW28366   3.889   0.611  12.393  0.2775 -0.1749 -0.5770
 5636SOL    HW128367   3.854   0.529  12.428 -0.5029  0.2574 -0.3581
 5636SOL    HW228368   3.975   0.600  12.433  0.7532  1.7564 -1.0627
 5637SOL     OW28369   1.111   0.177   7.765  0.5991  0.1946  0.4928
 5637SOL    HW128370   1.122   0.260   7.813 -1.1212  0.5247  0.3372
 5637SOL    HW228371   1.204   0.157   7.769  1.4315  3.8939  0.0398
 5638SOL     OW28372   3.942   0.422   2.973 -0.1173  0.2983  0.0601
 5638SOL    HW128373   3.948   0.491   3.040  0.5645  1.5010 -1.2516
 5638SOL    HW228374   4.037   0.409   2.979  0.0733  1.6030 -0.1331
 5639SOL     OW28375   4.257   3.486   4.126  0.4267 -0.4652  0.3132
 5639SOL    HW128376   4.188   3.494   4.191 -1.0831  0.2802 -1.3776
 5639SOL    HW228377   4.332   3.530   4.167  0.1638  0.7349 -0.4848
 5640SOL     OW28378   2.823   2.487   0.450  0.0906 -0.1460  0.0888
 5640SOL    HW128379   2.853   2.398   0.431  0.6331  0.1195 -0.2812
 5640SOL    HW228380   2.842   2.489   0.544  0.8718 -2.9684 -0.0118
 5641SOL     OW28381   3.694   3.166  15.524 -0.2982  0.0233  0.1996
 5641SOL    HW128382   3.684   3.194  15.433 -0.4131 -0.1781  0.1511
 5641SOL    HW228383   3.668   3.244  15.574  0.7586  1.0650 -0.8825
 5642SOL     OW28384   1.741   3.345   6.040 -0.2250 -0.2212 -0.0121
 5642SOL    HW128385   1.735   3.407   5.966 -1.2900 -0.6316 -0.2641
 5642SOL    HW228386   1.804   3.277   6.017  0.1265 -1.1108  3.7154
 5643SOL     OW28387   3.416   1.732  12.450 -0.0732  0.1081  0.3508
 5643SOL    HW128388   3.477   1.675  12.497 -1.3644  0.0369  1.9527
 5643SOL    HW228389   3.347   1.671  12.423  0.0008  0.8653 -1.5061
 5644SOL     OW28390   0.902   1.323   6.358  0.0902  0.1191 -0.3587
 5644SOL    HW128391   0.917   1.315   6.453  1.3555 -2.5363 -0.7803
 5644SOL    HW228392   0.989   1.350   6.329  0.2792  1.6326  1.5676
 5645SOL     OW28393   3.573   1.523   0.581 -0.0592  0.1421 -0.3816
 5645SOL    HW128394   3.642   1.572   0.624  0.6187 -0.1866 -1.0935
 5645SOL    HW228395   3.622   1.505   0.501  0.6567 -0.2730  0.1533
 5646SOL     OW28396   3.882   2.934  17.613 -0.1518  0.1043  0.5180
 5646SOL    HW128397   3.843   2.949  17.699  2.3499 -1.2512  1.8774
 5646SOL    HW228398   3.893   2.840  17.627 -2.2083 -0.1346  0.5502
 5647SOL     OW28399   2.179   1.180  10.951 -0.1064  0.2185 -0.1376
 5647SOL    HW128400   2.169   1.268  10.987  1.8983  1.4663 -2.6518
 5647SOL    HW228401   2.260   1.150  10.994 -0.6022 -0.8497  0.0474
 5648SOL     OW28402   4.708   3.351   4.883 -0.4166  0.4829  0.1998
 5648SOL    HW128403   4.653   3.352   4.805 -0.2406 -0.3706  0.0592
 5648SOL    HW228404   4.687   3.438   4.917 -1.5593 -0.9642  3.2338
 5649SOL     OW28405   4.496   0.619  14.653  0.5013 -0.1627  0.0435
 5649SOL    HW128406   4.477   0.525  14.651  0.9989 -0.3067  2.2048
 5649SOL    HW228407   4.465   0.631  14.743 -0.0194  1.2622 -0.3190
 5650SOL     OW28408   0.032   1.225   9.924 -0.0304 -0.1989  1.1798
 5650SOL    HW128409   0.045   1.164   9.996  1.6744 -0.8110  0.3638
 5650SOL    HW228410   4.712   1.160   9.869 -0.4342 -0.6711  2.0760
 5651SOL     OW28411   1.319   3.308   8.872  0.4989 -0.3137 -0.6436
 5651SOL    HW128412   1.332   3.246   8.944  2.2295  0.4807 -0.2519
 5651SOL    HW228413   1.402   3.356   8.879 -0.6053  1.4957 -0.0493
 5652SOL     OW28414   2.834   2.545   5.009  0.1398 -0.1648 -0.1581
 5652SOL    HW128415   2.887   2.520   5.084  1.5349 -1.1843 -1.4923
 5652SOL    HW228416   2.744   2.520   5.031  0.2581  0.9335  1.5477
 5653SOL     OW28417   2.331   2.941   4.090  0.4363 -0.1146  0.2443
 5653SOL    HW128418   2.350   2.870   4.029 -2.0910 -0.1310 -0.5247
 5653SOL    HW228419   2.272   2.999   4.042 -1.8841 -1.9933  0.8232
 5654SOL     OW28420   2.049   4.307   7.161 -0.7577  0.3124 -0.1302
 5654SOL    HW128421   2.141   4.319   7.140 -0.5066 -2.5076 -0.6750
 5654SOL    HW228422   2.000   4.371   7.109  2.1266  1.2009 -1.7504
 5655SOL     OW28423   0.848   1.937   2.769  1.5012  0.0813 -0.0410
 5655SOL    HW128424   0.898   2.017   2.784 -1.2183  1.5070  1.3115
 5655SOL    HW228425   0.908   1.883   2.717 -0.4079 -2.9230  0.8708
 5656SOL     OW28426   3.490   1.975   5.498  0.2777 -0.2557 -0.5529
 5656SOL    HW128427   3.414   2.032   5.489 -0.5791 -1.6145 -1.9364
 5656SOL    HW228428   3.450   1.905   5.446 -3.3777 -0.3293  2.3058
 5657SOL     OW28429   4.677   1.126   6.009  0.7578 -0.0808  0.1068
 5657SOL    HW128430   4.601   1.083   6.047 -0.9639  3.2472  0.4203
 5657SOL    HW228431   4.722   1.165   6.084 -1.2941  0.1698  1.2076
 5658SOL     OW28432   3.592   0.279   5.907 -0.4946 -0.1753  0.0969
 5658SOL    HW128433   3.597   0.262   5.813 -1.8859 -1.5695  0.2797
 5658SOL    HW228434   3.570   0.194   5.944 -1.9319 -0.1175 -0.6421
 5659SOL     OW28435   0.770   4.336   5.851  0.3745  0.5084 -0.2704
 5659SOL    HW128436   0.866   4.333   5.843  0.5596 -0.0776  2.0235
 5659SOL    HW228437   0.758   4.424   5.887  0.8957  1.2681 -1.9766
 5660SOL     OW28438   3.912   0.682   8.556 -0.4109 -0.2756 -0.1753
 5660SOL    HW128439   3.953   0.608   8.509  1.4446  1.0798 -0.6974
 5660SOL    HW228440   3.869   0.634   8.627  0.4660  0.2555  0.7190
 5661SOL     OW28441   4.080   2.528   6.186 -0.3094 -0.0077  0.0729
 5661SOL    HW128442   4.135   2.527   6.107  3.3461  0.3403  2.6237
 5661SOL    HW228443   4.094   2.614   6.227 -0.9722 -0.5434  1.4156
 5662SOL     OW28444   3.301   2.896   4.522  0.6974 -0.2349 -0.3140
 5662SOL    HW128445   3.385   2.938   4.504  0.2515  1.2791  1.1004
 5662SOL    HW228446   3.304   2.895   4.618  0.4210 -0.5894 -0.3086
 5663SOL     OW28447   3.978   4.546   4.572 -0.1193 -0.1759 -0.5182
 5663SOL    HW128448   4.046   4.544   4.505 -0.6445 -2.2571 -1.0063
 5663SOL    HW228449   3.922   4.476   4.538 -1.2364  0.7067 -0.5077
 5664SOL     OW28450   1.529   1.163   7.307 -0.3674  0.3709 -0.0667
 5664SOL    HW128451   1.489   1.098   7.364  0.4156  0.0658  0.1452
 5664SOL    HW228452   1.592   1.185   7.376 -0.9684 -1.6207  1.0975
 5665SOL     OW28453   2.425   2.132   7.955 -0.3266 -0.2630  0.1951
 5665SOL    HW128454   2.518   2.135   7.932 -0.9447  1.5494 -2.0304
 5665SOL    HW228455   2.402   2.039   7.948  3.3529 -1.1255 -0.4738
 5666SOL     OW28456   3.868   4.553   4.983 -0.1790 -0.4058  0.6082
 5666SOL    HW128457   3.794   4.529   4.927  0.2485 -1.4344  0.4873
 5666SOL    HW228458   3.941   4.544   4.922  0.9418 -0.4146  1.9594
 5667SOL     OW28459   4.211   3.493  11.004  0.4648 -0.3104 -0.2428
 5667SOL    HW128460   4.245   3.515  10.917  3.2927  1.0969  1.2358
 5667SOL    HW228461   4.293   3.492  11.052 -0.0307  1.3503  0.6531
 5668SOL     OW28462   0.732   3.944   5.507 -0.0908 -0.4704 -0.2655
 5668SOL    HW128463   0.738   4.022   5.453  1.7596 -0.0292  0.5665
 5668SOL    HW228464   0.681   3.974   5.582  2.2427 -0.8652  1.4847
 5669SOL     OW28465   3.691   1.279  17.024 -0.0062 -0.4659  0.1224
 5669SOL    HW128466   3.770   1.235  16.994  0.5127  0.2838  0.3773
 5669SOL    HW228467   3.711   1.373  17.018 -0.6978 -0.3134  0.1999
 5670SOL     OW28468   2.161   1.959  12.481  0.6815  0.0320  0.0470
 5670SOL    HW128469   2.191   2.049  12.469 -2.6784  1.0689 -0.5063
 5670SOL    HW228470   2.132   1.943  12.391 -1.8770 -0.2932  0.9412
 5671SOL     OW28471   4.118   3.246   6.807 -0.8595 -0.0516 -0.0907
 5671SOL    HW128472   4.197   3.280   6.850 -1.4510  1.2586 -0.0421
 5671SOL    HW228473   4.164   3.217   6.728 -0.6585  0.4798 -0.1735
 5672SOL     OW28474   4.446   2.759  15.686  0.1770 -0.0668 -0.8021
 5672SOL    HW128475   4.369   2.731  15.735 -0.5397  0.0362 -1.8488
 5672SOL    HW228476   4.520   2.745  15.745 -0.9150 -1.2651  0.2664
 5673SOL     OW28477   2.902   1.576   7.756  0.2284  0.4227  0.0887
 5673SOL    HW128478   2.895   1.639   7.827  1.9347  1.9422 -1.0953
 5673SOL    HW228479   2.946   1.501   7.796 -1.5826 -1.4262 -1.3181
 5674SOL     OW28480   1.609   1.618   6.693  0.0948  0.4082  0.1537
 5674SOL    HW128481   1.537   1.653   6.745 -0.6382  1.6396 -1.6844
 5674SOL    HW228482   1.683   1.626   6.753  0.6508 -0.5792 -0.4069
 5675SOL     OW28483   3.564   3.576  11.387 -0.1792 -0.1515 -0.5737
 5675SOL    HW128484   3.535   3.507  11.447 -1.0832  2.1817  1.6385
 5675SOL    HW228485   3.635   3.535  11.337  0.5391 -2.1111  2.0537
 5676SOL     OW28486   2.063   2.117  16.992 -0.2418 -0.0362 -0.2191
 5676SOL    HW128487   2.148   2.157  17.014 -1.6843  2.5927  0.6020
 5676SOL    HW228488   2.020   2.104  17.076  2.6581 -0.3730  1.2208
 5677SOL     OW28489   1.239   0.314   2.848 -0.3721 -0.1605 -0.3285
 5677SOL    HW128490   1.273   0.399   2.874  0.0980  0.1179 -1.8576
 5677SOL    HW228491   1.273   0.254   2.914 -0.0699 -0.1667 -0.4886
 5678SOL     OW28492   3.887   3.766   5.160 -0.0753 -0.0303  0.2560
 5678SOL    HW128493   3.982   3.773   5.168  0.1881 -1.8625 -1.3881
 5678SOL    HW228494   3.864   3.838   5.101 -0.1830  0.5119  0.9492
 5679SOL     OW28495   3.364   2.103   6.136  0.0268 -0.3339 -0.5405
 5679SOL    HW128496   3.388   2.147   6.054  1.3785  1.7293  0.9534
 5679SOL    HW228497   3.413   2.164   6.192 -0.0326  0.0437 -0.8973
 5680SOL     OW28498   3.133   4.684   7.088  0.1104  0.2981  0.4655
 5680SOL    HW128499   3.061   0.001   7.040  1.5053  0.7787 -1.2374
 5680SOL    HW228500   3.204   4.679   7.023 -1.5660  0.2748 -1.3718
 5681SOL     OW28501   2.528   1.789   3.141 -0.4511 -0.1411  0.4768
 5681SOL    HW128502   2.583   1.728   3.091  0.5011 -0.6328  2.1409
 5681SOL    HW228503   2.549   1.863   3.083  1.2540 -2.2710 -1.6146
 5682SOL     OW28504   2.901   0.169   8.097 -0.2217 -0.0491  0.0066
 5682SOL    HW128505   2.860   0.255   8.107 -1.6083 -0.7089 -0.0058
 5682SOL    HW228506   2.972   0.181   8.035 -0.6003 -1.0321 -0.6160
 5683SOL     OW28507   0.219   4.218  11.035  0.1965  0.2619 -0.0355
 5683SOL    HW128508   0.229   4.310  11.012 -0.6941  0.8867  1.9955
 5683SOL    HW228509   0.288   4.175  10.985  0.1306 -2.9575  2.6553
 5684SOL     OW28510   0.285   1.345   9.974 -0.1919 -0.3022  0.0940
 5684SOL    HW128511   0.307   1.257  10.005  0.1730 -0.2695 -0.0699
 5684SOL    HW228512   0.224   1.316   9.907 -1.2782  1.8646  0.1560
 5685SOL     OW28513   1.987   2.617   9.475  0.5108  0.0916 -0.3173
 5685SOL    HW128514   1.941   2.697   9.451  0.1984 -0.3170 -1.0879
 5685SOL    HW228515   1.924   2.586   9.540  0.0215 -1.2107 -1.4125
 5686SOL     OW28516   3.500   3.699   2.398 -0.4842 -0.0127 -0.5343
 5686SOL    HW128517   3.489   3.769   2.463  2.6057  1.6863 -1.8474
 5686SOL    HW228518   3.540   3.631   2.454  0.9812 -2.7322 -4.8973
 5687SOL     OW28519   0.145   0.702   8.998  0.4747 -0.4027 -0.4695
 5687SOL    HW128520   0.225   0.745   9.029 -0.3007  0.9945 -0.3673
 5687SOL    HW228521   0.110   0.660   9.076  1.6935  2.2275  1.4932
 5688SOL     OW28522   2.148   0.316   4.243  0.0092 -0.5946  0.1863
 5688SOL    HW128523   2.090   0.348   4.175  1.8384 -0.2735 -1.2162
 5688SOL    HW228524   2.167   0.397   4.290  0.5510 -1.5744  1.6685
 5689SOL     OW28525   3.447   4.309  17.137 -0.1634 -0.2305 -0.3278
 5689SOL    HW128526   3.533   4.343  17.111 -1.2275  0.2482 -3.1908
 5689SOL    HW228527   3.390   4.379  17.107  0.1164 -0.0695 -0.4864
 5690SOL     OW28528   2.217   4.618   6.020 -0.2149 -0.1421  0.0765
 5690SOL    HW128529   2.280   4.690   6.021  1.8044 -1.9215 -1.2993
 5690SOL    HW228530   2.264   4.542   5.986  1.3335  0.4372  0.9154
 5691SOL     OW28531   3.044   2.219  12.449 -0.2329  0.6138 -0.8097
 5691SOL    HW128532   2.972   2.188  12.504  1.6456 -1.7404  0.3253
 5691SOL    HW228533   3.024   2.172  12.368 -3.2454  1.5707 -0.6163
 5692SOL     OW28534   3.758   1.589  10.761 -0.6570  0.4934 -0.5771
 5692SOL    HW128535   3.798   1.658  10.708 -0.6559 -0.7936 -2.2218
 5692SOL    HW228536   3.670   1.581  10.724 -0.4960 -0.3711 -0.7591
 5693SOL     OW28537   2.349   1.595   3.409 -0.5121  0.5515 -0.3102
 5693SOL    HW128538   2.411   1.547   3.463  1.1224  0.4528 -2.2790
 5693SOL    HW228539   2.274   1.620   3.463 -0.0330 -0.3973  0.7977
 5694SOL     OW28540   3.959   3.143   4.215  0.2856 -0.0307  0.2687
 5694SOL    HW128541   3.879   3.104   4.179 -0.3031  2.3331 -0.9872
 5694SOL    HW228542   3.954   3.107   4.304  0.0405 -0.5584  0.0412
 5695SOL     OW28543   1.122   0.296  16.788 -0.1072 -0.4404 -0.2918
 5695SOL    HW128544   1.054   0.280  16.853  0.7576  0.1519  0.7535
 5695SOL    HW228545   1.087   0.259  16.707  0.6709  3.1054 -2.2792
 5696SOL     OW28546   3.774   0.630  13.494 -0.0356  0.3612 -0.1234
 5696SOL    HW128547   3.800   0.598  13.581  0.7043 -0.0390 -0.4886
 5696SOL    HW228548   3.703   0.568  13.478 -1.2373  1.4575  1.0329
 5697SOL     OW28549   0.029   2.974  11.182  0.2478 -0.0937  0.4005
 5697SOL    HW128550   0.092   2.963  11.253 -1.8444 -1.2519  2.0977
 5697SOL    HW228551   0.049   2.907  11.117  0.7468 -0.5036  0.9788
 5698SOL     OW28552   4.541   4.141  10.242 -0.0720  0.1367 -0.1372
 5698SOL    HW128553   4.605   4.211  10.226  1.2913 -1.1337 -0.2098
 5698SOL    HW228554   4.500   4.162  10.326 -0.9056  1.6776 -0.9339
 5699SOL     OW28555   1.736   3.575   5.826  0.3015  0.2321 -0.3301
 5699SOL    HW128556   1.722   3.607   5.736  0.0887 -2.0292 -1.1003
 5699SOL    HW228557   1.690   3.641   5.878 -0.8085 -0.9363  0.1391
 5700SOL     OW28558   3.676   2.673   8.636 -0.1124  0.4465 -0.5770
 5700SOL    HW128559   3.641   2.642   8.719  1.3605 -1.3867 -0.6356
 5700SOL    HW228560   3.621   2.750   8.621  0.0695  0.9652  1.4774
 5701SOL     OW28561   2.687   0.525  15.123 -0.2907  0.0434 -0.1341
 5701SOL    HW128562   2.636   0.452  15.158  0.7168 -0.4309  0.3441
 5701SOL    HW228563   2.662   0.587  15.191  0.9568 -0.6257  0.9290
 5702SOL     OW28564   1.215   1.448   2.847 -0.5258 -0.0790 -0.3297
 5702SOL    HW128565   1.293   1.496   2.876 -0.3032  0.4319 -1.7935
 5702SOL    HW228566   1.157   1.455   2.922 -1.9509  0.5408 -1.5118
 5703SOL     OW28567   2.545   1.464   4.204  0.4419  0.2897  0.0306
 5703SOL    HW128568   2.623   1.515   4.225 -0.5942  2.2534 -0.9307
 5703SOL    HW228569   2.491   1.531   4.162 -0.2013  0.3319  0.9452
 5704SOL     OW28570   4.395   1.053  12.439  0.0279  0.7024 -0.2211
 5704SOL    HW128571   4.300   1.041  12.437  0.4794 -3.1761  0.8119
 5704SOL    HW228572   4.423   1.038  12.348  1.4079 -2.1837  0.6518
 5705SOL     OW28573   1.126   2.608   8.116 -0.7692  0.3096  0.2445
 5705SOL    HW128574   1.183   2.683   8.096 -0.5991  0.2472  0.4905
 5705SOL    HW228575   1.172   2.590   8.198  1.1093 -0.5178 -1.0012
 5706SOL     OW28576   4.250   4.300   9.599 -1.4101 -0.5203 -0.1300
 5706SOL    HW128577   4.264   4.228   9.661  0.0876  0.0978  0.2439
 5706SOL    HW228578   4.331   4.283   9.551 -0.5930  2.6229  0.1200
 5707SOL     OW28579   3.744   0.831   7.322  0.0034  0.3424 -0.5540
 5707SOL    HW128580   3.653   0.857   7.334 -0.5433 -1.8303  0.0365
 5707SOL    HW228581   3.786   0.891   7.383  0.4188  0.2363 -0.7339
 5708SOL     OW28582   3.603   1.498   4.346 -0.2116 -0.3305  0.1259
 5708SOL    HW128583   3.638   1.418   4.385  0.2786 -1.3420 -2.4092
 5708SOL    HW228584   3.647   1.503   4.261 -3.7929  1.6600 -1.6045
 5709SOL     OW28585   0.083   1.947  15.587  0.0101  0.3286 -0.3979
 5709SOL    HW128586   0.140   1.952  15.510 -0.4453 -0.5461 -0.7903
 5709SOL    HW228587   0.143   1.940  15.661 -1.5975 -0.8546  0.7750
 5710SOL     OW28588   1.697   3.491   4.789 -0.1360  0.2107  0.5245
 5710SOL    HW128589   1.610   3.508   4.825 -0.6457 -0.5517 -0.3736
 5710SOL    HW228590   1.691   3.396   4.789  0.2549  0.1875 -1.5601
 5711SOL     OW28591   2.257   2.759   7.067 -0.0548  0.1602 -0.0271
 5711SOL    HW128592   2.343   2.762   7.111 -0.6397 -0.3291  1.1389
 5711SOL    HW228593   2.269   2.672   7.030 -1.5897  0.3312 -0.8713
 5712SOL     OW28594   0.910   0.294   9.935  0.5475 -0.4710  0.4022
 5712SOL    HW128595   0.941   0.365   9.879  1.8375 -3.1529 -2.2346
 5712SOL    HW228596   0.944   0.322  10.020 -0.0171  0.9887  0.1425
 5713SOL     OW28597   4.537   4.618   4.137  0.1066  0.0072  0.0938
 5713SOL    HW128598   4.609   4.568   4.176 -1.9601 -0.2103  3.6460
 5713SOL    HW228599   4.572   4.644   4.052  0.1335  1.9551  0.6884
 5714SOL     OW28600   1.846   0.011  15.771 -0.2122 -0.1745  0.0002
 5714SOL    HW128601   1.794   4.684  15.710 -1.6003 -1.6819  2.4214
 5714SOL    HW228602   1.818   4.681  15.845 -1.3724  1.7323  0.9591
 5715SOL     OW28603   0.732   2.023   6.995 -0.1241 -0.2897  0.7766
 5715SOL    HW128604   0.768   2.085   6.932 -0.7604 -2.1455 -1.4214
 5715SOL    HW228605   0.755   1.939   6.956  3.5248  0.3997  1.4274
 5716SOL     OW28606   4.365   1.122   7.607  0.0912 -0.3577 -0.1015
 5716SOL    HW128607   4.397   1.069   7.680 -0.2645  0.4714  0.6549
 5716SOL    HW228608   4.406   1.206   7.627  1.9543 -0.8537 -1.8601
 5717SOL     OW28609   4.364   3.679   3.893 -0.1145  0.0560  0.3650
 5717SOL    HW128610   4.353   3.774   3.891 -0.9057 -0.0498 -0.2020
 5717SOL    HW228611   4.298   3.647   3.955 -0.8153  1.4307  0.3290
 5718SOL     OW28612   4.312   1.413   6.674  0.0141  0.2568  0.2712
 5718SOL    HW128613   4.324   1.390   6.582  1.0217 -2.2872  1.0274
 5718SOL    HW228614   4.220   1.436   6.668 -0.7038 -2.3504  1.0288
 5719SOL     OW28615   0.296   2.676   4.197  0.5009 -0.3336 -0.2054
 5719SOL    HW128616   0.337   2.694   4.281 -1.0698 -1.7376  0.8641
 5719SOL    HW228617   0.353   2.612   4.154 -1.8878 -3.2407  0.9714
 5720SOL     OW28618   4.657   0.043   5.266 -0.7028 -0.7565 -0.0521
 5720SOL    HW128619   4.647   4.697   5.329  1.4781 -1.7948 -0.8682
 5720SOL    HW228620   4.678   0.009   5.179  1.4887 -0.9601  0.5433
 5721SOL     OW28621   4.118   4.206   7.012  0.6602 -0.0934 -0.1436
 5721SOL    HW128622   4.124   4.120   6.969  0.5944  0.0253 -0.3938
 5721SOL    HW228623   4.208   4.224   7.041  0.1818  1.6527  0.2044
 5722SOL     OW28624   4.683   3.677   7.266 -0.3579 -0.4284  0.1606
 5722SOL    HW128625   0.013   3.638   7.198 -1.6047 -0.4958 -0.8142
 5722SOL    HW228626   4.599   3.649   7.229 -1.0632  1.6805  0.1868
 5723SOL     OW28627   1.047   1.657  11.472  0.0289  0.4501  0.0949
 5723SOL    HW128628   1.023   1.577  11.425 -0.5993  1.1149 -0.7139
 5723SOL    HW228629   1.085   1.613  11.549 -2.3199 -2.3924 -0.3876
 5724SOL     OW28630   1.237   0.180   6.009 -0.1545 -0.2718  0.2974
 5724SOL    HW128631   1.162   0.235   6.033 -1.5022 -1.5069 -1.0510
 5724SOL    HW228632   1.234   0.192   5.914 -0.7022 -3.8216 -0.1065
 5725SOL     OW28633   4.566   2.621  16.339 -0.5213 -0.2568  0.0692
 5725SOL    HW128634   4.536   2.603  16.428  0.6724 -1.7329  0.1707
 5725SOL    HW228635   4.656   2.587  16.336 -0.6738 -0.6587  0.1284
 5726SOL     OW28636   3.275   2.964   7.562  0.3007  0.2564  0.4443
 5726SOL    HW128637   3.312   3.008   7.639  1.5378  0.9539 -0.5363
 5726SOL    HW228638   3.330   2.887   7.544 -0.6608 -0.6689  1.4993
 5727SOL     OW28639   4.000   2.496   4.673  0.2548  0.0749  0.0898
 5727SOL    HW128640   3.958   2.535   4.596 -0.9991  1.0767  1.2767
 5727SOL    HW228641   4.092   2.510   4.655  0.2892 -1.0812 -0.6720
 5728SOL     OW28642   3.277   3.209   5.080 -0.1517  0.2261  0.3557
 5728SOL    HW128643   3.310   3.186   5.166  2.5010  1.8713 -0.2127
 5728SOL    HW228644   3.255   3.127   5.037 -0.3691  0.6233 -0.2910
 5729SOL     OW28645   2.843   3.834   5.526  0.2839  0.6473 -0.0861
 5729SOL    HW128646   2.772   3.818   5.463 -0.0140 -1.0480  0.6818
 5729SOL    HW228647   2.906   3.874   5.467 -1.0989 -0.6267 -2.4343
 5730SOL     OW28648   0.187   2.855   5.307 -0.1945 -0.3212  0.5807
 5730SOL    HW128649   0.162   2.945   5.289  0.5644 -0.1950  0.1680
 5730SOL    HW228650   0.127   2.835   5.379 -0.6257  2.3551  0.9733
 5731SOL     OW28651   2.210   1.439   1.644  0.3516 -0.0567  0.1243
 5731SOL    HW128652   2.134   1.406   1.595  2.5854 -0.4330 -3.1321
 5731SOL    HW228653   2.286   1.414   1.591 -0.2655 -1.1375 -0.2555
 5732SOL     OW28654   4.192   1.777   8.643  0.1509  0.5426 -0.2748
 5732SOL    HW128655   4.129   1.841   8.675  0.4451  1.8507 -2.2918
 5732SOL    HW228656   4.183   1.719   8.719  0.3084 -0.6927 -1.1828
 5733SOL     OW28657   3.645   4.123   6.651 -0.1537 -0.3008  0.0948
 5733SOL    HW128658   3.691   4.046   6.684  1.1914  0.1749 -0.6637
 5733SOL    HW228659   3.706   4.192   6.674 -1.8032  0.6714  1.5280
 5734SOL     OW28660   3.355   0.928   1.747 -0.1180 -0.1314  0.9026
 5734SOL    HW128661   3.441   0.913   1.709 -1.0922 -1.0602 -0.9246
 5734SOL    HW228662   3.372   0.908   1.839  1.2381 -1.9066  0.2473
 5735SOL     OW28663   2.592   0.681   7.865 -0.6384 -0.2818  0.1563
 5735SOL    HW128664   2.679   0.646   7.848 -1.1802 -1.5272 -0.0408
 5735SOL    HW228665   2.578   0.684   7.960  1.0192  1.5377  0.3382
 5736SOL     OW28666   2.066   3.464   6.462 -0.1896 -0.6903  0.2967
 5736SOL    HW128667   2.095   3.381   6.501 -1.0768 -1.3975 -0.5504
 5736SOL    HW228668   2.012   3.500   6.532  0.0819 -0.2275  0.2682
 5737SOL     OW28669   4.384   3.904   5.559  0.6544 -0.1364  0.3464
 5737SOL    HW128670   4.340   3.832   5.515 -0.0660 -0.3658  1.4458
 5737SOL    HW228671   4.387   3.885   5.653  0.1061 -1.1593  0.1598
 5738SOL     OW28672   2.163   4.010   6.555  0.3216  0.3282 -1.1013
 5738SOL    HW128673   2.098   3.985   6.489 -2.0175  1.0290  0.9579
 5738SOL    HW228674   2.142   4.103   6.555 -0.2438  0.1997 -0.9836
 5739SOL     OW28675   0.626   0.795  17.083  0.6456 -0.3540 -0.5682
 5739SOL    HW128676   0.560   0.860  17.106 -0.9525 -1.3531 -2.3312
 5739SOL    HW228677   0.594   0.716  17.128 -0.2318 -0.9406 -2.2133
 5740SOL     OW28678   4.595   4.279  14.025 -0.3125  0.2086 -0.5251
 5740SOL    HW128679   4.580   4.351  14.087  1.0202  0.3639 -0.3813
 5740SOL    HW228680   4.672   4.311  13.978 -0.2381 -1.8902 -1.7972
 5741SOL     OW28681   2.671   3.107   5.896  0.0433  0.2082  0.5450
 5741SOL    HW128682   2.671   3.012   5.884 -0.1661  0.1978  0.6248
 5741SOL    HW228683   2.685   3.112   5.991  3.2611 -1.8737  0.1729
 5742SOL     OW28684   1.080   1.489  17.066  0.1077 -0.0507 -0.1494
 5742SOL    HW128685   1.086   1.406  17.019 -1.3946 -2.4540  3.8805
 5742SOL    HW228686   1.068   1.559  17.002 -1.2190 -1.5706 -1.5523
 5743SOL     OW28687   1.158   2.490   7.277 -0.2070 -0.0728 -0.0337
 5743SOL    HW128688   1.252   2.492   7.295 -0.4860 -1.4924  1.5989
 5743SOL    HW228689   1.126   2.413   7.324 -1.1678  0.5803  0.3866
 5744SOL     OW28690   4.611   2.152   9.319 -0.0157  0.3481 -0.3996
 5744SOL    HW128691   4.629   2.222   9.382 -0.6527 -0.3387  0.5447
 5744SOL    HW228692   4.551   2.091   9.362  0.5997 -0.1327 -0.2123
 5745SOL     OW28693   4.557   4.195   1.791 -0.3021 -0.2704  0.5579
 5745SOL    HW128694   4.554   4.118   1.735  2.9752 -0.3547  0.5048
 5745SOL    HW228695   4.566   4.155   1.878 -1.5687 -0.7989  0.4520
 5746SOL     OW28696   1.263   2.750   8.363 -0.3050  0.5116  0.2597
 5746SOL    HW128697   1.356   2.766   8.379  0.0473  1.7026 -2.7806
 5746SOL    HW228698   1.252   2.658   8.387 -0.7552  0.4136 -0.3243
 5747SOL     OW28699   0.225   0.306   5.999  0.1541 -0.2510  0.0572
 5747SOL    HW128700   0.158   0.373   6.011  2.1035  0.8736  4.5123
 5747SOL    HW228701   0.260   0.336   5.914 -2.1767 -0.4530 -0.9676
 5748SOL     OW28702   1.390   0.919   4.786 -0.1228 -0.1308  0.4564
 5748SOL    HW128703   1.305   0.887   4.814 -0.1531 -0.5225 -0.0853
 5748SOL    HW228704   1.363   0.986   4.724 -1.9951  0.0527  1.4936
 5749SOL     OW28705   3.133   1.367   1.833  0.3590  0.6975 -0.1524
 5749SOL    HW128706   3.107   1.312   1.758  2.8265 -2.3640  1.2417
 5749SOL    HW228707   3.157   1.304   1.900 -0.9111  1.0838  0.6759
 5750SOL     OW28708   0.833   3.579   9.869  0.0439  0.1142 -0.3477
 5750SOL    HW128709   0.804   3.655   9.920  1.1976  0.9160 -0.9087
 5750SOL    HW228710   0.865   3.628   9.794  0.7402  0.8231  0.4154
 5751SOL     OW28711   4.108   2.916   6.806 -0.3472  0.4049 -0.3431
 5751SOL    HW128712   4.071   2.864   6.877  2.0478 -1.6165 -0.5816
 5751SOL    HW228713   4.050   2.886   6.736  3.1463 -0.5080 -2.8647
 5752SOL     OW28714   0.761   1.119   0.421  0.1886  0.4172  0.4742
 5752SOL    HW128715   0.701   1.151   0.353 -1.1732 -0.3327  1.3332
 5752SOL    HW228716   0.696   1.092   0.486 -1.8109  0.8978 -1.2899
 5753SOL     OW28717   4.368   0.404  10.213  0.6464 -0.5016  0.5689
 5753SOL    HW128718   4.324   0.402  10.128  0.9955  1.0706  0.3577
 5753SOL    HW228719   4.341   0.485  10.256 -0.2259 -0.7963  0.5757
 5754SOL     OW28720   0.733   4.210   0.053  0.4138 -0.6657  0.4851
 5754SOL    HW128721   0.677   4.139   0.021  0.9268 -0.3377 -1.1766
 5754SOL    HW228722   0.671   4.282   0.046  1.6585  0.2651 -1.0037
 5755SOL     OW28723   2.853   4.374   7.881 -0.0579  0.3178 -0.2919
 5755SOL    HW128724   2.772   4.423   7.871 -0.2181  0.4526  1.6170
 5755SOL    HW228725   2.899   4.434   7.939  1.8236 -0.3226 -1.0915
 5756SOL     OW28726   2.371   1.274  12.427 -0.4869 -0.4125  0.0269
 5756SOL    HW128727   2.347   1.199  12.372 -1.4881 -0.4064  0.4664
 5756SOL    HW228728   2.360   1.231  12.512  0.4680  3.0146  1.8411
 5757SOL     OW28729   2.385   4.345  11.739 -0.0242  0.5992  0.3370
 5757SOL    HW128730   2.375   4.253  11.715 -2.5315  0.4072  2.1162
 5757SOL    HW228731   2.297   4.375  11.759  0.3034  0.5360  1.8575
 5758SOL     OW28732   1.456   1.676   4.815  0.4760  0.5252 -0.2505
 5758SOL    HW128733   1.546   1.694   4.842  1.5853 -1.5221 -2.4775
 5758SOL    HW228734   1.475   1.633   4.731  1.9613  0.8463 -0.0867
 5759SOL     OW28735   2.563   2.185  15.935 -0.0739 -0.1530  0.2424
 5759SOL    HW128736   2.606   2.227  16.009 -1.0372 -0.1901  0.8309
 5759SOL    HW228737   2.632   2.176  15.870 -1.0522 -1.6761 -0.5992
 5760SOL     OW28738   3.935   4.186   1.722 -0.1828  0.1163 -0.2833
 5760SOL    HW128739   3.842   4.162   1.716  0.1599 -1.4176  0.7075
 5760SOL    HW228740   3.954   4.176   1.815  0.6373 -2.0334 -0.6761
 5761SOL     OW28741   0.298   4.651   4.762 -0.7926 -0.5119  0.2015
 5761SOL    HW128742   0.310   4.585   4.694  0.3419 -2.5427  2.3558
 5761SOL    HW228743   0.340   4.616   4.841 -0.4514 -0.6467 -0.0350
 5762SOL     OW28744   2.986   0.251   4.172 -0.0915  0.6679 -0.3453
 5762SOL    HW128745   2.962   0.329   4.122 -2.8525  0.3739  0.5153
 5762SOL    HW228746   2.924   0.184   4.145  0.7173 -0.9118  1.7188
 5763SOL     OW28747   1.440   0.176   6.175  0.0548 -0.1128 -0.6890
 5763SOL    HW128748   1.374   0.166   6.106  0.5641  0.1057 -1.2070
 5763SOL    HW228749   1.402   0.241   6.234 -2.7931 -0.9499 -1.5773
 5764SOL     OW28750   4.709   0.888   4.450 -0.4406 -0.3636  0.3686
 5764SOL    HW128751   4.625   0.933   4.443 -0.1552  0.0224 -0.5749
 5764SOL    HW228752   4.676   0.834   4.522 -1.2497 -0.3001  0.0456
 5765SOL     OW28753   2.612   0.669   8.763 -0.2115  0.1035 -0.7365
 5765SOL    HW128754   2.581   0.623   8.841  1.5177  0.8278  0.3741
 5765SOL    HW228755   2.655   0.599   8.714 -1.7905 -1.9460  0.8057
 5766SOL     OW28756   1.651   2.114   3.614 -0.3238 -0.3014  0.4851
 5766SOL    HW128757   1.567   2.148   3.583  0.0051  1.0257  1.0569
 5766SOL    HW228758   1.703   2.192   3.629 -3.2639  1.6413  0.5102
 5767SOL     OW28759   3.669   2.890  15.540 -0.2303  0.1276  0.2016
 5767SOL    HW128760   3.760   2.868  15.559 -0.6397 -1.0775  0.7723
 5767SOL    HW228761   3.673   2.986  15.538  1.7150 -0.0118 -1.7450
 5768SOL     OW28762   2.350   4.069   4.108  0.6439  0.4709  0.4308
 5768SOL    HW128763   2.287   3.998   4.123  0.7970  0.0917 -0.6690
 5768SOL    HW228764   2.318   4.098   4.022 -1.2332  0.8481  1.2503
 5769SOL     OW28765   0.319   2.537  14.890  0.6684 -0.1035 -0.1765
 5769SOL    HW128766   0.241   2.564  14.938 -0.5803 -1.8288 -1.2456
 5769SOL    HW228767   0.292   2.445  14.893  0.7736 -0.1119  0.5879
 5770SOL     OW28768   1.755   3.208   3.967 -0.0307 -0.6738 -0.3147
 5770SOL    HW128769   1.795   3.200   4.054  1.0678  1.9767 -0.5865
 5770SOL    HW228770   1.729   3.116   3.962 -0.2699 -0.8591  4.1270
 5771SOL     OW28771   0.040   3.541   2.490  0.1112 -0.1199 -0.0291
 5771SOL    HW128772   4.716   3.460   2.478 -0.6324  0.2426  0.5345
 5771SOL    HW228773   0.118   3.534   2.437  0.7602 -2.0903  1.1972
 5772SOL     OW28774   2.790   3.908  14.460 -0.4287 -0.1201 -0.3362
 5772SOL    HW128775   2.741   3.875  14.535 -0.8414 -0.3040 -0.6891
 5772SOL    HW228776   2.882   3.891  14.480 -0.1925 -0.1087 -1.4000
 5773SOL     OW28777   2.872   2.672  12.991  0.2399  0.2269 -0.1965
 5773SOL    HW128778   2.836   2.635  12.910 -0.4874 -1.4717  0.9078
 5773SOL    HW228779   2.837   2.761  12.979 -0.0890  0.5378  3.1769
 5774SOL     OW28780   2.734   3.273   2.086 -0.2191  0.3005  0.3167
 5774SOL    HW128781   2.713   3.210   2.156 -1.9049 -1.0541 -1.4079
 5774SOL    HW228782   2.664   3.335   2.109 -1.2552 -0.0637 -1.8877
 5775SOL     OW28783   0.780   0.099   3.679 -0.2331 -0.2634  0.4362
 5775SOL    HW128784   0.771   0.165   3.611 -0.1972  1.0460  1.7096
 5775SOL    HW228785   0.753   0.155   3.752  0.3874 -0.2871  0.6831
 5776SOL     OW28786   2.127   2.262   1.563 -0.3722 -0.0416  0.6299
 5776SOL    HW128787   2.183   2.336   1.585 -3.2537  1.9925  1.1047
 5776SOL    HW228788   2.147   2.259   1.469  0.1730  1.9368  0.6988
 5777SOL     OW28789   3.260   3.522   2.631 -0.0014 -0.4449  0.1106
 5777SOL    HW128790   3.288   3.599   2.680  0.4914 -1.7165  1.8561
 5777SOL    HW228791   3.182   3.503   2.684 -0.1020  1.0754  0.4891
 5778SOL     OW28792   1.840   1.200  14.302  0.2716 -0.1673  0.5350
 5778SOL    HW128793   1.789   1.206  14.383 -1.1521  0.5975 -0.4172
 5778SOL    HW228794   1.898   1.125  14.315  0.7748  0.0708 -0.3583
 5779SOL     OW28795   0.523   0.961   4.627 -0.1860 -0.2888 -0.5287
 5779SOL    HW128796   0.615   0.990   4.624  0.2598 -1.5074  1.3834
 5779SOL    HW228797   0.483   1.039   4.665 -0.3659  0.2257 -1.7760
 5780SOL     OW28798   3.529   2.542  10.592  0.6247  0.3181 -0.6750
 5780SOL    HW128799   3.507   2.635  10.598 -1.8934 -0.2960 -0.7445
 5780SOL    HW228800   3.577   2.524  10.511  0.9489 -1.4234 -0.1051
 5781SOL     OW28801   3.753   4.689   6.220 -0.0156 -0.0343 -0.2899
 5781SOL    HW128802   3.724   4.721   6.305  1.1057  1.8495 -0.6187
 5781SOL    HW228803   3.845   4.699   6.241 -0.2316 -0.4640  0.8595
 5782SOL     OW28804   2.931   0.070   4.977 -0.2172 -0.0655 -0.0896
 5782SOL    HW128805   2.890   0.008   4.917  4.2049 -2.0701 -0.9945
 5782SOL    HW228806   3.014   0.030   5.003 -0.9173 -1.4725 -0.0204
 5783SOL     OW28807   1.380   2.608   5.139 -0.3836 -0.5692 -0.2965
 5783SOL    HW128808   1.413   2.698   5.136 -2.0214  0.0403 -0.5540
 5783SOL    HW228809   1.294   2.627   5.100 -1.1503 -1.0314  1.1678
 5784SOL     OW28810   1.793   0.836   2.477  0.6200  0.2623  0.3357
 5784SOL    HW128811   1.721   0.837   2.414  0.9479 -1.4856 -0.0902
 5784SOL    HW228812   1.830   0.747   2.474  1.1996  0.4829  0.9532
 5785SOL     OW28813   4.676   2.154   5.624 -0.2548 -0.5051 -0.1982
 5785SOL    HW128814   0.031   2.113   5.658  1.0911  1.0330 -1.5116
 5785SOL    HW228815   4.668   2.237   5.670  0.2791  0.6858 -2.2610
 5786SOL     OW28816   4.209   3.270  15.494 -0.2129 -0.7609 -0.6988
 5786SOL    HW128817   4.170   3.317  15.419  0.5149  1.4888  0.3380
 5786SOL    HW228818   4.163   3.187  15.489 -0.2099 -0.8592  1.2713
 5787SOL     OW28819   1.094   2.183   3.751 -0.1631  0.0321 -0.2915
 5787SOL    HW128820   1.050   2.117   3.698  0.4897 -1.0000  0.4432
 5787SOL    HW228821   1.131   2.235   3.680 -1.2698  2.8898  1.2340
 5788SOL     OW28822   2.122   4.153  12.282 -0.4305 -0.1173  0.1223
 5788SOL    HW128823   2.141   4.223  12.219  0.3616 -0.0115  0.4705
 5788SOL    HW228824   2.030   4.156  12.308  0.0753  0.6831  1.8199
 5789SOL     OW28825   2.737   0.415   8.170  0.1254  0.4714  0.3369
 5789SOL    HW128826   2.698   0.495   8.136 -2.5452 -0.6321  0.7963
 5789SOL    HW228827   2.658   0.361   8.178  0.3084  0.0089 -0.8840
 5790SOL     OW28828   0.262   2.614  12.216 -0.4144 -0.4468  0.2730
 5790SOL    HW128829   0.355   2.634  12.212 -0.3860 -0.6746 -0.2490
 5790SOL    HW228830   0.251   2.567  12.133  3.7534 -1.2790  0.2163
 5791SOL     OW28831   4.042   3.512  16.191  0.1301 -0.2966 -0.0544
 5791SOL    HW128832   3.994   3.573  16.246  0.0922  0.0742 -0.5057
 5791SOL    HW228833   4.006   3.427  16.217 -0.2274 -0.0614  0.2135
 5792SOL     OW28834   4.373   3.849   0.859  0.0867 -0.4263  0.6247
 5792SOL    HW128835   4.299   3.842   0.799  0.5497  1.9230 -0.2539
 5792SOL    HW228836   4.417   3.918   0.810 -0.8259  0.6850  1.3619
 5793SOL     OW28837   1.760   0.871   8.787 -0.4784  0.5383 -0.5492
 5793SOL    HW128838   1.734   0.809   8.856  1.9271 -0.7508 -0.8283
 5793SOL    HW228839   1.777   0.805   8.720  1.0375  0.8599 -0.4724
 5794SOL     OW28840   1.182   3.760   4.056 -0.6384  0.0615 -0.2894
 5794SOL    HW128841   1.109   3.709   4.023  0.2315 -0.4757 -1.3761
 5794SOL    HW228842   1.191   3.839   4.002 -1.9579  0.5772  0.2315
 5795SOL     OW28843   2.238   0.753  10.691  0.0631  0.2738 -0.3459
 5795SOL    HW128844   2.266   0.816  10.625  1.9155  0.1637  0.3488
 5795SOL    HW228845   2.217   0.676  10.638 -0.2469 -0.5138  0.9149
 5796SOL     OW28846   3.817   2.243   4.713  0.4329  0.4544  0.0546
 5796SOL    HW128847   3.901   2.259   4.669  0.6030 -0.0563  0.1858
 5796SOL    HW228848   3.791   2.335   4.716 -0.0062  0.2815  1.6789
 5797SOL     OW28849   3.649   3.212  12.357  0.0650  0.4540 -0.6167
 5797SOL    HW128850   3.679   3.164  12.434 -0.2566 -1.0905 -1.4703
 5797SOL    HW228851   3.630   3.137  12.301 -0.2283 -0.0888  0.2232
 5798SOL     OW28852   1.418   0.573   8.851  0.3379  0.2569 -0.7061
 5798SOL    HW128853   1.358   0.564   8.777  2.1247 -0.7532 -2.0477
 5798SOL    HW228854   1.346   0.571   8.914 -1.9331 -1.5062 -3.3710
 5799SOL     OW28855   0.986   0.646  17.113  0.5569  0.2790  0.2880
 5799SOL    HW128856   1.043   0.693  17.174  0.5784 -0.7308  1.0414
 5799SOL    HW228857   1.022   0.558  17.126 -0.5982 -0.4050 -1.1645
 5800SOL     OW28858   4.495   1.858  16.617  0.0838 -0.8164 -0.0074
 5800SOL    HW128859   4.460   1.865  16.706 -0.2651  2.0685 -0.3979
 5800SOL    HW228860   4.413   1.826  16.581 -1.2880  0.8775  1.6578
 5801SOL     OW28861   3.630   0.016   2.547  0.0528  0.3248 -0.1631
 5801SOL    HW128862   3.537   4.722   2.536 -0.0260  0.2050  0.7015
 5801SOL    HW228863   3.664   4.674   2.487 -0.7365  1.3592 -1.7617
 5802SOL     OW28864   4.470   3.819   2.147  0.3174  0.3792  0.0577
 5802SOL    HW128865   4.421   3.739   2.164  2.2033 -0.8543 -0.3535
 5802SOL    HW228866   4.530   3.818   2.221 -2.1657 -2.9102  1.9931
 5803SOL     OW28867   0.013   3.088   7.697 -0.4295  0.2852  0.0050
 5803SOL    HW128868   0.044   3.004   7.663 -0.8668 -0.0732  0.5046
 5803SOL    HW228869   0.061   3.143   7.635  1.5369 -0.6912  0.6660
 5804SOL     OW28870   3.692   4.358   2.169  0.2620  0.1358  0.4892
 5804SOL    HW128871   3.683   4.289   2.235 -1.0509 -0.9294 -0.8117
 5804SOL    HW228872   3.785   4.354   2.149 -0.2720 -0.7172 -1.7360
 5805SOL     OW28873   3.769   3.792   2.524 -0.1746  0.0295 -0.3070
 5805SOL    HW128874   3.838   3.732   2.551  0.5300  1.2329  0.5685
 5805SOL    HW228875   3.759   3.758   2.435 -0.6362 -0.9969  0.1346
 5806SOL     OW28876   2.442   3.847  14.385 -0.4356 -0.1844  0.1457
 5806SOL    HW128877   2.526   3.874  14.347 -0.4980 -0.2804 -0.0600
 5806SOL    HW228878   2.451   3.753  14.397 -0.5181 -0.4085 -1.5523
 5807SOL     OW28879   1.471   3.019   4.810  0.5811 -0.0117  0.0979
 5807SOL    HW128880   1.472   3.114   4.806  0.3695 -0.0515 -0.7915
 5807SOL    HW228881   1.564   3.006   4.791  0.1899 -1.1129 -1.0265
 5808SOL     OW28882   3.288   4.068   5.221 -0.1563  0.1873  0.2253
 5808SOL    HW128883   3.374   4.036   5.247  1.1307  3.6018  0.1845
 5808SOL    HW228884   3.276   4.140   5.283 -0.0611 -1.1346  1.7823
 5809SOL     OW28885   0.445   3.843   6.374  0.1674 -0.0369  0.4923
 5809SOL    HW128886   0.366   3.805   6.412 -1.0099  0.7302 -1.2265
 5809SOL    HW228887   0.504   3.809   6.441 -0.8062  2.2064  2.4854
 5810SOL     OW28888   2.350   2.127   3.473 -0.1266 -0.5958 -0.0583
 5810SOL    HW128889   2.340   2.146   3.379 -0.9504 -1.2394 -0.0996
 5810SOL    HW228890   2.288   2.055   3.484 -0.3291 -0.4384 -0.1626
 5811SOL     OW28891   4.594   2.980   8.492 -0.5924  0.0259 -0.5543
 5811SOL    HW128892   4.601   2.892   8.529 -3.0780  0.2814  0.5218
 5811SOL    HW228893   4.606   3.050   8.557  0.5911 -1.2922  0.6505
 5812SOL     OW28894   1.681   1.785   3.080  0.4720 -0.3920  0.0680
 5812SOL    HW128895   1.645   1.854   3.024  0.0114  1.5079  2.7053
 5812SOL    HW228896   1.774   1.801   3.067  0.5770 -0.2016  1.0722
 5813SOL     OW28897   1.760   3.046   2.365  0.4766 -0.3960  0.2722
 5813SOL    HW128898   1.854   3.038   2.383  0.7448 -1.6018 -1.6486
 5813SOL    HW228899   1.723   2.963   2.394  0.4398  0.2027  1.9305
 5814SOL     OW28900   1.449   2.499   8.799 -0.3537  0.2540  0.0666
 5814SOL    HW128901   1.440   2.417   8.750  1.0572 -0.3229  0.7983
 5814SOL    HW228902   1.468   2.464   8.886  1.1539 -3.0609 -1.5692
 5815SOL     OW28903   3.651   4.695   1.290  0.3403 -0.3039  0.1603
 5815SOL    HW128904   3.740   0.006   1.291 -0.7500  2.4088 -0.1500
 5815SOL    HW228905   3.632   4.675   1.199 -2.0422 -1.5623  0.9326
 5816SOL     OW28906   3.711   4.039   2.056 -0.2357 -0.0560  0.1430
 5816SOL    HW128907   3.710   3.943   2.059 -3.0554 -0.0068  0.7306
 5816SOL    HW228908   3.720   4.053   1.961  0.9576  1.9682  0.5811
 5817SOL     OW28909   2.670   1.493   8.137  0.4630 -0.7439  0.2137
 5817SOL    HW128910   2.613   1.566   8.111  2.4994  0.7336 -0.1204
 5817SOL    HW228911   2.684   1.500   8.231 -0.6149 -0.0600  0.3297
 5818SOL     OW28912   3.912   2.240  17.024  0.1430 -0.1225 -0.2665
 5818SOL    HW128913   3.974   2.168  17.033 -0.5592 -0.6415  0.3237
 5818SOL    HW228914   3.824   2.206  17.039  0.1513  0.0512  0.1684
 5819SOL     OW28915   3.727   2.034   0.913  0.3183 -0.0876 -0.6269
 5819SOL    HW128916   3.666   2.009   0.844  0.2082 -0.5737 -0.3496
 5819SOL    HW228917   3.806   1.981   0.900 -0.5478 -1.4905 -0.1423
 5820SOL     OW28918   0.599   1.768   7.557  0.2251  0.2080 -0.2180
 5820SOL    HW128919   0.616   1.837   7.494 -0.2943 -0.7752 -1.4369
 5820SOL    HW228920   0.686   1.730   7.567  0.0325 -0.6922 -1.9733
 5821SOL     OW28921   3.205   2.066   3.254  0.2872  0.2043  0.2643
 5821SOL    HW128922   3.231   2.029   3.338 -0.3361  0.9208  0.7729
 5821SOL    HW228923   3.134   2.004   3.235  0.4999 -0.6989  2.3388
 5822SOL     OW28924   3.658   0.752   2.526  0.0548  0.0725  0.1223
 5822SOL    HW128925   3.605   0.814   2.475 -1.3368 -1.9135 -0.8460
 5822SOL    HW228926   3.664   0.677   2.466 -0.9230  0.3590 -0.3381
 5823SOL     OW28927   0.129   3.626   1.828  0.4623 -0.0526 -0.2020
 5823SOL    HW128928   0.142   3.699   1.888  0.8308  1.0395 -1.6258
 5823SOL    HW228929   0.130   3.555   1.893  0.2641  0.4358  0.3370
 5824SOL     OW28930   2.846   1.396   3.060  0.7722 -0.5866 -0.3043
 5824SOL    HW128931   2.848   1.310   3.019 -0.4220 -1.5826  1.7345
 5824SOL    HW228932   2.928   1.385   3.107  1.6779 -0.5777 -1.8876
 5825SOL     OW28933   0.442   1.836   4.526  0.2246  0.1682 -0.1936
 5825SOL    HW128934   0.378   1.815   4.458 -1.6158  0.4057  1.4589
 5825SOL    HW228935   0.385   1.889   4.582  0.0190 -1.9838  1.6552
 5826SOL     OW28936   4.529   2.690   8.232 -0.0040 -0.0881 -0.1865
 5826SOL    HW128937   4.565   2.671   8.318 -1.0139 -1.7002 -0.1162
 5826SOL    HW228938   4.450   2.733   8.262  0.3094 -0.5234  1.2367
 5827SOL     OW28939   2.882   0.348   1.565 -0.0556  0.1695  0.0085
 5827SOL    HW128940   2.906   0.289   1.636  3.4647  1.6393  0.0424
 5827SOL    HW228941   2.970   0.384   1.553  0.6048 -0.7077  2.3152
 5828SOL     OW28942   4.664   1.283   1.795  0.0005  0.2698  0.2809
 5828SOL    HW128943   4.635   1.213   1.854  1.4111  1.0840  1.9144
 5828SOL    HW228944   4.584   1.330   1.774 -0.1765  0.3178  1.0597
 5829SOL     OW28945   1.046   1.056   5.466 -0.0344  0.8802 -0.1026
 5829SOL    HW128946   1.083   1.019   5.387 -1.9598  0.9497 -1.0476
 5829SOL    HW228947   1.126   1.084   5.511 -0.5696  1.8643  0.2454
 5830SOL     OW28948   0.436   2.631  16.979  0.2010 -0.1879 -0.0472
 5830SOL    HW128949   0.407   2.698  16.917  0.7423 -1.3434 -1.5726
 5830SOL    HW228950   0.470   2.567  16.917  1.7787 -0.5934  1.2433
 5831SOL     OW28951   2.638   1.830   4.558 -0.3732 -0.3221 -0.2718
 5831SOL    HW128952   2.603   1.892   4.622 -1.0305  0.8724 -1.8055
 5831SOL    HW228953   2.596   1.863   4.479 -0.6440 -0.8073 -0.3344
 5832SOL     OW28954   0.820   1.995   5.205 -0.4558 -0.2595  0.1834
 5832SOL    HW128955   0.879   1.967   5.275  1.1931 -0.7037 -1.3924
 5832SOL    HW228956   0.872   1.978   5.126 -0.1525  2.0543 -0.1328
 5833SOL     OW28957   1.115   4.464   1.385  0.0130 -0.4020 -0.3905
 5833SOL    HW128958   1.044   4.403   1.403 -0.3902  0.2276  0.1707
 5833SOL    HW228959   1.166   4.411   1.324 -1.5399 -2.1619 -0.1408
 5834SOL     OW28960   1.729   0.971   6.530  0.3848 -0.5416  0.1318
 5834SOL    HW128961   1.820   0.999   6.518 -0.0366 -0.2409 -2.5527
 5834SOL    HW228962   1.697   0.929   6.450 -0.9414 -0.8291  0.8237
 5835SOL     OW28963   2.326   3.807   8.718  0.6707  0.0021  0.2023
 5835SOL    HW128964   2.319   3.805   8.622  2.9054  1.7941 -0.0050
 5835SOL    HW228965   2.293   3.896   8.732 -2.2486 -1.2975  1.5856
 5836SOL     OW28966   3.232   1.919   4.076 -0.9667 -0.0675 -0.1361
 5836SOL    HW128967   3.213   1.871   4.156  1.4202 -0.4077  0.2384
 5836SOL    HW228968   3.234   2.009   4.109 -1.0460  1.6234 -4.7557
 5837SOL     OW28969   0.076   2.318  11.554 -0.5358  0.1775  0.2519
 5837SOL    HW128970   0.168   2.334  11.574 -0.4820 -0.3269  0.4130
 5837SOL    HW228971   0.042   2.404  11.531  1.8840  1.4168  1.3540
 5838SOL     OW28972   4.399   4.047   1.367  0.6726 -0.3980 -0.3761
 5838SOL    HW128973   4.462   4.099   1.318 -1.2635  1.2368 -1.1151
 5838SOL    HW228974   4.343   4.016   1.296  0.1293 -1.0142  0.3219
 5839SOL     OW28975   0.080   1.272   4.355 -0.3188 -0.1726  0.0479
 5839SOL    HW128976   0.174   1.288   4.367 -0.0912  0.4324 -2.5091
 5839SOL    HW228977   0.049   1.252   4.443  0.3332  3.4981  1.0935
 5840SOL     OW28978   0.835   3.479   5.929 -0.2259 -0.0383  0.0700
 5840SOL    HW128979   0.798   3.564   5.950  1.6792 -0.0558  3.5353
 5840SOL    HW228980   0.898   3.517   5.867 -2.1816  0.6877 -1.4539
 5841SOL     OW28981   1.502   0.947   4.403  0.2366 -0.5415 -0.1772
 5841SOL    HW128982   1.555   0.951   4.324  0.1480 -2.2694 -0.3373
 5841SOL    HW228983   1.421   0.986   4.371 -1.1812 -0.5811  3.3017
 5842SOL     OW28984   0.634   0.787   6.078  0.4847  0.0691  0.1719
 5842SOL    HW128985   0.597   0.700   6.093  0.2023 -0.0377 -1.1148
 5842SOL    HW228986   0.549   0.822   6.051 -0.4119 -1.3617  1.1502
 5843SOL     OW28987   0.230   3.566   5.784 -0.1731 -0.0388 -0.2752
 5843SOL    HW128988   0.214   3.652   5.746 -0.2270  0.1484  0.1663
 5843SOL    HW228989   0.263   3.522   5.706  0.7558  2.0697 -1.0606
 5844SOL     OW28990   4.361   0.093   6.039 -0.1757  0.4845 -0.1823
 5844SOL    HW128991   4.318   0.028   6.094  0.2210 -0.9868 -1.6085
 5844SOL    HW228992   4.318   0.166   6.083 -2.0738 -1.0354  0.4747
 5845SOL     OW28993   0.723   3.614   7.994 -0.6862 -0.1558  0.0869
 5845SOL    HW128994   0.716   3.650   8.082 -1.0593  2.6617 -1.1097
 5845SOL    HW228995   0.804   3.651   7.959 -0.6659 -0.7399 -0.4767
 5846SOL     OW28996   0.826   2.701   8.010 -0.1427  0.2997 -0.0116
 5846SOL    HW128997   0.767   2.707   7.934 -1.0493  2.2754  0.8464
 5846SOL    HW228998   0.848   2.609   8.004 -1.4088 -0.0467  0.6155
 5847SOL     OW28999   0.012   2.081  11.917 -0.3674  0.0931  0.1019
 5847SOL    HW129000   4.687   2.154  11.882  0.7315  1.0255  0.4895
 5847SOL    HW229001   0.090   2.082  11.861 -0.7996  2.1344 -0.4519
 5848SOL     OW29002   0.665   0.103   7.154 -0.0214  0.1785  0.7434
 5848SOL    HW129003   0.594   0.092   7.217  0.0649  0.4304  0.8850
 5848SOL    HW229004   0.731   0.090   7.221  0.7456 -0.7138 -0.1753
 5849SOL     OW29005   0.060   4.405   1.819 -0.0116 -0.6317 -0.8155
 5849SOL    HW129006   4.702   4.361   1.840  0.3378 -0.1115  1.6347
 5849SOL    HW229007   0.081   4.375   1.731 -2.4830  3.1651 -2.6924
 5850SOL     OW29008   1.711   4.130   1.336  0.2437 -0.3073 -0.2768
 5850SOL    HW129009   1.667   4.106   1.254 -0.5943 -1.1678  0.4249
 5850SOL    HW229010   1.800   4.144   1.304  1.3285  0.1465  3.0046
 5851SOL     OW29011   4.576   2.804   5.918  0.4918  0.0873 -0.6414
 5851SOL    HW129012   4.664   2.834   5.940 -0.8445  3.2413  0.4339
 5851SOL    HW229013   4.526   2.885   5.933 -1.8092 -1.8975  2.5252
 5852SOL     OW29014   1.888   1.659   5.459  0.2807  0.2310 -0.1190
 5852SOL    HW129015   1.925   1.698   5.538  0.4953 -2.1107  0.9391
 5852SOL    HW229016   1.911   1.566   5.464 -3.2755 -0.5921  0.5442
 5853SOL     OW29017   2.742   3.618   7.250 -0.3277 -0.1238  0.7774
 5853SOL    HW129018   2.695   3.555   7.305  1.1763 -0.7823  1.3224
 5853SOL    HW229019   2.785   3.568   7.181  0.9844 -1.0853  2.2670
 5854SOL     OW29020   3.169   3.929  11.675 -0.0414 -0.1199  0.1963
 5854SOL    HW129021   3.105   3.924  11.604  1.3360 -0.0322 -1.0572
 5854SOL    HW229022   3.191   3.837  11.691 -0.3378 -0.4042 -1.0375
 5855SOL     OW29023   3.063   1.809   2.721 -0.4511 -0.2604  0.0004
 5855SOL    HW129024   3.118   1.762   2.659 -0.3402 -1.5418  1.0731
 5855SOL    HW229025   3.043   1.730   2.771 -0.6960  0.4589  1.0348
 5856SOL     OW29026   0.728   2.385  12.110  0.6252 -0.8754 -0.0509
 5856SOL    HW129027   0.725   2.329  12.033  2.4325  0.7180 -1.2926
 5856SOL    HW229028   0.677   2.334  12.173 -1.2133  0.3240 -0.5866
 5857SOL     OW29029   0.723   4.576  16.101  0.3540  0.3053 -0.0484
 5857SOL    HW129030   0.778   4.613  16.170  2.2759 -1.3909 -0.6825
 5857SOL    HW229031   0.672   4.515  16.154  2.3204 -1.2136  0.1208
 5858SOL     OW29032   3.137   0.315   8.021 -0.3343 -0.1594  0.0065
 5858SOL    HW129033   3.156   0.335   7.929 -1.3467 -0.8699 -0.3586
 5858SOL    HW229034   3.191   0.380   8.066 -0.1888 -0.9630  0.9647
 5859SOL     OW29035   3.837   3.876   4.403  0.6025 -0.1116 -0.1435
 5859SOL    HW129036   3.769   3.940   4.424  1.0749  0.9841 -1.9639
 5859SOL    HW229037   3.891   3.862   4.481  1.4117  1.0427 -0.5012
 5860SOL     OW29038   1.536   4.599  17.628  0.4878  0.2902  0.1649
 5860SOL    HW129039   1.601   4.643  17.682  0.4488  0.3425  0.1691
 5860SOL    HW229040   1.553   4.632  17.540  2.4628 -0.1647  0.3806
 5861SOL     OW29041   1.265   0.230   7.161 -0.5778  0.3742 -0.4148
 5861SOL    HW129042   1.181   0.188   7.140  1.0091 -2.5015 -1.1043
 5861SOL    HW229043   1.237   0.286   7.233 -2.6382 -1.3072  0.0891
 5862SOL     OW29044   1.188   2.146   9.036  0.1292 -0.4517 -0.0561
 5862SOL    HW129045   1.093   2.151   9.021 -0.1970 -1.8674  1.4964
 5862SOL    HW229046   1.196   2.104   9.122 -0.1775  0.3560  0.3752
 5863SOL     OW29047   2.510   0.100  17.631 -0.0902  0.0813  0.3168
 5863SOL    HW129048   2.567   0.151  17.690  1.5620 -1.1513 -0.2020
 5863SOL    HW229049   2.509   0.158  17.555 -1.1181 -0.3037  0.0531
 5864SOL     OW29050   2.079   1.444   1.140  0.5820 -0.2859  0.6869
 5864SOL    HW129051   2.003   1.502   1.128 -0.6980 -2.8033 -3.7131
 5864SOL    HW229052   2.137   1.505   1.185 -0.0243 -0.7939  2.1339
 5865SOL     OW29053   2.652   4.695   2.699 -0.1804 -0.2912  0.7001
 5865SOL    HW129054   2.656   4.696   2.604 -3.0066 -1.8820  0.5552
 5865SOL    HW229055   2.558   4.687   2.715  0.0109 -0.6048  1.6996
 5866SOL     OW29056   1.009   1.299  13.557  0.2626 -0.3167  0.1418
 5866SOL    HW129057   1.073   1.369  13.571  0.5875 -1.0343  2.2675
 5866SOL    HW229058   1.060   1.218  13.558 -1.0287 -1.1204  0.4448
 5867SOL     OW29059   0.334   1.526  15.900 -0.0868  0.5320  0.3546
 5867SOL    HW129060   0.360   1.518  15.808  0.5623  0.0905  0.5703
 5867SOL    HW229061   0.420   1.539  15.941  0.4930 -1.6307 -0.1592
 5868SOL     OW29062   1.989   1.004  11.852 -0.6670 -0.2737 -0.0107
 5868SOL    HW129063   1.954   1.088  11.822 -1.3500 -0.1604  1.1030
 5868SOL    HW229064   2.023   0.954  11.777  1.8946  0.1848  0.8548
 5869SOL     OW29065   1.224   4.233   8.376 -0.4240  0.0606 -0.1516
 5869SOL    HW129066   1.286   4.196   8.439  2.1389  2.9366 -1.0036
 5869SOL    HW229067   1.172   4.282   8.440  0.5636  0.1189  0.6066
 5870SOL     OW29068   0.542   3.460   1.110 -0.7876 -0.3512 -0.0290
 5870SOL    HW129069   0.598   3.383   1.118  1.4638  1.3170  0.2014
 5870SOL    HW229070   0.453   3.430   1.133 -1.8328  2.7916  0.0697
 5871SOL     OW29071   2.822   4.268   6.445 -0.4016  0.4095  0.0237
 5871SOL    HW129072   2.844   4.315   6.365 -1.7247 -1.6229 -1.5504
 5871SOL    HW229073   2.880   4.315   6.505 -0.0108 -1.5196  1.1679
 5872SOL     OW29074   0.425   4.551   6.436  0.4146 -0.0256 -0.2182
 5872SOL    HW129075   0.437   4.488   6.366 -0.1726  0.2250 -0.5479
 5872SOL    HW229076   0.378   4.617   6.385 -1.0100 -0.5249  0.4462
 5873SOL     OW29077   3.037   3.849   0.175  0.2244 -0.4876 -0.0683
 5873SOL    HW129078   3.072   3.790   0.241 -0.1737  0.3840  0.9181
 5873SOL    HW229079   3.102   3.920   0.180  1.5639 -1.6829 -0.4917
 5874SOL     OW29080   1.162   2.867   9.967 -0.2229 -0.1859  0.1774
 5874SOL    HW129081   1.190   2.948  10.011 -1.0030  0.6902 -0.9264
 5874SOL    HW229082   1.146   2.812  10.044  0.1782 -0.4151  0.0979
 5875SOL     OW29083   3.877   3.945   0.898  0.3464  0.4388 -0.2023
 5875SOL    HW129084   3.813   3.875   0.887  0.9367 -0.0056 -0.7388
 5875SOL    HW229085   3.905   3.949   0.807 -0.1366  1.6783 -0.3094
 5876SOL     OW29086   2.321   3.147   2.998  0.2847 -0.5715 -0.0284
 5876SOL    HW129087   2.378   3.179   3.069  1.4159 -1.6374 -0.4440
 5876SOL    HW229088   2.388   3.103   2.944  0.6691 -0.4459  0.3419
 5877SOL     OW29089   3.032   3.798   2.477  0.2697 -0.4566 -0.4688
 5877SOL    HW129090   3.029   3.703   2.464 -1.4560 -0.3308 -1.0302
 5877SOL    HW229091   2.981   3.795   2.558  0.9815  0.0555  0.0035
 5878SOL     OW29092   2.564   2.313   3.803 -0.2228 -0.0617  0.0056
 5878SOL    HW129093   2.592   2.229   3.840  0.0602  0.0765  0.1042
 5878SOL    HW229094   2.569   2.360   3.886  0.4584  1.0114 -0.6491
 5879SOL     OW29095   0.067   4.480   3.985 -1.1479 -0.9225  0.3132
 5879SOL    HW129096   0.040   4.388   3.991  0.5432 -1.6021 -2.3276
 5879SOL    HW229097   0.158   4.462   3.959 -0.4920  0.9383  1.3651
 5880SOL     OW29098   2.033   3.031   2.743  0.5676 -0.1460  0.0365
 5880SOL    HW129099   2.046   2.982   2.824 -0.9409 -1.7424 -0.6850
 5880SOL    HW229100   1.939   3.037   2.729  0.5622 -1.8954 -0.6820
 5881SOL     OW29101   2.725   1.237   4.655 -0.1818 -0.1307  0.3840
 5881SOL    HW129102   2.636   1.272   4.656  0.0587  0.4959  0.2525
 5881SOL    HW229103   2.765   1.297   4.592  2.0359 -0.5689  1.3689
 5882SOL     OW29104   0.235   2.712   7.318  0.0799  0.5578 -0.0573
 5882SOL    HW129105   0.215   2.780   7.254  2.9135 -0.5987 -2.1729
 5882SOL    HW229106   0.297   2.762   7.372  1.0118 -2.6709  1.8748
 5883SOL     OW29107   2.433   3.197   9.993  0.2355  0.7900  0.6282
 5883SOL    HW129108   2.343   3.226   9.987  0.2564  0.5991 -0.7051
 5883SOL    HW229109   2.464   3.248  10.067 -0.6349 -0.1448  1.6188
 5884SOL     OW29110   3.733   3.934   9.918  0.0043 -0.1412  0.6232
 5884SOL    HW129111   3.707   3.842   9.927 -3.1993  0.7848  0.6209
 5884SOL    HW229112   3.660   3.970   9.868 -0.2418 -0.6138  0.6449
 5885SOL     OW29113   0.817   4.566   4.748  0.4212 -0.2866  0.4439
 5885SOL    HW129114   0.910   4.588   4.755  1.2956 -3.3704 -1.5134
 5885SOL    HW229115   0.782   4.639   4.799 -0.9933 -0.3847 -0.3884
 5886SOL     OW29116   1.650   2.793  13.762 -0.2031 -0.2211 -0.5344
 5886SOL    HW129117   1.602   2.756  13.836 -0.5896 -2.2121 -1.7812
 5886SOL    HW229118   1.594   2.871  13.755  1.5706  1.1803  0.6350
 5887SOL     OW29119   0.865   1.422   8.294  0.5564  0.5402  0.6232
 5887SOL    HW129120   0.946   1.428   8.344  2.0231  2.5076 -2.0045
 5887SOL    HW229121   0.828   1.504   8.326 -2.8054 -0.3279 -1.0792
 5888SOL     OW29122   1.085   0.085   7.508  0.3378 -0.2488 -0.5103
 5888SOL    HW129123   1.071   0.133   7.589  0.3093 -1.6861  0.3309
 5888SOL    HW229124   1.175   0.110   7.488 -0.3851  1.5774 -1.5322
 5889SOL     OW29125   1.264   2.755   1.922 -0.0433 -0.3824  0.1188
 5889SOL    HW129126   1.238   2.784   1.835  0.2383 -0.6105 -0.0443
 5889SOL    HW229127   1.352   2.794   1.928  0.2624 -1.1110  0.4620
 5890SOL     OW29128   0.671   1.353   8.773 -0.0340 -0.5483  0.0432
 5890SOL    HW129129   0.631   1.440   8.780  1.6783  0.1865  0.9523
 5890SOL    HW229130   0.654   1.318   8.861 -0.1167 -1.1308 -0.2070
 5891SOL     OW29131   0.313   3.443   6.438  0.0447 -0.2699  0.1179
 5891SOL    HW129132   0.404   3.420   6.416  0.1435  0.2924 -0.0702
 5891SOL    HW229133   0.302   3.514   6.374 -0.0400 -0.5178 -0.1425
 5892SOL     OW29134   0.197   0.757   2.070 -0.2547  0.5002  0.5124
 5892SOL    HW129135   0.129   0.752   2.003 -1.4607  1.5525  1.6582
 5892SOL    HW229136   0.256   0.686   2.045 -0.1079  0.8530 -0.1560
 5893SOL     OW29137   4.230   2.382   0.806  0.2005 -0.1172  0.4518
 5893SOL    HW129138   4.215   2.346   0.893 -1.2734 -2.1773 -0.6622
 5893SOL    HW229139   4.175   2.460   0.806 -1.2202 -1.1296 -0.9954
 5894SOL     OW29140   4.337   3.179   3.414 -0.2160  0.2983  0.8632
 5894SOL    HW129141   4.340   3.274   3.403  2.2244 -0.1408 -2.3227
 5894SOL    HW229142   4.249   3.159   3.445 -0.0000 -1.0867  0.5817
 5895SOL     OW29143   2.862   2.187   6.037 -0.0241 -0.1972  0.7799
 5895SOL    HW129144   2.851   2.103   5.993 -1.0587  0.2581  0.1791
 5895SOL    HW229145   2.940   2.216   5.990 -1.4828  2.3696 -0.0458
 5896SOL     OW29146   0.597   4.610   7.551  0.4501 -0.3826 -0.3748
 5896SOL    HW129147   0.535   4.628   7.622 -2.3809 -2.4901 -2.3337
 5896SOL    HW229148   0.667   4.671   7.575  0.4234  0.1891 -1.7418
 5897SOL     OW29149   3.879   4.555   3.334 -0.2808 -0.0485  0.3104
 5897SOL    HW129150   3.839   4.524   3.252  1.9343 -0.4818 -0.6101
 5897SOL    HW229151   3.970   4.546   3.308 -0.1285 -1.0141  1.2032
 5898SOL     OW29152   3.251   4.073  11.408 -0.5437 -0.3296  0.3625
 5898SOL    HW129153   3.242   4.013  11.482 -1.3868  0.2991  0.7633
 5898SOL    HW229154   3.207   4.148  11.448  1.3070  1.9506 -1.8785
 5899SOL     OW29155   0.444   2.852   3.283  0.0112  0.2743 -0.5506
 5899SOL    HW129156   0.423   2.794   3.356 -3.2014  1.9120 -0.1767
 5899SOL    HW229157   0.357   2.852   3.241 -0.7035 -2.0074  0.9026
 5900SOL     OW29158   2.872   3.312  12.036 -0.2759 -0.3380 -0.0819
 5900SOL    HW129159   2.876   3.222  12.065  0.2216 -1.2944 -3.0448
 5900SOL    HW229160   2.883   3.351  12.122  3.1374 -2.1262  0.2651
 5901SOL     OW29161   4.452   4.523  12.008 -0.2284 -0.4041  0.4497
 5901SOL    HW129162   4.495   4.571  12.079 -0.1702 -0.1277  0.2280
 5901SOL    HW229163   4.401   4.590  11.962  2.1095 -1.2643 -3.3417
 5902SOL     OW29164   4.347   1.438   5.935  0.4490 -0.4658  0.1642
 5902SOL    HW129165   4.334   1.383   5.857  0.3587 -1.3869  0.8349
 5902SOL    HW229166   4.419   1.491   5.902 -1.6753  1.0705 -2.1029
 5903SOL     OW29167   4.360   3.804   3.447  0.3897  0.6569 -0.1155
 5903SOL    HW129168   4.375   3.711   3.432 -0.2969  0.4156  0.6714
 5903SOL    HW229169   4.416   3.815   3.524 -0.2055 -2.4165  0.7474
 5904SOL     OW29170   2.722   0.732   5.596 -0.5568  0.2793  0.1297
 5904SOL    HW129171   2.717   0.791   5.670  0.2256  1.0769 -0.4577
 5904SOL    HW229172   2.690   0.651   5.637 -0.9491  1.0853  1.3991
 5905SOL     OW29173   3.832   0.220   3.993 -0.2958 -0.0791  0.1911
 5905SOL    HW129174   3.831   0.237   4.087  1.5855 -1.5404  0.4760
 5905SOL    HW229175   3.847   0.307   3.956  0.4674 -1.0992 -1.8646
 5906SOL     OW29176   3.429   0.610  14.918 -0.3378 -0.3062  0.0088
 5906SOL    HW129177   3.347   0.582  14.877 -0.2474  1.2559 -1.2349
 5906SOL    HW229178   3.453   0.684  14.863 -2.5258  0.5414  0.2115
 5907SOL     OW29179   3.575   3.038  12.167  0.5518 -0.4954  0.5037
 5907SOL    HW129180   3.555   3.010  12.078  0.5700  1.9991 -0.2696
 5907SOL    HW229181   3.665   3.064  12.149  0.1087  0.0927 -0.8416
 5908SOL     OW29182   0.335   4.460   0.609 -0.7155 -0.0177 -0.3624
 5908SOL    HW129183   0.245   4.459   0.577  0.5503 -1.1975 -3.8717
 5908SOL    HW229184   0.332   4.420   0.696  0.1792 -1.5624 -1.0388
 5909SOL     OW29185   1.817   2.977   3.075 -0.4405 -0.7799 -0.3785
 5909SOL    HW129186   1.911   2.991   3.062 -0.4539 -0.4011 -0.0668
 5909SOL    HW229187   1.790   3.056   3.122  0.0711 -0.3727 -0.7665
 5910SOL     OW29188   2.881   4.155   9.631  0.1939 -0.1461 -0.2704
 5910SOL    HW129189   2.841   4.097   9.567  2.2824 -0.0814 -1.6322
 5910SOL    HW229190   2.942   4.206   9.579  0.4424 -2.0324 -1.8132
 5911SOL     OW29191   4.657   1.098   9.191  0.2087  0.4512 -0.0538
 5911SOL    HW129192   4.653   1.193   9.180  0.7079  0.9513  4.0642
 5911SOL    HW229193   4.634   1.081   9.100  0.2489  0.7349 -0.1173
 5912SOL     OW29194   1.320   1.044   7.505  0.7229  0.2109  0.2673
 5912SOL    HW129195   1.267   0.966   7.491  0.1805  0.4852  0.7519
 5912SOL    HW229196   1.245   1.105   7.503  0.3209 -0.2496  1.1011
 5913SOL     OW29197   0.183   4.083   4.282 -0.0873 -0.0932 -0.3390
 5913SOL    HW129198   0.109   4.070   4.342 -0.7477  1.8907 -0.7370
 5913SOL    HW229199   0.197   4.001   4.235  0.4361 -0.1810 -0.0349
 5914SOL     OW29200   0.943   0.324  17.010  0.3306 -0.1341 -0.0179
 5914SOL    HW129201   0.901   0.239  17.001 -0.3184  0.2311 -0.4219
 5914SOL    HW229202   0.886   0.371  17.072  1.9992  1.9165 -0.0191
 5915SOL     OW29203   0.001   3.010   6.685  0.2096 -0.2219  0.3422
 5915SOL    HW129204   0.050   2.934   6.717  1.2073 -0.4039 -1.6249
 5915SOL    HW229205   0.072   3.073   6.670 -0.5394  0.1686 -1.5726
 5916SOL     OW29206   0.767   3.829   3.998  0.0864  0.2350  0.7646
 5916SOL    HW129207   0.774   3.924   3.982 -1.1760  0.3258  0.7475
 5916SOL    HW229208   0.722   3.837   4.082  0.4312 -0.5399  1.0160
 5917SOL     OW29209   3.625   1.933   7.592  0.0415 -0.2078 -0.1797
 5917SOL    HW129210   3.698   1.947   7.652 -1.4347 -0.2390  1.6385
 5917SOL    HW229211   3.556   1.926   7.658  1.3029 -1.6657  0.9818
 5918SOL     OW29212   0.253   3.843   8.251 -0.2284  1.0872 -0.3247
 5918SOL    HW129213   0.277   3.925   8.208 -0.5390  1.3629  0.0308
 5918SOL    HW229214   0.273   3.858   8.343  0.3077  0.3351 -0.3178
 5919SOL     OW29215   4.408   3.013   5.096  0.0047 -0.3945  0.5192
 5919SOL    HW129216   4.429   2.921   5.077  1.6524 -0.0568  0.7394
 5919SOL    HW229217   4.366   3.059   5.023  0.3047  2.3785  2.0877
 5920SOL     OW29218   1.761   4.276   4.413  0.8157  0.3797  0.0418
 5920SOL    HW129219   1.762   4.188   4.451 -0.6672  0.0663 -0.6358
 5920SOL    HW229220   1.836   4.286   4.355 -0.4199  0.7298 -1.4845
 5921SOL     OW29221   1.833   1.186   9.613 -0.5169 -0.4610  0.3397
 5921SOL    HW129222   1.804   1.250   9.549  2.1373 -0.0578 -0.4699
 5921SOL    HW229223   1.907   1.235   9.649 -0.8083  0.4058 -0.2516
 5922SOL     OW29224   2.140   2.673  10.246 -0.1541 -0.5542  0.7602
 5922SOL    HW129225   2.067   2.614  10.227 -2.6744  2.3919  1.3987
 5922SOL    HW229226   2.107   2.756  10.278  0.7070  0.3567 -0.6957
 5923SOL     OW29227   2.821   2.201   1.973  0.3166  0.3460 -0.4738
 5923SOL    HW129228   2.773   2.164   1.899  0.6309  0.2698 -0.6393
 5923SOL    HW229229   2.867   2.120   1.996 -1.2488  0.1443  2.0165
 5924SOL     OW29230   3.731   2.143   7.143  0.0771 -0.6438 -0.1236
 5924SOL    HW129231   3.815   2.178   7.171  1.3339 -1.5265 -2.7650
 5924SOL    HW229232   3.694   2.103   7.222  0.1643 -0.0750  0.2001
 5925SOL     OW29233   0.779   2.208   8.156  0.0334 -0.3803  0.0416
 5925SOL    HW129234   0.705   2.153   8.131 -1.0892  1.5464 -0.9642
 5925SOL    HW229235   0.768   2.291   8.109 -2.9020 -0.8451 -0.0874
 5926SOL     OW29236   4.262   0.398  15.570  0.3175 -0.5397  0.2079
 5926SOL    HW129237   4.300   0.470  15.520 -0.5964  0.1616  0.5424
 5926SOL    HW229238   4.188   0.449  15.602 -0.7924 -2.8245  1.2870
 5927SOL     OW29239   0.438   4.079   1.176 -0.1632 -1.1101 -0.4350
 5927SOL    HW129240   0.438   4.054   1.084 -1.9732 -0.4141 -0.6379
 5927SOL    HW229241   0.521   4.045   1.208  0.9339  3.3093  1.5181
 5928SOL     OW29242   2.486   2.914   5.545 -0.0105 -0.3040 -0.4945
 5928SOL    HW129243   2.568   2.939   5.587  0.1819  1.4196 -1.9283
 5928SOL    HW229244   2.510   2.939   5.456 -4.1381 -0.4807 -1.6660
 5929SOL     OW29245   0.392   4.418   9.428 -0.2918  0.1561 -0.1710
 5929SOL    HW129246   0.341   4.459   9.499  1.3916  1.0625  0.5183
 5929SOL    HW229247   0.347   4.448   9.348  1.2986 -0.1991 -1.1979
 5930SOL     OW29248   4.251   2.374  14.168 -0.2450 -0.1017  0.1343
 5930SOL    HW129249   4.166   2.417  14.169 -0.6358 -0.8660 -1.2478
 5930SOL    HW229250   4.294   2.416  14.093 -1.6603 -1.0186 -1.1727
 5931SOL     OW29251   3.025   4.204   2.235 -0.1397 -1.0228  0.6065
 5931SOL    HW129252   3.039   4.112   2.258 -0.0218 -1.0356  0.4809
 5931SOL    HW229253   3.109   4.222   2.193 -0.0124 -0.3653  1.1411
 5932SOL     OW29254   1.571   2.202   2.423  0.2546 -0.0773 -0.3313
 5932SOL    HW129255   1.485   2.208   2.382 -0.3222 -1.5259  0.6662
 5932SOL    HW229256   1.557   2.258   2.499  0.6816 -0.8770  0.3333
 5933SOL     OW29257   1.758   4.573  15.974  0.5433 -0.0348 -0.1917
 5933SOL    HW129258   1.712   4.535  16.049  1.5711 -0.5991  0.1505
 5933SOL    HW229259   1.825   4.505  15.967 -0.0690 -0.6283 -0.1884
 5934SOL     OW29260   1.473   2.074   1.216  0.2500  0.0950  0.3090
 5934SOL    HW129261   1.437   2.152   1.174 -0.8099 -0.1089  0.8344
 5934SOL    HW229262   1.511   2.032   1.139  1.8904  1.3354  0.4461
 5935SOL     OW29263   4.499   1.223   4.131 -0.5533  1.0379 -0.3515
 5935SOL    HW129264   4.479   1.313   4.154  2.2425  2.0876 -2.0462
 5935SOL    HW229265   4.580   1.223   4.080 -1.4136  0.4608 -1.6965
 5936SOL     OW29266   4.342   4.602   5.554 -0.2857  0.2026  0.0446
 5936SOL    HW129267   4.267   4.580   5.499  0.2704 -1.8744  0.1303
 5936SOL    HW229268   4.332   4.696   5.570 -0.2980  0.0083  1.1520
 5937SOL     OW29269   4.063   0.606   6.969 -0.0099 -0.5260  0.2275
 5937SOL    HW129270   4.000   0.659   7.018  1.4339  0.8476  0.5579
 5937SOL    HW229271   3.999   0.559   6.915 -1.5238  0.3634  1.2489
 5938SOL     OW29272   2.414   0.136  10.473  0.1650  0.5959 -0.0397
 5938SOL    HW129273   2.420   0.141  10.377  0.4962  3.0789  0.1221
 5938SOL    HW229274   2.320   0.119  10.477  0.6922 -2.4034  0.0759
 5939SOL     OW29275   3.565   1.843   5.962 -0.1391  0.6133  0.0847
 5939SOL    HW129276   3.589   1.824   5.871 -0.7422  0.6601 -0.0780
 5939SOL    HW229277   3.624   1.918   5.972  0.0017  0.5810 -0.5033
 5940SOL     OW29278   3.302   2.871   1.464  0.2893  0.3652 -0.3642
 5940SOL    HW129279   3.369   2.875   1.532 -1.7115 -3.0171  1.8683
 5940SOL    HW229280   3.224   2.885   1.518  0.3222  1.0592 -0.5005
 5941SOL     OW29281   1.317   0.832   6.093 -0.3950  0.8414 -0.1104
 5941SOL    HW129282   1.335   0.918   6.131 -0.0692  0.9840 -0.5914
 5941SOL    HW229283   1.405   0.808   6.066 -0.4574  1.7614 -1.1364
 5942SOL     OW29284   3.660   3.060   3.395  0.1476  0.0649  0.4443
 5942SOL    HW129285   3.731   3.004   3.361  0.4374  1.6946 -1.6368
 5942SOL    HW229286   3.595   3.052   3.326 -0.8348 -0.3996  1.4172
 5943SOL     OW29287   3.428   0.546  15.330 -0.4231 -0.1909  0.3169
 5943SOL    HW129288   3.435   0.500  15.246  2.9957 -2.6426  1.9778
 5943SOL    HW229289   3.361   0.497  15.377 -0.9429 -1.1986 -1.4667
 5944SOL     OW29290   0.794   4.088   4.694 -0.3745  0.0826  0.2917
 5944SOL    HW129291   0.839   4.089   4.779  2.4692 -0.7635 -1.2173
 5944SOL    HW229292   0.856   4.102   4.623 -1.9311 -0.3238 -1.1373
 5945SOL     OW29293   0.864   4.408   9.359 -0.0175 -0.7322  0.0194
 5945SOL    HW129294   0.896   4.474   9.297  1.0404  0.2940  1.6476
 5945SOL    HW229295   0.816   4.352   9.298 -1.7137  0.7209  0.0267
 5946SOL     OW29296   2.727   3.309   6.470 -0.0105  0.3718 -0.0769
 5946SOL    HW129297   2.709   3.392   6.427 -0.3699 -0.7852 -2.1438
 5946SOL    HW229298   2.790   3.263   6.414 -1.1146 -1.0696 -0.1096
 5947SOL     OW29299   1.814   1.314  12.597 -0.1077 -0.5278  0.1679
 5947SOL    HW129300   1.902   1.284  12.620  0.6539  0.7928 -0.9970
 5947SOL    HW229301   1.760   1.322  12.675  0.9029  3.4860  0.4800
 5948SOL     OW29302   4.375   0.062   3.868 -0.7026  0.6779 -0.8444
 5948SOL    HW129303   4.330   0.042   3.950 -0.8558 -2.0010 -1.5736
 5948SOL    HW229304   4.463   0.031   3.886 -0.4056  1.3729 -1.1124
 5949SOL     OW29305   1.374   3.732   2.533 -0.0530 -0.6081 -0.4966
 5949SOL    HW129306   1.297   3.690   2.571  0.2684  1.8064  2.8231
 5949SOL    HW229307   1.395   3.656   2.479  0.3881  0.1883 -1.4559
 5950SOL     OW29308   0.304   4.101   5.605  0.2418 -0.3223 -0.7678
 5950SOL    HW129309   0.240   4.128   5.670 -0.1154 -0.3051 -1.1280
 5950SOL    HW229310   0.352   4.182   5.587  0.4496 -0.2793 -0.0095
 5951SOL     OW29311   3.217   4.549   5.689  0.0362  0.1010 -0.6392
 5951SOL    HW129312   3.166   4.471   5.667 -0.6942  0.7238 -1.1527
 5951SOL    HW229313   3.261   4.510   5.765  1.6406  0.7657 -1.2371
 5952SOL     OW29314   3.562   4.681   4.322 -0.2282 -0.4378  0.2861
 5952SOL    HW129315   3.576   4.595   4.360 -1.0215 -1.2690 -1.3128
 5952SOL    HW229316   3.525   4.651   4.239 -3.3021  2.6139  0.5386
 5953SOL     OW29317   0.682   3.206   2.349 -0.4117  0.1312 -0.9780
 5953SOL    HW129318   0.728   3.283   2.383 -3.2173  0.2490  2.5774
 5953SOL    HW229319   0.742   3.174   2.282 -0.2019 -0.2760 -0.5993
 5954SOL     OW29320   0.851   0.974  15.559 -0.3461 -0.0469 -0.3166
 5954SOL    HW129321   0.912   0.973  15.485 -0.5489  0.3283 -0.4853
 5954SOL    HW229322   0.902   0.933  15.629  0.4796  1.8798  0.2025
 5955SOL     OW29323   2.758   0.144   5.586 -0.5340 -0.1736 -0.5211
 5955SOL    HW129324   2.760   0.048   5.584  2.3774 -0.0619 -1.5444
 5955SOL    HW229325   2.838   0.151   5.638 -0.8818  1.1810 -0.1698
 5956SOL     OW29326   0.361   4.480   8.652  0.5472  0.4093 -0.3661
 5956SOL    HW129327   0.404   4.407   8.696  0.5352  0.6217 -0.0074
 5956SOL    HW229328   0.435   4.538   8.631  0.5499 -0.1259 -1.8826
 5957SOL     OW29329   4.687   3.329   8.103 -0.4833  0.4448 -0.1667
 5957SOL    HW129330   4.663   3.256   8.047 -0.6478 -0.6640  1.3523
 5957SOL    HW229331   0.054   3.306   8.114 -0.5249  0.2441 -0.2557
 5958SOL     OW29332   2.613   3.557   3.249  0.4246  0.2449 -0.1496
 5958SOL    HW129333   2.592   3.616   3.322 -0.4315  0.3353 -0.4643
 5958SOL    HW229334   2.590   3.480   3.301 -1.7597  1.1106  0.1555
 5959SOL     OW29335   1.408   3.607   3.778 -0.4450  0.3475 -0.0720
 5959SOL    HW129336   1.462   3.683   3.800  0.7002 -0.0737 -1.4293
 5959SOL    HW229337   1.450   3.536   3.827 -1.0612  1.1405  1.6201
 5960SOL     OW29338   1.684   0.578   4.365 -0.0398  0.1740 -0.0920
 5960SOL    HW129339   1.698   0.670   4.387  0.6615  0.3317 -1.2070
 5960SOL    HW229340   1.732   0.560   4.284  1.1203 -0.2730  0.7022
 5961SOL     OW29341   2.024   3.978   1.110 -0.0960 -0.0352 -0.4558
 5961SOL    HW129342   1.974   4.059   1.105  1.4408  0.8689 -1.1827
 5961SOL    HW229343   2.111   4.000   1.143 -0.7829  0.8188  0.7925
 5962SOL     OW29344   4.065   1.488   3.813 -0.2160 -0.7103 -0.3298
 5962SOL    HW129345   3.999   1.447   3.867 -1.2304  1.0388 -0.2422
 5962SOL    HW229346   4.145   1.455   3.854 -1.7210  0.0846  3.2494
 5963SOL     OW29347   1.865   2.293  13.193  0.2316 -0.0751 -0.3860
 5963SOL    HW129348   1.872   2.370  13.249  2.1863  0.0550 -0.8202
 5963SOL    HW229349   1.953   2.303  13.156  0.8827 -1.9181  0.6724
 5964SOL     OW29350   3.241   0.115  15.435  0.0124  0.0511  0.3061
 5964SOL    HW129351   3.283   0.154  15.512 -2.3045  0.3369  1.3955
 5964SOL    HW229352   3.248   0.180  15.364  0.3583  1.0326  1.2261
 5965SOL     OW29353   0.925   4.027   9.337 -0.1455  0.0742  0.7641
 5965SOL    HW129354   0.981   4.070   9.402  1.0221  0.2031 -0.3374
 5965SOL    HW229355   0.854   4.005   9.398 -1.8381  0.8341 -0.9617
 5966SOL     OW29356   3.313   3.271   5.531 -0.5050  0.1716  0.3183
 5966SOL    HW129357   3.338   3.247   5.620 -0.7307 -0.0212  0.3296
 5966SOL    HW229358   3.308   3.365   5.543  1.8024  0.6977 -2.7021
 5967SOL     OW29359   2.243   3.351   7.470 -0.0918  0.6359  0.2063
 5967SOL    HW129360   2.317   3.332   7.527  0.1024 -0.1516 -0.2995
 5967SOL    HW229361   2.303   3.367   7.397 -0.4962  1.7935  0.1250
 5968SOL     OW29362   4.023   3.816   6.279  0.8403 -0.3560  0.1396
 5968SOL    HW129363   4.052   3.810   6.188 -1.1699 -0.4399 -0.4837
 5968SOL    HW229364   4.063   3.891   6.324 -0.4130  1.5316 -1.9122
 5969SOL     OW29365   0.162   1.538   3.446  0.1322  0.0336  0.3677
 5969SOL    HW129366   0.117   1.512   3.366  1.5890 -0.3125 -0.3369
 5969SOL    HW229367   0.094   1.578   3.500 -0.2737  0.1164 -0.2000
 5970SOL     OW29368   2.061   2.923   2.213 -0.0452  0.3312  0.2765
 5970SOL    HW129369   2.051   2.945   2.305 -0.8021  0.7043  0.1032
 5970SOL    HW229370   2.100   3.006   2.188  3.8101 -1.5109  0.1491
 5971SOL     OW29371   1.773   3.010   8.638  0.0836 -0.6330 -0.4130
 5971SOL    HW129372   1.818   2.951   8.578  1.1035 -1.0935  0.8136
 5971SOL    HW229373   1.708   2.947   8.669 -1.4365  1.9290  1.5728
 5972SOL     OW29374   0.326   3.965   5.372 -0.1004  0.1128  0.2636
 5972SOL    HW129375   0.343   4.021   5.447  1.6076  1.8831 -1.4609
 5972SOL    HW229376   0.376   4.014   5.307  0.8989  1.0075  1.7200
 5973SOL     OW29377   3.587   1.079  13.606  0.1256  0.0952  0.2043
 5973SOL    HW129378   3.516   1.048  13.662  0.5206 -0.1117  0.5924
 5973SOL    HW229379   3.533   1.140  13.557 -1.0924 -0.8936  0.3225
 5974SOL     OW29380   3.456   4.261   7.429 -0.2386 -0.1943 -0.1701
 5974SOL    HW129381   3.362   4.268   7.412 -0.1961 -1.0891 -0.7290
 5974SOL    HW229382   3.455   4.310   7.512 -1.9473 -0.6422  0.0619
 5975SOL     OW29383   0.978   4.704   1.351  0.4166  0.4780 -0.0861
 5975SOL    HW129384   1.026   4.624   1.371  1.1338  0.3270 -2.4565
 5975SOL    HW229385   0.905   4.676   1.296  0.7032 -1.7427  0.6540
 5976SOL     OW29386   1.121   3.103   5.516 -0.2516 -0.1288 -0.5761
 5976SOL    HW129387   1.034   3.066   5.525  0.3524 -1.3295  0.2681
 5976SOL    HW229388   1.137   3.071   5.428  0.1684 -1.8825  0.1532
 5977SOL     OW29389   1.885   4.205   5.763 -0.2345  0.7020 -0.1049
 5977SOL    HW129390   1.874   4.283   5.709  1.5458 -0.2487 -1.8586
 5977SOL    HW229391   1.881   4.142   5.691  1.7653 -0.3858  0.7208
 5978SOL     OW29392   0.067   2.597  14.972 -0.4189  0.2485  0.2898
 5978SOL    HW129393   0.058   2.598  15.067 -0.9613  0.4114  0.2330
 5978SOL    HW229394   0.024   2.516  14.946 -2.2570  1.2734  0.1531
 5979SOL     OW29395   2.555   3.580   0.155  0.0683  0.0586 -0.2249
 5979SOL    HW129396   2.507   3.555   0.234 -2.4846  0.6898 -1.5760
 5979SOL    HW229397   2.640   3.538   0.162 -0.2183 -0.5150 -0.1395
 5980SOL     OW29398   0.103   2.462   7.211  0.3816 -0.1957 -0.4218
 5980SOL    HW129399   0.132   2.553   7.204 -1.9646  0.4244 -1.7696
 5980SOL    HW229400   0.035   2.456   7.144  2.1098 -0.0784 -2.1852
 5981SOL     OW29401   1.664   2.752   1.710  0.0500 -0.0158 -0.0950
 5981SOL    HW129402   1.750   2.751   1.751 -0.9311 -2.0648  1.8942
 5981SOL    HW229403   1.623   2.800   1.781 -0.5709  0.6568 -0.9020
 5982SOL     OW29404   4.423   3.690  10.049 -0.1910 -0.1876 -0.4921
 5982SOL    HW129405   4.480   3.686   9.972  0.4224 -0.7751 -0.0080
 5982SOL    HW229406   4.461   3.763  10.096 -1.4144  0.2990 -0.2462
 5983SOL     OW29407   3.236   3.196   6.053  0.2018  0.3272 -0.0727
 5983SOL    HW129408   3.280   3.122   6.011 -0.2157 -0.6511  1.1805
 5983SOL    HW229409   3.149   3.157   6.048  0.3951 -0.4086  2.0540
 5984SOL     OW29410   0.880   2.519   8.832 -0.2886 -0.2921  0.0496
 5984SOL    HW129411   0.936   2.488   8.903 -2.0600 -0.8475  1.2032
 5984SOL    HW229412   0.929   2.583   8.780  0.1089 -1.6140 -1.1947
 5985SOL     OW29413   1.915   3.028   5.812 -0.0231 -0.1106 -0.2374
 5985SOL    HW129414   1.834   3.038   5.762  0.7606 -0.8819 -1.6649
 5985SOL    HW229415   1.986   3.042   5.749  0.1944 -1.2916 -0.2479
 5986SOL     OW29416   4.490   3.656   6.309 -0.0591 -0.2962  0.3114
 5986SOL    HW129417   4.553   3.711   6.356 -1.8067  1.4889  0.5488
 5986SOL    HW229418   4.532   3.570   6.308  1.5912  0.4988  1.5542
 5987SOL     OW29419   2.242   1.520  15.764 -0.3351 -0.6435  0.4029
 5987SOL    HW129420   2.253   1.440  15.711  1.0835  1.3276 -2.2711
 5987SOL    HW229421   2.183   1.561  15.701 -0.6606  1.5702  2.1639
 5988SOL     OW29422   0.268   3.357   9.183  0.2290  0.0112  0.2463
 5988SOL    HW129423   0.295   3.332   9.095 -0.3372 -3.3090  1.0155
 5988SOL    HW229424   0.346   3.344   9.237 -0.2517 -1.6092  0.5511
 5989SOL     OW29425   3.029   3.663   5.208 -0.5298 -1.0123  0.3527
 5989SOL    HW129426   2.989   3.599   5.267 -1.5068 -1.1018 -0.4139
 5989SOL    HW229427   3.073   3.595   5.157  1.5895 -0.8686  2.0000
 5990SOL     OW29428   3.650   2.203   6.910  0.4989 -0.1146 -0.2206
 5990SOL    HW129429   3.688   2.182   6.995  1.5077  1.2122 -0.3334
 5990SOL    HW229430   3.563   2.235   6.933  0.7445 -0.9599  1.8204
 5991SOL     OW29431   0.671   0.762   4.798 -0.2029 -0.3555  0.1704
 5991SOL    HW129432   0.588   0.794   4.765 -0.0779  0.4094  0.5899
 5991SOL    HW229433   0.728   0.784   4.724  0.8860 -0.0216  1.0919
 5992SOL     OW29434   3.188   4.697   1.504 -0.8381 -0.5273 -0.1114
 5992SOL    HW129435   3.268   4.706   1.556 -1.0463  1.1432 -0.0921
 5992SOL    HW229436   3.199   4.608   1.470  0.6382 -0.4454  0.1377
 5993SOL     OW29437   4.167   0.029   5.193  0.5840  0.1340  0.0072
 5993SOL    HW129438   4.257   0.035   5.161  0.4349  0.1970 -0.3993
 5993SOL    HW229439   4.156   0.105   5.250  0.7660 -1.3239  1.9646
 5994SOL     OW29440   0.623   0.808   4.156 -0.0998  0.0716  0.1296
 5994SOL    HW129441   0.716   0.788   4.141 -0.1613  0.0846 -0.2672
 5994SOL    HW229442   0.585   0.799   4.068  0.5467  1.1394 -0.2676
 5995SOL     OW29443   1.377   4.349   3.200 -0.6427 -0.0398  0.3650
 5995SOL    HW129444   1.388   4.370   3.107  2.8658 -2.0474  0.3284
 5995SOL    HW229445   1.282   4.345   3.204 -0.7052 -1.6287 -2.6400
 5996SOL     OW29446   0.544   4.104   4.603  0.3251 -0.2708  0.0335
 5996SOL    HW129447   0.554   4.197   4.625 -0.9613 -0.0088 -0.4940
 5996SOL    HW229448   0.619   4.080   4.657 -0.7364 -0.3087  1.5039
 5997SOL     OW29449   3.862   0.195   0.571  0.3935 -0.6106 -0.0657
 5997SOL    HW129450   3.872   0.129   0.639  1.9412  0.0499  0.3473
 5997SOL    HW229451   3.921   0.170   0.499 -0.6567 -0.5395 -0.9491
 5998SOL     OW29452   2.444   2.918   6.882 -0.0497 -0.1632  0.2483
 5998SOL    HW129453   2.484   2.853   6.825 -1.7599 -0.5142 -0.5292
 5998SOL    HW229454   2.357   2.886   6.906 -0.1170 -0.0509  0.1509
 5999SOL     OW29455   3.561   0.054  10.700 -0.3690  0.4212 -0.7109
 5999SOL    HW129456   3.506   0.031  10.626 -0.1700 -0.7265 -0.5044
 5999SOL    HW229457   3.636   0.002  10.671 -1.0677 -1.7252  1.3767
 6000SOL     OW29458   4.240   3.597   6.798 -0.2654 -0.1068  0.1610
 6000SOL    HW129459   4.254   3.508   6.830 -1.1934 -0.2542  0.1659
 6000SOL    HW229460   4.329   3.630   6.785 -0.4036  0.0373 -0.4246
 6001SOL     OW29461   0.676   2.444   7.988  0.1642 -0.3732  0.5837
 6001SOL    HW129462   0.634   2.373   7.939  0.2303  0.9969 -1.4660
 6001SOL    HW229463   0.667   2.517   7.926  0.6078 -0.6615  0.1792
 6002SOL     OW29464   1.854   0.473   7.933  0.3047 -0.0343  1.0519
 6002SOL    HW129465   1.822   0.394   7.888 -1.3784  1.1610  0.1726
 6002SOL    HW229466   1.821   0.471   8.023 -1.0883 -0.8012  0.5347
 6003SOL     OW29467   4.712   2.033  10.652  0.0344  0.2550 -0.3441
 6003SOL    HW129468   0.069   2.066  10.615 -0.5626  0.2506 -1.6770
 6003SOL    HW229469   0.031   1.959  10.694  0.4927  0.9408  0.3809
 6004SOL     OW29470   4.494   1.195  13.940  0.1415  0.3637 -0.1052
 6004SOL    HW129471   4.399   1.187  13.949  0.4823 -0.4902  2.7191
 6004SOL    HW229472   4.521   1.165  14.026  0.6942  0.0336 -0.3884
 6005SOL     OW29473   2.439   0.995   8.320  0.6466  0.0615 -0.4272
 6005SOL    HW129474   2.522   1.029   8.286  0.2473  0.2434 -1.2025
 6005SOL    HW229475   2.437   1.041   8.404  0.2256 -0.7716  0.0159
 6006SOL     OW29476   0.152   3.885   2.466 -0.0473  0.1804  0.3136
 6006SOL    HW129477   0.160   3.966   2.417  2.1346 -0.3461 -0.2357
 6006SOL    HW229478   0.238   3.847   2.445  1.0377  2.9134 -0.1611
 6007SOL     OW29479   3.204   2.214   6.482  1.0159  0.3843  0.4195
 6007SOL    HW129480   3.132   2.231   6.542  0.3173 -0.5306 -0.1596
 6007SOL    HW229481   3.216   2.119   6.481 -0.1635  0.2117  2.4402
 6008SOL     OW29482   3.867   3.360   4.634  0.2741 -0.2834  0.0955
 6008SOL    HW129483   3.831   3.425   4.694 -0.6921 -1.1438  0.4671
 6008SOL    HW229484   3.789   3.308   4.609  0.3975 -0.6784  0.5332
 6009SOL     OW29485   3.640   4.381   5.855 -0.6238  0.1945  0.1593
 6009SOL    HW129486   3.611   4.316   5.791 -0.5734  0.2282  0.1025
 6009SOL    HW229487   3.582   4.354   5.926 -2.2880  1.9565 -0.5012
 6010SOL     OW29488   4.380   0.564   4.424 -1.2152 -0.2884  0.4973
 6010SOL    HW129489   4.375   0.488   4.367 -3.3382  0.7816 -0.7619
 6010SOL    HW229490   4.473   0.581   4.441 -0.2140 -0.8073 -4.4788
 6011SOL     OW29491   0.837   3.608   2.820  0.9057 -0.3369  0.2025
 6011SOL    HW129492   0.787   3.547   2.766 -1.8901 -0.0604  2.4895
 6011SOL    HW229493   0.782   3.608   2.898 -0.5038  0.7240 -0.8105
 6012SOL     OW29494   2.216   4.305   2.960  0.3519 -0.2630 -0.4988
 6012SOL    HW129495   2.306   4.278   2.946  0.4994 -0.5238  0.9149
 6012SOL    HW229496   2.205   4.357   2.880 -0.3706 -0.2857 -0.4186
 6013SOL     OW29497   3.513   2.687   7.743 -0.1902 -0.3264 -0.2552
 6013SOL    HW129498   3.542   2.751   7.678 -0.4086 -0.7396 -0.7567
 6013SOL    HW229499   3.598   2.655   7.773  0.3067  0.6672 -0.6098
 6014SOL     OW29500   0.264   2.025   8.157 -0.3903  0.1818  0.0713
 6014SOL    HW129501   0.281   2.118   8.171  1.7087 -0.0459 -0.9706
 6014SOL    HW229502   0.337   2.006   8.098 -0.5311 -0.9955  0.2777
 6015SOL     OW29503   1.203   4.705  16.645  0.2661 -0.1137 -0.2575
 6015SOL    HW129504   1.112   0.000  16.667  0.4432 -0.0082  0.3680
 6015SOL    HW229505   1.229   4.655  16.722 -0.2867  0.2385  0.1540
 6016SOL     OW29506   3.349   4.369   0.830  0.3327 -0.0056  0.2205
 6016SOL    HW129507   3.379   4.290   0.876  0.7609  0.5326  0.8642
 6016SOL    HW229508   3.318   4.320   0.754  0.9491  1.3890 -0.9192
 6017SOL     OW29509   1.441   2.972   7.684  0.3355  0.6025  0.4738
 6017SOL    HW129510   1.383   2.896   7.690 -0.4046  1.0271 -1.1742
 6017SOL    HW229511   1.523   2.922   7.681  0.0920  0.2324 -0.0704
 6018SOL     OW29512   0.503   1.845   4.933 -0.4072 -0.4887 -0.0698
 6018SOL    HW129513   0.415   1.881   4.943  0.1009  1.0323 -0.9295
 6018SOL    HW229514   0.521   1.837   5.026  0.4251  2.1798  0.0017
 6019SOL     OW29515   3.526   2.605   2.470  0.4630  0.1359 -0.6798
 6019SOL    HW129516   3.562   2.648   2.548  0.8699 -0.5767 -0.4820
 6019SOL    HW229517   3.558   2.667   2.404  0.0117  2.2834  1.1123
 6020SOL     OW29518   1.289   0.024   8.387 -0.7700  0.5696  0.4144
 6020SOL    HW129519   1.323   4.661   8.370 -2.0554  0.1854 -0.1679
 6020SOL    HW229520   1.196   0.005   8.377 -0.7203 -0.5816  2.1463
 6021SOL     OW29521   2.254   1.802   8.101 -0.6834  0.0336 -0.5072
 6021SOL    HW129522   2.288   1.788   8.189 -0.2226  0.2026 -0.6583
 6021SOL    HW229523   2.232   1.894   8.110  0.3430  0.1597  0.6686
 6022SOL     OW29524   2.445   2.809  13.591  0.5364  0.0822 -0.2883
 6022SOL    HW129525   2.404   2.880  13.641  2.7819  1.4678 -0.3745
 6022SOL    HW229526   2.422   2.736  13.648 -2.9044  0.6922 -0.9181
 6023SOL     OW29527   1.063   3.196   4.905  0.0689 -0.5871  0.5470
 6023SOL    HW129528   1.069   3.228   4.816  2.1975  1.9258  1.6073
 6023SOL    HW229529   1.059   3.105   4.875  0.2361  0.4768 -2.7254
 6024SOL     OW29530   4.373   2.554  16.092 -0.4773 -0.0973  0.1171
 6024SOL    HW129531   4.465   2.534  16.076 -0.2199 -1.1224  2.9516
 6024SOL    HW229532   4.374   2.586  16.182  0.3416  0.5704 -0.1337
 6025SOL     OW29533   3.899   4.293   6.840 -0.6496  0.6340  0.0806
 6025SOL    HW129534   3.826   4.278   6.900  0.0752  0.4586  0.9093
 6025SOL    HW229535   3.975   4.287   6.898  1.1776  0.6315 -2.2760
 6026SOL     OW29536   1.024   1.097  11.214  0.1660 -1.0020  0.0720
 6026SOL    HW129537   1.086   1.167  11.194 -1.0151  0.4520  1.4165
 6026SOL    HW229538   1.057   1.019  11.170  2.1950  1.5331 -2.8316
 6027SOL     OW29539   3.473   3.696  10.926  0.2685  0.3806 -0.4867
 6027SOL    HW129540   3.460   3.688  11.020  3.3849  0.6573 -0.0420
 6027SOL    HW229541   3.414   3.769  10.907 -0.3685 -0.2941 -1.1200
 6028SOL     OW29542   1.910   3.306   3.758  0.0848 -0.0742  0.1722
 6028SOL    HW129543   1.855   3.271   3.828  0.6436  0.6864  0.9942
 6028SOL    HW229544   1.937   3.226   3.713  1.4424  0.2382  0.4318
 6029SOL     OW29545   4.652   0.746  10.238 -0.2123  0.0888 -0.0744
 6029SOL    HW129546   4.661   0.829  10.285 -0.2165 -0.5130  1.0033
 6029SOL    HW229547   4.572   0.769  10.190 -0.0645 -2.0594 -1.3640
 6030SOL     OW29548   0.460   3.482   9.521  0.1294  0.4001  0.1543
 6030SOL    HW129549   0.479   3.433   9.600  3.5999  0.9734 -0.3199
 6030SOL    HW229550   0.514   3.561   9.531  1.8845 -0.8743  0.7818
 6031SOL     OW29551   0.682   2.276   9.954 -0.0940  0.3447  0.5588
 6031SOL    HW129552   0.676   2.306  10.045 -0.5078 -0.9712  0.9593
 6031SOL    HW229553   0.594   2.252   9.925 -0.0328  1.2450 -0.3526
 6032SOL     OW29554   3.675   2.302   4.995  0.2823  0.4934  0.0975
 6032SOL    HW129555   3.625   2.302   4.914 -1.3223  0.0309  1.0946
 6032SOL    HW229556   3.763   2.333   4.973  0.3385  1.1448  1.2677
 6033SOL     OW29557   3.070   4.084  11.080  0.1197  0.3936 -0.2808
 6033SOL    HW129558   3.057   4.070  10.986  0.9688 -0.4818 -0.2702
 6033SOL    HW229559   3.098   4.175  11.070  0.1086  0.5542  1.1711
 6034SOL     OW29560   1.818   0.181   6.035 -0.1538 -0.1501  0.4423
 6034SOL    HW129561   1.801   0.116   6.104  2.2380  0.6587  1.8181
 6034SOL    HW229562   1.777   0.134   5.962  0.6686  0.6714 -0.5356
 6035SOL     OW29563   1.553   0.168   2.174  0.1318 -0.0747  0.7253
 6035SOL    HW129564   1.525   0.255   2.202  1.5131  0.2617  1.0513
 6035SOL    HW229565   1.642   0.180   2.141 -1.0050  0.2968 -2.1588
 6036SOL     OW29566   0.606   1.578  16.022 -0.2252 -0.3407  0.1449
 6036SOL    HW129567   0.680   1.634  15.999  0.0954 -0.7074  0.2664
 6036SOL    HW229568   0.592   1.589  16.116  2.5725  0.5484  0.4571
 6037SOL     OW29569   1.648   0.530   6.361  0.0444 -0.6065 -0.5124
 6037SOL    HW129570   1.711   0.569   6.300 -0.0561  0.7262  0.2444
 6037SOL    HW229571   1.687   0.546   6.447 -4.6983 -1.2055  1.7412
 6038SOL     OW29572   2.682   1.155   1.529  0.0693  0.0796  0.0656
 6038SOL    HW129573   2.646   1.216   1.594  0.6469  1.9664 -1.3734
 6038SOL    HW229574   2.775   1.176   1.526  0.1778 -0.1102  2.3929
 6039SOL     OW29575   3.576   0.063   4.591  0.0525  0.0082  0.1370
 6039SOL    HW129576   3.509   0.124   4.561 -0.5938  0.0075  1.5545
 6039SOL    HW229577   3.528   4.706   4.581 -1.6487  0.9613  0.5734
 6040SOL     OW29578   1.639   0.857   5.307  0.2682  0.3299 -0.0321
 6040SOL    HW129579   1.581   0.847   5.382 -1.0929 -0.8749 -1.2438
 6040SOL    HW229580   1.589   0.794   5.255 -2.0668  0.5792  1.9635
 6041SOL     OW29581   2.387   3.759   7.805  0.2827 -0.3407 -0.7232
 6041SOL    HW129582   2.469   3.801   7.780  1.3619 -2.5452 -0.9274
 6041SOL    HW229583   2.424   3.672   7.823 -1.9264 -0.9678  0.8204
 6042SOL     OW29584   1.212   0.950   5.826  0.9014 -0.1947 -0.4836
 6042SOL    HW129585   1.122   0.982   5.830  1.4301  1.5435 -2.1843
 6042SOL    HW229586   1.220   0.898   5.905  1.8759 -1.5350 -1.4704
 6043SOL     OW29587   3.196   1.498   0.254 -0.4347 -0.1089  0.0835
 6043SOL    HW129588   3.266   1.464   0.310  0.8032  0.0447 -1.3675
 6043SOL    HW229589   3.195   1.585   0.292  0.8303 -0.6634  1.3744
 6044SOL     OW29590   1.323   1.151   4.665  0.3632  0.5467 -0.5190
 6044SOL    HW129591   1.412   1.187   4.663  1.1881 -1.4294  0.1421
 6044SOL    HW229592   1.298   1.161   4.573 -0.1414  0.5069 -0.3842
 6045SOL     OW29593   2.534   1.364   7.120  0.2203  0.3252  0.1858
 6045SOL    HW129594   2.495   1.319   7.045  2.0641 -1.3396  0.2500
 6045SOL    HW229595   2.538   1.454   7.086 -1.0747 -0.7467 -2.7957
 6046SOL     OW29596   1.153   2.206   6.197  0.1250 -1.0620  0.0944
 6046SOL    HW129597   1.145   2.243   6.109 -0.0199 -0.2621  0.4448
 6046SOL    HW229598   1.065   2.171   6.211 -0.3969 -0.1427 -0.9235
 6047SOL     OW29599   4.378   3.098   4.808  0.2449 -0.1414 -0.0706
 6047SOL    HW129600   4.464   3.069   4.838 -0.6225 -1.0086  1.5932
 6047SOL    HW229601   4.341   3.020   4.766  3.4332 -2.2156  0.9231
 6048SOL     OW29602   4.370   2.030   8.726 -0.1164  0.0342 -0.2844
 6048SOL    HW129603   4.444   2.047   8.667 -0.4448  2.7500  0.0898
 6048SOL    HW229604   4.325   1.961   8.677  2.4847 -2.0154  0.1357
 6049SOL     OW29605   3.133   4.093  13.789  0.7217 -0.4690 -0.4387
 6049SOL    HW129606   3.173   4.121  13.706 -0.7384  1.1294 -0.6097
 6049SOL    HW229607   3.068   4.030  13.759  1.3861 -0.4554 -1.9498
 6050SOL     OW29608   0.451   4.494   2.650  0.2298 -0.4671  0.3554
 6050SOL    HW129609   0.471   4.408   2.611 -2.4981 -0.9603  0.0068
 6050SOL    HW229610   0.534   4.538   2.637  0.0138 -0.3728 -0.7336
 6051SOL     OW29611   2.737   1.573   1.114  0.0182  0.1306 -0.1241
 6051SOL    HW129612   2.772   1.509   1.052  0.0062 -0.5253  0.5579
 6051SOL    HW229613   2.774   1.654   1.078 -2.2099  1.1801 -0.0941
 6052SOL     OW29614   3.180   1.313   5.506  0.7159  0.0807 -0.2749
 6052SOL    HW129615   3.213   1.342   5.591  2.3369  0.6164 -1.0929
 6052SOL    HW229616   3.240   1.241   5.485  1.5845  0.5869  0.4952
 6053SOL     OW29617   2.176   1.957   9.971  0.2806 -0.6817  0.4735
 6053SOL    HW129618   2.145   1.958  10.061 -0.0588 -0.4825  0.3552
 6053SOL    HW229619   2.180   2.050   9.951  0.2744 -0.6946  0.4091
 6054SOL     OW29620   0.029   3.299   2.681 -0.4162  0.2819 -0.2924
 6054SOL    HW129621   0.006   3.206   2.690 -3.3768  0.8562 -2.0443
 6054SOL    HW229622   0.000   3.307   2.590  1.7162  0.7926 -0.9265
 6055SOL     OW29623   4.407   4.590  15.542 -0.4356 -0.1206 -0.4605
 6055SOL    HW129624   4.347   4.580  15.469 -0.5559 -0.2189 -0.3474
 6055SOL    HW229625   4.476   4.529  15.514 -0.6314 -0.4723 -0.1806
 6056SOL     OW29626   1.226   1.737   2.680 -0.3374  0.3250 -0.0231
 6056SOL    HW129627   1.243   1.691   2.597 -0.0803 -1.3637  0.9598
 6056SOL    HW229628   1.168   1.676   2.725 -1.9996  1.3538 -0.8053
 6057SOL     OW29629   4.149   2.738   0.101  0.0177 -0.3453  0.1646
 6057SOL    HW129630   4.096   2.806   0.142  2.6834  1.8399 -0.0325
 6057SOL    HW229631   4.129   2.663   0.158  1.0211 -0.1311  0.7832
 6058SOL     OW29632   3.134   4.374  15.674 -0.7595 -0.1588  0.2068
 6058SOL    HW129633   3.124   4.406  15.585  0.3252 -1.7879 -0.4893
 6058SOL    HW229634   3.088   4.290  15.681  0.1284 -0.5220  1.7387
 6059SOL     OW29635   0.062   2.865   7.516  0.4104  0.6520  0.3304
 6059SOL    HW129636   0.076   2.774   7.542 -0.3822  0.4064 -0.0797
 6059SOL    HW229637   0.132   2.864   7.451  0.2336  0.8526  0.1346
 6060SOL     OW29638   1.923   1.769   6.211 -0.5942  0.6176  0.1263
 6060SOL    HW129639   1.890   1.858   6.221 -0.7570  0.4365  1.1969
 6060SOL    HW229640   1.897   1.728   6.293  0.3294 -0.2085  0.0077
 6061SOL     OW29641   0.324   1.211   7.712  0.5340  0.2271  0.4373
 6061SOL    HW129642   0.268   1.197   7.788  1.3900  1.2262  1.2584
 6061SOL    HW229643   0.252   1.233   7.653  0.2862 -2.2057 -0.1750
 6062SOL     OW29644   0.805   0.645   2.245 -0.4247 -0.4435  0.2862
 6062SOL    HW129645   0.835   0.578   2.183  0.9426 -0.6903  1.2183
 6062SOL    HW229646   0.743   0.690   2.188  0.1229 -0.0601 -0.0155
 6063SOL     OW29647   1.320   3.777   6.718 -0.4758 -0.2528  0.4240
 6063SOL    HW129648   1.399   3.769   6.771  1.0657  0.1398 -1.8288
 6063SOL    HW229649   1.282   3.855   6.759 -0.2195  0.4017 -0.5868
 6064SOL     OW29650   0.019   3.552   6.402  0.4919 -0.7110  0.4246
 6064SOL    HW129651   0.004   3.463   6.369 -2.6247  0.0954 -0.3473
 6064SOL    HW229652   0.105   3.573   6.364 -0.8159  0.4459 -1.8981
 6065SOL     OW29653   3.201   2.263  11.438 -0.6783 -0.5663 -0.1830
 6065SOL    HW129654   3.243   2.313  11.368 -1.5452 -0.1011 -0.3751
 6065SOL    HW229655   3.264   2.200  11.472 -1.2045 -0.0918  1.6710
 6066SOL     OW29656   0.242   0.739   5.248  0.1387  0.4759  0.0563
 6066SOL    HW129657   0.259   0.683   5.323  0.3968  1.3610  0.6528
 6066SOL    HW229658   0.225   0.822   5.292  0.0109  1.0681 -1.0971
 6067SOL     OW29659   4.080   3.739   7.467  0.5153  0.1559 -0.0482
 6067SOL    HW129660   4.083   3.825   7.509  2.1943  0.0296  0.1169
 6067SOL    HW229661   4.139   3.696   7.529 -1.1281 -0.8383  0.8074
 6068SOL     OW29662   2.114   3.806   1.359 -0.5554 -0.7810  0.3193
 6068SOL    HW129663   2.056   3.779   1.431 -2.0594  1.8977  0.0991
 6068SOL    HW229664   2.156   3.885   1.393  1.4369 -1.4394 -0.6287
 6069SOL     OW29665   0.212   0.072   1.991  0.2742  0.3208 -0.3232
 6069SOL    HW129666   0.224   0.107   2.079 -0.4853  1.1673 -0.5545
 6069SOL    HW229667   0.203   0.158   1.950  1.4169  0.2596 -0.6975
 6070SOL     OW29668   0.688   3.009   5.698 -0.6131 -0.2276 -0.1756
 6070SOL    HW129669   0.681   3.094   5.742  1.4625 -0.5127  0.7027
 6070SOL    HW229670   0.648   2.956   5.767  0.0320 -1.0515 -0.4333
 6071SOL     OW29671   1.018   0.062   0.456  0.4437  0.1986 -0.2908
 6071SOL    HW129672   1.073   4.725   0.408  0.1978  0.8600 -1.4432
 6071SOL    HW229673   1.032   0.031   0.545 -1.0287  1.5630  0.3990
 6072SOL     OW29674   2.032   3.888   2.843  0.1382 -0.1230 -0.1383
 6072SOL    HW129675   2.079   3.808   2.819  0.6193 -1.4472  5.3590
 6072SOL    HW229676   1.941   3.860   2.846  0.2771 -0.5060  0.3768
 6073SOL     OW29677   4.601   4.441  11.244 -0.5807 -0.2482  0.0351
 6073SOL    HW129678   4.518   4.426  11.199 -1.5648  0.8432  1.4890
 6073SOL    HW229679   4.578   4.400  11.328 -1.1047  1.4783  0.7397
 6074SOL     OW29680   1.708   3.309   4.394 -0.4938  0.0788  0.0555
 6074SOL    HW129681   1.613   3.319   4.400 -0.5979 -0.7605 -0.1488
 6074SOL    HW229682   1.716   3.259   4.475 -2.2198 -0.2666  0.0211
 6075SOL     OW29683   1.427   1.636   3.448  0.1096 -0.2063 -0.3350
 6075SOL    HW129684   1.470   1.694   3.386  1.9270 -1.9932 -0.7498
 6075SOL    HW229685   1.339   1.673   3.439  0.4396  0.5233 -0.5395
 6076SOL     OW29686   2.914   1.522   1.919  0.2216  0.1981 -0.1198
 6076SOL    HW129687   2.997   1.484   1.890 -1.0370 -1.1639 -1.8909
 6076SOL    HW229688   2.853   1.458   1.882 -0.5908  0.6872  0.3655
 6077SOL     OW29689   3.606   4.306   4.526 -0.0182  0.0513 -0.0147
 6077SOL    HW129690   3.514   4.308   4.499 -0.1999 -3.5081  0.2297
 6077SOL    HW229691   3.611   4.359   4.605 -3.6901  0.0977  0.1865
 6078SOL     OW29692   3.120   3.743   8.840  0.2345  0.0265 -0.1665
 6078SOL    HW129693   3.216   3.744   8.848  0.2692  1.1892 -0.8374
 6078SOL    HW229694   3.114   3.787   8.755  0.6638  1.5823  0.6120
 6079SOL     OW29695   4.700   2.530  17.268 -0.4073 -0.1978 -0.0066
 6079SOL    HW129696   0.041   2.591  17.236  0.7082  0.4744  3.6281
 6079SOL    HW229697   0.006   2.523  17.358  0.0936  0.8705 -0.1023
 6080SOL     OW29698   1.648   0.287   2.445  0.3071  0.1458 -0.0488
 6080SOL    HW129699   1.692   0.326   2.369 -1.0006  1.1769 -0.2719
 6080SOL    HW229700   1.721   0.231   2.473  0.4788  1.4299  2.0769
 6081SOL     OW29701   0.607   3.342  10.688  0.0347 -0.4422 -0.1026
 6081SOL    HW129702   0.526   3.298  10.713  0.8291 -1.0705  1.3849
 6081SOL    HW229703   0.617   3.323  10.595 -3.0292  0.0297 -0.5420
 6082SOL     OW29704   4.373   2.781   4.386  0.1123 -0.3155  0.0142
 6082SOL    HW129705   4.456   2.801   4.343  0.0520  2.4127  1.1348
 6082SOL    HW229706   4.323   2.761   4.307  1.5596  0.7151 -1.1705
 6083SOL     OW29707   1.019   4.329   8.229  0.2012  0.5848 -0.2395
 6083SOL    HW129708   1.067   4.259   8.274 -1.0309  0.2128  0.4754
 6083SOL    HW229709   1.037   4.408   8.278 -0.5662 -0.0130  1.0015
 6084SOL     OW29710   0.846   0.796   2.459 -0.0741  0.3730 -0.2491
 6084SOL    HW129711   0.928   0.750   2.479  0.7258  1.4074 -1.1203
 6084SOL    HW229712   0.813   0.741   2.389 -0.4284  0.5080 -0.1841
 6085SOL     OW29713   0.143   2.203   2.560 -0.0580 -0.5761 -0.4028
 6085SOL    HW129714   0.082   2.166   2.496 -1.3744  1.5066 -0.3732
 6085SOL    HW229715   0.084   2.267   2.601  1.2131  0.1140  0.3574
 6086SOL     OW29716   3.380   4.138   6.552 -0.0062 -0.1893 -0.5078
 6086SOL    HW129717   3.473   4.128   6.573 -0.3362  0.8673  1.4207
 6086SOL    HW229718   3.369   4.228   6.584  0.4032 -0.3394  0.0447
 6087SOL     OW29719   0.086   0.015   8.502 -0.0690  0.4357  0.1554
 6087SOL    HW129720   0.150   0.002   8.572  0.5625 -2.0673 -0.8831
 6087SOL    HW229721   0.124   4.673   8.445  1.5936  1.3431  0.1983
 6088SOL     OW29722   0.781   2.222   3.115 -0.3370 -0.2785  0.3571
 6088SOL    HW129723   0.694   2.183   3.109 -0.1461 -0.3949 -1.7034
 6088SOL    HW229724   0.824   2.164   3.177  1.9021 -0.5349 -1.4251
 6089SOL     OW29725   2.875   0.910  11.704 -0.3441 -0.0816 -0.3746
 6089SOL    HW129726   2.892   0.993  11.748  1.4024 -0.6059 -0.0588
 6089SOL    HW229727   2.958   0.864  11.688  0.8988  1.4726  1.6258
 6090SOL     OW29728   4.366   3.194   5.726  0.2087  0.3364 -0.5460
 6090SOL    HW129729   4.456   3.225   5.716  1.1682 -1.9641  0.9476
 6090SOL    HW229730   4.369   3.107   5.687 -2.4109 -0.6914  1.5310
 6091SOL     OW29731   2.415   3.781  15.526  0.2002 -0.2001 -0.1038
 6091SOL    HW129732   2.397   3.833  15.604 -2.0956 -1.9172  0.5194
 6091SOL    HW229733   2.406   3.694  15.564  0.6932  0.2312  1.0049
 6092SOL     OW29734   4.137   1.158   7.463  0.3176 -0.1299  0.8857
 6092SOL    HW129735   4.218   1.160   7.514  0.8737  1.0346 -0.0626
 6092SOL    HW229736   4.154   1.230   7.403  2.7999  0.4880  2.3267
 6093SOL     OW29737   3.636   4.021   4.500  0.4644  0.0005 -0.2476
 6093SOL    HW129738   3.668   4.111   4.491  1.4427 -0.2789  0.3809
 6093SOL    HW229739   3.583   4.026   4.579  1.6639  1.9563  0.4460
 6094SOL     OW29740   4.243   3.623   2.161 -0.1809 -0.1265 -0.2147
 6094SOL    HW129741   4.175   3.628   2.094  1.5830  4.0260 -1.6585
 6094SOL    HW229742   4.252   3.528   2.170  0.6129  0.0840  1.1344
 6095SOL     OW29743   1.401   0.354   5.277  0.0871  0.2851  0.0875
 6095SOL    HW129744   1.488   0.394   5.277 -0.8199  2.2217 -0.1399
 6095SOL    HW229745   1.358   0.387   5.355 -0.3685  2.2810 -1.0327
 6096SOL     OW29746   0.850   4.163   6.982  0.4598  0.9932  0.3953
 6096SOL    HW129747   0.767   4.195   7.018  1.2880  1.4160  1.9571
 6096SOL    HW229748   0.907   4.210   7.044 -3.3757  4.8598  0.9468
 6097SOL     OW29749   3.096   2.452   3.334  0.6040  0.5776  0.1094
 6097SOL    HW129750   3.021   2.402   3.365 -0.4154  1.9442 -0.1468
 6097SOL    HW229751   3.165   2.406   3.382 -0.8564 -0.5300  1.1594
 6098SOL     OW29752   1.651   1.676   7.148 -0.0905  0.0313 -0.1764
 6098SOL    HW129753   1.675   1.697   7.239  1.6642 -1.1929 -0.3554
 6098SOL    HW229754   1.570   1.633   7.176 -0.5360  1.1109  0.2053
 6099SOL     OW29755   3.412   3.359   3.572  0.0961  0.0949  0.2266
 6099SOL    HW129756   3.362   3.355   3.491 -0.8254 -1.9609  0.9101
 6099SOL    HW229757   3.459   3.275   3.571  0.4065  0.2642  0.4658
 6100SOL     OW29758   0.596   2.597   6.507  0.2583 -0.2332  0.2093
 6100SOL    HW129759   0.685   2.630   6.495  0.0181  0.2654 -0.1530
 6100SOL    HW229760   0.612   2.507   6.537 -0.5662 -0.3079  0.4235
 6101SOL     OW29761   4.172   2.058   7.234 -0.0094  0.1445 -0.0898
 6101SOL    HW129762   4.145   2.055   7.326  0.8193 -3.6557  0.0392
 6101SOL    HW229763   4.192   1.965   7.224 -1.2963 -0.1259 -0.1535
 6102SOL     OW29764   3.688   2.953  10.096 -0.4639  0.1134 -0.0168
 6102SOL    HW129765   3.779   2.952  10.066 -0.4374  1.2807  0.0450
 6102SOL    HW229766   3.682   2.882  10.160 -0.8489  0.3979  0.2651
 6103SOL     OW29767   3.622   4.322  11.020  0.2549  0.4696  0.0857
 6103SOL    HW129768   3.669   4.279  11.092 -0.2622  0.1162  0.2074
 6103SOL    HW229769   3.591   4.247  10.969 -1.9233  1.1615  0.4229
 6104SOL     OW29770   2.745   3.582   5.594 -0.2570 -0.0675 -0.0174
 6104SOL    HW129771   2.792   3.664   5.609  0.2734  0.0192 -2.1714
 6104SOL    HW229772   2.788   3.527   5.660 -2.6757 -0.8568  0.9109
 6105SOL     OW29773   1.965   1.457   7.945 -0.6042 -0.2129  0.1853
 6105SOL    HW129774   2.057   1.447   7.973 -0.6888  4.4449  2.1199
 6105SOL    HW229775   1.926   1.506   8.018  0.0768  2.0658 -0.9891
 6106SOL     OW29776   3.916   4.634   1.482  0.2936  0.2139  0.2586
 6106SOL    HW129777   3.956   4.601   1.401 -1.8704 -2.0875  0.1219
 6106SOL    HW229778   3.893   4.560   1.538  2.3818 -0.3093  0.4023
 6107SOL     OW29779   2.897   3.676  10.957 -0.5603 -0.1581 -0.7625
 6107SOL    HW129780   2.817   3.641  10.997 -0.1399  2.5706  2.4863
 6107SOL    HW229781   2.957   3.697  11.029 -2.4708 -4.2164  1.9976
 6108SOL     OW29782   0.961   0.447  11.289  0.1619  0.3778 -0.2810
 6108SOL    HW129783   1.048   0.407  11.282  0.3232  1.4060 -4.1270
 6108SOL    HW229784   0.992   0.534  11.313  0.9283 -0.0577  0.3168
 6109SOL     OW29785   4.575   4.303   9.021 -0.5448 -0.7791  0.4220
 6109SOL    HW129786   4.667   4.310   9.046 -0.1834 -1.0790 -0.7911
 6109SOL    HW229787   4.548   4.219   9.058 -2.0268 -0.9317 -0.9855
 6110SOL     OW29788   4.252   2.027   3.793 -0.4096  0.2262 -0.1865
 6110SOL    HW129789   4.322   2.092   3.797 -0.3601  0.1141  0.7723
 6110SOL    HW229790   4.169   2.074   3.794 -0.3026  0.4390 -1.7346
 6111SOL     OW29791   3.377   4.630   4.091 -0.3085 -0.2790 -0.2069
 6111SOL    HW129792   3.352   4.715   4.128  2.8966  0.7610 -0.4711
 6111SOL    HW229793   3.396   4.648   3.999  3.9364 -0.9497  0.5641
 6112SOL     OW29794   2.669   3.679   3.731  0.2770  0.1385  0.1061
 6112SOL    HW129795   2.731   3.610   3.706  0.3338 -0.2194  1.2167
 6112SOL    HW229796   2.596   3.620   3.750 -0.4462  0.9964 -0.0013
 6113SOL     OW29797   2.865   2.728   4.183 -0.2635 -0.0178 -0.0919
 6113SOL    HW129798   2.937   2.776   4.142  0.8751 -2.7773 -1.3092
 6113SOL    HW229799   2.909   2.712   4.266 -1.2677 -1.6054  0.1374
 6114SOL     OW29800   3.433   3.724  13.168 -0.0719 -0.3556 -0.4543
 6114SOL    HW129801   3.429   3.751  13.259  1.0177 -0.3192 -0.4277
 6114SOL    HW229802   3.524   3.746  13.151  0.9402 -1.5659  3.4958
 6115SOL     OW29803   2.452   4.437   5.638  0.6056 -0.5480 -0.0291
 6115SOL    HW129804   2.430   4.526   5.662  1.9858  0.0554 -0.9915
 6115SOL    HW229805   2.382   4.386   5.680  0.8449  0.6852  1.8309
 6116SOL     OW29806   1.140   3.327   5.682 -0.2907  0.2947  1.2050
 6116SOL    HW129807   1.129   3.238   5.648 -1.2086  0.3815  1.2837
 6116SOL    HW229808   1.052   3.359   5.661 -0.8758 -1.0232  1.6659
 6117SOL     OW29809   2.755   3.192   2.628 -0.1659 -0.3179  0.1928
 6117SOL    HW129810   2.817   3.210   2.698 -2.6656 -1.4451  2.6562
 6117SOL    HW229811   2.780   3.103   2.604 -1.7409 -0.7471  0.1834
 6118SOL     OW29812   3.874   0.880  16.452 -0.0643 -0.1326 -0.0623
 6118SOL    HW129813   3.899   0.951  16.393 -0.1665 -1.5013 -1.7592
 6118SOL    HW229814   3.935   0.892  16.525 -1.8107 -0.6439  1.5003
 6119SOL     OW29815   1.095   3.870   3.801  0.1736 -0.2761  0.3847
 6119SOL    HW129816   1.049   3.915   3.730 -0.7843 -0.0032  1.1884
 6119SOL    HW229817   1.027   3.833   3.855 -0.2420  0.3569  0.2975
 6120SOL     OW29818   1.943   4.716  11.828  0.6468  0.1195 -0.3754
 6120SOL    HW129819   1.867   0.024  11.876  0.2901 -1.1478 -0.0582
 6120SOL    HW229820   1.933   4.621  11.841  2.4735 -0.2557 -1.7273
 6121SOL     OW29821   4.226   1.179  13.954  0.5654  0.0149 -0.9569
 6121SOL    HW129822   4.179   1.103  13.921 -1.7826  1.3012 -0.5379
 6121SOL    HW229823   4.189   1.246  13.896  0.1237  1.9421  1.5368
 6122SOL     OW29824   3.106   0.871  10.238  0.2158 -0.1293  0.3333
 6122SOL    HW129825   3.190   0.831  10.261  1.1288  2.5373  1.6379
 6122SOL    HW229826   3.113   0.966  10.254  1.7134 -0.3971  1.3021
 6123SOL     OW29827   0.500   0.291  15.655 -0.3616  0.0754  0.3032
 6123SOL    HW129828   0.481   0.197  15.656 -1.3549  0.2684 -0.3805
 6123SOL    HW229829   0.445   0.333  15.589  1.4031  2.8601  0.6046
 6124SOL     OW29830   2.366   0.646  11.832  1.1642 -0.1480  0.0703
 6124SOL    HW129831   2.334   0.661  11.921  0.0369 -1.7823 -0.0592
 6124SOL    HW229832   2.305   0.573  11.817 -0.8200  1.2177  1.5782
 6125SOL     OW29833   4.682   4.564   3.455  0.0782  0.4941 -0.2470
 6125SOL    HW129834   4.648   4.576   3.366 -0.8280  0.5411  0.1144
 6125SOL    HW229835   0.047   4.596   3.443  0.5624 -0.9342 -0.4531
 6126SOL     OW29836   1.447   3.005   2.628 -0.8354  0.6997  0.1865
 6126SOL    HW129837   1.378   2.940   2.643 -0.7525  1.0097  1.9229
 6126SOL    HW229838   1.515   2.974   2.688 -1.4591 -1.1940 -0.0952
 6127SOL     OW29839   4.560   1.908  17.148 -0.2327 -0.2398  0.1164
 6127SOL    HW129840   4.506   1.975  17.191 -0.5168 -0.5660  0.2654
 6127SOL    HW229841   4.610   1.957  17.083 -0.3315 -0.1693  0.0930
 6128SOL     OW29842   4.132   3.305   7.366 -0.1346 -0.0639  0.1853
 6128SOL    HW129843   4.206   3.274   7.417 -0.4025  0.5140  0.9171
 6128SOL    HW229844   4.154   3.398   7.358 -0.9132 -0.1091 -2.8510
 6129SOL     OW29845   1.392   0.602   9.189 -0.4215  1.4004  0.2814
 6129SOL    HW129846   1.441   0.651   9.255 -0.0202  0.2185  0.8794
 6129SOL    HW229847   1.307   0.630   9.223 -1.2844  0.3325 -0.9654
 6130SOL     OW29848   4.581   3.978   4.701  0.7893 -0.7028  0.4371
 6130SOL    HW129849   4.533   3.911   4.750 -1.5884  0.5331 -0.2163
 6130SOL    HW229850   4.599   4.032   4.778 -0.9154 -0.9436  1.0068
 6131SOL     OW29851   1.398   0.094   4.191  0.2052  0.1624  0.4390
 6131SOL    HW129852   1.452   0.062   4.118  1.0623 -0.0009  1.1412
 6131SOL    HW229853   1.310   0.064   4.169  0.4112 -1.3964  1.7451
 6132SOL     OW29854   2.206   3.212   7.026 -0.3153  0.5852 -0.1846
 6132SOL    HW129855   2.189   3.228   7.118  0.8530  1.6783 -0.1701
 6132SOL    HW229856   2.164   3.127   7.008 -0.1418  0.6502 -0.9291
 6133SOL     OW29857   3.861   4.562   4.236  0.2943  0.1918  0.0553
 6133SOL    HW129858   3.877   4.579   4.143  1.7512  0.0673  0.2735
 6133SOL    HW229859   3.771   4.530   4.238  0.1102  0.7967  1.4131
 6134SOL     OW29860   4.092   0.304  17.116  0.3919  0.4869 -0.5173
 6134SOL    HW129861   4.102   0.246  17.040  0.7145  2.2755 -1.8312
 6134SOL    HW229862   4.006   0.279  17.152  0.5479  1.1618  0.3101
 6135SOL     OW29863   0.500   1.693   5.793  0.2918  0.1768 -0.2945
 6135SOL    HW129864   0.561   1.645   5.849 -0.1629  1.0711  0.9730
 6135SOL    HW229865   0.546   1.678   5.711 -0.6928  1.0623 -1.0138
 6136SOL     OW29866   3.081   2.338   8.629  0.2498 -0.3870 -0.0793
 6136SOL    HW129867   3.003   2.359   8.680  0.7546  0.2434  0.4517
 6136SOL    HW229868   3.072   2.248   8.600  0.8491 -0.1089 -1.1284
 6137SOL     OW29869   0.440   0.594   1.883 -0.4245  0.1999 -0.0851
 6137SOL    HW129870   0.485   0.510   1.872 -1.2463 -0.2299 -0.1700
 6137SOL    HW229871   0.348   0.570   1.893  0.1650 -2.0886 -0.2331
 6138SOL     OW29872   2.484   1.802   4.320  0.1446 -0.0273 -0.4153
 6138SOL    HW129873   2.445   1.764   4.242 -0.4936 -0.0092 -0.1036
 6138SOL    HW229874   2.553   1.851   4.274  1.7046 -0.3908  1.5397
 6139SOL     OW29875   3.085   3.407   9.069 -0.0047 -0.2013  0.2679
 6139SOL    HW129876   3.115   3.494   9.096  1.1676 -0.5025 -0.0672
 6139SOL    HW229877   3.101   3.359   9.150  0.8734 -0.8599 -0.2923
 6140SOL     OW29878   3.660   0.533   2.346  0.0339  0.3276 -0.1749
 6140SOL    HW129879   3.638   0.444   2.319 -1.3244  0.1258  1.6633
 6140SOL    HW229880   3.747   0.507   2.377 -0.1341 -0.6620 -0.5353
 6141SOL     OW29881   3.124   0.145   7.322 -0.1374 -0.0745 -0.3846
 6141SOL    HW129882   3.104   0.088   7.247  1.2293  0.3404 -1.0695
 6141SOL    HW229883   3.100   0.221   7.270 -0.6210  0.2121  0.2580
 6142SOL     OW29884   1.350   1.860   1.348 -0.2714 -0.3869 -0.1152
 6142SOL    HW129885   1.300   1.852   1.267 -0.5643  1.6065 -0.1302
 6142SOL    HW229886   1.366   1.954   1.357 -2.8248  0.2601 -2.2554
 6143SOL     OW29887   2.971   3.587   0.736  0.1587 -0.4087 -0.0616
 6143SOL    HW129888   2.994   3.547   0.820  1.7135 -0.4438 -0.5075
 6143SOL    HW229889   2.993   3.515   0.676 -0.6643 -1.4607  0.8942
 6144SOL     OW29890   1.190   1.362   8.053 -0.2540  0.3322 -0.3053
 6144SOL    HW129891   1.269   1.387   8.004  0.7223 -0.7272  0.7182
 6144SOL    HW229892   1.225   1.327   8.135  0.4013  3.5462  0.7726
 6145SOL     OW29893   1.753   4.657  13.875 -0.2867  0.5929 -0.1632
 6145SOL    HW129894   1.659   4.669  13.868 -0.2218  2.2987  1.7778
 6145SOL    HW229895   1.756   4.655  13.971 -0.9920  0.1408 -0.1499
 6146SOL     OW29896   2.110   3.713  16.930 -0.1153 -0.7486  0.1612
 6146SOL    HW129897   2.060   3.638  16.961 -1.2897 -0.3382 -0.7582
 6146SOL    HW229898   2.067   3.783  16.979  0.5236  0.5199 -1.0836
 6147SOL     OW29899   2.576   0.168   7.695 -0.1640  0.2923  0.1353
 6147SOL    HW129900   2.521   0.090   7.688  0.0727  0.2530 -1.3578
 6147SOL    HW229901   2.653   0.124   7.730  0.0160  3.1414  3.2623
 6148SOL     OW29902   3.609   0.206   4.213  0.5009 -0.6933  0.1897
 6148SOL    HW129903   3.537   0.232   4.155  0.9469  1.9768  0.8533
 6148SOL    HW229904   3.576   0.120   4.240 -2.3345  0.8990  1.7202
 6149SOL     OW29905   3.033   1.750  10.511  0.3261 -0.2989  0.1812
 6149SOL    HW129906   3.021   1.825  10.569 -1.6300  0.5292 -1.2886
 6149SOL    HW229907   3.054   1.687  10.580  2.5325  0.1296 -0.0991
 6150SOL     OW29908   0.156   2.936   3.253 -0.0820  0.2684 -0.0314
 6150SOL    HW129909   0.075   2.986   3.248  1.1303  2.1941 -0.5792
 6150SOL    HW229910   0.182   2.922   3.162 -0.5716  0.4420 -0.1961
 6151SOL     OW29911   0.034   2.045   6.484  0.3936 -0.8325 -0.2856
 6151SOL    HW129912   4.671   2.011   6.498  0.0207 -0.1287 -0.9169
 6151SOL    HW229913   0.034   2.077   6.394 -0.0237 -0.2889 -0.0958
 6152SOL     OW29914   3.680   1.491   5.721 -0.4490 -0.1266 -0.2416
 6152SOL    HW129915   3.665   1.400   5.697 -2.2797  0.1015  0.0585
 6152SOL    HW229916   3.589   1.502   5.748  0.0826 -0.2923  1.6543
 6153SOL     OW29917   0.985   2.131  10.733 -0.6280  0.1236  0.4034
 6153SOL    HW129918   1.022   2.104  10.818 -1.5015 -1.3136  0.3258
 6153SOL    HW229919   0.918   2.065  10.715  0.1623 -0.9010  1.1645
 6154SOL     OW29920   1.663   2.571   9.355  0.3104 -0.3096 -0.3779
 6154SOL    HW129921   1.569   2.580   9.372  0.4731 -0.4379  0.5927
 6154SOL    HW229922   1.698   2.648   9.400 -0.2257 -0.2582 -0.0510
 6155SOL     OW29923   1.935   3.462   4.379 -0.2299 -0.2990 -0.4111
 6155SOL    HW129924   1.873   3.395   4.407 -0.7395 -0.5117 -2.0631
 6155SOL    HW229925   1.957   3.500   4.464  1.1255 -0.2948 -0.7577
 6156SOL     OW29926   1.550   1.912   0.598  0.1963  0.0369 -0.3182
 6156SOL    HW129927   1.480   1.880   0.542 -0.1652 -0.0217  0.1657
 6156SOL    HW229928   1.582   1.983   0.541 -2.6396  1.1893 -0.4752
 6157SOL     OW29929   0.083   3.602   2.121 -0.3298 -0.5825  0.2062
 6157SOL    HW129930   0.058   3.690   2.149  1.1251  0.1922 -0.9523
 6157SOL    HW229931   0.117   3.566   2.203  0.7293 -0.4571 -0.1733
 6158SOL     OW29932   3.677   4.684  11.520  0.0194  0.2713  0.7120
 6158SOL    HW129933   3.583   4.676  11.507 -0.2114 -1.0537  3.1602
 6158SOL    HW229934   3.682   0.055  11.526  1.6617  0.3827 -2.4421
 6159SOL     OW29935   2.643   2.001   5.003 -0.6383  0.0745 -0.0485
 6159SOL    HW129936   2.575   1.933   5.005 -1.9392  1.3480 -0.9417
 6159SOL    HW229937   2.721   1.957   4.970 -0.1032 -0.5836  2.0649
 6160SOL     OW29938   0.712   1.514   6.307 -0.1748  0.2165 -0.3822
 6160SOL    HW129939   0.760   1.506   6.224  0.1712 -0.2213 -0.1417
 6160SOL    HW229940   0.758   1.451   6.363 -0.4804  0.5285  0.2189
 6161SOL     OW29941   4.440   1.771  16.879 -0.3925 -0.3956 -0.6821
 6161SOL    HW129942   4.387   1.700  16.842 -0.5307 -0.0777 -1.1010
 6161SOL    HW229943   4.514   1.715  16.898 -0.0060  0.7256  1.1014
 6162SOL     OW29944   1.740   2.818   6.192  0.2622  0.0904  0.5104
 6162SOL    HW129945   1.689   2.738   6.176 -0.5682  0.6050  0.5766
 6162SOL    HW229946   1.670   2.880   6.214 -0.4761 -0.1015 -1.2703
 6163SOL     OW29947   4.484   0.652  15.958  0.0394  0.1540  0.1567
 6163SOL    HW129948   4.567   0.696  15.941  2.0861 -2.9614  2.0116
 6163SOL    HW229949   4.487   0.585  15.890 -0.7393  0.1302  0.1413
 6164SOL     OW29950   3.339   0.220   6.884 -0.0339  0.7200  0.2193
 6164SOL    HW129951   3.420   0.173   6.903 -0.6989 -0.8436 -0.7769
 6164SOL    HW229952   3.364   0.312   6.894  0.6088  0.5333  0.3492
 6165SOL     OW29953   3.790   0.443   7.700  0.5105 -0.3182  0.3929
 6165SOL    HW129954   3.749   0.493   7.629 -0.4405 -0.7299  0.6537
 6165SOL    HW229955   3.808   0.517   7.757  1.3837  0.2938 -0.6898
 6166SOL     OW29956   2.429   3.928   6.882  0.4831  0.4893 -0.1461
 6166SOL    HW129957   2.436   4.005   6.938 -0.2194  0.9008 -0.6199
 6166SOL    HW229958   2.472   3.866   6.941 -1.1282 -0.8952 -0.4153
 6167SOL     OW29959   1.686   2.122   5.597 -0.0549  0.0357 -0.3909
 6167SOL    HW129960   1.648   2.196   5.549 -1.8016 -0.8654 -0.3638
 6167SOL    HW229961   1.709   2.065   5.523  3.0365 -0.0992  0.6787
 6168SOL     OW29962   4.505   1.030   2.028  0.2094 -0.2494 -0.4808
 6168SOL    HW129963   4.506   0.939   2.057 -0.6804 -0.3743 -0.8618
 6168SOL    HW229964   4.538   1.012   1.940  2.1837  0.1547  0.1609
 6169SOL     OW29965   0.620   1.033   3.712 -0.3822  0.4248 -0.0027
 6169SOL    HW129966   0.658   1.106   3.663  0.5297 -0.0130  0.0658
 6169SOL    HW229967   0.693   1.010   3.770  0.8234 -0.4761 -1.9069
 6170SOL     OW29968   3.145   4.437   1.421 -0.0647  0.4893  0.1151
 6170SOL    HW129969   3.216   4.423   1.359  0.2495  5.0794 -0.5435
 6170SOL    HW229970   3.067   4.417   1.368  0.7483  1.5875 -1.5015
 6171SOL     OW29971   0.566   3.499   8.219 -0.5907  0.3561  0.1862
 6171SOL    HW129972   0.493   3.454   8.262 -0.4659 -0.5787 -0.5897
 6171SOL    HW229973   0.637   3.465   8.274  1.6690  1.4626 -2.0684
 6172SOL     OW29974   2.203   2.196   8.619 -0.1932 -0.4567  0.3681
 6172SOL    HW129975   2.287   2.187   8.664 -0.0818 -0.1797  0.2169
 6172SOL    HW229976   2.209   2.287   8.588  0.8435 -0.4058  0.7198
 6173SOL     OW29977   0.960   2.258   2.490  0.1218 -0.1161 -0.0532
 6173SOL    HW129978   0.892   2.192   2.502  1.0088 -0.9332  0.5295
 6173SOL    HW229979   0.910   2.309   2.426 -1.6096  1.1839  2.3140
 6174SOL     OW29980   3.341   0.875   0.344  0.1160  0.0921 -0.5841
 6174SOL    HW129981   3.321   0.942   0.409 -0.6835 -0.7609  0.0382
 6174SOL    HW229982   3.273   0.812   0.368  0.9234 -0.2967  0.6615
 6175SOL     OW29983   0.974   4.068   5.530  0.3756 -0.5685 -0.1651
 6175SOL    HW129984   0.899   4.017   5.559 -0.7397  1.4864  0.5785
 6175SOL    HW229985   0.992   4.104   5.617 -0.2538 -0.2303 -0.1743
 6176SOL     OW29986   1.150   1.915   2.356  0.6632  0.1607  0.7720
 6176SOL    HW129987   1.056   1.913   2.370  0.9546 -2.0449  2.5539
 6176SOL    HW229988   1.165   2.009   2.367  0.7715  0.4521 -1.7819
 6177SOL     OW29989   1.638   2.866   2.820  0.1478 -0.4740 -0.1189
 6177SOL    HW129990   1.675   2.889   2.735 -0.4984  0.8169 -0.0539
 6177SOL    HW229991   1.707   2.871   2.886  0.3864 -1.4250 -0.3073
 6178SOL     OW29992   2.957   0.892  16.363 -0.6729 -0.5521  0.2215
 6178SOL    HW129993   2.901   0.822  16.329 -1.4412  0.1734  0.0253
 6178SOL    HW229994   3.037   0.843  16.385  0.0496  0.2244 -0.6430
 6179SOL     OW29995   2.989   4.593  17.304 -0.0874  0.3280  0.2498
 6179SOL    HW129996   2.924   4.523  17.305 -0.5418  0.7095 -2.0490
 6179SOL    HW229997   3.051   4.564  17.236  0.8184  0.2823  1.0964
 6180SOL     OW29998   2.762   1.744   2.677  0.1522  0.1527 -0.6643
 6180SOL    HW129999   2.856   1.760   2.686  0.1875 -0.2927 -0.1823
 6180SOL    HW230000   2.747   1.662   2.724 -0.0395  0.5318 -0.0624
 6181SOL     OW30001   4.667   0.340  16.041  0.4888  0.1662 -0.5452
 6181SOL    HW130002   4.607   0.350  16.115  2.9570 -1.0406  1.6184
 6181SOL    HW230003   4.700   0.251  16.049 -1.8308 -0.5335  1.2106
 6182SOL     OW30004   3.446   2.439   2.828 -0.8331 -0.1234  0.1646
 6182SOL    HW130005   3.400   2.361   2.799 -3.4003  0.0232  3.8083
 6182SOL    HW230006   3.414   2.501   2.762 -0.2931 -0.6379 -0.5784
 6183SOL     OW30007   3.623   0.803   0.884  0.2600  0.3795  0.0665
 6183SOL    HW130008   3.610   0.868   0.814 -2.0574 -0.4726 -0.3058
 6183SOL    HW230009   3.543   0.804   0.936 -0.4935 -1.9426 -1.0544
 6184SOL     OW30010   4.135   4.329  10.523  0.0918  0.1179  0.2014
 6184SOL    HW130011   4.071   4.315  10.592 -0.1011  1.6746  0.3257
 6184SOL    HW230012   4.093   4.384  10.457 -0.5595  0.7541  1.1463
 6185SOL     OW30013   2.980   4.689  17.554 -0.1693  0.0718  0.4195
 6185SOL    HW130014   3.052   4.635  17.587 -0.8246  0.7561  2.9501
 6185SOL    HW230015   2.969   4.644  17.470  0.9925  2.0646 -0.7771
 6186SOL     OW30016   2.371   0.597   3.465 -0.0798  0.0804  0.1073
 6186SOL    HW130017   2.391   0.504   3.480 -0.7466  0.2054  1.8160
 6186SOL    HW230018   2.318   0.603   3.386 -2.3969 -0.5864  1.6173
 6187SOL     OW30019   2.004   3.655  11.847  0.2539  0.2093 -0.9191
 6187SOL    HW130020   2.082   3.608  11.817  1.2820 -0.3953  2.6850
 6187SOL    HW230021   2.010   3.742  11.807 -1.8548  0.5687 -0.4340
 6188SOL     OW30022   2.057   2.196  10.072  0.0192  0.0093  0.1966
 6188SOL    HW130023   1.971   2.206  10.112 -0.9077  2.0074 -2.2658
 6188SOL    HW230024   2.064   2.268  10.009  1.0039 -0.8749 -0.7082
 6189SOL     OW30025   3.513   1.332   2.661  0.5803 -0.1520 -0.0308
 6189SOL    HW130026   3.529   1.267   2.592  0.9990  1.1034 -1.1202
 6189SOL    HW230027   3.448   1.393   2.626  2.8200  2.5561  0.4712
 6190SOL     OW30028   1.652   1.907   5.042  0.2634  0.5662 -0.5653
 6190SOL    HW130029   1.665   1.897   4.947 -0.3106  1.7501 -0.7612
 6190SOL    HW230030   1.579   1.967   5.052 -0.0482  0.0578  0.1717
 6191SOL     OW30031   3.066   1.168   7.699 -0.1342  0.1169  0.0760
 6191SOL    HW130032   3.034   1.159   7.789 -1.1665  0.9391 -0.2094
 6191SOL    HW230033   2.986   1.172   7.647  0.2981 -0.8508 -0.6672
 6192SOL     OW30034   1.952   0.386  10.126 -0.3389  0.3898 -0.0746
 6192SOL    HW130035   1.920   0.350  10.208 -0.3490 -1.9208 -1.0860
 6192SOL    HW230036   1.874   0.370  10.072  0.1315  0.0523 -0.6552
 6193SOL     OW30037   3.845   1.241   6.654 -0.5449  0.1706 -0.3838
 6193SOL    HW130038   3.806   1.288   6.727 -1.9305 -1.4878 -0.0574
 6193SOL    HW230039   3.831   1.158   6.700 -0.9158 -1.8271 -4.1202
 6194SOL     OW30040   0.692   1.685   8.097  0.4795  0.1537 -0.8916
 6194SOL    HW130041   0.627   1.711   8.163 -0.7428 -0.6892 -1.7640
 6194SOL    HW230042   0.701   1.765   8.046  1.3296 -0.0379 -1.0288
 6195SOL     OW30043   0.227   1.858   4.307  0.3528  0.5524 -0.6295
 6195SOL    HW130044   0.208   1.951   4.295 -0.1407  0.9779  3.3807
 6195SOL    HW230045   0.228   1.845   4.212 -0.3236  2.7464 -0.9326
 6196SOL     OW30046   0.396   3.323   8.953  0.1880  0.4478  0.3122
 6196SOL    HW130047   0.335   3.387   8.916 -1.0940 -1.7001 -1.2634
 6196SOL    HW230048   0.479   3.359   8.921 -0.0137  0.0862 -0.6287
 6197SOL     OW30049   2.461   2.366   6.236 -0.9235  0.5500 -0.3488
 6197SOL    HW130050   2.495   2.311   6.165 -0.7235 -0.3086  0.4209
 6197SOL    HW230051   2.406   2.306   6.286  2.6605 -0.8314  1.9089
 6198SOL     OW30052   2.500   4.092   8.792  0.0188  0.2326  0.5328
 6198SOL    HW130053   2.460   4.060   8.873 -2.1972  0.9154 -0.2834
 6198SOL    HW230054   2.559   4.162   8.818  0.7245 -0.2103  0.1500
 6199SOL     OW30055   2.548   4.038  11.454 -0.2249  0.1539 -0.5618
 6199SOL    HW130056   2.468   4.050  11.506 -0.5730  1.3801 -1.3780
 6199SOL    HW230057   2.533   4.102  11.384 -0.7223 -1.1336 -1.6282
 6200SOL     OW30058   3.160   3.664   9.122 -0.5273  0.0159 -0.3802
 6200SOL    HW130059   3.105   3.729   9.164 -0.4007 -1.4159  1.9586
 6200SOL    HW230060   3.131   3.685   9.033 -0.4614 -1.6228 -0.7876
 6201SOL     OW30061   0.348   3.150   4.015  0.6271 -0.1238 -0.2057
 6201SOL    HW130062   0.432   3.123   3.978  0.9187 -0.2343  0.5346
 6201SOL    HW230063   0.295   3.093   3.959  1.1558  0.4293 -1.2754
 6202SOL     OW30064   0.671   3.761   6.488  0.5577 -0.5408 -0.1616
 6202SOL    HW130065   0.695   3.712   6.566  1.5366 -2.5163 -1.6997
 6202SOL    HW230066   0.708   3.846   6.509 -0.6097  0.1370 -0.8490
 6203SOL     OW30067   1.068   0.131   3.124  0.1277  0.1399  0.2012
 6203SOL    HW130068   1.091   0.054   3.177 -1.1461 -0.8799 -0.7345
 6203SOL    HW230069   1.139   0.192   3.145 -0.2481  0.3189  0.9375
 6204SOL     OW30070   1.694   4.329   4.023 -0.1160 -0.2505 -0.1679
 6204SOL    HW130071   1.750   4.259   3.989 -3.4108 -1.8999 -2.2271
 6204SOL    HW230072   1.605   4.304   3.999  0.3005 -0.3681 -1.6086
 6205SOL     OW30073   3.771   2.451  10.385  0.1941  0.1921  0.3672
 6205SOL    HW130074   3.740   2.464  10.295 -0.6079  1.4817  0.8314
 6205SOL    HW230075   3.866   2.443  10.374  0.1934 -0.2852  0.7637
 6206SOL     OW30076   3.595   4.060   7.562  0.0209 -0.2056 -0.1625
 6206SOL    HW130077   3.548   4.046   7.644  1.5505 -0.9054  0.6000
 6206SOL    HW230078   3.538   4.122   7.517  0.3607  0.6811  0.6334
 6207SOL     OW30079   3.615   0.632   9.787 -0.4689 -0.2033 -0.2059
 6207SOL    HW130080   3.595   0.546   9.823  2.0086 -0.4688  0.5173
 6207SOL    HW230081   3.558   0.629   9.709 -0.6651  0.7382 -0.1021
 6208SOL     OW30082   3.485   2.930  14.404  0.2000 -0.2634 -0.0448
 6208SOL    HW130083   3.539   2.973  14.339  2.0962  0.2215  1.8436
 6208SOL    HW230084   3.560   2.923  14.463 -1.6587  0.9000  2.4589
 6209SOL     OW30085   4.227   1.683   6.944  0.0265  0.3255 -0.2386
 6209SOL    HW130086   4.161   1.729   6.995  1.0659  1.5611 -0.0247
 6209SOL    HW230087   4.189   1.596   6.929 -0.0721  0.3238  0.0079
 6210SOL     OW30088   1.600   2.018   8.079 -0.8138 -0.1712 -0.3101
 6210SOL    HW130089   1.514   1.990   8.050 -1.6163  2.6834 -0.7137
 6210SOL    HW230090   1.597   1.993   8.172 -1.2141  1.4165  0.1152
 6211SOL     OW30091   1.225   4.406  11.802  0.0538  0.1717  0.1834
 6211SOL    HW130092   1.263   4.318  11.800  1.6909  0.8460  1.4116
 6211SOL    HW230093   1.241   4.443  11.715  2.3773 -1.5064 -0.1145
 6212SOL     OW30094   0.861   0.902   8.147  0.0170  0.2405  0.4795
 6212SOL    HW130095   0.858   0.997   8.160  1.5689  0.1327  1.5772
 6212SOL    HW230096   0.865   0.897   8.051  1.3867 -1.8647  0.6467
 6213SOL     OW30097   2.438   1.801   5.055 -0.3887 -0.4847 -0.6841
 6213SOL    HW130098   2.443   1.717   5.009 -1.6846 -0.0566 -1.6118
 6213SOL    HW230099   2.486   1.772   5.133 -1.1619 -2.4190 -0.9356
 6214SOL     OW30100   2.366   0.324  11.172 -0.4702  0.6057 -0.0352
 6214SOL    HW130101   2.320   0.346  11.090 -1.0461  0.6394  0.2990
 6214SOL    HW230102   2.324   0.243  11.201 -0.5747  0.6478 -0.0677
 6215SOL     OW30103   4.455   1.056   1.726 -0.4258 -0.4536  0.0095
 6215SOL    HW130104   4.474   1.065   1.632  0.8638 -1.4098  0.1747
 6215SOL    HW230105   4.539   1.019   1.754  0.3456  1.7628  0.6037
 6216SOL     OW30106   0.790   2.304   5.536 -0.0509  0.2229  0.0306
 6216SOL    HW130107   0.784   2.211   5.561  1.4077 -0.0161 -0.5223
 6216SOL    HW230108   0.878   2.303   5.498 -0.4036 -0.1159 -0.7696
 6217SOL     OW30109   2.971   0.480   3.777  0.1936  0.2630  0.5149
 6217SOL    HW130110   3.003   0.488   3.687 -2.2360 -0.7146 -0.4636
 6217SOL    HW230111   2.884   0.439   3.772 -0.2504  1.4786 -1.9098
 6218SOL     OW30112   2.788   4.145   3.749 -0.6782 -0.2787 -0.4232
 6218SOL    HW130113   2.695   4.127   3.733 -0.3095 -0.6617 -2.1524
 6218SOL    HW230114   2.816   4.054   3.764  0.6108  0.4854  1.8185
 6219SOL     OW30115   0.221   2.766   9.392  0.1474  0.1074 -1.1211
 6219SOL    HW130116   0.206   2.673   9.410  1.1234  0.5054  1.6752
 6219SOL    HW230117   0.315   2.769   9.404  0.0021 -0.9069  0.2068
 6220SOL     OW30118   2.243   0.749   4.985 -0.2950 -0.1582  0.5936
 6220SOL    HW130119   2.258   0.757   4.891  1.0706  0.8635  0.8999
 6220SOL    HW230120   2.264   0.837   5.018 -0.3859 -0.4621  1.4439
 6221SOL     OW30121   3.693   2.813   9.376  0.7207 -0.1141 -0.4808
 6221SOL    HW130122   3.640   2.877   9.328 -0.1645  0.2739  1.0115
 6221SOL    HW230123   3.774   2.840   9.333  0.7035  0.9765  0.1788
 6222SOL     OW30124   1.138   1.161   7.112  0.1004 -0.6894  0.2712
 6222SOL    HW130125   1.065   1.152   7.173  0.3760  1.1537  0.8521
 6222SOL    HW230126   1.196   1.223   7.155 -2.6806  0.5093  2.2805
 6223SOL     OW30127   3.389   1.862   1.899 -0.3162  0.3437 -0.0102
 6223SOL    HW130128   3.417   1.829   1.984  2.0619 -0.1513 -0.9926
 6223SOL    HW230129   3.366   1.780   1.855 -0.3871  0.3806 -0.0420
 6224SOL     OW30130   2.765   0.707   4.005  0.1059  0.4362  0.1558
 6224SOL    HW130131   2.794   0.797   4.020 -1.1555  0.8368  0.1854
 6224SOL    HW230132   2.698   0.721   3.939 -0.8328  1.2651  1.2892
 6225SOL     OW30133   1.235   3.109   4.035  0.9496 -0.4112 -0.1712
 6225SOL    HW130134   1.283   3.089   3.955  1.5371 -0.2862  0.1556
 6225SOL    HW230135   1.202   3.195   4.010 -0.6141 -0.9854 -0.1192
 6226SOL     OW30136   2.236   2.764   7.961 -0.0896  0.0162  0.9203
 6226SOL    HW130137   2.246   2.856   7.938  1.5312 -0.8923 -2.0021
 6226SOL    HW230138   2.261   2.775   8.053 -0.6981 -2.0176  1.3407
 6227SOL     OW30139   3.171   1.275   4.966  0.2246 -0.3042  0.0116
 6227SOL    HW130140   3.165   1.190   5.008 -1.4506  0.0617  0.4970
 6227SOL    HW230141   3.081   1.292   4.939  0.7505  0.8680 -1.0284
 6228SOL     OW30142   2.642   3.301   5.514 -0.2202  0.1967  0.3615
 6228SOL    HW130143   2.606   3.389   5.511 -1.4756 -0.2898  1.0633
 6228SOL    HW230144   2.592   3.277   5.592  0.0321  2.8016  1.3066
 6229SOL     OW30145   3.084   3.225  14.857  0.1316 -0.5359 -0.5390
 6229SOL    HW130146   3.075   3.224  14.762  0.2544 -1.9423 -0.5392
 6229SOL    HW230147   3.172   3.188  14.869 -0.1666  0.6301  5.1748
 6230SOL     OW30148   0.587   1.725  16.711  0.2630 -0.3125 -0.2306
 6230SOL    HW130149   0.507   1.676  16.694  0.1914 -0.2022 -0.2093
 6230SOL    HW230150   0.658   1.681  16.664  0.0736  0.7742 -1.5264
 6231SOL     OW30151   3.985   2.200   3.134  0.0426  0.0608  0.0936
 6231SOL    HW130152   3.975   2.209   3.039 -2.1490 -2.0300  0.1030
 6231SOL    HW230153   4.053   2.265   3.148 -0.5617  0.5458  0.7202
 6232SOL     OW30154   3.888   4.662   3.983 -0.0380  0.1862 -0.0646
 6232SOL    HW130155   3.867   0.030   3.976 -1.5841 -0.0634  1.0123
 6232SOL    HW230156   3.865   4.634   3.894  2.0742  1.5967 -1.0578
 6233SOL     OW30157   1.901   2.396  15.035 -0.5172  0.9646 -0.6167
 6233SOL    HW130158   1.864   2.313  15.005 -0.2319  0.9092 -0.8189
 6233SOL    HW230159   1.942   2.371  15.118 -0.3441 -0.9161 -1.2708
 6234SOL     OW30160   2.952   2.893   5.738  0.2387 -0.1228  0.2877
 6234SOL    HW130161   2.876   2.917   5.686 -0.7421 -0.6540  1.4596
 6234SOL    HW230162   2.908   2.850   5.811  2.3477 -1.2665  0.9047
 6235SOL     OW30163   0.498   4.237  11.620  0.0135  0.1131 -0.1213
 6235SOL    HW130164   0.411   4.218  11.585  0.3361  2.3175 -2.1991
 6235SOL    HW230165   0.548   4.164  11.585 -1.0038 -1.0688  0.8895
 6236SOL     OW30166   3.682   1.929  10.513 -0.0892 -0.8495 -0.0016
 6236SOL    HW130167   3.679   1.948  10.607  1.6277  1.4132 -0.4031
 6236SOL    HW230168   3.590   1.905  10.499  0.1413 -1.3089 -0.6924
 6237SOL     OW30169   2.433   4.575   9.085  0.0319  0.2093  0.4144
 6237SOL    HW130170   2.375   4.584   9.160  0.9310 -1.8244  1.3607
 6237SOL    HW230171   2.413   4.485   9.058 -2.5980  1.1964 -0.9265
 6238SOL     OW30172   0.520   0.621   1.577 -0.2196  0.0295  0.6943
 6238SOL    HW130173   0.553   0.605   1.489 -0.1798  2.9251  0.1784
 6238SOL    HW230174   0.445   0.563   1.588 -0.8492  0.3377 -1.9743
 6239SOL     OW30175   1.099   4.705   6.376  0.1382 -0.0283  0.3798
 6239SOL    HW130176   1.099   4.610   6.390  1.1202  0.0761  1.0866
 6239SOL    HW230177   1.193   4.723   6.380 -0.1657  1.4014  1.0824
 6240SOL     OW30178   1.155   0.482   8.092  0.4892 -0.2950 -0.4089
 6240SOL    HW130179   1.207   0.439   8.160 -0.7178  0.4377  0.9846
 6240SOL    HW230180   1.092   0.528   8.148  3.0462  1.2600  1.1824
 6241SOL     OW30181   4.003   3.561   6.399 -0.1818  0.0040  0.2836
 6241SOL    HW130182   3.989   3.642   6.350 -0.0318 -0.4350 -0.4796
 6241SOL    HW230183   4.094   3.573   6.425 -0.1105  0.6936 -0.2934
 6242SOL     OW30184   0.464   4.278   1.330 -0.3796 -0.8355  0.0837
 6242SOL    HW130185   0.439   4.204   1.275 -0.9057  0.7577 -1.8282
 6242SOL    HW230186   0.393   4.282   1.394 -2.0040 -0.0083 -1.7522
 6243SOL     OW30187   2.628   2.002   3.545 -0.0776 -0.1508  0.0254
 6243SOL    HW130188   2.565   1.953   3.598  0.8137 -0.7868  0.5204
 6243SOL    HW230189   2.571   2.072   3.514  0.2622  1.1635  2.3843
 6244SOL     OW30190   3.002   1.875  14.781  0.0931 -0.3957  0.2949
 6244SOL    HW130191   2.989   1.851  14.873 -2.4985 -1.1364 -0.2728
 6244SOL    HW230192   2.913   1.872  14.748 -0.0695  3.0189  0.4215
 6245SOL     OW30193   1.165   3.430  13.021  0.3346  0.5361  0.4202
 6245SOL    HW130194   1.185   3.385  13.103  0.1053  2.4668  1.5260
 6245SOL    HW230195   1.082   3.477  13.031 -0.7713 -1.6029  1.3422
 6246SOL     OW30196   4.417   1.852  12.833  0.3178 -0.7228 -0.0005
 6246SOL    HW130197   4.505   1.813  12.840 -0.2753 -1.8287  1.2365
 6246SOL    HW230198   4.373   1.806  12.762  0.7328 -0.8285 -0.1919
 6247SOL     OW30199   0.634   2.223   2.676 -0.1074 -0.2536  0.1468
 6247SOL    HW130200   0.589   2.188   2.754  1.6229  0.9341  1.6826
 6247SOL    HW230201   0.565   2.265   2.624  1.6089 -1.3471 -2.9615
 6248SOL     OW30202   4.493   0.275   3.690  0.1325 -0.3390  0.2296
 6248SOL    HW130203   4.562   0.208   3.686 -0.3048 -0.7387 -0.5686
 6248SOL    HW230204   4.426   0.239   3.747  0.0005 -0.8619 -0.2558
 6249SOL     OW30205   3.675   3.901   3.575 -0.2474  0.4134 -0.1656
 6249SOL    HW130206   3.754   3.928   3.526 -0.2719 -0.8753 -0.9350
 6249SOL    HW230207   3.648   3.819   3.534  0.2350 -0.4061  1.1450
 6250SOL     OW30208   4.554   1.700   4.480  0.1158  0.3324  0.2328
 6250SOL    HW130209   4.579   1.611   4.454  0.7489  0.3772  0.6600
 6250SOL    HW230210   4.636   1.746   4.500 -1.0074  2.1758  0.5538
 6251SOL     OW30211   0.421   2.955   3.630  0.4653 -0.3696  0.5367
 6251SOL    HW130212   0.514   2.937   3.645  1.0202  1.3307 -0.9316
 6251SOL    HW230213   0.432   3.050   3.637  2.5643 -0.3925 -2.2700
 6252SOL     OW30214   3.601   1.731  13.307  1.0415 -0.2576 -0.5559
 6252SOL    HW130215   3.680   1.689  13.342  1.7366  2.8823  1.6331
 6252SOL    HW230216   3.633   1.785  13.235  1.9097  0.6287  0.4914
 6253SOL     OW30217   2.337   4.189   0.151  0.5962 -0.3977 -0.6595
 6253SOL    HW130218   2.276   4.136   0.203  0.1630  0.1471 -0.6145
 6253SOL    HW230219   2.401   4.124   0.123  0.1057 -1.3152  0.3608
 6254SOL     OW30220   1.286   3.678   9.036  0.2955 -0.1660  0.3327
 6254SOL    HW130221   1.304   3.597   9.083  0.0466 -0.5569 -0.2465
 6254SOL    HW230222   1.205   3.703   9.081 -0.0215  2.1971 -1.5366
 6255SOL     OW30223   4.328   0.643   6.553 -0.1789 -0.0052 -0.2613
 6255SOL    HW130224   4.272   0.680   6.485 -2.2714  0.7754  1.8893
 6255SOL    HW230225   4.269   0.635   6.628 -2.5990 -1.2746 -2.3099
 6256SOL     OW30226   0.915   4.517  11.630 -0.0446  0.2010 -0.5259
 6256SOL    HW130227   0.833   4.480  11.596 -0.2719  0.9729 -0.8077
 6256SOL    HW230228   0.909   4.606  11.598  0.6199 -1.0575 -4.1332
 6257SOL     OW30229   4.308   0.528   0.929 -0.5604 -0.2002  0.1383
 6257SOL    HW130230   4.224   0.569   0.952  0.6783  1.6645  1.3297
 6257SOL    HW230231   4.273   0.461   0.870 -1.2122  0.6308 -0.4152
 6258SOL     OW30232   4.473   1.580   6.832  0.1413  0.5290 -0.1179
 6258SOL    HW130233   4.393   1.614   6.872  0.4941 -1.3691  2.1687
 6258SOL    HW230234   4.437   1.521   6.766  2.1662  0.9333 -1.5891
 6259SOL     OW30235   1.324   1.942   5.223  0.0131 -0.0999  0.3258
 6259SOL    HW130236   1.294   1.990   5.145 -0.3431  0.4764  0.8126
 6259SOL    HW230237   1.262   1.870   5.213 -2.1586  1.7949 -0.0003
 6260SOL     OW30238   2.518   4.650  13.276  0.5416  0.2293 -0.5203
 6260SOL    HW130239   2.587   4.621  13.336  0.4951 -0.0096 -0.5848
 6260SOL    HW230240   2.529   4.589  13.203  0.6130 -0.6259  0.2070
 6261SOL     OW30241   3.066   0.764  11.288 -0.6330  0.5666  0.1239
 6261SOL    HW130242   3.149   0.802  11.317 -0.8957  0.5001  0.9620
 6261SOL    HW230243   3.081   0.736  11.198  1.3920  1.6694  0.1046
 6262SOL     OW30244   2.620   1.935   1.351  0.5104 -0.8357  0.2137
 6262SOL    HW130245   2.711   1.923   1.324  0.3586 -2.8522  0.6395
 6262SOL    HW230246   2.636   1.960   1.442 -1.7389  0.3869  0.2696
 6263SOL     OW30247   4.284   1.035   9.063  0.3561 -0.3422  0.2408
 6263SOL    HW130248   4.373   1.050   9.033  0.4570  1.5950  1.4963
 6263SOL    HW230249   4.252   0.975   8.996  0.2768  0.8023 -0.7383
 6264SOL     OW30250   2.015   1.881   1.503  0.1484 -0.2777 -0.1351
 6264SOL    HW130251   1.989   1.835   1.583  0.6216  0.7538  0.6071
 6264SOL    HW230252   1.942   1.938   1.479 -0.0183 -0.2032  0.5560
 6265SOL     OW30253   2.068   3.278   4.216 -0.3420 -0.1753  0.3685
 6265SOL    HW130254   2.034   3.367   4.228 -1.1457 -0.3896 -0.3132
 6265SOL    HW230255   2.130   3.279   4.289  0.8558 -0.8612 -0.6516
 6266SOL     OW30256   0.774   4.214   9.612 -0.3516 -0.2779 -0.3877
 6266SOL    HW130257   0.834   4.255   9.550  2.8868 -1.9581  1.6045
 6266SOL    HW230258   0.734   4.293   9.649 -0.0266 -1.0032  1.5249
 6267SOL     OW30259   0.221   1.806   9.110 -0.0677 -0.4197  0.3900
 6267SOL    HW130260   0.134   1.835   9.137 -0.2939 -0.8044  0.0614
 6267SOL    HW230261   0.242   1.879   9.051 -1.0285  0.2801  0.9082
 6268SOL     OW30262   3.513   1.947  15.587  0.2469 -0.3548  0.4677
 6268SOL    HW130263   3.431   1.928  15.633 -0.6188 -1.2061 -1.4380
 6268SOL    HW230264   3.522   1.867  15.536 -0.6120  0.2793 -0.6614
 6269SOL     OW30265   3.237   2.398  14.356 -0.4861 -0.0780 -0.5182
 6269SOL    HW130266   3.217   2.305  14.345 -0.6572  0.1873 -2.3667
 6269SOL    HW230267   3.253   2.383  14.449  0.5839  0.3062 -0.6426
 6270SOL     OW30268   0.424   0.370   5.769 -0.3058  0.3291  0.0196
 6270SOL    HW130269   0.424   0.459   5.734  1.2705  0.1320 -0.4813
 6270SOL    HW230270   0.481   0.376   5.845  0.6927  1.1175 -0.7786
 6271SOL     OW30271   2.378   1.948  13.139 -0.1756 -0.2478 -0.1213
 6271SOL    HW130272   2.300   1.899  13.163 -1.6963  1.9723 -0.4481
 6271SOL    HW230273   2.347   2.016  13.079  0.0320  0.1036  0.1701
 6272SOL     OW30274   2.801   3.899  12.599 -0.0479 -0.6005 -0.4761
 6272SOL    HW130275   2.735   3.968  12.601  1.5377  0.8129  2.0100
 6272SOL    HW230276   2.872   3.926  12.540 -0.8947  0.5803 -0.9646
 6273SOL     OW30277   2.152   1.881   4.015  0.2386 -0.6101 -0.9454
 6273SOL    HW130278   2.124   1.936   4.088  1.4147  1.0027 -1.7099
 6273SOL    HW230279   2.196   1.947   3.961  0.3536  1.1776  1.3191
 6274SOL     OW30280   0.941   0.467  16.578 -1.1649 -0.0725  0.4104
 6274SOL    HW130281   0.922   0.501  16.490  0.5685 -0.4215 -0.1035
 6274SOL    HW230282   1.036   0.456  16.575 -1.2561 -0.5997 -0.6223
 6275SOL     OW30283   1.047   3.622   8.848  0.2783 -0.4392  0.2937
 6275SOL    HW130284   1.019   3.620   8.940  0.9589  0.1562  0.5191
 6275SOL    HW230285   1.139   3.602   8.867  0.1329 -0.5165  0.9388
 6276SOL     OW30286   3.201   3.644  11.607  0.4619 -0.2027  0.6863
 6276SOL    HW130287   3.174   3.560  11.642 -1.9587  1.4021  2.7228
 6276SOL    HW230288   3.188   3.630  11.513 -1.3985 -1.2607  1.1062
 6277SOL     OW30289   3.229   4.660  13.743 -0.3495  0.6624 -0.0281
 6277SOL    HW130290   3.229   4.603  13.820  0.2896  3.6342  2.1669
 6277SOL    HW230291   3.288   4.612  13.684 -1.8203 -2.9550  1.3974
 6278SOL     OW30292   3.219   2.596   2.124  0.5100  0.5280  0.2211
 6278SOL    HW130293   3.248   2.505   2.117  2.6299  1.3189 -1.4845
 6278SOL    HW230294   3.134   2.575   2.163 -0.6924  1.6961 -1.7519
 6279SOL     OW30295   1.304   2.531   6.283 -0.2051  0.5110  0.1196
 6279SOL    HW130296   1.304   2.438   6.306  1.0076 -0.1096 -2.5248
 6279SOL    HW230297   1.255   2.560   6.361 -1.6506 -1.8741  0.1017
 6280SOL     OW30298   3.640   0.105   3.829  0.3057  0.0917 -0.6260
 6280SOL    HW130299   3.722   0.148   3.853  0.2989 -0.1236 -0.2031
 6280SOL    HW230300   3.629   0.049   3.906  0.9856 -0.0945 -0.6610
 6281SOL     OW30301   0.966   2.237   1.817  0.2389 -0.2017 -0.6453
 6281SOL    HW130302   0.911   2.277   1.749 -1.4864 -1.5602 -0.0542
 6281SOL    HW230303   0.973   2.149   1.779  0.4440 -1.6608  2.7160
 6282SOL     OW30304   1.801   4.031   3.940 -0.2659  0.5802  0.7980
 6282SOL    HW130305   1.888   4.004   3.909 -0.7026 -1.8432  1.6948
 6282SOL    HW230306   1.822   4.019   4.033  0.6131  0.4473  0.5829
 6283SOL     OW30307   2.272   1.065  12.611  0.4310  0.2764 -0.2223
 6283SOL    HW130308   2.337   0.997  12.629  0.7725  0.9266  1.0300
 6283SOL    HW230309   2.232   1.082  12.697 -0.9991 -0.9722 -0.6307
 6284SOL     OW30310   3.363   3.202   6.636  0.7345  0.4253  0.1837
 6284SOL    HW130311   3.388   3.199   6.729  3.3077 -0.6285 -0.5437
 6284SOL    HW230312   3.275   3.165   6.646  0.2008  2.0867  1.5657
 6285SOL     OW30313   0.130   1.443   6.727 -0.4354  0.9001  0.1062
 6285SOL    HW130314   0.223   1.455   6.705 -0.5798  0.0764 -0.9593
 6285SOL    HW230315   0.138   1.349   6.711  0.4662  1.1619 -0.9754
 6286SOL     OW30316   0.482   1.726   9.521  0.0263 -0.2700 -0.2555
 6286SOL    HW130317   0.436   1.800   9.483 -1.2997  0.2624  2.3543
 6286SOL    HW230318   0.572   1.759   9.528 -0.2662  0.8037 -1.6408
 6287SOL     OW30319   2.025   2.320   3.227 -0.3495 -0.3116 -0.5084
 6287SOL    HW130320   1.955   2.299   3.289 -1.6053 -0.9653 -2.1355
 6287SOL    HW230321   2.100   2.298   3.282 -1.9242  0.2902  1.8674
 6288SOL     OW30322   0.470   1.900   6.115 -0.0789 -0.1373 -0.2323
 6288SOL    HW130323   0.551   1.856   6.141 -0.6707 -0.3153  1.2814
 6288SOL    HW230324   0.421   1.878   6.194 -1.2878  0.1313 -0.9048
 6289SOL     OW30325   2.891   1.999   3.185 -0.3647 -0.1819  0.2945
 6289SOL    HW130326   2.925   1.909   3.192 -0.4427 -0.0567  2.1704
 6289SOL    HW230327   2.883   2.000   3.090  2.1257 -0.8286  0.0724
 6290SOL     OW30328   4.281   4.297  14.011  0.9086  0.1114 -0.2595
 6290SOL    HW130329   4.267   4.349  14.090  2.4911 -1.8714  1.3199
 6290SOL    HW230330   4.366   4.262  14.039  0.7345  1.5404  2.0582
 6291SOL     OW30331   1.428   2.091  16.902 -0.0190 -0.2475 -0.7357
 6291SOL    HW130332   1.504   2.038  16.877 -0.5668 -0.5250 -1.8065
 6291SOL    HW230333   1.357   2.062  16.845 -0.5263 -0.1113 -0.1711
 6292SOL     OW30334   1.386   1.457   2.322  0.0110  0.3110  0.0817
 6292SOL    HW130335   1.309   1.434   2.374  0.0986 -0.7556 -0.2747
 6292SOL    HW230336   1.376   1.552   2.330  2.4172  0.4547  1.3166
 6293SOL     OW30337   0.321   3.438   4.366  0.1410  0.6000 -0.8629
 6293SOL    HW130338   0.335   3.532   4.358 -0.4139  0.6665 -1.0321
 6293SOL    HW230339   0.230   3.425   4.338 -0.1858  0.3825  0.2715
 6294SOL     OW30340   1.065   4.270  10.783 -0.1362 -0.4743  0.2616
 6294SOL    HW130341   1.119   4.227  10.717 -0.7581 -2.0636  0.7867
 6294SOL    HW230342   1.054   4.357  10.745  0.0339 -1.4733 -2.0491
 6295SOL     OW30343   1.854   0.160  13.868  0.3960  0.0305  0.2142
 6295SOL    HW130344   1.885   0.145  13.958 -1.1803  1.0983  0.9283
 6295SOL    HW230345   1.835   0.071  13.839  0.2377  0.1212  0.0449
 6296SOL     OW30346   2.758   4.426   4.479  0.2832 -0.2232  0.5771
 6296SOL    HW130347   2.736   4.378   4.559 -1.8179  1.4161  0.9578
 6296SOL    HW230348   2.853   4.422   4.490  0.5697 -0.9330 -2.2070
 6297SOL     OW30349   2.194   4.362  12.096  0.3973 -0.1916 -0.0983
 6297SOL    HW130350   2.283   4.394  12.078 -0.1218  1.2292 -0.1496
 6297SOL    HW230351   2.149   4.421  12.036 -0.2607 -0.8273 -0.2241
 6298SOL     OW30352   0.312   4.044  11.223 -0.8054 -0.2610 -0.3570
 6298SOL    HW130353   0.282   4.128  11.186 -2.6183 -1.6350 -1.9904
 6298SOL    HW230354   0.383   4.023  11.163 -0.1811  0.5055  0.1107
 6299SOL     OW30355   1.807   4.022   6.979 -0.4408 -0.1675  0.3132
 6299SOL    HW130356   1.892   4.059   7.001 -0.8746  0.8001  0.3379
 6299SOL    HW230357   1.816   3.993   6.888  0.2450  0.4435  0.1845
 6300SOL     OW30358   1.875   1.183   9.097 -0.5168 -0.1857 -0.2403
 6300SOL    HW130359   1.959   1.152   9.063  0.2613  1.5751  0.0572
 6300SOL    HW230360   1.815   1.125   9.049  0.7412 -1.4808 -0.2572
 6301SOL     OW30361   0.713   2.808   4.423 -0.5100  0.0947  0.0990
 6301SOL    HW130362   0.658   2.851   4.489 -0.9125 -3.7503  2.2680
 6301SOL    HW230363   0.732   2.720   4.455  0.8491  0.7196  1.0306
 6302SOL     OW30364   2.846   2.602   5.839  0.3875  0.3663 -0.4132
 6302SOL    HW130365   2.797   2.558   5.770  0.8185 -0.2440 -0.3362
 6302SOL    HW230366   2.933   2.604   5.799 -0.4818  0.9262 -2.3084
 6303SOL     OW30367   0.627   3.470   3.345 -0.0938  0.4585  0.3973
 6303SOL    HW130368   0.707   3.488   3.296  0.0085 -0.4064  0.2418
 6303SOL    HW230369   0.653   3.522   3.421  1.6932 -0.1788  0.2238
 6304SOL     OW30370   4.273   3.295   8.271  0.0704  0.7306 -0.1958
 6304SOL    HW130371   4.361   3.318   8.301 -0.6045  2.9252  0.0290
 6304SOL    HW230372   4.283   3.200   8.262  1.4077  0.7722  0.7538
 6305SOL     OW30373   2.390   0.618   4.717 -0.0280  0.2360 -0.1840
 6305SOL    HW130374   2.396   0.558   4.642 -0.2622 -1.9154  1.5236
 6305SOL    HW230375   2.441   0.693   4.688 -1.7608  1.3450 -0.3712
 6306SOL     OW30376   3.617   4.724   9.429 -0.1766 -0.5655  0.1936
 6306SOL    HW130377   3.642   0.018   9.520  2.7643  0.0783 -0.7385
 6306SOL    HW230378   3.618   4.629   9.438 -0.2654 -0.4591  1.3906
 6307SOL     OW30379   3.236   1.270  13.171 -0.0279 -0.2952 -0.1326
 6307SOL    HW130380   3.222   1.364  13.175  1.3011 -0.1875  1.7808
 6307SOL    HW230381   3.324   1.254  13.136  0.5562 -0.1370  1.2785
 6308SOL     OW30382   3.086   0.157   4.435 -0.3415  0.1042 -0.2306
 6308SOL    HW130383   3.032   0.141   4.512 -1.4672 -1.2012 -1.2976
 6308SOL    HW230384   3.014   0.180   4.376  0.2297  0.9308 -0.6083
 6309SOL     OW30385   4.499   1.497   2.568  0.4824  0.5280 -0.0343
 6309SOL    HW130386   4.572   1.436   2.560  0.1310 -0.1107  1.8960
 6309SOL    HW230387   4.476   1.523   2.478 -1.8193 -1.8676 -0.1083
 6310SOL     OW30388   4.112   2.964   2.991 -0.2084 -0.8735  0.0880
 6310SOL    HW130389   4.195   2.996   3.025 -0.7874  1.4503 -0.6716
 6310SOL    HW230390   4.096   2.893   3.053 -1.8563 -0.4513  0.1439
 6311SOL     OW30391   3.164   3.895   1.367 -0.0238  0.1301  0.2429
 6311SOL    HW130392   3.155   3.838   1.444  3.7710 -0.6915  0.0739
 6311SOL    HW230393   3.102   3.964   1.393 -0.2247 -0.0122  0.1391
 6312SOL     OW30394   0.621   4.188   4.983 -0.0519 -0.6876 -0.3604
 6312SOL    HW130395   0.680   4.225   4.917  0.3135 -0.8754 -0.1380
 6312SOL    HW230396   0.634   4.252   5.052 -3.3093 -0.5324  0.1340
 6313SOL     OW30397   4.072   1.065  10.213  0.0550  0.2071  0.2311
 6313SOL    HW130398   4.047   1.093  10.124 -1.7552  0.5632  0.8443
 6313SOL    HW230399   4.137   1.133  10.230 -0.0786  0.7921 -1.5410
 6314SOL     OW30400   1.398   4.353   5.405  0.3199  0.0624 -0.2695
 6314SOL    HW130401   1.405   4.257   5.405  0.0201  0.0390 -1.5207
 6314SOL    HW230402   1.434   4.363   5.317 -0.4238  1.4584 -0.4155
 6315SOL     OW30403   4.622   2.529  11.490  0.4142 -0.0580 -0.3909
 6315SOL    HW130404   4.567   2.515  11.567 -0.2175  0.6299 -0.7285
 6315SOL    HW230405   4.625   2.625  11.488  0.9681 -0.0350  1.1069
 6316SOL     OW30406   3.842   0.950   2.213 -0.3162  0.1789  0.7346
 6316SOL    HW130407   3.888   0.875   2.176 -0.6574  0.1594  0.3510
 6316SOL    HW230408   3.886   0.985   2.291  0.1191 -1.3869  1.1781
 6317SOL     OW30409   3.178   4.133  14.661  0.2043  0.9082 -0.2288
 6317SOL    HW130410   3.172   4.146  14.567 -0.4953  0.2703 -0.2689
 6317SOL    HW230411   3.128   4.210  14.689 -0.6757  0.2846 -0.0988
 6318SOL     OW30412   3.050   0.599  11.085 -0.1491 -0.8683  0.2473
 6318SOL    HW130413   3.036   0.516  11.039 -3.1598 -0.9621  1.3333
 6318SOL    HW230414   3.103   0.642  11.017 -2.1449 -1.8561 -1.9470
 6319SOL     OW30415   2.619   3.700   5.044 -0.5309 -0.0238  0.6755
 6319SOL    HW130416   2.613   3.785   4.999 -1.0550 -0.2524  0.3133
 6319SOL    HW230417   2.698   3.672   4.999 -0.7325  0.5259 -0.0256
 6320SOL     OW30418   1.454   0.544   7.032  0.2227 -0.6310 -0.0046
 6320SOL    HW130419   1.399   0.610   7.074 -0.1450 -2.6436  2.6653
 6320SOL    HW230420   1.390   0.505   6.972  0.9048 -3.7154  1.2835
 6321SOL     OW30421   1.192   0.301  17.124 -0.3713 -0.4944  0.1427
 6321SOL    HW130422   1.114   0.319  17.073  1.8365  1.9375 -2.3504
 6321SOL    HW230423   1.188   0.378  17.181  0.9352 -0.3931  0.0890
 6322SOL     OW30424   4.596   2.065   9.601 -0.0940  0.4543  0.2086
 6322SOL    HW130425   4.516   2.117   9.607 -1.3901 -1.4362 -0.5069
 6322SOL    HW230426   4.656   2.098   9.668  0.3071 -0.6569  0.3969
 6323SOL     OW30427   4.324   2.770   8.778  0.0500 -0.0818  0.1940
 6323SOL    HW130428   4.370   2.686   8.785 -0.2636 -0.2136  0.6321
 6323SOL    HW230429   4.402   2.823   8.794 -0.0567  0.0154  0.3776
 6324SOL     OW30430   1.820   1.425   2.463  0.4160  0.1453  0.2579
 6324SOL    HW130431   1.778   1.371   2.530  0.5910 -1.2708 -0.7782
 6324SOL    HW230432   1.781   1.387   2.384  1.6492 -2.4270  0.9020
 6325SOL     OW30433   2.294   3.894   4.470 -0.0358 -0.3582 -0.4529
 6325SOL    HW130434   2.239   3.928   4.541  1.5195 -0.7375  0.9312
 6325SOL    HW230435   2.278   3.800   4.483 -1.6319 -0.0838 -0.4423
 6326SOL     OW30436   1.646   3.877   7.136  0.3339  0.0075  0.0169
 6326SOL    HW130437   1.727   3.912   7.098  0.5993 -2.0185 -1.2821
 6326SOL    HW230438   1.603   3.959   7.113  0.1577  0.7742  3.2057
 6327SOL     OW30439   1.714   0.007   5.846 -0.3987 -0.0417  0.4475
 6327SOL    HW130440   1.658   4.706   5.772  2.1842  1.0113 -1.8683
 6327SOL    HW230441   1.749   4.648   5.874 -0.0261  0.4290  1.4026
 6328SOL     OW30442   0.436   1.740   2.012 -0.2257 -0.0163  0.6515
 6328SOL    HW130443   0.526   1.708   2.022  0.5588  1.8826 -0.1788
 6328SOL    HW230444   0.414   1.695   1.931  0.7721 -1.2923  1.1001
 6329SOL     OW30445   4.157   3.687   4.985  0.2769 -0.3627 -0.2635
 6329SOL    HW130446   4.183   3.774   4.953 -2.3327  0.4221 -0.2652
 6329SOL    HW230447   4.124   3.706   5.073  1.0732  2.1126 -0.4966
 6330SOL     OW30448   3.209   1.831   7.837  0.3693  0.2023 -0.2100
 6330SOL    HW130449   3.196   1.918   7.875  0.8510 -0.1295  0.7101
 6330SOL    HW230450   3.157   1.835   7.757 -0.2878  1.3431  0.2812
 6331SOL     OW30451   2.049   4.215  17.406  0.1593 -0.2328  0.2861
 6331SOL    HW130452   1.959   4.238  17.428  0.5106  0.6547  0.8233
 6331SOL    HW230453   2.070   4.269  17.330  0.6640 -0.0955  0.5196
 6332SOL     OW30454   3.382   0.912  10.375  0.2715 -0.2976 -0.1449
 6332SOL    HW130455   3.404   0.943  10.287  2.0179  0.9499  0.7209
 6332SOL    HW230456   3.469   0.884  10.405  0.6879  2.3265  1.0531
 6333SOL     OW30457   0.098   1.649   1.634  0.4771  0.1880  0.1972
 6333SOL    HW130458   0.066   1.716   1.573 -0.1324 -2.5846 -2.4839
 6333SOL    HW230459   0.031   1.581   1.639 -1.5794  2.2060  0.2520
 6334SOL     OW30460   0.072   3.786   8.845  0.0688  0.0180  0.2012
 6334SOL    HW130461   0.043   3.695   8.854 -0.4852  0.3642  1.9649
 6334SOL    HW230462   0.165   3.779   8.869  0.7559 -1.3286 -2.9134
 6335SOL     OW30463   1.686   3.586  15.326 -0.0212 -0.3205  0.8636
 6335SOL    HW130464   1.671   3.492  15.318 -2.1319  0.0147  0.8702
 6335SOL    HW230465   1.655   3.614  15.239  0.4601 -0.6841  0.5770
 6336SOL     OW30466   0.814   2.075  17.515  0.0371 -0.0039 -0.9697
 6336SOL    HW130467   0.724   2.070  17.484 -0.6406  0.6410  0.9567
 6336SOL    HW230468   0.837   1.984  17.533 -0.1382  0.3010  0.7558
 6337SOL     OW30469   0.466   3.714   7.616 -0.8707 -0.6034 -0.2244
 6337SOL    HW130470   0.495   3.761   7.538  1.8703 -0.5880  0.8028
 6337SOL    HW230471   0.399   3.766   7.659 -1.0291  0.2382 -1.4775
 6338SOL     OW30472   4.062   4.477   9.301 -0.6271  0.1721  0.3877
 6338SOL    HW130473   3.994   4.409   9.300  0.3653 -0.8219  0.8326
 6338SOL    HW230474   4.130   4.433   9.250 -1.7291  0.4942 -1.3788
 6339SOL     OW30475   1.240   1.547   8.827 -0.4102  0.3854  0.2409
 6339SOL    HW130476   1.329   1.572   8.853 -1.2065  1.1598  2.1876
 6339SOL    HW230477   1.190   1.571   8.905 -0.3897 -3.7914  1.5610
 6340SOL     OW30478   4.208   2.594   2.754 -0.3354 -0.8035  0.0889
 6340SOL    HW130479   4.195   2.590   2.659 -0.4045  2.5854 -0.0292
 6340SOL    HW230480   4.303   2.609   2.754  0.1676 -3.9608 -0.6454
 6341SOL     OW30481   1.600   2.258   5.842  0.0925 -0.5648  0.0546
 6341SOL    HW130482   1.663   2.246   5.770  1.1910  0.3229  0.8659
 6341SOL    HW230483   1.517   2.219   5.813  1.1610 -3.5207  0.8896
 6342SOL     OW30484   2.425   2.689   8.603 -0.1900  0.0985 -0.3176
 6342SOL    HW130485   2.472   2.747   8.544  0.1218  1.6724  1.5039
 6342SOL    HW230486   2.371   2.761   8.635 -0.0725 -0.4950  1.2118
 6343SOL     OW30487   1.478   1.964  13.615 -0.1217  0.2708 -0.7111
 6343SOL    HW130488   1.550   1.981  13.555  0.6129  0.6107  0.2737
 6343SOL    HW230489   1.402   1.993  13.564 -0.9504 -0.6947 -0.0228
 6344SOL     OW30490   4.607   2.675   6.304  0.2099  0.2660  0.3810
 6344SOL    HW130491   4.565   2.592   6.281 -0.4327  1.2551 -2.0540
 6344SOL    HW230492   4.559   2.686   6.386 -1.9261 -3.0714 -0.4341
 6345SOL     OW30493   0.100   4.175   5.766 -0.0072 -0.1856 -0.0801
 6345SOL    HW130494   0.166   4.210   5.826 -0.2451 -0.6692  0.4656
 6345SOL    HW230495   0.035   4.148   5.831  0.7377  1.1260  1.2058
 6346SOL     OW30496   1.848   3.421   2.639 -0.4015  0.2319 -0.1558
 6346SOL    HW130497   1.876   3.510   2.661 -1.4896  0.8883 -1.4190
 6346SOL    HW230498   1.767   3.437   2.591 -0.7703 -2.0086 -0.2768
 6347SOL     OW30499   3.364   2.744   3.946 -0.3494 -0.1794  0.1159
 6347SOL    HW130500   3.356   2.839   3.952 -3.6511 -0.1782 -3.6317
 6347SOL    HW230501   3.377   2.734   3.851  0.5238  2.0134  0.0227
 6348SOL     OW30502   3.396   2.400  11.269 -0.0135  0.2981 -0.0321
 6348SOL    HW130503   3.396   2.404  11.173  5.0269 -0.5967 -0.0906
 6348SOL    HW230504   3.463   2.335  11.289  0.3567  0.5914 -0.3058
 6349SOL     OW30505   2.915   3.203   5.822  0.0604  0.0117  0.0864
 6349SOL    HW130506   2.977   3.139   5.857 -0.4777  0.9845  2.8925
 6349SOL    HW230507   2.829   3.165   5.844  0.0791 -0.4126 -0.6011
 6350SOL     OW30508   4.460   4.706   7.360  0.1507 -0.3318  0.4943
 6350SOL    HW130509   4.520   4.688   7.431  3.4615  1.4070 -1.8492
 6350SOL    HW230510   4.451   0.076   7.371 -0.0254 -0.2200 -0.5266
 6351SOL     OW30511   1.171   3.669  15.465  0.0926  0.0708 -0.0344
 6351SOL    HW130512   1.152   3.605  15.397  0.4146  1.0124 -0.9995
 6351SOL    HW230513   1.242   3.717  15.424  0.7527 -0.2335  0.7469
 6352SOL     OW30514   1.332   2.731   7.697  0.6708 -0.3656 -0.5097
 6352SOL    HW130515   1.346   2.649   7.746 -3.0508 -1.1321 -0.7583
 6352SOL    HW230516   1.245   2.714   7.663 -0.1361 -1.6306  2.1250
 6353SOL     OW30517   2.260   2.324  16.637 -0.6241 -0.0731 -0.6349
 6353SOL    HW130518   2.225   2.364  16.716 -0.3125  0.3865 -0.7334
 6353SOL    HW230519   2.288   2.396  16.581  0.2567 -0.6437 -0.9286
 6354SOL     OW30520   3.613   1.001   5.938  0.0974 -0.1846  0.3211
 6354SOL    HW130521   3.523   1.002   5.904  0.0536  0.4744  0.4672
 6354SOL    HW230522   3.617   0.909   5.965 -0.5724 -0.0067  1.0563
 6355SOL     OW30523   4.415   4.228   7.327 -0.2903  0.0985  0.2543
 6355SOL    HW130524   4.398   4.236   7.233  0.5779  2.0723  0.2668
 6355SOL    HW230525   4.465   4.147   7.336  0.4843  0.4567 -0.9033
 6356SOL     OW30526   1.667   0.978   8.534  0.4206  0.1432  0.6030
 6356SOL    HW130527   1.606   0.913   8.498  1.5005 -1.6765  2.0483
 6356SOL    HW230528   1.689   0.938   8.618 -2.7651 -0.1051  1.3237
 6357SOL     OW30529   1.782   0.215   4.837 -0.4903  0.0866  0.1383
 6357SOL    HW130530   1.838   0.259   4.772 -0.3693 -3.7437 -2.3636
 6357SOL    HW230531   1.707   0.274   4.835  0.4051  1.2263 -0.1794
 6358SOL     OW30532   3.253   2.417   2.594 -0.6607  0.3431  0.0978
 6358SOL    HW130533   3.259   2.330   2.633 -2.7317  0.2082  0.1429
 6358SOL    HW230534   3.161   2.415   2.565  0.4405 -0.2155 -3.3694
 6359SOL     OW30535   0.599   4.663   3.549 -0.9626 -0.3461 -0.2457
 6359SOL    HW130536   0.525   4.716   3.582 -1.1532 -0.1284 -1.0181
 6359SOL    HW230537   0.676   4.706   3.586  0.0398 -3.1751  0.8838
 6360SOL     OW30538   0.711   1.841   4.741 -0.0958  0.0898 -0.1798
 6360SOL    HW130539   0.632   1.859   4.793 -0.5854 -0.5584 -0.6990
 6360SOL    HW230540   0.689   1.862   4.651  0.0945 -0.2976 -0.3179
 6361SOL     OW30541   0.664   0.648   6.812  0.2277 -0.0671  0.3926
 6361SOL    HW130542   0.712   0.574   6.774  1.5970  0.6613  0.6776
 6361SOL    HW230543   0.739   0.708   6.820 -0.5427  0.8996  0.2417
 6362SOL     OW30544   2.342   4.722   1.872 -0.0604 -0.4419  0.1958
 6362SOL    HW130545   2.346   4.659   1.944 -1.9192 -0.7704  0.0149
 6362SOL    HW230546   2.321   4.666   1.797 -1.2306 -1.0725  0.9857
 6363SOL     OW30547   4.294   2.485   1.534 -0.1164 -0.0558 -0.2341
 6363SOL    HW130548   4.361   2.421   1.559  3.3938  3.8873  0.4490
 6363SOL    HW230549   4.326   2.564   1.577  1.2208 -0.8336  0.1950
 6364SOL     OW30550   3.795   0.069   3.447 -0.5296  0.2401  0.0909
 6364SOL    HW130551   3.821   0.125   3.375 -0.4194 -0.4708 -0.4289
 6364SOL    HW230552   3.817   4.710   3.405 -0.6979 -0.5480  1.5663
 6365SOL     OW30553   1.651   1.790   1.263 -0.1199 -0.3527 -0.0351
 6365SOL    HW130554   1.616   1.730   1.197 -1.0160 -1.4476  1.4565
 6365SOL    HW230555   1.566   1.831   1.278  0.7325  1.6740 -0.6176
 6366SOL     OW30556   1.295   1.059   1.289 -0.0084  0.4816 -0.4186
 6366SOL    HW130557   1.221   1.068   1.349 -0.2595 -2.0662 -0.3713
 6366SOL    HW230558   1.342   0.982   1.319  0.3986  0.0341 -2.2200
 6367SOL     OW30559   0.726   0.607  11.411 -0.2265 -0.1004  0.1981
 6367SOL    HW130560   0.820   0.608  11.430 -0.4519  2.3415  1.2469
 6367SOL    HW230561   0.674   0.638  11.485  1.6517  0.6576  1.2097
 6368SOL     OW30562   3.440   0.877   3.422 -0.4781 -0.4026 -0.6909
 6368SOL    HW130563   3.406   0.961   3.453 -0.0919  0.0699 -1.5440
 6368SOL    HW230564   3.450   0.894   3.328  3.1077  2.1941  0.1838
 6369SOL     OW30565   3.385   0.374   8.379 -0.1691  0.2932 -0.1644
 6369SOL    HW130566   3.391   0.367   8.283 -3.1640 -1.4997 -0.2114
 6369SOL    HW230567   3.368   0.468   8.377  0.1108  0.3291 -1.0782
 6370SOL     OW30568   3.457   0.188  11.371  0.5802  0.1851  0.1973
 6370SOL    HW130569   3.546   0.175  11.405 -0.5503  1.4724  3.6626
 6370SOL    HW230570   3.436   0.281  11.381  0.0021  0.3698 -2.7517
 6371SOL     OW30571   3.566   2.785   6.496  0.4957 -0.1203 -0.4619
 6371SOL    HW130572   3.583   2.709   6.552 -0.9972 -1.2221 -1.4882
 6371SOL    HW230573   3.477   2.769   6.465  0.2157  0.7531 -0.0889
 6372SOL     OW30574   3.581   2.426   9.198 -0.3532  0.2836  0.3984
 6372SOL    HW130575   3.635   2.479   9.256  1.6574  0.8773 -1.9868
 6372SOL    HW230576   3.599   2.342   9.241  0.6035 -0.1641 -0.8597
 6373SOL     OW30577   4.519   4.103   2.826  0.1430 -0.0926  0.2126
 6373SOL    HW130578   4.580   4.044   2.780 -0.0468  0.7061 -1.0713
 6373SOL    HW230579   4.438   4.057   2.806  0.2718 -0.3625  0.3077
 6374SOL     OW30580   3.708   3.893  13.925 -0.9931  0.1434 -0.0070
 6374SOL    HW130581   3.723   3.954  13.997  0.2548  1.2058 -1.1607
 6374SOL    HW230582   3.719   3.810  13.971 -2.2379  1.1858  2.1394
 6375SOL     OW30583   0.267   3.174  10.591  0.0226 -0.1910 -0.0656
 6375SOL    HW130584   0.279   3.174  10.686  0.6621  2.1521 -0.1434
 6375SOL    HW230585   0.237   3.084  10.580  1.2275 -0.4448 -1.2010
 6376SOL     OW30586   2.503   3.916   0.131 -0.0798 -1.2015 -0.4481
 6376SOL    HW130587   2.449   3.849   0.172 -2.4381  0.7790 -0.3574
 6376SOL    HW230588   2.589   3.882   0.155 -0.4868 -2.3994 -0.6883
 6377SOL     OW30589   1.900   1.822  11.400  0.2699 -0.4113  0.3513
 6377SOL    HW130590   1.937   1.909  11.413  2.0730 -1.1696  0.3630
 6377SOL    HW230591   1.984   1.778  11.385 -0.3279 -1.0733 -1.1061
 6378SOL     OW30592   2.147   3.640   7.212 -0.3419 -0.1683 -0.1943
 6378SOL    HW130593   2.124   3.643   7.304 -0.1015 -0.4037 -0.1271
 6378SOL    HW230594   2.240   3.663   7.218 -0.7176  0.7499  2.1574
 6379SOL     OW30595   1.676   2.998   1.078 -0.4111  0.6014 -0.4940
 6379SOL    HW130596   1.592   3.041   1.064 -0.0837  1.1776 -0.6795
 6379SOL    HW230597   1.729   3.066   1.038  0.9505  0.7154  1.4619
 6380SOL     OW30598   0.493   2.128   7.414  0.4341  0.5025  0.6775
 6380SOL    HW130599   0.562   2.062   7.411  1.6360  1.7137  1.7302
 6380SOL    HW230600   0.541   2.204   7.381 -2.1115  0.6223 -2.8684
 6381SOL     OW30601   2.727   1.521   5.322 -0.0128 -0.8298 -0.1258
 6381SOL    HW130602   2.661   1.481   5.377  0.1772 -1.7678 -0.5861
 6381SOL    HW230603   2.811   1.486   5.352  0.1689 -0.5269 -0.2702
 6382SOL     OW30604   3.089   4.397   7.616  0.1994  0.0861 -0.4317
 6382SOL    HW130605   3.118   4.407   7.707  1.0517  1.9073 -0.8989
 6382SOL    HW230606   3.112   4.305   7.602  0.2100  0.1518 -0.8202
 6383SOL     OW30607   0.650   4.094  11.250 -0.3120 -0.7274  0.0098
 6383SOL    HW130608   0.722   4.147  11.282 -0.4330 -0.5363 -0.0360
 6383SOL    HW230609   0.683   4.006  11.269  1.1581 -0.1189  0.2359
 6384SOL     OW30610   3.271   1.943   6.931  0.3416  0.3345  0.0550
 6384SOL    HW130611   3.321   1.945   6.850  0.6778 -0.9510  0.2383
 6384SOL    HW230612   3.312   1.864   6.968  0.6850  0.2573 -0.4915
 6385SOL     OW30613   2.599   4.466   3.739 -0.4255  0.3360 -0.7286
 6385SOL    HW130614   2.634   4.553   3.760 -0.8410  0.5018 -0.7395
 6385SOL    HW230615   2.630   4.414   3.814 -0.2407  2.7422  0.8749
 6386SOL     OW30616   0.361   1.519   4.432 -0.2646 -0.0236 -0.0402
 6386SOL    HW130617   0.408   1.570   4.498 -3.6720  2.2260  0.6204
 6386SOL    HW230618   0.371   1.429   4.465  0.4735 -0.2535 -0.8905
 6387SOL     OW30619   3.233   1.494   3.428  0.6176  0.3072 -0.4449
 6387SOL    HW130620   3.164   1.431   3.404 -1.9042  3.4269 -1.3893
 6387SOL    HW230621   3.235   1.545   3.347  0.2571  0.0409 -0.6247
 6388SOL     OW30622   4.214   1.065   3.381 -0.6835 -0.1039 -0.6671
 6388SOL    HW130623   4.263   1.137   3.341  0.7308 -1.7789 -1.9414
 6388SOL    HW230624   4.265   1.061   3.462 -0.1478 -1.6369 -1.0829
 6389SOL     OW30625   2.258   3.977   9.332 -0.6383 -0.3478 -0.0025
 6389SOL    HW130626   2.307   3.895   9.327 -0.4147 -0.0870 -2.1110
 6389SOL    HW230627   2.338   4.029   9.341  0.9025 -2.2586 -2.7314
 6390SOL     OW30628   1.722   2.962  15.860 -0.6160  0.2182  0.1703
 6390SOL    HW130629   1.758   2.895  15.918  0.1830  1.0140  0.6067
 6390SOL    HW230630   1.748   2.931  15.774  0.4401  1.9819 -0.1456
 6391SOL     OW30631   1.814   0.730   0.923 -0.7489  0.2408  0.3603
 6391SOL    HW130632   1.721   0.708   0.928 -1.4063  2.6081 -1.3005
 6391SOL    HW230633   1.827   0.800   0.987 -2.7453 -1.3594  2.5201
 6392SOL     OW30634   2.234   3.395   3.818  0.5509 -0.0935  0.5039
 6392SOL    HW130635   2.180   3.371   3.742  0.6881  0.1587  0.3251
 6392SOL    HW230636   2.196   3.329   3.875  0.9143 -0.5417  0.2221
 6393SOL     OW30637   0.249   2.230   2.010 -0.3660  0.0802 -0.1572
 6393SOL    HW130638   0.307   2.288   2.060  0.6134 -0.8098 -0.2752
 6393SOL    HW230639   0.299   2.150   1.995  2.8473  2.1572 -0.7381
 6394SOL     OW30640   3.175   4.310  10.449  0.5506  0.1505  0.1486
 6394SOL    HW130641   3.259   4.351  10.469  1.0386 -0.4650 -0.6630
 6394SOL    HW230642   3.130   4.314  10.533  0.2771  1.8189 -0.0697
 6395SOL     OW30643   2.530   2.334   9.290 -0.3992 -0.1451 -0.2503
 6395SOL    HW130644   2.473   2.305   9.361  0.5755 -0.6149  0.3410
 6395SOL    HW230645   2.516   2.265   9.226 -0.2168  1.0485 -1.5787
 6396SOL     OW30646   4.123   3.653   7.035 -0.2485  0.4479 -0.1174
 6396SOL    HW130647   4.138   3.665   6.942  0.1640 -0.7040 -0.1934
 6396SOL    HW230648   4.125   3.744   7.065  0.2215  0.4004 -0.0124
 6397SOL     OW30649   1.925   0.787   7.354 -0.4013  0.1203  0.4575
 6397SOL    HW130650   1.876   0.707   7.339 -2.5394  1.4828  0.2042
 6397SOL    HW230651   2.007   0.738   7.351 -0.9831 -0.8041 -0.1225
 6398SOL     OW30652   1.692   3.959   5.816 -0.5333  0.2161 -0.0584
 6398SOL    HW130653   1.674   3.979   5.724 -0.5737  2.0675  0.3479
 6398SOL    HW230654   1.784   3.939   5.803 -0.5902 -1.1390  1.6157
 6399SOL     OW30655   2.652   3.223  17.125  0.0740  0.0468 -0.3836
 6399SOL    HW130656   2.643   3.248  17.216 -1.9299 -0.5076 -0.4398
 6399SOL    HW230657   2.743   3.247  17.107 -1.0402  1.9896 -3.4725
 6400SOL     OW30658   2.311   1.139   3.671  0.1644  0.3317  0.0231
 6400SOL    HW130659   2.240   1.075   3.676  0.0657  0.5462  1.4169
 6400SOL    HW230660   2.327   1.139   3.577  0.0048 -0.2741 -0.0047
 6401SOL     OW30661   0.918   2.070  13.156 -0.2124 -0.2856  0.0354
 6401SOL    HW130662   0.960   2.008  13.215 -3.0471 -3.7052 -1.5564
 6401SOL    HW230663   0.974   2.048  13.082 -1.1653  1.3319 -1.1845
 6402SOL     OW30664   1.063   3.725   1.379  0.3686 -0.7756 -0.2573
 6402SOL    HW130665   0.972   3.697   1.372  0.2206 -0.1919 -0.6957
 6402SOL    HW230666   1.095   3.670   1.451  0.8777  1.2240  1.0417
 6403SOL     OW30667   0.990   1.225   6.608  0.1820 -0.5125  0.2682
 6403SOL    HW130668   1.013   1.158   6.672  0.0757 -1.2508 -0.4684
 6403SOL    HW230669   1.030   1.300   6.653 -0.8847  0.3635 -0.2337
 6404SOL     OW30670   3.566   3.032   8.041  0.2040 -0.4866 -0.2887
 6404SOL    HW130671   3.613   3.109   8.010  0.4346 -0.8132 -0.7511
 6404SOL    HW230672   3.617   2.996   8.114  0.2823  3.3179  1.5204
 6405SOL     OW30673   2.486   2.645  11.766  0.0724 -0.9364  0.0040
 6405SOL    HW130674   2.400   2.666  11.730 -0.5823  0.0036  2.0903
 6405SOL    HW230675   2.500   2.567  11.713 -1.9283 -0.9358 -0.5338
 6406SOL     OW30676   3.708   2.358   2.177 -0.3466 -0.2204 -0.3280
 6406SOL    HW130677   3.719   2.326   2.267 -2.1918  0.7293  0.2294
 6406SOL    HW230678   3.799   2.346   2.148  0.3375  0.7955  1.4092
 6407SOL     OW30679   2.417   0.336   7.842 -0.1722  0.2323  0.4158
 6407SOL    HW130680   2.397   0.408   7.782 -0.5000 -0.4179 -0.2480
 6407SOL    HW230681   2.498   0.299   7.806  0.9540  0.0896  3.1159
 6408SOL     OW30682   3.787   1.219   5.953 -0.0580  0.4020  0.6695
 6408SOL    HW130683   3.712   1.164   5.933  0.4700  0.9003 -2.7213
 6408SOL    HW230684   3.781   1.286   5.885 -2.4598  1.1081  1.5903
 6409SOL     OW30685   3.634   3.591   4.614 -0.0449 -0.1843  0.2274
 6409SOL    HW130686   3.608   3.665   4.669  2.2903  1.9309 -1.5241
 6409SOL    HW230687   3.590   3.512   4.648 -0.7450 -0.4538 -1.3165
 6410SOL     OW30688   0.008   3.402   9.245  0.4424  0.0417 -0.3598
 6410SOL    HW130689   4.722   3.334   9.312  2.3263  0.9765  0.9102
 6410SOL    HW230690   0.104   3.401   9.242  0.4950 -1.9734  1.7780
 6411SOL     OW30691   1.990   3.532   5.428  0.3080 -0.0816  0.2469
 6411SOL    HW130692   2.070   3.502   5.385  0.9587 -0.8314  1.9650
 6411SOL    HW230693   2.022   3.497   5.512 -0.5598 -0.9083  0.2421
 6412SOL     OW30694   2.510   0.999   0.738  0.7358 -0.3841  0.2908
 6412SOL    HW130695   2.526   1.083   0.696  0.0188 -0.3450  0.0954
 6412SOL    HW230696   2.544   1.003   0.828  1.4592 -0.2125  0.0083
 6413SOL     OW30697   2.711   4.112   0.680  0.2851  0.1098  0.1963
 6413SOL    HW130698   2.647   4.094   0.749 -0.1505 -0.2283 -0.2925
 6413SOL    HW230699   2.718   4.208   0.682  0.6666  0.0840  0.1163
 6414SOL     OW30700   1.162   2.879   6.608 -0.3314 -0.3271  0.6358
 6414SOL    HW130701   1.112   2.832   6.674 -1.2718 -1.4017 -0.8380
 6414SOL    HW230702   1.178   2.814   6.540  0.3044 -1.9488  2.3579
 6415SOL     OW30703   3.849   4.274  15.201  0.5484 -0.1487 -0.1487
 6415SOL    HW130704   3.812   4.319  15.125  1.2119 -0.9083 -0.9077
 6415SOL    HW230705   3.810   4.188  15.186  1.5689 -0.5414 -0.4844
 6416SOL     OW30706   2.972   3.510   0.415  0.2783 -0.0578  0.3115
 6416SOL    HW130707   2.898   3.452   0.434 -0.4475  0.8990  0.4232
 6416SOL    HW230708   2.984   3.494   0.322  1.4793 -1.6359  0.7273
 6417SOL     OW30709   3.714   3.131   1.594  0.3218 -0.2449  0.3527
 6417SOL    HW130710   3.714   3.204   1.655 -2.6914 -1.2615  1.5711
 6417SOL    HW230711   3.630   3.089   1.612  0.7194 -1.4053 -0.4962
 6418SOL     OW30712   4.381   1.765   8.438  0.1570  0.4255 -0.1805
 6418SOL    HW130713   4.316   1.778   8.507  2.4549  1.1998  1.8501
 6418SOL    HW230714   4.394   1.857   8.416 -1.6043  1.1229  1.6838
 6419SOL     OW30715   0.548   4.403   7.374  0.6878  0.3628  0.0125
 6419SOL    HW130716   0.629   4.398   7.324  0.6776  1.5066 -0.1337
 6419SOL    HW230717   0.569   4.471   7.438  2.1008 -1.4371  1.4464
 6420SOL     OW30718   2.222   4.588  16.759 -0.5207  0.1703  0.3055
 6420SOL    HW130719   2.235   4.513  16.701 -0.7472  0.3849 -0.0166
 6420SOL    HW230720   2.210   4.661  16.698  0.6926  0.3671  0.2970
 6421SOL     OW30721   2.609   0.216   4.818  0.2288  0.1722  0.3067
 6421SOL    HW130722   2.667   0.286   4.788 -1.3763  1.4219  0.1491
 6421SOL    HW230723   2.565   0.263   4.889 -0.8764 -1.0164  0.4102
 6422SOL     OW30724   4.579   1.998   2.621 -0.3141 -0.0241  0.4109
 6422SOL    HW130725   4.557   1.998   2.527  2.2388 -0.6961 -0.1890
 6422SOL    HW230726   4.584   2.093   2.630  0.6909  0.2606 -2.8532
 6423SOL     OW30727   3.371   3.582  12.220  0.1518 -0.3172 -0.6649
 6423SOL    HW130728   3.296   3.611  12.272  0.4046  2.2197 -1.7272
 6423SOL    HW230729   3.333   3.569  12.133 -0.2942 -0.5786 -0.4373
 6424SOL     OW30730   3.447   0.294  14.342  0.3559 -0.0527 -0.0429
 6424SOL    HW130731   3.510   0.225  14.320  0.5195 -0.1129  0.6117
 6424SOL    HW230732   3.452   0.279  14.436 -0.7989  0.1836  0.0498
 6425SOL     OW30733   1.817   0.190   8.999 -0.1258  0.5114  0.0980
 6425SOL    HW130734   1.735   0.144   8.979  0.2530 -1.4435  2.9534
 6425SOL    HW230735   1.815   0.176   9.094 -2.8013 -1.2959 -0.2125
 6426SOL     OW30736   4.242   2.436  16.904  0.1598 -0.2841 -0.5021
 6426SOL    HW130737   4.174   2.501  16.921  0.7391  0.1023  0.3416
 6426SOL    HW230738   4.222   2.372  16.973  1.7646  0.2330  0.4632
 6427SOL     OW30739   2.784   0.519  11.204  0.2722  0.0283 -0.0634
 6427SOL    HW130740   2.789   0.584  11.275 -0.5644  0.7182 -0.6377
 6427SOL    HW230741   2.841   0.548  11.133  0.6224 -2.9372 -0.9764
 6428SOL     OW30742   2.444   0.298   7.524 -0.1549  0.4490 -0.2586
 6428SOL    HW130743   2.496   0.265   7.597  0.2311 -0.7550 -1.0702
 6428SOL    HW230744   2.455   0.391   7.543 -0.2839  0.4018  0.0499
 6429SOL     OW30745   4.685   3.278  15.382 -0.1669  0.4217 -0.8966
 6429SOL    HW130746   0.054   3.272  15.402 -0.1640  1.6489 -0.4919
 6429SOL    HW230747   4.683   3.327  15.300 -0.4592 -0.5685 -1.4651
 6430SOL     OW30748   2.983   2.682   6.501  0.7285 -0.2655 -0.3290
 6430SOL    HW130749   3.073   2.655   6.482 -0.0352 -1.8381 -1.7276
 6430SOL    HW230750   2.945   2.597   6.525  1.3322 -0.9428 -1.7347
 6431SOL     OW30751   2.676   4.216   6.792  0.3304  0.2093  0.1477
 6431SOL    HW130752   2.736   4.146   6.766  0.3162 -0.2658  1.3847
 6431SOL    HW230753   2.622   4.222   6.713  1.1657 -2.9253 -0.6763
 6432SOL     OW30754   0.234   1.521  10.181 -0.2939  0.2666  0.7123
 6432SOL    HW130755   0.279   1.480  10.256  1.7165  0.5806 -0.3232
 6432SOL    HW230756   0.247   1.462  10.107  2.3578  0.9728  0.5943
 6433SOL     OW30757   2.038   2.915   3.940 -0.3291 -0.6914 -0.0965
 6433SOL    HW130758   2.034   2.931   4.034  1.1648 -2.2257  0.2331
 6433SOL    HW230759   1.984   2.840   3.913 -1.1804  0.3999 -1.4451
 6434SOL     OW30760   2.955   2.238   9.498  0.7191  0.6878  0.3595
 6434SOL    HW130761   2.871   2.244   9.543 -0.9846 -0.9572 -2.5471
 6434SOL    HW230762   2.997   2.162   9.539 -0.5446  0.0299  0.4401
 6435SOL     OW30763   2.847   4.166   2.976  0.4328  0.1236  0.3750
 6435SOL    HW130764   2.767   4.198   3.017  0.3166 -0.6234  0.7344
 6435SOL    HW230765   2.855   4.072   2.995  0.9826  0.4500  1.7522
 6436SOL     OW30766   0.957   2.421   5.099 -0.4001 -0.6166 -0.5306
 6436SOL    HW130767   0.962   2.451   5.009  0.3307  0.1854 -0.2228
 6436SOL    HW230768   0.943   2.506   5.142  0.8839  0.1133 -1.5635
 6437SOL     OW30769   3.646   3.464   6.944 -0.0988 -0.5202  0.2908
 6437SOL    HW130770   3.671   3.374   6.925 -0.4827 -0.0085 -2.6013
 6437SOL    HW230771   3.729   3.495   6.980  0.6487 -1.8919 -0.2438
 6438SOL     OW30772   4.219   4.181   8.617  0.1513 -0.4335  0.4463
 6438SOL    HW130773   4.291   4.148   8.672  0.8285  0.4501  0.0963
 6438SOL    HW230774   4.260   4.188   8.530 -2.0421  0.7102 -0.4935
 6439SOL     OW30775   2.779   1.867  16.876 -0.3739  0.7575 -0.6707
 6439SOL    HW130776   2.776   1.807  16.801  2.8321  0.1692 -0.3347
 6439SOL    HW230777   2.725   1.943  16.857 -0.2209  0.7934 -0.9579
 6440SOL     OW30778   1.308   4.557  16.428  0.1584  0.4115  0.0317
 6440SOL    HW130779   1.271   4.581  16.513 -0.1410  0.7106 -0.1825
 6440SOL    HW230780   1.246   4.485  16.417 -0.5894  1.2898 -1.5368
 6441SOL     OW30781   1.823   1.823   4.574 -0.6460 -0.6621  0.4288
 6441SOL    HW130782   1.757   1.829   4.505 -0.6644  2.4476  0.7511
 6441SOL    HW230783   1.908   1.815   4.532 -0.4763 -1.7337  0.9748
 6442SOL     OW30784   2.975   4.163   7.259  0.4150 -0.0323 -0.3835
 6442SOL    HW130785   2.995   4.112   7.337 -0.0049  0.1041 -0.1857
 6442SOL    HW230786   2.931   4.096   7.206 -1.8959 -0.0683  1.5857
 6443SOL     OW30787   0.725   2.691   3.453 -0.5301 -0.1741 -0.8165
 6443SOL    HW130788   0.766   2.612   3.488 -1.2811  0.4473  1.4685
 6443SOL    HW230789   0.655   2.700   3.518  0.6640  2.7921  0.0172
 6444SOL     OW30790   2.821   2.920   2.495 -0.3062  0.0826 -0.1889
 6444SOL    HW130791   2.821   2.961   2.408  0.0773  2.1050  0.7458
 6444SOL    HW230792   2.751   2.856   2.488  0.1571 -0.4941  0.4259
 6445SOL     OW30793   1.381   2.470  13.343 -0.5921 -0.2780 -0.3928
 6445SOL    HW130794   1.459   2.443  13.295 -2.0329 -2.2750 -1.5960
 6445SOL    HW230795   1.325   2.398  13.317  0.6084 -0.3801 -2.6705
 6446SOL     OW30796   1.698   4.425   8.526  0.4100  0.2744  0.2249
 6446SOL    HW130797   1.665   4.443   8.438  0.6906 -1.6430 -0.2656
 6446SOL    HW230798   1.704   4.518   8.548  1.1647 -0.6194  3.7166
 6447SOL     OW30799   1.907   2.784  15.965 -0.1913  0.2528  0.1561
 6447SOL    HW130800   1.987   2.731  15.962 -0.3921 -0.1089  1.4153
 6447SOL    HW230801   1.880   2.771  16.055  0.0271  1.2994  0.3743
 6448SOL     OW30802   2.402   4.227   1.938 -0.0126  0.2408 -0.7426
 6448SOL    HW130803   2.464   4.283   1.892 -0.5040  2.1799  0.9573
 6448SOL    HW230804   2.413   4.146   1.887  0.5572 -1.3459  1.9014
 6449SOL     OW30805   1.879   1.044  11.123 -0.3630  0.0796 -0.0737
 6449SOL    HW130806   1.892   1.079  11.211 -2.3857 -3.7552  1.7692
 6449SOL    HW230807   1.795   0.999  11.131  1.4790 -3.4702 -0.5657
 6450SOL     OW30808   2.466   4.061   0.485 -0.3429  0.3040  0.1136
 6450SOL    HW130809   2.556   4.087   0.462 -0.2829 -0.3168 -0.3493
 6450SOL    HW230810   2.433   4.131   0.542 -1.1470 -0.3663  0.4499
 6451SOL     OW30811   1.137   1.678  15.368 -0.3169  0.4835 -0.0048
 6451SOL    HW130812   1.160   1.616  15.437  1.3039  0.7715 -0.3024
 6451SOL    HW230813   1.123   1.614  15.299  2.0010  1.0524 -0.9952
 6452SOL     OW30814   4.156   2.527   2.506  0.2249  0.1343 -0.8056
 6452SOL    HW130815   4.225   2.552   2.445 -0.0147 -0.6171 -1.3762
 6452SOL    HW230816   4.159   2.433   2.489 -1.9593 -0.1537  0.4276
 6453SOL     OW30817   2.774   0.037   2.256 -0.1685 -0.7267  0.0390
 6453SOL    HW130818   2.723   4.698   2.306 -0.4422  0.2991  1.0693
 6453SOL    HW230819   2.707   0.106   2.258 -0.0215 -0.5912  0.3385
 6454SOL     OW30820   2.797   0.210   1.322 -0.3302  0.0153 -0.1132
 6454SOL    HW130821   2.803   0.265   1.400  1.9333 -0.3629 -0.0119
 6454SOL    HW230822   2.882   0.167   1.324 -0.8426 -1.0315 -0.6456
 6455SOL     OW30823   3.231   4.458  14.370  0.0886 -0.6143 -0.3852
 6455SOL    HW130824   3.299   4.431  14.432 -0.4074 -1.7374 -0.3326
 6455SOL    HW230825   3.168   4.387  14.376  1.4521 -1.8046 -0.1614
 6456SOL     OW30826   2.314   1.873   6.600 -0.5495  0.4285 -0.6249
 6456SOL    HW130827   2.318   1.965   6.629  3.0001 -0.6544  2.3375
 6456SOL    HW230828   2.402   1.873   6.562  0.4398  0.3390  1.6173
 6457SOL     OW30829   2.754   0.940   4.355  0.0600  0.5608 -0.3585
 6457SOL    HW130830   2.772   0.943   4.449 -2.1157  0.1437  0.0731
 6457SOL    HW230831   2.813   1.008   4.323  0.9639 -0.5861 -1.1376
 6458SOL     OW30832   0.393   2.752   2.221 -0.6675 -0.4549  0.4373
 6458SOL    HW130833   0.319   2.795   2.178 -1.0790 -1.0959  0.5087
 6458SOL    HW230834   0.462   2.780   2.162  1.1324 -0.0351  2.7543
 6459SOL     OW30835   3.326   4.049   4.948  0.2047  0.1621  0.1130
 6459SOL    HW130836   3.269   4.067   5.022  0.3038 -1.3551  0.5660
 6459SOL    HW230837   3.400   4.015   4.997  1.1347  2.8862  0.6096
 6460SOL     OW30838   1.258   0.434   7.574 -0.3817 -0.3423  0.3222
 6460SOL    HW130839   1.240   0.427   7.668  1.1220  0.6841  0.6852
 6460SOL    HW230840   1.288   0.345   7.557  0.1261 -0.1600  0.2545
 6461SOL     OW30841   1.915   3.844   8.854 -0.0487  0.3565  0.0931
 6461SOL    HW130842   1.893   3.807   8.768  0.0119 -3.1500  1.5864
 6461SOL    HW230843   1.877   3.775   8.909 -0.5195  0.6708  0.1562
 6462SOL     OW30844   0.780   3.422   7.762  0.3888  0.0346 -0.3849
 6462SOL    HW130845   0.825   3.365   7.699 -0.8127  0.4566 -1.6079
 6462SOL    HW230846   0.797   3.505   7.718  1.9605 -0.8096 -1.3725
 6463SOL     OW30847   1.360   0.148   3.032  0.5175 -0.0687 -0.5951
 6463SOL    HW130848   1.365   0.056   3.008 -0.5722 -0.5560  1.0086
 6463SOL    HW230849   1.453   0.172   3.029  0.6112 -0.2293  0.9171
 6464SOL     OW30850   3.075   1.486  10.891  0.3599 -0.5921 -0.4383
 6464SOL    HW130851   3.126   1.444  10.821 -0.1495 -1.0258 -0.5488
 6464SOL    HW230852   3.067   1.576  10.861  0.8361 -0.6926 -0.8739
 6465SOL     OW30853   2.313   3.716   3.539 -0.3587 -0.0967 -0.0297
 6465SOL    HW130854   2.321   3.627   3.574  1.1393 -0.2933 -0.8306
 6465SOL    HW230855   2.240   3.701   3.479 -0.4765 -2.4945  0.6963
 6466SOL     OW30856   0.959   1.848  10.230  0.3869  0.1275  0.2196
 6466SOL    HW130857   1.023   1.778  10.243 -0.0236 -0.2966 -0.0393
 6466SOL    HW230858   1.024   1.917  10.246 -1.8675  2.1560  0.7635
 6467SOL     OW30859   0.530   2.333   7.140 -0.1881 -0.4962 -0.0923
 6467SOL    HW130860   0.463   2.363   7.202 -0.0063 -0.5153  0.1134
 6467SOL    HW230861   0.516   2.392   7.066  0.8194 -0.3517 -0.1659
 6468SOL     OW30862   2.474   1.327   7.991 -0.4332 -0.1127 -0.4208
 6468SOL    HW130863   2.487   1.382   7.913  1.7272 -1.6456 -1.1427
 6468SOL    HW230864   2.435   1.398   8.043  1.9361  0.7104  0.2384
 6469SOL     OW30865   2.228   1.481   9.424 -0.0101  0.6422  0.1689
 6469SOL    HW130866   2.268   1.468   9.510 -0.0893  0.8715  0.2413
 6469SOL    HW230867   2.215   1.575   9.436 -1.0327  0.3934  1.0194
 6470SOL     OW30868   2.517   2.988   5.254  0.1679  0.0986 -0.5928
 6470SOL    HW130869   2.528   3.051   5.183 -2.8081  0.0727 -1.0622
 6470SOL    HW230870   2.599   2.939   5.253 -1.6384 -2.9113 -2.6179
 6471SOL     OW30871   3.267   3.571   3.085  0.1941  0.2903  0.2351
 6471SOL    HW130872   3.206   3.497   3.082  1.9137 -1.0832 -0.5075
 6471SOL    HW230873   3.258   3.608   2.997  2.7554 -1.7681 -0.8913
 6472SOL     OW30874   0.551   1.154   7.582  0.3420  0.3212 -0.0703
 6472SOL    HW130875   0.604   1.154   7.661  0.4166  0.0859 -0.1207
 6472SOL    HW230876   0.470   1.196   7.610 -1.2523 -0.7101 -3.0549
 6473SOL     OW30877   1.717   4.640   2.748 -0.1069 -0.3447 -0.0716
 6473SOL    HW130878   1.653   4.629   2.818 -1.2205 -0.9208 -1.1800
 6473SOL    HW230879   1.679   4.589   2.677  0.9559  0.8421 -1.4923
 6474SOL     OW30880   4.668   3.524   5.712  0.7532 -0.0898 -0.8675
 6474SOL    HW130881   0.024   3.522   5.764  0.8898  1.5378 -1.0334
 6474SOL    HW230882   4.683   3.610   5.672 -2.1231  0.9742  0.4051
 6475SOL     OW30883   0.928   3.960   6.830 -0.3018 -0.3120 -0.0704
 6475SOL    HW130884   0.858   3.972   6.765 -0.1239  0.0494 -0.1918
 6475SOL    HW230885   0.919   4.032   6.891 -1.7709 -0.9823  0.4997
 6476SOL     OW30886   3.710   2.492  10.791 -0.5600  0.3050 -0.7396
 6476SOL    HW130887   3.647   2.495  10.720 -2.8610  2.6058  1.3857
 6476SOL    HW230888   3.657   2.542  10.853  1.5419  1.9675 -0.2476
 6477SOL     OW30889   0.184   1.747  10.007  0.2553 -0.0469 -1.0028
 6477SOL    HW130890   0.229   1.685  10.064 -0.5349 -0.2374 -0.5867
 6477SOL    HW230891   0.245   1.752   9.933  1.2371 -0.2174 -0.2044
 6478SOL     OW30892   3.888   0.563  13.027 -0.2293 -0.6074  0.6722
 6478SOL    HW130893   3.893   0.556  13.122 -0.7503  0.3780  0.7624
 6478SOL    HW230894   3.914   0.649  12.995  2.6441 -1.3486  0.9786
 6479SOL     OW30895   0.723   1.792  15.960  0.0333  0.5211  0.4117
 6479SOL    HW130896   0.819   1.797  15.954  0.0732 -1.3280 -0.5623
 6479SOL    HW230897   0.696   1.865  16.016  1.7004  0.5957  1.1493
 6480SOL     OW30898   1.894   2.107   7.620  0.1605 -0.5389 -0.6378
 6480SOL    HW130899   1.836   2.181   7.603  1.0679  0.3471  0.1497
 6480SOL    HW230900   1.955   2.150   7.680 -0.6353 -0.0399 -0.1889
 6481SOL     OW30901   3.662   3.659  10.755  0.2894  1.1136  0.5118
 6481SOL    HW130902   3.615   3.647  10.672  0.5542  1.4487  0.3134
 6481SOL    HW230903   3.598   3.677  10.824 -1.1883  1.2440 -0.8720
 6482SOL     OW30904   1.627   3.355  12.615  0.0546 -0.3538 -0.3509
 6482SOL    HW130905   1.709   3.405  12.617 -0.2969  0.2298 -0.3058
 6482SOL    HW230906   1.614   3.339  12.708 -4.3119  2.8352 -0.3864
 6483SOL     OW30907   2.786   2.161   9.319  0.1879  0.2849  1.3074
 6483SOL    HW130908   2.860   2.202   9.365 -1.2575  1.8228  2.2486
 6483SOL    HW230909   2.721   2.208   9.371 -2.2705 -0.0701 -1.4485
 6484SOL     OW30910   2.654   1.526   1.604 -0.4913 -0.5621 -0.3597
 6484SOL    HW130911   2.584   1.584   1.573 -1.0770 -1.3691 -0.5527
 6484SOL    HW230912   2.717   1.590   1.636 -3.2770  1.5925  0.8206
 6485SOL     OW30913   4.305   1.359  15.899  0.0440  0.2246 -0.2683
 6485SOL    HW130914   4.351   1.333  15.819  0.4148 -1.8141  0.6254
 6485SOL    HW230915   4.230   1.409  15.864  0.6099  0.0244 -1.7843
 6486SOL     OW30916   4.390   0.935  14.376 -0.0149  0.4668 -0.0565
 6486SOL    HW130917   4.313   0.889  14.344  1.7774 -0.9491 -2.3399
 6486SOL    HW230918   4.446   0.858  14.390  0.3444  0.3393 -2.0567
 6487SOL     OW30919   0.029   2.056  17.484  0.1997 -0.0794 -0.3602
 6487SOL    HW130920   0.017   1.962  17.487 -1.0022 -0.0249 -3.0391
 6487SOL    HW230921   0.039   2.068  17.578 -0.5390 -0.1809 -0.2672
 6488SOL     OW30922   3.352   2.332   2.188  0.3301 -0.0236  0.0343
 6488SOL    HW130923   3.391   2.260   2.139  0.5902 -0.1261  0.3884
 6488SOL    HW230924   3.390   2.306   2.272 -0.2697  0.2952  0.4121
 6489SOL     OW30925   1.358   1.439   5.560 -0.5117  0.3859  0.4194
 6489SOL    HW130926   1.343   1.519   5.610  0.9531  0.9944 -0.1163
 6489SOL    HW230927   1.380   1.386   5.637 -1.1739  0.3040  0.5526
 6490SOL     OW30928   0.369   2.886   6.401  0.1109  0.8710  0.2772
 6490SOL    HW130929   0.275   2.898   6.415  0.6753  1.5888  3.3868
 6490SOL    HW230930   0.369   2.870   6.306  1.9075  1.2589  0.2089
 6491SOL     OW30931   2.351   1.607   4.786  0.2276  0.1836 -0.1387
 6491SOL    HW130932   2.421   1.567   4.836  0.1139 -0.8216 -0.7767
 6491SOL    HW230933   2.270   1.583   4.831 -0.6353  1.0337 -1.2152
 6492SOL     OW30934   2.386   0.983  10.791 -0.3133  0.2057  0.1680
 6492SOL    HW130935   2.386   0.994  10.886  1.5262 -0.5788  0.2640
 6492SOL    HW230936   2.345   0.897  10.778  2.3080 -0.6936 -2.2926
 6493SOL     OW30937   4.392   1.896  11.879  0.0370  0.9832  0.5278
 6493SOL    HW130938   4.307   1.871  11.844 -0.2573  1.7525  0.7103
 6493SOL    HW230939   4.375   1.988  11.897  0.4785  1.5391 -1.8479
 6494SOL     OW30940   0.433   2.322   3.195  0.3332  0.5275 -0.0676
 6494SOL    HW130941   0.516   2.310   3.242  0.8668  2.7938 -0.4513
 6494SOL    HW230942   0.397   2.390   3.251 -2.9908 -1.0017 -0.3374
 6495SOL     OW30943   2.338   4.081   2.719  0.0448  0.4730 -0.3034
 6495SOL    HW130944   2.395   4.157   2.703  1.1329 -0.5973 -1.5730
 6495SOL    HW230945   2.378   4.042   2.797 -1.6068 -0.9658 -0.1812
 6496SOL     OW30946   4.676   3.437  15.153  0.2593  0.0737 -0.3331
 6496SOL    HW130947   4.670   3.478  15.066  1.4369 -1.3140 -1.0621
 6496SOL    HW230948   4.716   3.512  15.197  0.8105  0.3599 -1.3204
 6497SOL     OW30949   3.149   1.757   0.961  0.3264  0.2765 -0.8139
 6497SOL    HW130950   3.200   1.678   0.978 -1.0027 -0.2476  0.7594
 6497SOL    HW230951   3.165   1.805   1.043 -1.0621  1.1211 -1.0209
 6498SOL     OW30952   0.149   1.780   2.495  0.2525 -0.4774 -0.2851
 6498SOL    HW130953   0.221   1.800   2.435  1.5207  0.6521  1.5970
 6498SOL    HW230954   0.099   1.733   2.429 -1.8671  0.8098  0.4031
 6499SOL     OW30955   3.302   1.625   6.855 -0.1237  0.0003 -0.8792
 6499SOL    HW130956   3.272   1.605   6.766 -0.8897 -0.3337 -0.5417
 6499SOL    HW230957   3.289   1.546   6.906 -1.0764  0.3888 -0.5321
 6500SOL     OW30958   3.611   1.922   0.699 -0.2277 -0.7539 -0.6438
 6500SOL    HW130959   3.664   1.913   0.619  0.8217 -0.4375  0.0104
 6500SOL    HW230960   3.531   1.873   0.679 -0.8894 -0.1549  0.5629
 6501SOL     OW30961   1.015   2.096   6.676  0.1929  0.1655 -0.5551
 6501SOL    HW130962   0.995   2.168   6.735 -2.4039 -0.1187 -1.0925
 6501SOL    HW230963   0.950   2.105   6.606 -1.5981 -0.2161  1.0585
 6502SOL     OW30964   3.871   3.006   7.788  0.3536 -0.2107  0.2424
 6502SOL    HW130965   3.867   3.071   7.718 -1.1781 -0.3979  0.1555
 6502SOL    HW230966   3.909   3.064   7.855 -0.3930 -1.2216  1.5458
 6503SOL     OW30967   2.353   2.714   8.205  0.2806  0.1055 -0.4153
 6503SOL    HW130968   2.405   2.772   8.261  0.3277  1.5589 -1.9800
 6503SOL    HW230969   2.391   2.627   8.218 -0.6021 -0.0699  0.9873
 6504SOL     OW30970   1.151   3.676   0.854 -0.0250  0.0758  0.7175
 6504SOL    HW130971   1.176   3.723   0.933  0.4738  0.5393  0.2810
 6504SOL    HW230972   1.151   3.741   0.784 -0.2102  0.2906  0.9171
 6505SOL     OW30973   0.644   0.057  11.498  0.5538 -0.7761 -0.0103
 6505SOL    HW130974   0.677   0.142  11.468  0.6635 -0.7659  0.1339
 6505SOL    HW230975   0.731   0.018  11.496  1.0650  0.4308 -1.5762
 6506SOL     OW30976   2.430   2.312   7.506  0.4167  0.3184  0.1140
 6506SOL    HW130977   2.463   2.227   7.534 -0.0285 -0.1417 -0.7215
 6506SOL    HW230978   2.432   2.301   7.411  0.3558  0.6601  0.0732
 6507SOL     OW30979   0.397   1.581   3.315  0.2982  0.5505 -0.0371
 6507SOL    HW130980   0.364   1.629   3.238 -1.2358 -0.1987  0.1529
 6507SOL    HW230981   0.317   1.566   3.366 -0.2874  1.8342 -0.5799
 6508SOL     OW30982   2.337   2.296   9.027  0.2311 -0.5129  0.1773
 6508SOL    HW130983   2.242   2.296   9.040  0.3487 -1.3190  1.0093
 6508SOL    HW230984   2.364   2.373   9.076 -2.0284  2.2789 -2.9725
 6509SOL     OW30985   3.566   2.986  11.913  0.3904 -0.5297 -0.4454
 6509SOL    HW130986   3.529   2.938  11.839 -0.1631  0.4610 -0.8054
 6509SOL    HW230987   3.633   3.038  11.869  0.0989  0.8091  0.6712
 6510SOL     OW30988   1.217   1.241  12.829  0.3856  0.6324 -0.2165
 6510SOL    HW130989   1.304   1.202  12.822  0.3498  0.0782  2.4633
 6510SOL    HW230990   1.179   1.182  12.895  1.4171 -0.0607 -0.2435
 6511SOL     OW30991   0.636   4.580   4.524  0.3069  0.5990 -0.0076
 6511SOL    HW130992   0.707   4.585   4.588  0.9572 -2.1668 -0.5011
 6511SOL    HW230993   0.579   4.514   4.564 -0.5889  0.5363 -1.3851
 6512SOL     OW30994   3.650   0.307   1.061 -0.0446 -0.0136  0.5909
 6512SOL    HW130995   3.587   0.312   1.133 -1.1398  0.0174 -0.3657
 6512SOL    HW230996   3.723   0.362   1.088  1.8441 -1.7020 -1.0749
 6513SOL     OW30997   3.288   1.249   0.099  0.0465  0.1594 -0.0052
 6513SOL    HW130998   3.221   1.216   0.160  0.3912  0.0890  0.3341
 6513SOL    HW230999   3.265   1.342   0.096  2.0045  0.6026 -0.8007
 6514SOL     OW31000   0.359   1.540   6.585 -0.1645  0.2030 -0.3472
 6514SOL    HW131001   0.297   1.613   6.574 -0.3828  0.0306 -0.2457
 6514SOL    HW231002   0.369   1.502   6.498  0.5921 -0.8484  0.2175
 6515SOL     OW31003   1.532   2.424   5.271  0.1554  0.3076  0.2860
 6515SOL    HW131004   1.460   2.478   5.238 -0.6473  0.3841  2.1602
 6515SOL    HW231005   1.488   2.340   5.259  0.0206  0.2144  1.3696
 6516SOL     OW31006   1.713   1.757   2.173 -0.8946  0.0983 -0.0218
 6516SOL    HW131007   1.711   1.831   2.234  0.3827  0.0865  0.0416
 6516SOL    HW231008   1.795   1.718   2.202 -0.9982  1.5390  2.2030
 6517SOL     OW31009   3.012   3.005   7.325  0.3418  0.0019  0.3181
 6517SOL    HW131010   3.065   3.073   7.365  1.1514  0.2775 -1.2336
 6517SOL    HW231011   3.022   2.939   7.395  0.1765  1.5108  1.7573
 6518SOL     OW31012   0.505   1.364   7.024  0.0299  0.3458  0.4666
 6518SOL    HW131013   0.467   1.336   6.941 -2.0498 -2.5744  2.4419
 6518SOL    HW231014   0.445   1.332   7.090  0.6809 -1.6036  0.1163
 6519SOL     OW31015   0.106   3.394  14.609 -0.8406 -0.1287 -0.0708
 6519SOL    HW131016   0.126   3.413  14.701 -1.9115  1.1611 -0.0964
 6519SOL    HW231017   0.105   3.487  14.587 -0.4498 -0.4663 -1.5686
 6520SOL     OW31018   1.653   3.728  17.125 -0.5064 -0.2829  0.9059
 6520SOL    HW131019   1.635   3.634  17.132  1.6495 -0.6850  1.2254
 6520SOL    HW231020   1.587   3.760  17.186  0.6547  0.1308  1.9504
 6521SOL     OW31021   1.367   3.619  17.687  0.0234  0.1143 -0.4607
 6521SOL    HW131022   1.428   3.655   0.051 -0.2510  1.6872 -1.0880
 6521SOL    HW231023   1.350   3.537   0.033  0.2371  0.4029  0.1202
 6522SOL     OW31024   3.358   3.509  17.418  0.0533 -0.2631 -0.1878
 6522SOL    HW131025   3.309   3.427  17.421 -1.1884  0.5493  2.1929
 6522SOL    HW231026   3.373   3.534  17.510  2.0227 -0.1869 -0.5258
 6523SOL     OW31027   1.574   0.409   7.775 -0.4924 -0.0707 -0.0473
 6523SOL    HW131028   1.607   0.347   7.841 -0.0999 -1.8301 -1.9038
 6523SOL    HW231029   1.537   0.470   7.839 -1.5301  0.5691 -1.2658
 6524SOL     OW31030   0.407   4.048   2.642 -0.4165 -0.0512  0.1293
 6524SOL    HW131031   0.318   4.019   2.661 -0.5830  0.1878 -0.2805
 6524SOL    HW231032   0.394   4.127   2.590  0.5160  0.8808  1.3276
 6525SOL     OW31033   3.437   2.923   0.882 -0.1070  0.2463  0.1640
 6525SOL    HW131034   3.441   2.955   0.972  1.2014  2.0811 -0.5559
 6525SOL    HW231035   3.386   2.842   0.886 -1.5706  1.1932  0.6825
 6526SOL     OW31036   1.694   1.163   1.521 -0.2712 -0.3011  0.5422
 6526SOL    HW131037   1.634   1.235   1.504 -0.5121 -0.8380 -0.9434
 6526SOL    HW231038   1.735   1.160   1.434 -0.0937 -0.5206  0.6332
 6527SOL     OW31039   4.227   0.602   8.971 -0.6265  0.4549  0.2600
 6527SOL    HW131040   4.223   0.510   8.945  2.2610  0.2661  0.5346
 6527SOL    HW231041   4.164   0.638   8.908 -1.5840 -1.2633  0.2553
 6528SOL     OW31042   2.403   1.294   3.999  0.0169 -0.0142  0.5731
 6528SOL    HW131043   2.462   1.347   4.053 -1.3411 -0.3107  2.3725
 6528SOL    HW231044   2.440   1.213   4.033  0.8161  0.0143 -0.2362
 6529SOL     OW31045   2.301   4.123  11.573  0.2411  0.2080  0.0191
 6529SOL    HW131046   2.218   4.163  11.598 -0.5367 -1.4966  0.1903
 6529SOL    HW231047   2.291   4.125  11.477  1.8830  0.7462 -0.1564
 6530SOL     OW31048   2.646   4.612   2.428  0.4784 -0.6164  0.1829
 6530SOL    HW131049   2.577   4.550   2.404  0.4938 -0.3901 -0.4495
 6530SOL    HW231050   2.701   4.563   2.490 -0.2978 -0.8327  0.7128
 6531SOL     OW31051   1.889   3.962   7.500 -0.0555  0.1485 -0.3989
 6531SOL    HW131052   1.846   4.037   7.460 -2.2472 -0.8069  0.1864
 6531SOL    HW231053   1.982   3.984   7.495  0.3591 -1.2708  1.0772
 6532SOL     OW31054   4.105   4.583   1.245  0.2635  0.1583  0.1369
 6532SOL    HW131055   4.064   4.546   1.167 -0.0232  0.4490  0.1536
 6532SOL    HW231056   4.181   4.622   1.203  1.7781 -1.1010  1.7185
 6533SOL     OW31057   0.321   1.726   3.038 -0.0725 -0.4749 -0.1706
 6533SOL    HW131058   0.232   1.693   3.027 -0.4574  0.0775  1.1983
 6533SOL    HW231059   0.305   1.813   3.073  0.4036 -0.6389  0.4713
 6534SOL     OW31060   4.033   4.240   7.846 -0.3229  0.2695  0.1843
 6534SOL    HW131061   4.116   4.287   7.840  0.2806 -0.6595  1.2412
 6534SOL    HW231062   3.988   4.307   7.898 -0.2246  1.0165 -0.6919
 6535SOL     OW31063   1.693   1.250   1.119  0.1433  0.1093 -0.0973
 6535SOL    HW131064   1.771   1.213   1.160 -0.8486 -1.3246  0.4633
 6535SOL    HW231065   1.616   1.240   1.175 -0.3097  2.0926 -0.3521
 6536SOL     OW31066   1.589   3.624   4.051  0.2074  0.0292  0.5385
 6536SOL    HW131067   1.629   3.563   3.988 -1.0183 -0.3644  0.1400
 6536SOL    HW231068   1.653   3.618   4.122 -0.2569  1.0692  1.0452
 6537SOL     OW31069   4.688   0.237   7.210  0.4373 -0.1929  0.1364
 6537SOL    HW131070   4.600   0.223   7.244 -1.7571  2.1539 -4.5788
 6537SOL    HW231071   0.010   0.165   7.253  2.0341  0.7287 -0.0646
 6538SOL     OW31072   0.755   4.413   3.722  0.2621 -0.6436  0.1930
 6538SOL    HW131073   0.806   4.338   3.753  0.4357  0.2970  2.2288
 6538SOL    HW231074   0.821   4.446   3.661  0.7055 -1.5582  0.1803
 6539SOL     OW31075   0.918   1.299   0.974 -0.2708 -0.2623  0.0287
 6539SOL    HW131076   0.971   1.284   0.895  1.4374  1.4422  0.8616
 6539SOL    HW231077   0.944   1.221   1.024  1.6893  0.2081 -0.2417
 6540SOL     OW31078   3.163   0.250  11.811 -0.5940  0.2523  0.1096
 6540SOL    HW131079   3.250   0.256  11.850 -0.5562 -0.8276  0.2103
 6540SOL    HW231080   3.176   0.193  11.735 -0.0440  1.9115 -1.0426
 6541SOL     OW31081   1.489   2.294   7.601 -0.0859 -0.6330  0.2504
 6541SOL    HW131082   1.500   2.252   7.687 -0.2677 -1.9276 -0.3569
 6541SOL    HW231083   1.582   2.303   7.580 -0.0537  0.8270  1.0036
 6542SOL     OW31084   2.562   3.673   2.268 -0.1164  0.1290 -0.0923
 6542SOL    HW131085   2.604   3.587   2.262 -1.8501 -0.6794 -0.5982
 6542SOL    HW231086   2.639   3.724   2.241 -1.5448  0.8976 -2.7912
 6543SOL     OW31087   1.515   4.266   2.834  0.3608  0.3640  0.1607
 6543SOL    HW131088   1.566   4.262   2.915 -1.5606 -3.0591  1.2279
 6543SOL    HW231089   1.565   4.239   2.757  0.3451  1.5800 -0.2712
 6544SOL     OW31090   3.517   1.987   4.722  0.8312  0.2628 -0.3644
 6544SOL    HW131091   3.601   1.991   4.675  0.8170  2.4682 -0.1836
 6544SOL    HW231092   3.485   1.908   4.678  1.1863  0.9301 -1.8148
 6545SOL     OW31093   1.454   4.442   6.346  0.4856 -0.8010 -0.0853
 6545SOL    HW131094   1.501   4.435   6.263  0.9250 -1.5036  0.2187
 6545SOL    HW231095   1.378   4.386   6.334  0.8079 -0.7231 -2.6019
 6546SOL     OW31096   0.392   4.576   4.283  1.2108 -0.1740  0.4479
 6546SOL    HW131097   0.363   4.527   4.206  1.3120  0.8467 -0.2293
 6546SOL    HW231098   0.359   4.520   4.353  0.3336 -1.1966 -0.7831
 6547SOL     OW31099   2.775   0.758  16.934 -0.1361 -0.5671 -0.2618
 6547SOL    HW131100   2.789   0.850  16.955  4.4863 -1.3157  0.0013
 6547SOL    HW231101   2.841   0.746  16.866  0.9019 -0.9057  0.8149
 6548SOL     OW31102   0.204   0.605   6.559 -0.6164  0.5910 -0.1629
 6548SOL    HW131103   0.171   0.655   6.633 -2.1094 -0.8192  0.1055
 6548SOL    HW231104   0.172   0.519   6.586 -0.4050  0.6751  0.3551
 6549SOL     OW31105   0.913   0.414   1.197 -0.0828 -0.0051  0.4160
 6549SOL    HW131106   0.965   0.339   1.226 -2.3632 -1.2464  1.2708
 6549SOL    HW231107   0.831   0.370   1.176 -0.7957  1.2531  0.5806
 6550SOL     OW31108   3.676   0.354   0.453 -0.1266  0.0922  0.5860
 6550SOL    HW131109   3.738   0.298   0.501 -1.1155 -2.3228 -0.9433
 6550SOL    HW231110   3.657   0.420   0.519 -0.9214  2.1613 -1.7271
 6551SOL     OW31111   1.191   3.333   9.842  0.2376 -0.4935  0.1525
 6551SOL    HW131112   1.265   3.273   9.843 -1.0213 -2.0427  0.8063
 6551SOL    HW231113   1.225   3.406   9.790 -0.4829  1.4701  2.4152
 6552SOL     OW31114   1.810   1.268   6.492 -0.4648 -0.0578 -0.1788
 6552SOL    HW131115   1.825   1.332   6.561  0.1846  1.2686 -1.5445
 6552SOL    HW231116   1.844   1.188   6.531  1.7398  0.4568 -1.0677
 6553SOL     OW31117   4.493   2.642   4.094  0.1947  0.2509  0.5062
 6553SOL    HW131118   4.565   2.662   4.035  0.7484 -0.1991  1.0198
 6553SOL    HW231119   4.503   2.709   4.162 -1.5257 -1.0795  2.1047
 6554SOL     OW31120   4.499   1.896   4.249  0.1503  0.2732  0.0848
 6554SOL    HW131121   4.543   1.970   4.291  0.5704  1.3748 -2.2719
 6554SOL    HW231122   4.538   1.825   4.300  1.0248 -0.7957 -2.0501
 6555SOL     OW31123   2.209   3.298   2.782  0.7865  0.4656 -0.0020
 6555SOL    HW131124   2.164   3.233   2.727  0.3640 -1.3449  2.4719
 6555SOL    HW231125   2.251   3.240   2.846 -1.7448 -0.5773  0.7260
 6556SOL     OW31126   0.783   4.498   3.415  0.2483  0.4309 -0.0128
 6556SOL    HW131127   0.764   4.563   3.347 -0.7817 -1.3650 -1.4391
 6556SOL    HW231128   0.720   4.537   3.476 -1.4071 -0.9157 -0.8252
 6557SOL     OW31129   1.676   3.046  16.490 -0.2426  0.1468 -0.1262
 6557SOL    HW131130   1.639   3.011  16.409 -0.3496  0.1492 -0.0785
 6557SOL    HW231131   1.735   2.981  16.528  0.2542  1.5562  1.5184
 6558SOL     OW31132   0.220   3.471   8.810 -0.4597  0.9514 -0.2805
 6558SOL    HW131133   0.175   3.518   8.740 -1.0751  0.6248 -0.1128
 6558SOL    HW231134   0.176   3.502   8.889 -0.1110 -0.2171  0.3635
 6559SOL     OW31135   0.780   3.121   9.953  0.9530 -0.0914 -0.2418
 6559SOL    HW131136   0.823   3.205   9.968 -2.0912  1.7995 -2.1430
 6559SOL    HW231137   0.850   3.075   9.907  1.0941  0.4320 -0.5513
 6560SOL     OW31138   2.225   0.776  11.205 -0.2272 -0.1394  0.0556
 6560SOL    HW131139   2.236   0.831  11.128  1.6859  0.3602  0.6818
 6560SOL    HW231140   2.131   0.767  11.216 -0.1360 -0.9070  0.2224
 6561SOL     OW31141   2.212   3.804   0.731  0.0825  0.0836 -0.1458
 6561SOL    HW131142   2.304   3.792   0.709  0.3653 -0.4119  1.2961
 6561SOL    HW231143   2.224   3.796   0.826 -0.5563 -3.3270 -0.3648
 6562SOL     OW31144   1.412   0.727  11.468 -0.0088 -0.6159 -0.3494
 6562SOL    HW131145   1.435   0.742  11.559 -1.3307  1.8739 -0.4125
 6562SOL    HW231146   1.497   0.717  11.425  0.6297  0.0999  0.7662
 6563SOL     OW31147   3.384   1.219   8.565 -0.1024  0.2080  0.6596
 6563SOL    HW131148   3.300   1.261   8.548 -0.3412 -0.4029  0.3296
 6563SOL    HW231149   3.442   1.283   8.524 -0.6029 -1.0005 -1.9425
 6564SOL     OW31150   1.558   2.398  12.898  0.4418 -0.0354  0.2724
 6564SOL    HW131151   1.499   2.359  12.834  1.5451  0.2267 -0.8945
 6564SOL    HW231152   1.630   2.415  12.838  0.0311 -0.3096 -0.3049
 6565SOL     OW31153   3.945   1.745   4.303  0.1727 -0.3893  0.2733
 6565SOL    HW131154   3.901   1.829   4.294 -2.2437 -1.9361 -2.4767
 6565SOL    HW231155   3.903   1.690   4.237 -0.3132  0.6626 -0.2965
 6566SOL     OW31156   1.349   4.026   2.863 -0.2573 -0.1877 -0.2836
 6566SOL    HW131157   1.384   4.114   2.855  0.3261 -0.3499  0.5306
 6566SOL    HW231158   1.263   4.045   2.826 -0.9659  0.2799  1.6286
 6567SOL     OW31159   2.578   4.456   3.447 -0.0548  0.3557 -0.5700
 6567SOL    HW131160   2.584   4.501   3.532 -0.8181  1.5230 -1.1443
 6567SOL    HW231161   2.662   4.409   3.446 -0.4815 -0.4456  1.3333
 6568SOL     OW31162   3.186   4.428   2.522  0.5665  0.2178  0.1564
 6568SOL    HW131163   3.182   4.336   2.545 -2.6873 -0.2201 -2.2257
 6568SOL    HW231164   3.211   4.425   2.430 -1.7758 -1.5637 -0.4001
 6569SOL     OW31165   2.183   1.436  11.035 -0.2464  0.0186 -0.3802
 6569SOL    HW131166   2.126   1.512  11.025  0.5858  0.6613 -0.2084
 6569SOL    HW231167   2.223   1.461  11.118 -3.3300  0.1044  1.0720
 6570SOL     OW31168   2.016   0.076   5.686  0.1444  0.2582 -0.3476
 6570SOL    HW131169   1.928   0.073   5.722  0.3749 -1.8184  0.0319
 6570SOL    HW231170   2.015   0.157   5.635 -0.5586  0.6031  0.2279
 6571SOL     OW31171   0.822   0.819   7.004 -0.3998  0.4325  0.7930
 6571SOL    HW131172   0.758   0.882   6.972 -1.0529 -0.7970 -0.3161
 6571SOL    HW231173   0.778   0.782   7.081 -1.1496 -0.2199  0.0459
 6572SOL     OW31174   4.560   4.549   9.455 -0.5741  0.3364  0.4635
 6572SOL    HW131175   4.485   4.599   9.424 -1.1096 -2.0816 -2.1305
 6572SOL    HW231176   4.571   4.496   9.376 -0.4861  1.7168 -0.4571
 6573SOL     OW31177   3.869   1.089   4.531  0.1738 -0.0331 -0.0349
 6573SOL    HW131178   3.927   1.030   4.580  2.1786  1.6208 -0.4198
 6573SOL    HW231179   3.849   1.038   4.453  1.3883 -0.1125 -0.2898
 6574SOL     OW31180   2.886   2.092   4.654  0.0293  0.3207 -0.4665
 6574SOL    HW131181   2.958   2.042   4.616  0.0191  0.6111 -0.8805
 6574SOL    HW231182   2.933   2.124   4.731  0.4913  0.3516 -0.7601
 6575SOL     OW31183   0.918   0.724   5.753 -0.3433 -0.4430 -0.2100
 6575SOL    HW131184   0.880   0.798   5.706  1.5321 -0.3807 -1.6379
 6575SOL    HW231185   0.853   0.654   5.749 -4.0678  2.9498  1.5612
 6576SOL     OW31186   0.670   1.916   7.963  0.5259  1.0015 -0.0414
 6576SOL    HW131187   0.717   1.973   7.903  0.2062 -0.8621 -2.0773
 6576SOL    HW231188   0.577   1.932   7.948 -0.1097 -3.1633 -0.7321
 6577SOL     OW31189   0.306   1.181   5.484 -0.5091 -0.3340 -0.0207
 6577SOL    HW131190   0.293   1.181   5.389  2.0230  0.7799 -0.3819
 6577SOL    HW231191   0.264   1.106   5.525 -1.3259  0.0999 -0.0631
 6578SOL     OW31192   2.095   3.164   7.295  0.3282  0.1235 -0.4215
 6578SOL    HW131193   2.140   3.178   7.378 -0.0449  1.7008 -0.4751
 6578SOL    HW231194   2.024   3.102   7.310  0.3269  0.4032  0.7297
 6579SOL     OW31195   4.696   2.050   0.074  0.1130 -0.2581  0.3088
 6579SOL    HW131196   4.723   2.110   0.144  1.7051 -1.2600  0.5385
 6579SOL    HW231197   4.687   1.967   0.119  2.2317 -0.0572  1.1204
 6580SOL     OW31198   3.929   3.635  10.827  0.0516  0.2563  0.8443
 6580SOL    HW131199   3.948   3.551  10.787 -0.6044  1.1328 -1.2771
 6580SOL    HW231200   3.838   3.650  10.801 -0.6324 -0.6481  2.7149
 6581SOL     OW31201   3.677   2.691   3.358  0.6797  0.2311  0.1620
 6581SOL    HW131202   3.617   2.734   3.296 -0.1397  0.6095  1.2052
 6581SOL    HW231203   3.625   2.621   3.399  0.4342 -0.4766 -1.3808
 6582SOL     OW31204   0.127   0.684   7.462  0.2825 -0.1813  0.1744
 6582SOL    HW131205   0.054   0.729   7.504 -0.6097 -1.7332  0.3162
 6582SOL    HW231206   0.136   0.602   7.511  1.2170  0.2318  0.6850
 6583SOL     OW31207   1.446   0.671  11.002  0.4795  0.1788 -0.9054
 6583SOL    HW131208   1.375   0.653  11.064 -0.1401  0.7856 -1.4515
 6583SOL    HW231209   1.400   0.739  10.954  2.1720  1.7877 -0.2243
 6584SOL     OW31210   2.930   1.775   6.966  0.0997  0.6029  0.1955
 6584SOL    HW131211   3.016   1.765   7.008 -0.4672 -0.9984  0.9748
 6584SOL    HW231212   2.942   1.835   6.892  0.8032  0.7819  0.4541
 6585SOL     OW31213   2.807   1.736   1.665  0.0223  0.7159 -0.1980
 6585SOL    HW131214   2.903   1.736   1.665  0.0230  0.4315  0.5781
 6585SOL    HW231215   2.787   1.825   1.636  1.8800  0.7423 -1.4266
 6586SOL     OW31216   1.787   1.293   9.340  0.0638 -0.7243  0.8988
 6586SOL    HW131217   1.693   1.287   9.325  0.2435  1.5433 -1.1223
 6586SOL    HW231218   1.825   1.264   9.257 -3.0556 -0.3934 -0.6378
 6587SOL     OW31219   1.620   4.135   1.077 -0.6057 -0.3365  0.1921
 6587SOL    HW131220   1.534   4.177   1.071 -0.3559  0.3767  1.4498
 6587SOL    HW231221   1.639   4.083   0.999 -0.0634 -0.5569  0.4690
 6588SOL     OW31222   2.095   3.195   1.703 -0.7310  0.2334 -0.6134
 6588SOL    HW131223   2.080   3.110   1.745 -0.0084  1.2970  1.7770
 6588SOL    HW231224   2.063   3.162   1.619  0.1456  0.8103 -1.1757
 6589SOL     OW31225   0.625   0.534   6.427  0.0030  0.7946  0.3243
 6589SOL    HW131226   0.607   0.621   6.463  5.1925  2.2141 -0.5086
 6589SOL    HW231227   0.596   0.560   6.339 -0.2985 -2.4312 -0.5065
 6590SOL     OW31228   4.164   0.640   3.517 -0.4762 -0.2515 -0.1357
 6590SOL    HW131229   4.200   0.625   3.604  0.8825 -2.4496 -1.0758
 6590SOL    HW231230   4.080   0.593   3.517 -0.8704  0.4544  1.0281
 6591SOL     OW31231   1.707   0.424   7.535  0.4084 -0.1339 -0.0759
 6591SOL    HW131232   1.786   0.450   7.582  1.0036  0.2840 -1.2966
 6591SOL    HW231233   1.661   0.377   7.604 -1.1183  1.7090  0.1745
 6592SOL     OW31234   1.001   2.646   3.270 -0.2565  0.0485 -0.0960
 6592SOL    HW131235   1.027   2.676   3.183 -0.0928  1.7672  0.5401
 6592SOL    HW231236   0.949   2.569   3.248 -0.5126 -0.0373  0.8126
 6593SOL     OW31237   2.159   2.796   2.001  0.0660  0.2721 -0.3741
 6593SOL    HW131238   2.101   2.828   2.071  2.2877  2.9483  0.2324
 6593SOL    HW231239   2.157   2.702   2.016  1.6140  0.3538  0.3228
 6594SOL     OW31240   1.373   0.725   2.446  0.5647  0.8958  0.1402
 6594SOL    HW131241   1.399   0.817   2.441  2.6036  0.2226 -1.4122
 6594SOL    HW231242   1.459   0.686   2.435  0.3187  0.5709 -0.6471
 6595SOL     OW31243   0.930   1.149   1.751  0.1207  1.2567  0.0872
 6595SOL    HW131244   0.883   1.143   1.835  0.9099 -0.9146  0.3796
 6595SOL    HW231245   0.860   1.134   1.687  0.9623 -1.3262 -0.2567
 6596SOL     OW31246   3.803   4.299   8.741 -0.4498 -0.0543 -0.0389
 6596SOL    HW131247   3.847   4.215   8.734 -0.0927  0.0633  0.8451
 6596SOL    HW231248   3.719   4.267   8.773  0.1130  0.3304  1.8593
 6597SOL     OW31249   0.000   2.653   6.813 -0.0971  0.1210 -0.6202
 6597SOL    HW131250   0.043   2.567   6.805 -0.2844 -0.1602  1.3917
 6597SOL    HW231251   4.641   2.610   6.829 -1.4961  3.0910 -0.0248
 6598SOL     OW31252   3.425   2.871   4.782 -0.0393 -0.6120  0.3071
 6598SOL    HW131253   3.463   2.796   4.737 -2.5224 -0.1132 -2.6149
 6598SOL    HW231254   3.438   2.845   4.873  0.7064  1.0212  0.6696
 6599SOL     OW31255   2.160   1.016  14.554 -0.1115 -0.0302 -0.0379
 6599SOL    HW131256   2.198   0.935  14.522 -1.1243 -0.1453 -0.9490
 6599SOL    HW231257   2.081   0.976  14.590 -0.9931 -0.0328 -1.9443
 6600SOL     OW31258   4.230   2.719   3.806 -0.0547  0.2149  0.1619
 6600SOL    HW131259   4.236   2.632   3.767  1.0761  1.1712 -1.7571
 6600SOL    HW231260   4.151   2.758   3.769  0.7526  1.3875 -0.3100
 6601SOL     OW31261   3.808   0.062  10.005  0.4579  0.0771  0.3256
 6601SOL    HW131262   3.744   4.720   9.981  0.9156 -0.4735  0.6654
 6601SOL    HW231263   3.743   0.131  10.019 -0.2467  0.0496 -2.6392
 6602SOL     OW31264   0.328   0.108   4.393  0.6343 -0.5013 -0.9402
 6602SOL    HW131265   0.247   0.139   4.353  0.1329  1.3404  1.4733
 6602SOL    HW231266   0.331   0.022   4.351 -0.5803 -2.0871  2.2399
 6603SOL     OW31267   2.361   1.269   0.675  0.0215  0.0093  0.0569
 6603SOL    HW131268   2.322   1.193   0.717 -1.1161  1.2894  1.2865
 6603SOL    HW231269   2.301   1.277   0.601 -0.5239  3.6042  0.8699
 6604SOL     OW31270   1.656   3.558   8.308  0.0621 -0.2672  0.4675
 6604SOL    HW131271   1.740   3.519   8.333  0.1153  0.1241  0.8873
 6604SOL    HW231272   1.603   3.558   8.387  0.1474  1.3780  0.5239
 6605SOL     OW31273   2.842   2.243   3.290  0.2924  0.1739  0.5567
 6605SOL    HW131274   2.852   2.288   3.207  1.3619 -0.1479  0.5154
 6605SOL    HW231275   2.870   2.156   3.261  3.6629  1.6375 -0.5424
 6606SOL     OW31276   4.083   2.826  12.581 -0.1067 -0.3526 -0.0236
 6606SOL    HW131277   4.172   2.841  12.613 -0.6415  2.0011  0.3769
 6606SOL    HW231278   4.039   2.785  12.655  0.4717  3.1298  2.2531
 6607SOL     OW31279   4.562   0.064   2.802 -0.2034  0.0456  0.3812
 6607SOL    HW131280   4.577   0.129   2.870  0.4630 -0.5431  0.8047
 6607SOL    HW231281   4.491   0.009   2.835  1.3319 -2.0445  0.2468
 6608SOL     OW31282   2.217   2.930   3.619 -0.3231 -0.0519 -0.5763
 6608SOL    HW131283   2.264   2.872   3.560  1.4200  1.2658 -0.4855
 6608SOL    HW231284   2.277   2.923   3.694 -1.3220  0.0926  0.2410
 6609SOL     OW31285   3.050   3.469   2.816  0.2861  0.3279 -0.0455
 6609SOL    HW131286   3.029   3.380   2.841 -2.8051  0.8270 -0.8823
 6609SOL    HW231287   2.979   3.515   2.860 -0.7004 -2.8629  1.6654
 6610SOL     OW31288   3.187   2.637   6.997 -0.3184 -0.4010  0.1049
 6610SOL    HW131289   3.248   2.586   6.943 -0.4671  0.5617 -0.9795
 6610SOL    HW231290   3.156   2.562   7.048 -0.1041 -0.3419  0.3218
 6611SOL     OW31291   4.160   4.658   3.725  0.0247 -0.2318 -0.2012
 6611SOL    HW131292   4.149   4.710   3.645  2.1483  0.6246  0.0802
 6611SOL    HW231293   4.238   4.695   3.766 -0.5637 -1.2503  1.8481
 6612SOL     OW31294   4.091   3.337   0.756  0.0700  0.1222  0.0582
 6612SOL    HW131295   4.102   3.291   0.839 -1.9971 -0.8033 -0.1719
 6612SOL    HW231296   4.051   3.270   0.701  2.7025  0.3165 -2.1155
 6613SOL     OW31297   3.164   1.118  13.643 -0.6172 -0.0522 -0.0742
 6613SOL    HW131298   3.111   1.100  13.721 -2.5364 -1.3518 -1.6976
 6613SOL    HW231299   3.250   1.100  13.682 -0.6733  0.7809  0.4425
 6614SOL     OW31300   4.222   3.676  12.133  0.4361  0.4947 -0.0432
 6614SOL    HW131301   4.262   3.590  12.138  0.6326  0.5371 -0.7639
 6614SOL    HW231302   4.290   3.723  12.085 -0.4786  1.2776 -0.5916
 6615SOL     OW31303   3.991   2.183   8.886  0.1360 -0.0856  0.1838
 6615SOL    HW131304   4.031   2.194   8.972  2.3842  1.7973 -1.1292
 6615SOL    HW231305   3.995   2.088   8.874 -1.1394 -0.4975  2.8076
 6616SOL     OW31306   0.162   4.721   7.911  0.1077 -0.3273 -0.4049
 6616SOL    HW131307   0.215   4.684   7.981 -0.4068  1.4454  0.9243
 6616SOL    HW231308   0.133   0.071   7.964  0.1166 -1.8337  1.7282
 6617SOL     OW31309   0.306   3.511  10.354 -0.2503 -0.0560  0.8559
 6617SOL    HW131310   0.244   3.495  10.283 -0.8283  0.8389  1.1597
 6617SOL    HW231311   0.319   3.605  10.344 -0.4285 -0.2907 -1.6537
 6618SOL     OW31312   2.969   3.710   1.741  0.2497  0.2461  0.1510
 6618SOL    HW131313   2.964   3.633   1.686 -1.1619  0.4666 -0.0253
 6618SOL    HW231314   3.048   3.756   1.710  2.1731 -2.6453  0.7351
 6619SOL     OW31315   0.868   2.059   6.448  0.0597 -0.2199 -0.1866
 6619SOL    HW131316   0.840   2.116   6.376 -0.1098 -0.3967 -0.2613
 6619SOL    HW231317   0.786   2.016   6.474 -0.6628  0.8651 -0.6865
 6620SOL     OW31318   0.801   0.475   5.149  0.3843  0.2065 -0.2290
 6620SOL    HW131319   0.753   0.393   5.158  0.5212  0.0706 -0.7302
 6620SOL    HW231320   0.887   0.441   5.123 -0.1163  0.6954 -2.5326
 6621SOL     OW31321   2.607   0.098   1.179  0.2204 -0.0706  0.3925
 6621SOL    HW131322   2.675   0.050   1.132  0.2394  1.1172 -0.8009
 6621SOL    HW231323   2.664   0.150   1.236 -0.4090  0.3739  0.6165
 6622SOL     OW31324   3.970   0.972   3.197  0.5315 -0.0494 -0.0161
 6622SOL    HW131325   3.880   1.003   3.205  0.0315 -0.9605 -2.1758
 6622SOL    HW231326   4.011   1.058   3.184  0.5229 -0.2953 -1.6894
 6623SOL     OW31327   4.547   2.827  15.426  0.0475 -0.8402  0.1885
 6623SOL    HW131328   4.641   2.817  15.440 -0.4191 -3.1332  1.7934
 6623SOL    HW231329   4.517   2.816  15.516  1.7500  1.6656  1.0457
 6624SOL     OW31330   2.143   1.810  10.849  0.2252 -0.0397  0.1443
 6624SOL    HW131331   2.061   1.768  10.823  0.0014  0.0537  0.7080
 6624SOL    HW231332   2.105   1.898  10.862 -0.9870 -0.4902 -0.3234
 6625SOL     OW31333   4.315   4.432  11.202 -0.3760  0.1041 -0.5526
 6625SOL    HW131334   4.282   4.409  11.289 -0.6137  0.8923 -0.4322
 6625SOL    HW231335   4.251   4.496  11.170 -0.4600  1.2678  1.9985
 6626SOL     OW31336   4.533   0.718   5.437  0.4559  0.2934  0.3317
 6626SOL    HW131337   4.553   0.688   5.526  1.7822 -1.0246 -0.4112
 6626SOL    HW231338   4.554   0.811   5.444  1.6993 -0.1880  2.8364
 6627SOL     OW31339   1.968   0.789   9.068  0.0275  0.1498  0.4807
 6627SOL    HW131340   1.901   0.854   9.090 -0.2872  1.0718 -3.2197
 6627SOL    HW231341   2.039   0.851   9.082  1.5541 -1.6209  0.6021
 6628SOL     OW31342   2.891   2.375   6.250 -0.3069 -0.5620  0.1493
 6628SOL    HW131343   2.890   2.317   6.174  1.5596 -1.2787  0.6939
 6628SOL    HW231344   2.936   2.451   6.214  0.6471 -1.4188 -0.4406
 6629SOL     OW31345   3.245   1.780   4.604 -0.2819  0.3327 -0.3084
 6629SOL    HW131346   3.291   1.712   4.555 -2.6149 -0.8728 -0.8070
 6629SOL    HW231347   3.244   1.751   4.695 -2.1336  1.0158 -0.1264
 6630SOL     OW31348   1.727   0.711   7.158  0.2472 -0.2437  0.3956
 6630SOL    HW131349   1.745   0.674   7.071 -0.9397  0.3499 -0.1068
 6630SOL    HW231350   1.635   0.687   7.172  0.7615 -1.7772  1.1785
 6631SOL     OW31351   2.587   4.067  12.586  0.0973 -0.6330 -0.0855
 6631SOL    HW131352   2.524   4.090  12.517 -0.8688  2.0502  1.6889
 6631SOL    HW231353   2.529   4.022  12.648 -0.4503  1.8260  1.1908
 6632SOL     OW31354   4.723   1.802   8.599  0.3396  0.3882  0.0696
 6632SOL    HW131355   4.721   1.847   8.515 -1.3880  0.3768  0.0901
 6632SOL    HW231356   0.001   1.709   8.577 -1.2031  0.6272 -1.0974
 6633SOL     OW31357   2.288   3.732   2.979  0.2205  0.4335  0.6980
 6633SOL    HW131358   2.347   3.802   2.951 -0.0774  0.6838  0.7014
 6633SOL    HW231359   2.236   3.784   3.041  1.0053  0.1384  1.6091
 6634SOL     OW31360   4.540   3.360   6.599  0.1767  0.7394  0.3753
 6634SOL    HW131361   4.535   3.297   6.671 -0.3994  0.7137  0.3122
 6634SOL    HW231362   4.579   3.440   6.634 -0.8484  1.9629 -1.2696
 6635SOL     OW31363   4.258   2.474   4.632 -0.4710  0.0183 -0.3782
 6635SOL    HW131364   4.268   2.426   4.714 -0.0904 -0.2564 -0.5827
 6635SOL    HW231365   4.351   2.486   4.611 -0.0432  0.8250  2.0087
 6636SOL     OW31366   3.102   3.707   6.653  0.6051 -0.2018 -0.2820
 6636SOL    HW131367   3.080   3.619   6.621  0.9305 -0.5424  0.4317
 6636SOL    HW231368   3.126   3.692   6.745  0.1001 -0.3212 -0.1681
 6637SOL     OW31369   1.272   2.069  13.408  0.4774 -0.6891  0.4321
 6637SOL    HW131370   1.212   2.002  13.374  2.5679 -1.5669 -1.5330
 6637SOL    HW231371   1.250   2.133  13.341  0.5223 -0.9483  0.1688
 6638SOL     OW31372   3.872   3.896   7.617  0.1642 -0.3502  0.5053
 6638SOL    HW131373   3.809   3.930   7.680  0.7939  0.9472  0.4302
 6638SOL    HW231374   3.954   3.935   7.648  0.0495  0.5677 -0.3591
 6639SOL     OW31375   2.117   0.520   4.972 -0.1270 -0.2400 -0.3569
 6639SOL    HW131376   2.172   0.595   4.994  0.8654 -1.5083  1.4924
 6639SOL    HW231377   2.052   0.533   5.041  2.1783  0.7717  1.6405
 6640SOL     OW31378   4.613   4.701   6.421 -0.2975 -0.6513 -0.0511
 6640SOL    HW131379   4.538   0.021   6.460 -1.8833 -2.5874 -0.8662
 6640SOL    HW231380   4.611   0.013   6.333 -0.3043  0.7061  0.5133
 6641SOL     OW31381   3.972   2.849   3.877 -0.6739 -0.2217  0.0553
 6641SOL    HW131382   3.930   2.872   3.794 -0.9997 -0.5130  0.1392
 6641SOL    HW231383   3.922   2.904   3.939  0.4204 -1.1959  1.8042
 6642SOL     OW31384   0.555   3.270  15.734 -0.3488  0.3778 -0.0341
 6642SOL    HW131385   0.537   3.177  15.725  0.5413  0.2557 -0.5194
 6642SOL    HW231386   0.650   3.259  15.739 -0.3734 -0.7173 -2.2868
 6643SOL     OW31387   3.584   3.515  11.923 -0.0894 -0.2495  0.1097
 6643SOL    HW131388   3.623   3.450  11.865 -0.6612 -0.9326  0.4766
 6643SOL    HW231389   3.590   3.470  12.008  0.0608 -1.7753 -0.6985
 6644SOL     OW31390   2.553   1.384  10.412  0.3073 -0.4892  0.0333
 6644SOL    HW131391   2.469   1.412  10.377  0.8593 -0.7799 -1.5355
 6644SOL    HW231392   2.607   1.462  10.402  0.6421 -0.6459  0.6376
 6645SOL     OW31393   1.763   4.495   5.956  0.1567 -0.2500  0.1765
 6645SOL    HW131394   1.840   4.504   6.012 -0.2332 -1.4849  0.9265
 6645SOL    HW231395   1.744   4.401   5.965  0.7011 -0.6232 -2.8233
 6646SOL     OW31396   2.596   2.992   6.344 -0.1209 -0.4992 -0.5439
 6646SOL    HW131397   2.638   2.927   6.400  0.2124 -0.4779 -0.7687
 6646SOL    HW231398   2.539   3.043   6.401  1.3434  0.5539 -0.0206
 6647SOL     OW31399   4.386   2.702   7.196 -0.1695 -0.0264  0.5498
 6647SOL    HW131400   4.352   2.785   7.161  0.6471 -0.3230 -0.9473
 6647SOL    HW231401   4.474   2.733   7.217 -0.2453  0.7219 -0.2684
 6648SOL     OW31402   4.218   4.157   2.824 -0.2216 -0.1578  0.4535
 6648SOL    HW131403   4.233   4.066   2.851 -1.8540 -0.8566 -1.0477
 6648SOL    HW231404   4.197   4.153   2.731  0.9851  1.5635  0.1124
 6649SOL     OW31405   0.885   1.162  10.978 -0.3854  0.1903  0.0278
 6649SOL    HW131406   0.947   1.235  10.971  2.2001 -2.1695 -1.6780
 6649SOL    HW231407   0.912   1.122  11.060  0.7419  1.5549  0.3248
 6650SOL     OW31408   2.524   1.600   8.847  0.0637  0.1531 -0.1727
 6650SOL    HW131409   2.528   1.505   8.853 -1.4430 -0.1071 -3.3448
 6650SOL    HW231410   2.494   1.630   8.933 -0.0682 -0.2145 -0.0933
 6651SOL     OW31411   4.008   4.390   0.753  0.0426  0.0005  0.0736
 6651SOL    HW131412   3.914   4.408   0.743 -0.3149 -2.8152 -1.4513
 6651SOL    HW231413   4.033   4.416   0.664 -2.1897 -0.3942 -0.6674
 6652SOL     OW31414   4.236   1.252   5.665 -0.2823 -0.9762 -0.0783
 6652SOL    HW131415   4.304   1.262   5.598 -0.9127 -2.7692 -0.9759
 6652SOL    HW231416   4.161   1.219   5.617 -0.4531  2.5086 -2.1816
 6653SOL     OW31417   1.587   2.173   8.766  0.3034  0.2728 -0.3266
 6653SOL    HW131418   1.544   2.131   8.841 -2.6651  3.7279 -0.0423
 6653SOL    HW231419   1.673   2.133   8.766  0.6696  1.0507  0.1670
 6654SOL     OW31420   0.852   1.818   9.936 -0.3341  0.4653  0.4926
 6654SOL    HW131421   0.889   1.812  10.024 -0.9203  0.2076  0.7188
 6654SOL    HW231422   0.861   1.913   9.928  1.1650  0.2456 -0.4911
 6655SOL     OW31423   1.755   3.736   2.585  0.1001 -0.4572  0.1459
 6655SOL    HW131424   1.742   3.771   2.673  2.9861  1.1776 -0.0731
 6655SOL    HW231425   1.850   3.721   2.582  0.5808  3.0870 -3.3796
 6656SOL     OW31426   4.565   0.345   6.215 -0.4590 -0.1728  0.0133
 6656SOL    HW131427   4.518   0.396   6.281 -0.7876  1.6037 -1.6025
 6656SOL    HW231428   4.491   0.294   6.181 -2.8200  2.0024  1.8566
 6657SOL     OW31429   4.534   1.188  13.431  0.1646 -0.4384  0.1745
 6657SOL    HW131430   4.542   1.164  13.524 -0.1809  0.2237  0.3725
 6657SOL    HW231431   4.626   1.209  13.412 -0.2703  1.0971 -0.2014
 6658SOL     OW31432   3.401   1.959  14.290  0.0202 -0.6981 -0.1730
 6658SOL    HW131433   3.346   2.037  14.290  0.0240 -0.7039 -2.0514
 6658SOL    HW231434   3.329   1.896  14.285  0.3240 -1.1124  0.6830
 6659SOL     OW31435   4.299   4.651   4.665 -0.1216  0.7037 -0.1553
 6659SOL    HW131436   4.262   0.013   4.647 -0.2364  1.0018  1.4635
 6659SOL    HW231437   4.361   4.671   4.736 -1.6466  1.0227  1.0773
 6660SOL     OW31438   0.707   0.046   6.507 -0.7544  0.1238 -0.4053
 6660SOL    HW131439   0.621   0.062   6.546 -0.3925 -0.5788  0.6492
 6660SOL    HW231440   0.731   0.135   6.480  0.9570 -0.0028  0.7129
 6661SOL     OW31441   2.378   2.572   1.778  0.3695  0.4058 -0.1850
 6661SOL    HW131442   2.391   2.667   1.782  1.3281  0.2301  0.6209
 6661SOL    HW231443   2.320   2.572   1.701  0.3167 -0.7808 -0.1468
 6662SOL     OW31444   2.977   2.890   7.083 -0.2434  0.1210  0.1913
 6662SOL    HW131445   3.007   2.923   7.167 -1.7594 -0.1635  0.8493
 6662SOL    HW231446   2.928   2.967   7.053  0.7677  0.2328 -1.1936
 6663SOL     OW31447   3.182   2.649  12.761  0.2330  0.0737 -0.8433
 6663SOL    HW131448   3.186   2.554  12.759 -0.0088 -0.0029  1.5486
 6663SOL    HW231449   3.209   2.669  12.851  0.9400  0.2041 -1.0852
 6664SOL     OW31450   4.281   3.381   2.817 -0.5174 -0.2282 -0.7232
 6664SOL    HW131451   4.368   3.387   2.777  0.3133  0.2130  1.1897
 6664SOL    HW231452   4.225   3.364   2.741 -1.4044  0.1503 -0.1472
 6665SOL     OW31453   1.581   1.436   8.211  0.4896  0.1272  0.1703
 6665SOL    HW131454   1.641   1.375   8.169 -0.4014 -0.9734  0.5256
 6665SOL    HW231455   1.501   1.386   8.224 -0.6143  2.0892  1.0330
 6666SOL     OW31456   2.591   2.056   9.167  0.6962  0.0296  0.4468
 6666SOL    HW131457   2.653   2.086   9.233  0.1165  0.1410  0.9410
 6666SOL    HW231458   2.524   2.010   9.218  0.7395 -0.9683 -0.3773
 6667SOL     OW31459   3.312   1.300   9.488 -0.6837  0.5892 -0.3571
 6667SOL    HW131460   3.384   1.245   9.520  2.4926  3.7707 -2.0690
 6667SOL    HW231461   3.239   1.269   9.541 -1.0599  1.2777 -0.4816
 6668SOL     OW31462   1.690   0.473  14.274 -0.4879  0.3750  0.9206
 6668SOL    HW131463   1.642   0.483  14.356 -0.8300  1.1936  0.6093
 6668SOL    HW231464   1.777   0.505  14.295 -0.3705 -0.2756  1.4250
 6669SOL     OW31465   2.835   1.007   4.025  0.0100  0.3481 -0.4033
 6669SOL    HW131466   2.920   0.991   3.984 -0.0897 -2.3497  0.4828
 6669SOL    HW231467   2.852   1.060   4.102 -0.0430  0.0718 -0.2016
 6670SOL     OW31468   2.705   2.677   3.637 -0.7670 -0.0184 -0.9117
 6670SOL    HW131469   2.726   2.585   3.623  2.8539  0.5684  0.6455
 6670SOL    HW231470   2.722   2.681   3.731  0.2341  2.7515 -1.2072
 6671SOL     OW31471   0.221   0.839   6.186  0.0933 -0.6119  0.3259
 6671SOL    HW131472   0.169   0.917   6.165 -0.1056 -1.1939 -1.3638
 6671SOL    HW231473   0.312   0.857   6.163 -1.3522  3.5557 -2.2614
 6672SOL     OW31474   1.601   3.802   4.399  0.0422 -0.2258 -0.5286
 6672SOL    HW131475   1.649   3.740   4.345  0.0742 -0.2143 -0.5132
 6672SOL    HW231476   1.628   3.770   4.485  0.6613 -0.4751 -0.8158
 6673SOL     OW31477   0.146   4.328   7.534 -0.0422  0.2574 -0.1296
 6673SOL    HW131478   0.220   4.268   7.547  1.8100  1.6947 -3.8037
 6673SOL    HW231479   0.073   4.282   7.575  0.7574  0.8956  1.9845
 6674SOL     OW31480   2.409   2.495   6.712 -0.2171  0.0899  0.6598
 6674SOL    HW131481   2.316   2.505   6.692 -0.0049  1.5834  0.4007
 6674SOL    HW231482   2.445   2.567   6.660 -2.0928  0.2679 -0.4050
 6675SOL     OW31483   4.304   1.232   9.242  0.3506 -0.1085  0.3946
 6675SOL    HW131484   4.214   1.262   9.243  0.5764  0.4745  2.3273
 6675SOL    HW231485   4.293   1.145   9.203 -2.6728 -0.0319  1.1180
 6676SOL     OW31486   1.293   0.219   3.303 -0.1781  0.2118 -0.0106
 6676SOL    HW131487   1.331   0.165   3.235  1.7921  1.8503 -0.2284
 6676SOL    HW231488   1.316   0.175   3.385  0.2888  0.3149 -0.0849
 6677SOL     OW31489   0.924   3.678  13.893  0.1570  0.5138  0.2369
 6677SOL    HW131490   0.847   3.632  13.859  0.3750  1.2570 -1.2863
 6677SOL    HW231491   0.906   3.671  13.987 -0.8101  0.4354  0.0499
 6678SOL     OW31492   1.704   4.084   0.805 -0.5155  0.2572  0.5356
 6678SOL    HW131493   1.734   4.175   0.805  1.2359 -0.3168 -1.8459
 6678SOL    HW231494   1.785   4.033   0.808  0.5375  2.0165  2.3569
 6679SOL     OW31495   4.599   2.781  11.442  0.3244  0.0226  0.6930
 6679SOL    HW131496   4.557   2.867  11.439  1.5041  0.5290 -1.8488
 6679SOL    HW231497   4.600   2.769  11.347  0.8109  2.5414  0.3767
 6680SOL     OW31498   3.217   1.183  14.715  0.1235  1.0035 -0.7771
 6680SOL    HW131499   3.242   1.151  14.628 -0.0835  1.6606 -1.0698
 6680SOL    HW231500   3.149   1.247  14.699  0.2972  1.6402  1.0071
 6681SOL     OW31501   2.233   2.046   6.935  0.5053  0.1434  0.0118
 6681SOL    HW131502   2.229   2.094   7.018 -0.9704 -1.4136  0.8206
 6681SOL    HW231503   2.309   1.989   6.950  0.1517  0.1271  1.7914
 6682SOL     OW31504   1.420   1.658   8.388  0.0347 -0.0654 -0.1282
 6682SOL    HW131505   1.380   1.594   8.447  0.8202 -1.2630 -0.9092
 6682SOL    HW231506   1.508   1.661   8.427 -0.1295  0.8721  0.1811
 6683SOL     OW31507   0.774   3.622  15.726 -0.3269  0.1410  0.0511
 6683SOL    HW131508   0.786   3.712  15.756 -0.9993  0.0471  0.5858
 6683SOL    HW231509   0.850   3.613  15.668 -0.9481 -1.9217 -0.4516
 6684SOL     OW31510   1.286   0.039   5.498 -0.5117  0.2440  0.0454
 6684SOL    HW131511   1.236   0.108   5.454  1.1248  1.0804 -0.5120
 6684SOL    HW231512   1.349   4.723   5.438  0.1725  2.7633 -0.9255
 6685SOL     OW31513   0.394   1.584   9.123 -0.4823  0.2376  0.6187
 6685SOL    HW131514   0.341   1.663   9.133 -0.7743  0.4091 -2.2139
 6685SOL    HW231515   0.476   1.614   9.161 -0.9759 -2.1341  3.5672
 6686SOL     OW31516   3.187   2.634   5.120 -0.4741  0.0902 -0.2455
 6686SOL    HW131517   3.131   2.641   5.043 -2.1499 -0.0520  0.9492
 6686SOL    HW231518   3.165   2.545   5.148 -1.6852  0.3124 -0.4906
 6687SOL     OW31519   4.046   0.143  10.096 -0.1427  0.9531  0.3893
 6687SOL    HW131520   4.013   0.222  10.139  1.6878  2.0747 -0.2978
 6687SOL    HW231521   3.962   0.107  10.068  0.0494 -0.3996  1.5295
 6688SOL     OW31522   0.017   1.201   7.009  0.1403  0.1647 -0.0034
 6688SOL    HW131523   4.660   1.240   6.978 -1.2159 -2.0816  0.7548
 6688SOL    HW231524   0.054   1.271   7.064  0.3167  1.5014 -1.8191
 6689SOL     OW31525   0.981   4.718   2.901  0.4269  0.7486 -0.1066
 6689SOL    HW131526   1.029   4.693   2.822 -3.1281  0.6020 -2.2523
 6689SOL    HW231527   1.024   0.061   2.952  2.1329  0.9079 -1.7543
 6690SOL     OW31528   4.082   4.571   4.816 -0.1355 -0.5620 -0.6743
 6690SOL    HW131529   4.041   4.548   4.732 -1.2556 -0.1687 -0.2324
 6690SOL    HW231530   4.155   4.620   4.779  1.9311 -2.0740  1.4585
 6691SOL     OW31531   0.813   3.603   1.458  0.4593 -0.2264 -0.2365
 6691SOL    HW131532   0.733   3.586   1.507  0.4356 -0.5284 -0.3826
 6691SOL    HW231533   0.886   3.576   1.514  0.8323 -0.0394 -0.6271
 6692SOL     OW31534   4.509   4.061   9.158  0.8157 -0.1831 -0.0856
 6692SOL    HW131535   4.536   3.973   9.131 -0.0077 -0.6129  0.5148
 6692SOL    HW231536   4.436   4.034   9.213  0.8087  0.3505  0.1648
 6693SOL     OW31537   1.322   4.487   8.295 -0.3413 -0.0748  0.4045
 6693SOL    HW131538   1.417   4.487   8.285 -0.2973  0.4743  0.7842
 6693SOL    HW231539   1.304   4.394   8.306 -0.3828 -0.0032  0.9438
 6694SOL     OW31540   4.664   3.804   8.065 -0.5228  0.5006  0.5941
 6694SOL    HW131541   0.026   3.803   8.025  0.1551  4.0848  1.9626
 6694SOL    HW231542   4.649   3.711   8.082  0.2517 -0.0097 -1.5880
 6695SOL     OW31543   2.182   1.701   1.214  0.5691 -0.4262 -0.1312
 6695SOL    HW131544   2.090   1.729   1.217  1.5870  3.0637 -1.2242
 6695SOL    HW231545   2.230   1.779   1.241  2.5755 -2.1221  1.1870
 6696SOL     OW31546   2.724   1.292  12.996 -0.4660  0.1403  0.6889
 6696SOL    HW131547   2.783   1.359  12.963 -0.8082  0.1417  0.0791
 6696SOL    HW231548   2.789   1.238  13.040  1.0656 -0.9711 -2.8978
 6697SOL     OW31549   0.567   3.405   9.758  0.4951  0.4582 -0.3565
 6697SOL    HW131550   0.648   3.445   9.791  1.3121 -0.0295 -1.7682
 6697SOL    HW231551   0.514   3.426   9.834  2.2766  1.9546  0.4808
 6698SOL     OW31552   3.930   2.550   5.851  0.2621  0.0278 -0.0084
 6698SOL    HW131553   4.025   2.560   5.848  0.2539 -0.2000 -1.0670
 6698SOL    HW231554   3.920   2.473   5.908 -1.3570 -0.2060 -0.5887
 6699SOL     OW31555   3.019   3.422   0.163 -0.1401  0.6605  0.0536
 6699SOL    HW131556   2.993   3.332   0.143 -0.0937  1.1174 -2.1076
 6699SOL    HW231557   3.107   3.418   0.125 -0.4177 -0.8370 -0.4273
 6700SOL     OW31558   1.111   2.038   9.278 -0.1833  0.2678 -0.3914
 6700SOL    HW131559   1.131   2.034   9.371 -0.7764 -0.3354 -0.2896
 6700SOL    HW231560   1.021   2.004   9.281  0.6715 -1.8188  1.1172
 6701SOL     OW31561   1.997   3.775   4.320  0.4305 -0.4079 -0.6111
 6701SOL    HW131562   1.946   3.694   4.311  1.4484 -1.3020  1.5764
 6701SOL    HW231563   2.052   3.753   4.395 -0.8030 -0.7905  0.1788
 6702SOL     OW31564   0.899   0.466   3.757 -0.0453 -0.0559  0.0487
 6702SOL    HW131565   0.897   0.403   3.685  0.5690  0.6457 -0.5736
 6702SOL    HW231566   0.964   0.427   3.815 -0.6121 -0.9063  0.1198
 6703SOL     OW31567   2.991   2.737   9.434 -0.1571 -0.2558 -0.4858
 6703SOL    HW131568   2.897   2.718   9.438 -0.0928 -0.6596 -0.9759
 6703SOL    HW231569   3.016   2.652   9.469  0.7307 -0.2280 -1.0562
 6704SOL     OW31570   3.350   2.074   4.927 -0.0416  0.2583  0.0407
 6704SOL    HW131571   3.409   2.026   4.870 -1.2380 -0.5489 -0.5350
 6704SOL    HW231572   3.319   2.136   4.861 -1.5214 -0.9584 -0.3941
 6705SOL     OW31573   0.684   3.149  10.327 -0.3242 -0.1458  0.6009
 6705SOL    HW131574   0.630   3.203  10.384 -2.4303  0.6060 -2.1060
 6705SOL    HW231575   0.759   3.208  10.317 -1.1898  1.7495  5.4764
 6706SOL     OW31576   2.694   1.048  13.309  0.3200 -0.0282 -0.4907
 6706SOL    HW131577   2.625   1.058  13.243  2.7846 -1.5371 -3.2872
 6706SOL    HW231578   2.683   1.121  13.370 -2.0998 -0.3111 -0.5854
 6707SOL     OW31579   0.068   2.448   3.922 -0.0161  0.1040  0.5339
 6707SOL    HW131580   0.036   2.419   4.008  1.2217  1.7280  1.5335
 6707SOL    HW231581   0.036   2.538   3.920  0.8845  0.4386  1.1559
 6708SOL     OW31582   1.714   0.664   3.438 -0.0784  0.1982 -0.0598
 6708SOL    HW131583   1.652   0.614   3.385  0.5902  0.9905 -1.5892
 6708SOL    HW231584   1.669   0.746   3.454  1.6892  1.8162 -3.4246
 6709SOL     OW31585   2.790   1.263   8.052 -0.4025 -0.4163  0.7751
 6709SOL    HW131586   2.763   1.247   7.962 -0.0956  0.4296  0.5347
 6709SOL    HW231587   2.754   1.349   8.074  1.0192  0.4087 -0.0861
 6710SOL     OW31588   0.456   1.105   5.793 -0.8546 -0.4040  0.3437
 6710SOL    HW131589   0.387   1.172   5.789  0.4818  0.7640 -2.7233
 6710SOL    HW231590   0.532   1.153   5.762  0.4626 -1.8548  1.3465
 6711SOL     OW31591   2.227   2.611   4.808  0.6358  0.3888  0.0981
 6711SOL    HW131592   2.187   2.524   4.804  0.3172  0.6834 -2.6991
 6711SOL    HW231593   2.257   2.617   4.899  0.3428  1.2035  0.1457
 6712SOL     OW31594   0.179   0.580   6.224 -0.6828  0.0063  0.2137
 6712SOL    HW131595   0.137   0.543   6.147 -2.8054  0.2853  1.2375
 6712SOL    HW231596   0.184   0.673   6.204 -0.2542  0.7149  3.6568
 6713SOL     OW31597   2.060   1.442   7.075  0.2447 -0.3385  0.2252
 6713SOL    HW131598   2.122   1.379   7.111  1.7430  0.6360 -0.6717
 6713SOL    HW231599   2.117   1.464   7.001 -0.5454  1.1034  0.0343
 6714SOL     OW31600   0.776   4.343  13.649  0.0292 -0.2057  0.8800
 6714SOL    HW131601   0.683   4.364  13.640 -0.0829 -0.5670  1.1677
 6714SOL    HW231602   0.804   4.392  13.727 -0.1351  1.0477  0.1467
 6715SOL     OW31603   1.263   4.193   8.071  0.8067  1.0627 -0.1403
 6715SOL    HW131604   1.348   4.154   8.090 -0.0221 -0.3263  0.7076
 6715SOL    HW231605   1.246   4.237   8.155 -1.5449  0.0266 -0.0547
 6716SOL     OW31606   4.424   2.907  17.044 -0.0458  0.4553 -0.3371
 6716SOL    HW131607   4.519   2.916  17.032 -0.2447  0.4808 -1.8912
 6716SOL    HW231608   4.409   2.887  16.952  1.2767  0.1988 -0.4941
 6717SOL     OW31609   2.925   3.836   9.141 -0.0541  0.6682 -0.2800
 6717SOL    HW131610   2.854   3.810   9.201  1.2181 -3.3073 -0.4970
 6717SOL    HW231611   2.977   3.892   9.198 -1.6276  0.4142  1.4178
 6718SOL     OW31612   1.522   4.468   6.086  0.2635 -0.6481 -0.3453
 6718SOL    HW131613   1.513   4.535   6.018  0.1037  1.0552  1.3431
 6718SOL    HW231614   1.614   4.450   6.070  0.5593  0.5570  0.0588
 6719SOL     OW31615   0.564   2.500  16.761  0.4579 -0.0259  0.3476
 6719SOL    HW131616   0.497   2.549  16.713  0.1506 -0.1283  0.6696
 6719SOL    HW231617   0.623   2.480  16.689  0.7234  0.8277  0.3251
 6720SOL     OW31618   2.285   2.490   1.533  0.3831  0.2244 -0.0485
 6720SOL    HW131619   2.252   2.556   1.471 -0.7992  0.9257  1.3178
 6720SOL    HW231620   2.341   2.432   1.482  1.2907 -0.3593  1.6341
 6721SOL     OW31621   3.939   3.468  12.284 -0.2645  0.3030 -0.6002
 6721SOL    HW131622   3.866   3.480  12.345 -0.4487 -0.9555 -0.5704
 6721SOL    HW231623   3.958   3.376  12.300 -0.3548  0.6229  1.4121
 6722SOL     OW31624   3.529   4.269   1.747 -0.4269 -0.5941 -0.6463
 6722SOL    HW131625   3.564   4.355   1.724 -1.1091  0.2278  1.4004
 6722SOL    HW231626   3.480   4.297   1.824  0.6005 -0.1258 -0.1745
 6723SOL     OW31627   4.540   0.337  15.779  0.5706  0.1133  0.1066
 6723SOL    HW131628   4.470   0.279  15.806 -0.5248  0.9063 -1.0294
 6723SOL    HW231629   4.592   0.338  15.859 -0.7124  2.6932  0.9143
 6724SOL     OW31630   1.428   3.272   4.836 -0.4866  0.4635  0.1764
 6724SOL    HW131631   1.456   3.335   4.902  0.2426 -3.4231  3.5792
 6724SOL    HW231632   1.374   3.321   4.774 -1.4966  1.7097  2.0513
 6725SOL     OW31633   4.349   1.938   0.268  0.1940  0.3020 -0.0249
 6725SOL    HW131634   4.300   1.947   0.186 -0.0594  1.1389  0.2251
 6725SOL    HW231635   4.380   2.028   0.278 -0.1585  0.2921  1.0722
 6726SOL     OW31636   2.518   0.385   1.948 -0.5830 -0.0590 -0.1160
 6726SOL    HW131637   2.424   0.404   1.957 -0.6738 -0.7012  0.2729
 6726SOL    HW231638   2.551   0.452   1.887  0.5468 -0.5696 -0.0543
 6727SOL     OW31639   2.313   0.635  13.670  0.3823 -0.3691  0.0731
 6727SOL    HW131640   2.227   0.666  13.699  1.3685  2.0045  0.5119
 6727SOL    HW231641   2.302   0.543  13.646  0.7925 -1.1421  2.7548
 6728SOL     OW31642   3.400   1.102   2.010 -0.0281  0.1075  0.0993
 6728SOL    HW131643   3.423   1.190   1.983  1.6722 -0.1425  0.7259
 6728SOL    HW231644   3.467   1.080   2.074 -0.5531  2.0602  1.3170
 6729SOL     OW31645   2.256   2.360   5.997 -0.4747  0.3461  0.2112
 6729SOL    HW131646   2.342   2.349   6.037 -0.4155 -0.8360 -0.2206
 6729SOL    HW231647   2.220   2.281   6.038  1.1719 -0.4299  0.1353
 6730SOL     OW31648   2.183   4.154   7.598 -0.4892  0.4434  0.2667
 6730SOL    HW131649   2.237   4.192   7.529  0.6619 -1.1484  0.2887
 6730SOL    HW231650   2.250   4.105   7.645  0.6037  0.2153 -1.5311
 6731SOL     OW31651   2.217   0.114   7.397  0.0184  0.4221 -0.3053
 6731SOL    HW131652   2.177   0.044   7.448  0.1550  0.0643 -0.6848
 6731SOL    HW231653   2.255   0.177   7.458  1.3336 -0.7005  0.0340
 6732SOL     OW31654   3.890   1.822   1.179  0.3566  0.0636  0.6680
 6732SOL    HW131655   3.905   1.895   1.238 -1.9668  0.3161  0.9435
 6732SOL    HW231656   3.814   1.775   1.213  0.0638 -0.2906 -0.4708
 6733SOL     OW31657   3.442   1.273   6.402  0.4466  0.0892 -0.2416
 6733SOL    HW131658   3.518   1.314   6.362 -0.6758  2.1646 -0.2190
 6733SOL    HW231659   3.424   1.198   6.345  0.0998 -0.7021  0.8966
 6734SOL     OW31660   4.510   0.760   2.058 -0.2187 -0.0885  0.1560
 6734SOL    HW131661   4.455   0.682   2.062 -1.0637  0.5730  1.4141
 6734SOL    HW231662   4.585   0.750   1.999  0.1638 -4.4059  1.3872
 6735SOL     OW31663   4.378   3.544  13.053 -0.1279  0.6337 -0.1263
 6735SOL    HW131664   4.323   3.524  12.978  1.3534 -2.5984 -0.3427
 6735SOL    HW231665   4.458   3.508  13.016  0.0997  0.3987  0.5927
 6736SOL     OW31666   3.740   3.404   7.380  0.6801 -1.2706 -0.7647
 6736SOL    HW131667   3.679   3.425   7.452 -0.9266  0.8957 -2.7727
 6736SOL    HW231668   3.753   3.493   7.349  0.3243 -1.6281 -1.9185
 6737SOL     OW31669   0.168   2.790  15.970 -0.1054 -0.2537 -0.0225
 6737SOL    HW131670   0.095   2.851  15.959 -1.0943 -1.2523  1.1284
 6737SOL    HW231671   0.226   2.840  16.028  1.0412 -1.1266 -0.4237
 6738SOL     OW31672   0.774   3.774  11.642 -0.0298  0.3553  0.2768
 6738SOL    HW131673   0.769   3.746  11.551 -1.0288  3.8742 -0.7445
 6738SOL    HW231674   0.862   3.740  11.656 -0.6290 -0.9906  0.8391
 6739SOL     OW31675   0.315   4.685   8.131  0.4406 -0.3604 -0.0579
 6739SOL    HW131676   0.358   0.027   8.077  0.3328  0.2702  0.6382
 6739SOL    HW231677   0.375   4.687   8.205 -0.0147  0.3316  0.2854
 6740SOL     OW31678   1.936   1.267   1.639  0.5135 -0.1368  0.4387
 6740SOL    HW131679   1.862   1.228   1.591  0.1095 -0.0814  1.0097
 6740SOL    HW231680   1.982   1.314   1.570  0.1688 -1.5134 -0.7411
 6741SOL     OW31681   3.441   3.197   6.919 -0.3279  0.3788 -0.3130
 6741SOL    HW131682   3.535   3.213   6.912  0.0274 -1.1885  0.9136
 6741SOL    HW231683   3.402   3.257   6.982 -0.0345  2.2064 -1.8801
 6742SOL     OW31684   3.257   1.272  15.934 -0.4877 -0.2625 -0.1477
 6742SOL    HW131685   3.311   1.322  15.996 -1.7018 -0.1431  0.8218
 6742SOL    HW231686   3.181   1.331  15.926  0.1082  0.5039 -0.1544
 6743SOL     OW31687   1.800   3.742   3.778  1.1894 -0.1115 -0.1351
 6743SOL    HW131688   1.856   3.817   3.800  2.5489 -1.0068 -0.5168
 6743SOL    HW231689   1.717   3.776   3.809  1.0669 -2.0970  1.7292
 6744SOL     OW31690   2.776   0.012   7.776 -0.0618 -0.7078  0.9480
 6744SOL    HW131691   2.805   4.713   7.864  2.5640 -1.3051 -0.0786
 6744SOL    HW231692   2.853   0.008   7.719 -1.6254 -1.6495 -1.1109
 6745SOL     OW31693   1.902   0.313  10.926 -0.0031  0.1663  0.0790
 6745SOL    HW131694   1.844   0.329  10.852 -2.0186 -1.3742  1.3271
 6745SOL    HW231695   1.880   0.390  10.979  2.1478 -0.4885  1.9152
 6746SOL     OW31696   1.808   0.834   4.478 -0.3765  0.1930 -0.1034
 6746SOL    HW131697   1.890   0.809   4.521 -0.6345  1.9982  1.4313
 6746SOL    HW231698   1.742   0.855   4.543 -0.4718  1.1853 -0.5200
 6747SOL     OW31699   1.061   2.851   7.831  0.1547 -0.0841  0.0030
 6747SOL    HW131700   0.992   2.791   7.860 -0.8711  0.5039 -1.1733
 6747SOL    HW231701   1.129   2.847   7.898 -0.6599 -0.3868  0.8136
 6748SOL     OW31702   1.287   1.234  15.848 -0.1100  0.3104  0.1108
 6748SOL    HW131703   1.257   1.162  15.903 -0.9189 -0.8087 -1.8098
 6748SOL    HW231704   1.362   1.262  15.901  0.5067 -0.1222 -0.5377
 6749SOL     OW31705   0.512   1.383  11.832  0.5911  0.2410 -0.5857
 6749SOL    HW131706   0.558   1.306  11.798  1.8196  0.3808  0.7497
 6749SOL    HW231707   0.487   1.355  11.920 -0.3022  0.3875 -0.7983
 6750SOL     OW31708   2.805   4.505   5.091 -0.2099 -0.4402 -0.1042
 6750SOL    HW131709   2.841   4.421   5.119  0.9051  0.1626  0.2865
 6750SOL    HW231710   2.850   4.570   5.145 -2.1830  1.6231 -0.9184
 6751SOL     OW31711   1.008   1.338  11.485 -0.3626 -0.3187  0.4346
 6751SOL    HW131712   1.013   1.244  11.502 -1.4634 -0.2911  0.8877
 6751SOL    HW231713   0.921   1.363  11.515 -0.7621 -1.4394  0.2073
 6752SOL     OW31714   0.878   4.245  11.359  0.2804  0.1686 -0.3561
 6752SOL    HW131715   0.897   4.203  11.443  0.3390  1.4556  0.2639
 6752SOL    HW231716   0.965   4.278  11.337  1.0432 -0.7409  1.3009
 6753SOL     OW31717   2.985   2.190   2.892 -0.5716  0.5897  0.5279
 6753SOL    HW131718   3.053   2.244   2.851 -0.1554 -0.4636 -0.1600
 6753SOL    HW231719   2.943   2.264   2.935 -0.3289  0.3308  1.2001
 6754SOL     OW31720   1.222   4.092   0.886 -0.3265 -0.2646 -0.3099
 6754SOL    HW131721   1.147   4.147   0.864  0.6175  0.7758 -0.9037
 6754SOL    HW231722   1.280   4.159   0.922  1.0052 -0.6744 -1.6989
 6755SOL     OW31723   2.724   2.407   8.295  0.3497  0.3901 -0.1677
 6755SOL    HW131724   2.642   2.379   8.256 -0.9977  2.3559  1.2498
 6755SOL    HW231725   2.753   2.465   8.225  1.1051 -0.2132 -0.3478
 6756SOL     OW31726   4.336   0.890   7.014  0.1106  0.2659 -0.1822
 6756SOL    HW131727   4.411   0.834   7.033 -0.6339 -2.0634 -3.9056
 6756SOL    HW231728   4.278   0.879   7.089  0.7417 -0.1270  0.2379
 6757SOL     OW31729   2.799   4.133  11.450  0.8010 -0.0201 -0.8679
 6757SOL    HW131730   2.786   4.228  11.445 -1.1391 -0.1400  2.1664
 6757SOL    HW231731   2.706   4.111  11.454  1.0722 -0.5354  2.3874
 6758SOL     OW31732   4.326   4.257   7.847  0.1884 -0.2314  0.0797
 6758SOL    HW131733   4.394   4.298   7.899 -0.2142  0.8931 -0.2916
 6758SOL    HW231734   4.357   4.281   7.760  1.1296 -0.7448  0.2789
 6759SOL     OW31735   3.595   2.651   9.963 -0.5482 -0.0094 -0.3761
 6759SOL    HW131736   3.685   2.629   9.987  0.0613  1.4237 -1.4316
 6759SOL    HW231737   3.559   2.686  10.045 -0.5691 -2.7861  0.8127
 6760SOL     OW31738   2.344   2.614   0.936  0.0826 -0.2226 -0.1225
 6760SOL    HW131739   2.341   2.646   1.027  1.3475 -0.3633 -0.0298
 6760SOL    HW231740   2.289   2.680   0.894  0.7744  1.3446  1.4120
 6761SOL     OW31741   4.235   1.180   1.836 -0.1762  0.1461  0.6433
 6761SOL    HW131742   4.309   1.137   1.793 -1.8891  0.2892 -2.3964
 6761SOL    HW231743   4.220   1.264   1.794  2.1443 -0.1841 -0.8699
 6762SOL     OW31744   1.269   4.542  11.564  0.6107  0.0361  0.2546
 6762SOL    HW131745   1.303   4.519  11.478 -1.9795  0.6772 -0.9439
 6762SOL    HW231746   1.299   4.632  11.576 -1.9028  0.5855  2.4720
 6763SOL     OW31747   0.890   1.523   8.959  0.5315  0.6059 -0.5211
 6763SOL    HW131748   0.871   1.616   8.946  1.7194  0.8443 -0.5691
 6763SOL    HW231749   0.952   1.530   9.032  0.1032 -0.2045 -0.0741
 6764SOL     OW31750   1.032   0.872   4.752  0.5599  0.1751  0.4786
 6764SOL    HW131751   0.990   0.895   4.834  3.7387 -0.6161  2.3255
 6764SOL    HW231752   1.105   0.818   4.783  1.4693 -0.0693 -2.0273
 6765SOL     OW31753   2.549   3.611  12.404  0.6090  0.2498 -0.2354
 6765SOL    HW131754   2.638   3.640  12.422  1.3069 -1.3849 -0.9947
 6765SOL    HW231755   2.494   3.689  12.408 -0.9366 -0.8719  0.4368
 6766SOL     OW31756   3.542   0.823  11.408  0.0313 -0.5869 -0.1876
 6766SOL    HW131757   3.611   0.769  11.447  1.1746  0.2855 -0.9771
 6766SOL    HW231758   3.550   0.800  11.316  0.8322 -0.9099 -0.0405
 6767SOL     OW31759   1.982   0.490   7.599  0.1828  0.3612  0.1987
 6767SOL    HW131760   2.065   0.535   7.616  0.4133 -0.2997  0.8396
 6767SOL    HW231761   1.998   0.399   7.622 -1.6987  0.0966  0.4697
 6768SOL     OW31762   3.005   1.257   8.218 -0.2206 -0.2192  0.0382
 6768SOL    HW131763   2.980   1.338   8.263 -0.0616 -0.4036  0.4618
 6768SOL    HW231764   2.916   1.224   8.208 -0.5248  0.2257  1.2542
 6769SOL     OW31765   1.174   2.038   5.021 -0.0901  0.6833  0.4203
 6769SOL    HW131766   1.078   2.041   5.012  0.0415  1.7684 -0.5726
 6769SOL    HW231767   1.199   2.000   4.937  3.8210  2.5469  0.7659
 6770SOL     OW31768   1.784   4.686   7.174  0.5849 -0.0735 -0.1518
 6770SOL    HW131769   1.765   0.006   7.257 -0.2752  0.5909 -0.7008
 6770SOL    HW231770   1.697   4.646   7.171  0.1703  0.7248  0.9492
 6771SOL     OW31771   0.437   2.402   2.229  0.7943 -0.1479  0.5422
 6771SOL    HW131772   0.393   2.321   2.255  0.6399 -0.7768 -1.7179
 6771SOL    HW231773   0.409   2.456   2.303 -1.3131 -0.5477  0.0291
 6772SOL     OW31774   3.163   2.557   7.951 -0.9751 -0.2105  0.0839
 6772SOL    HW131775   3.231   2.508   7.906 -0.8779 -1.7329  1.8751
 6772SOL    HW231776   3.211   2.639   7.960 -2.2869  0.5494  0.1742
 6773SOL     OW31777   3.241   0.165   1.956  0.2081 -0.0857  0.2779
 6773SOL    HW131778   3.325   0.155   1.912  1.0094 -2.0076  2.2468
 6773SOL    HW231779   3.264   0.183   2.048 -1.1634  2.3524  0.1409
 6774SOL     OW31780   3.904   0.935   8.878 -0.4290  0.5866  0.0710
 6774SOL    HW131781   3.844   0.901   8.944 -1.0702 -1.9797 -1.8246
 6774SOL    HW231782   3.983   0.883   8.892 -1.0793  0.1322  2.0957
 6775SOL     OW31783   2.562   0.595  14.420 -0.7203 -0.1856  0.2553
 6775SOL    HW131784   2.510   0.601  14.340  2.8473 -0.2406 -2.0703
 6775SOL    HW231785   2.644   0.603  14.371 -0.3460  0.1966  0.9416
 6776SOL     OW31786   1.492   2.055  14.542  0.1292 -0.6559  0.3200
 6776SOL    HW131787   1.396   2.061  14.542  0.0648 -1.7436  2.3016
 6776SOL    HW231788   1.507   2.025  14.452  2.7227  0.8609  0.2523
 6777SOL     OW31789   0.908   2.885   2.328  0.0513 -0.0338  0.6038
 6777SOL    HW131790   0.963   2.836   2.390 -1.4730 -0.5379  1.5604
 6777SOL    HW231791   0.828   2.895   2.381 -0.0010 -0.3862  0.5869
 6778SOL     OW31792   1.600   2.852   5.837  0.3710  0.2833  0.0932
 6778SOL    HW131793   1.641   2.791   5.898  2.3484  0.9182 -0.5950
 6778SOL    HW231794   1.531   2.883   5.895 -1.1080  0.4152 -1.7550
 6779SOL     OW31795   4.639   3.134  15.146 -0.4477  0.0721 -0.6361
 6779SOL    HW131796   4.602   3.179  15.222  3.6778 -0.1383  1.5062
 6779SOL    HW231797   4.711   3.079  15.179 -0.1789  1.0827  0.4701
 6780SOL     OW31798   2.197   4.146  10.043  0.0025  0.3571  0.0716
 6780SOL    HW131799   2.159   4.197   9.971 -2.3248 -2.5294 -0.7788
 6780SOL    HW231800   2.147   4.194  10.109  2.5372  3.0608  0.0326
 6781SOL     OW31801   2.150   0.640  16.801 -0.0658 -0.1520  0.3874
 6781SOL    HW131802   2.065   0.649  16.758  0.6406  1.1190 -0.7571
 6781SOL    HW231803   2.206   0.629  16.724 -1.4356 -1.2550 -0.4488
 6782SOL     OW31804   2.141   2.218   7.116 -0.0359  0.2078  0.8156
 6782SOL    HW131805   2.092   2.154   7.167 -0.3212 -0.2038  0.0177
 6782SOL    HW231806   2.069   2.279   7.101 -1.1171 -1.0576  0.8101
 6783SOL     OW31807   3.107   4.664   1.094 -0.1157  0.1868 -0.2428
 6783SOL    HW131808   3.139   4.685   1.006  2.9237 -0.2325  0.7689
 6783SOL    HW231809   3.191   4.631   1.128 -0.3060  0.5469  0.5735
 6784SOL     OW31810   0.757   0.124   0.479  0.0481 -0.0891  0.0505
 6784SOL    HW131811   0.747   0.037   0.519 -0.6873  0.3630  0.8608
 6784SOL    HW231812   0.850   0.116   0.461 -0.4223 -1.2984 -1.8607
 6785SOL     OW31813   3.502   1.420   7.663  0.1884  0.0039 -0.0325
 6785SOL    HW131814   3.565   1.488   7.636 -0.1198  1.3306  2.6091
 6785SOL    HW231815   3.422   1.472   7.672  1.5256  1.7949  1.5859
 6786SOL     OW31816   0.163   4.037   4.612  0.2461 -0.0192  0.0185
 6786SOL    HW131817   0.083   4.068   4.569 -0.1963 -0.7373  0.3227
 6786SOL    HW231818   0.185   4.115   4.664 -0.3658  0.1549  0.0212
 6787SOL     OW31819   1.702   3.757   4.644 -0.0235 -0.3538 -0.0509
 6787SOL    HW131820   1.698   3.671   4.685 -0.6472 -1.3348 -2.1333
 6787SOL    HW231821   1.767   3.803   4.697 -0.3898 -0.7607  0.7448
 6788SOL     OW31822   3.613   0.989  14.065  0.0248 -0.1337 -0.2342
 6788SOL    HW131823   3.614   1.060  14.130  0.7655 -0.2468 -0.1211
 6788SOL    HW231824   3.660   1.035  13.996 -0.4389 -0.6761 -0.9029
 6789SOL     OW31825   0.369   3.848  15.935  0.6040 -0.1897 -0.7071
 6789SOL    HW131826   0.332   3.859  15.848 -1.1122 -1.0729 -0.1078
 6789SOL    HW231827   0.436   3.782  15.921 -0.7109 -0.9223 -3.4553
 6790SOL     OW31828   1.216   0.466   8.717  0.2035  0.3211 -0.6237
 6790SOL    HW131829   1.226   0.372   8.734  2.3732  0.4748 -1.0370
 6790SOL    HW231830   1.176   0.454   8.631 -0.4522 -0.5972 -0.1957
 6791SOL     OW31831   1.793   1.677   0.322 -0.5627 -0.0047 -0.2256
 6791SOL    HW131832   1.727   1.610   0.340 -1.5759  0.6461 -1.5238
 6791SOL    HW231833   1.742   1.731   0.262  0.3198  0.0118 -0.9736
 6792SOL     OW31834   0.071   4.268   8.080  0.0661  0.5406 -0.3596
 6792SOL    HW131835   0.007   4.338   8.097  0.6790  0.7168  1.2236
 6792SOL    HW231836   0.019   4.203   8.032  1.0237  1.4342 -2.6078
 6793SOL     OW31837   2.724   0.362   2.123 -0.1121  0.1765  0.3344
 6793SOL    HW131838   2.752   0.447   2.088  2.5994 -0.8202  0.1066
 6793SOL    HW231839   2.645   0.337   2.075 -0.3988 -0.0597  0.9394
 6794SOL     OW31840   2.168   3.233   2.456 -0.3180  0.3325 -0.9930
 6794SOL    HW131841   2.085   3.271   2.427 -0.4251  1.1736  0.3941
 6794SOL    HW231842   2.225   3.304   2.427 -1.0968  1.0942 -0.6518
 6795SOL     OW31843   0.303   0.827   8.540 -0.4861  0.3633 -0.3857
 6795SOL    HW131844   0.390   0.856   8.567 -0.1016 -1.1958  0.0814
 6795SOL    HW231845   0.275   0.782   8.620  2.2645  1.9981  1.4842
 6796SOL     OW31846   4.643   1.696  12.792  0.8896  0.2697 -0.3410
 6796SOL    HW131847   4.658   1.622  12.851 -1.3947  0.2839  0.2765
 6796SOL    HW231848   4.715   1.686  12.730 -0.5934 -0.8865 -1.8615
 6797SOL     OW31849   1.654   0.091  11.902  0.6833 -0.1084  0.1543
 6797SOL    HW131850   1.699   0.055  11.978 -0.6516  0.3961  1.1979
 6797SOL    HW231851   1.562   0.073  11.921  0.5744 -0.4995 -0.7257
 6798SOL     OW31852   1.875   0.799   1.365 -0.1362 -0.4999 -0.0082
 6798SOL    HW131853   1.868   0.704   1.359  1.3871 -0.6731  1.1877
 6798SOL    HW231854   1.787   0.816   1.398 -0.5207 -1.0962 -0.7292
 6799SOL     OW31855   1.040   4.053  11.831 -0.0385  0.3054 -0.5868
 6799SOL    HW131856   0.996   4.107  11.897 -0.3132  0.0783 -0.5830
 6799SOL    HW231857   1.055   3.967  11.871 -1.7205 -0.5612 -1.8126
 6800SOL     OW31858   0.454   0.577   9.096  0.0481 -0.6631  0.1777
 6800SOL    HW131859   0.366   0.544   9.112 -0.7551  2.1624  1.6069
 6800SOL    HW231860   0.429   0.669   9.089  0.7320 -0.5965 -1.2287
 6801SOL     OW31861   4.675   3.939   8.638 -0.0588 -0.2216  0.4911
 6801SOL    HW131862   4.683   3.886   8.718  1.0182  1.8045  1.7228
 6801SOL    HW231863   4.691   3.874   8.570  1.5510  0.4346  0.2376
 6802SOL     OW31864   1.159   1.711   5.267  0.1157  0.0960  0.2887
 6802SOL    HW131865   1.183   1.626   5.303 -1.1041 -0.2858  0.2116
 6802SOL    HW231866   1.080   1.731   5.318  0.5644  0.7131  0.7429
 6803SOL     OW31867   0.572   0.990   0.569  0.1926  0.1394 -0.2690
 6803SOL    HW131868   0.515   0.964   0.496  0.8658  0.9866 -1.0962
 6803SOL    HW231869   0.540   0.935   0.641  0.7375 -1.1142 -0.9736
 6804SOL     OW31870   4.623   3.108  14.380  0.4182  0.0490 -0.6747
 6804SOL    HW131871   4.585   3.021  14.371  0.9583 -0.2828  0.3625
 6804SOL    HW231872   4.581   3.149  14.304 -0.7212 -0.3883 -0.2771
 6805SOL     OW31873   0.862   0.334   9.355  0.3010 -0.5068  0.0260
 6805SOL    HW131874   0.896   0.424   9.359  1.8789 -1.1451  0.9880
 6805SOL    HW231875   0.779   0.364   9.317  1.0110 -0.0417 -1.1645
 6806SOL     OW31876   1.438   2.550   4.337  0.0325  0.1273 -0.0023
 6806SOL    HW131877   1.491   2.481   4.296 -1.4463 -0.6895 -0.5473
 6806SOL    HW231878   1.507   2.609   4.367  0.3598 -1.3874  2.2369
 6807SOL     OW31879   1.527   2.793   4.069 -0.2533  0.3855 -0.0095
 6807SOL    HW131880   1.596   2.843   4.026  0.5363 -0.4279  0.3166
 6807SOL    HW231881   1.490   2.868   4.115  1.1680 -1.1499  3.7109
 6808SOL     OW31882   0.414   3.322   2.706  0.7208 -0.2995 -0.6996
 6808SOL    HW131883   0.416   3.226   2.714 -2.6459 -0.1605  1.6566
 6808SOL    HW231884   0.409   3.326   2.611  1.7636 -1.0416 -0.7819
 6809SOL     OW31885   0.120   2.136  11.176  0.2363 -0.5271  0.2311
 6809SOL    HW131886   0.135   2.195  11.102  1.6556 -1.5921 -0.3317
 6809SOL    HW231887   0.212   2.129  11.200  0.8629  1.6080 -1.5728
 6810SOL     OW31888   1.904   0.935   0.416  0.5405  0.2509 -0.3882
 6810SOL    HW131889   1.975   0.970   0.469 -0.7539  0.1948  1.3927
 6810SOL    HW231890   1.947   0.890   0.343  0.9535  0.7171 -0.4299
 6811SOL     OW31891   2.618   3.806   4.001  0.0192 -0.0605  0.0422
 6811SOL    HW131892   2.649   3.750   3.930  2.9738  1.7058 -0.0984
 6811SOL    HW231893   2.540   3.771   4.042 -0.8821  0.9839 -0.7721
 6812SOL     OW31894   2.656   3.680   6.741 -0.1975  0.1102  0.0261
 6812SOL    HW131895   2.574   3.638   6.768 -1.3101  2.8377  0.9653
 6812SOL    HW231896   2.711   3.604   6.721  0.8641 -0.0296  3.4489
 6813SOL     OW31897   4.482   1.043  10.070 -0.5775 -0.4183  0.1736
 6813SOL    HW131898   4.577   1.033  10.074 -0.2749  1.9721 -0.8045
 6813SOL    HW231899   4.474   1.084   9.984  0.8682 -1.4997 -0.4692
 6814SOL     OW31900   3.713   3.212   6.068  0.1971  0.1329 -0.0027
 6814SOL    HW131901   3.712   3.287   6.127  1.4428  0.3276 -0.2260
 6814SOL    HW231902   3.646   3.151   6.101  0.6338 -0.8396 -0.8957
 6815SOL     OW31903   2.598   1.734   5.255  0.3573 -0.1786 -0.0645
 6815SOL    HW131904   2.604   1.650   5.302 -0.5214  1.0184  2.1552
 6815SOL    HW231905   2.672   1.776   5.297  0.5216 -1.3468  0.8241
 6816SOL     OW31906   3.419   0.687   5.702  0.3209 -0.5071 -0.2231
 6816SOL    HW131907   3.435   0.774   5.739 -0.6682 -0.1915 -0.5390
 6816SOL    HW231908   3.409   0.632   5.780  0.1917 -0.0342  0.0932
 6817SOL     OW31909   0.352   2.567   0.038  0.1672  0.4846 -0.2298
 6817SOL    HW131910   0.265   2.606   0.038 -0.0874 -0.0993  1.8356
 6817SOL    HW231911   0.348   2.507   0.113  0.1398  0.0425 -0.5870
 6818SOL     OW31912   3.587   3.626   3.611  0.8719 -0.1726  0.1011
 6818SOL    HW131913   3.492   3.630   3.598  0.7944 -1.1193  0.4320
 6818SOL    HW231914   3.616   3.644   3.521 -0.5601  3.0220  0.2598
 6819SOL     OW31915   4.404   2.183   7.550  0.8605 -0.1800  0.3691
 6819SOL    HW131916   4.448   2.158   7.469 -0.6521 -0.5871 -0.3062
 6819SOL    HW231917   4.328   2.234   7.525  1.2431  0.3975  0.3795
 6820SOL     OW31918   3.614   2.779   4.301  0.0492 -0.6577 -0.5665
 6820SOL    HW131919   3.527   2.745   4.320 -0.4103  1.9988  2.0323
 6820SOL    HW231920   3.589   2.871   4.292  0.6631 -0.2445  2.1147
 6821SOL     OW31921   4.331   4.396   6.340  0.3753 -0.4662 -0.7651
 6821SOL    HW131922   4.289   4.376   6.425  4.4468  1.2612  1.6403
 6821SOL    HW231923   4.251   4.422   6.293  0.5487  0.8048 -0.3520
 6822SOL     OW31924   0.409   2.012   2.002 -0.2034  0.4009  0.1691
 6822SOL    HW131925   0.492   2.019   1.954 -0.6894  1.1260 -0.5730
 6822SOL    HW231926   0.412   1.917   2.007 -1.7495  0.4408  1.8679
 6823SOL     OW31927   2.069   4.034   9.007  0.2962 -0.1220  0.4716
 6823SOL    HW131928   2.138   3.968   9.006  0.7045  0.3407 -1.6343
 6823SOL    HW231929   1.994   3.981   8.978  0.2220  1.0752 -1.5614
 6824SOL     OW31930   0.673   2.322   2.069 -0.0607 -0.0152 -0.2599
 6824SOL    HW131931   0.615   2.324   2.146 -0.4925 -3.1398 -0.5074
 6824SOL    HW231932   0.749   2.281   2.110  0.9013  1.6656 -0.3867
 6825SOL     OW31933   2.941   4.703  12.931  0.5468  0.4223 -0.6588
 6825SOL    HW131934   3.008   4.669  12.871  1.3463  0.0829  0.4187
 6825SOL    HW231935   2.882   4.628  12.930  1.1646 -0.0804  2.3906
 6826SOL     OW31936   2.341   4.571  14.698 -0.1484  0.0625 -0.9576
 6826SOL    HW131937   2.247   4.583  14.683 -0.4804  0.8132  1.7159
 6826SOL    HW231938   2.349   4.477  14.682 -1.1562 -0.0736 -0.6787
 6827SOL     OW31939   1.945   1.588   5.189  0.2193 -0.1295 -0.6556
 6827SOL    HW131940   2.040   1.600   5.185  0.8068 -3.2272  3.6160
 6827SOL    HW231941   1.923   1.639   5.267 -1.4941 -1.3604 -0.3419
 6828SOL     OW31942   3.438   4.256  11.267  0.5737 -0.0633 -0.5917
 6828SOL    HW131943   3.392   4.340  11.263  0.1381 -0.1956  1.3624
 6828SOL    HW231944   3.370   4.201  11.305  2.0066 -1.0459  0.5817
 6829SOL     OW31945   0.189   3.434  17.044  0.5989  0.4972  0.1968
 6829SOL    HW131946   0.209   3.459  17.135 -0.2543 -1.1376  0.8267
 6829SOL    HW231947   0.111   3.378  17.043  0.5829  0.5258 -0.2284
 6830SOL     OW31948   0.783   2.803   7.448  0.4604 -0.3331  0.6071
 6830SOL    HW131949   0.739   2.887   7.436  1.2434  0.0672  0.5318
 6830SOL    HW231950   0.850   2.809   7.380  0.8790  0.0457  1.0594
 6831SOL     OW31951   0.841   1.876   8.350  0.1470 -0.1037 -0.5401
 6831SOL    HW131952   0.797   1.891   8.434  1.6347  0.0179  0.2039
 6831SOL    HW231953   0.851   1.782   8.363  0.5200 -0.2616 -1.9228
 6832SOL     OW31954   1.700   1.074  10.864 -0.0344  0.7797 -0.7055
 6832SOL    HW131955   1.723   1.038  10.778 -0.4168  1.0251 -0.9099
 6832SOL    HW231956   1.772   1.034  10.913 -0.8281 -0.0603 -0.2238
 6833SOL     OW31957   0.298   1.411   4.841  0.8759 -0.1453  0.2486
 6833SOL    HW131958   0.213   1.398   4.883  0.5798  0.4080 -0.1727
 6833SOL    HW231959   0.293   1.507   4.844  0.6668 -0.1921  1.4759
 6834SOL     OW31960   0.357   1.165   4.757 -0.2151  0.1110  0.0949
 6834SOL    HW131961   0.279   1.118   4.785  0.5062 -0.1000  1.7448
 6834SOL    HW231962   0.338   1.255   4.782  1.1113 -0.1501  2.0244
 6835SOL     OW31963   3.590   3.419  12.169  1.1901 -0.3993 -0.0989
 6835SOL    HW131964   3.616   3.356  12.236  0.4522 -0.7276 -0.1159
 6835SOL    HW231965   3.523   3.469  12.216 -0.8830 -0.4200 -3.0093
 6836SOL     OW31966   1.998   0.165  15.610  0.1687  0.2982 -0.5519
 6836SOL    HW131967   1.979   0.236  15.672  1.3665 -1.4388  1.7859
 6836SOL    HW231968   1.944   0.104  15.659  1.5127  0.3485  1.0323
 6837SOL     OW31969   0.780   3.237   8.767  0.3073 -0.2286  0.1799
 6837SOL    HW131970   0.691   3.261   8.740  0.1665 -1.5774 -0.5700
 6837SOL    HW231971   0.826   3.288   8.700  0.6213 -0.1401  0.4619
 6838SOL     OW31972   1.185   4.703  11.841  0.3492 -0.5379  0.1519
 6838SOL    HW131973   1.269   4.698  11.795  0.6216 -1.2813  0.7413
 6838SOL    HW231974   1.199   0.054  11.899  0.7788 -0.7030  0.2601
 6839SOL     OW31975   1.046   0.469   4.723 -0.2374 -0.1148  0.4264
 6839SOL    HW131976   1.049   0.525   4.646 -0.3394 -0.8780 -0.1341
 6839SOL    HW231977   0.952   0.467   4.742 -0.6696  0.4558 -1.7395
 6840SOL     OW31978   3.646   2.242   4.348  0.0120 -0.2217 -0.3947
 6840SOL    HW131979   3.737   2.256   4.322 -0.1255  0.3049 -0.5923
 6840SOL    HW231980   3.630   2.328   4.386  0.6002 -0.7349  1.0128
 6841SOL     OW31981   2.622   2.597   4.603  0.1905 -0.2647 -0.0037
 6841SOL    HW131982   2.691   2.654   4.638  1.3831 -0.9753 -1.2238
 6841SOL    HW231983   2.597   2.554   4.685 -0.5263  0.7337  0.3116
 6842SOL     OW31984   0.986   1.460   5.358  0.2841 -0.4295  0.5983
 6842SOL    HW131985   0.932   1.404   5.301 -0.4826  1.0077 -0.0837
 6842SOL    HW231986   1.069   1.441   5.315  0.4136  1.9085 -0.1915
 6843SOL     OW31987   2.340   2.292   2.975 -0.4998  0.4726  0.0554
 6843SOL    HW131988   2.345   2.383   2.947  0.3130  0.0739 -1.1033
 6843SOL    HW231989   2.331   2.242   2.894  1.3902  1.4598 -0.7552
 6844SOL     OW31990   1.611   3.583   5.344  0.1474 -0.2645 -0.1556
 6844SOL    HW131991   1.545   3.549   5.284  0.1409 -0.5889  0.0345
 6844SOL    HW231992   1.659   3.505   5.372  4.4328  2.8055  1.0196
 6845SOL     OW31993   1.285   3.768   6.236  0.0966  0.0763 -0.2641
 6845SOL    HW131994   1.251   3.728   6.156  0.4941  0.5808 -0.6840
 6845SOL    HW231995   1.313   3.694   6.289 -2.6861 -1.0709 -0.3676
 6846SOL     OW31996   3.045   2.413   5.201  0.8786 -0.0362  0.6863
 6846SOL    HW131997   3.042   2.380   5.291  0.0516  0.9817  1.0356
 6846SOL    HW231998   3.051   2.324   5.166  0.8241 -0.0980  0.8337
 6847SOL     OW31999   0.587   4.580   0.390 -0.4156 -0.2179 -0.0285
 6847SOL    HW132000   0.545   4.601   0.474 -1.3706 -0.7084 -0.3929
 6847SOL    HW232001   0.581   4.666   0.347 -3.6010 -0.0579  0.7612
 6848SOL     OW32002   1.732   1.271   8.045 -0.2054 -0.2291  0.0693
 6848SOL    HW132003   1.764   1.187   8.077 -2.2986 -0.9992  0.1688
 6848SOL    HW232004   1.786   1.289   7.969 -1.9316  0.0585 -1.0922
 6849SOL     OW32005   4.202   4.303   8.257 -0.4261  0.4144 -0.2705
 6849SOL    HW132006   4.115   4.334   8.280  0.1156 -1.4370  4.4221
 6849SOL    HW232007   4.256   4.380   8.239  1.2143 -0.4626  0.8014
 6850SOL     OW32008   3.087   2.267   9.172 -0.0435 -0.3150  0.1001
 6850SOL    HW132009   3.028   2.314   9.113 -0.8612 -1.5762 -0.1028
 6850SOL    HW232010   3.056   2.301   9.255 -1.3350 -0.6761 -0.2315
 6851SOL     OW32011   4.577   1.489   5.814 -0.4647  0.0737  0.0739
 6851SOL    HW132012   4.671   1.480   5.831 -0.7002  0.8039  1.7866
 6851SOL    HW232013   4.576   1.584   5.806  3.0292  0.2064  0.9673
 6852SOL     OW32014   3.599   0.899   6.202  0.3703  0.1018 -0.2564
 6852SOL    HW132015   3.587   0.884   6.296 -2.0793  0.6511 -0.4921
 6852SOL    HW232016   3.559   0.985   6.190 -1.5441 -0.6209  0.8475
 6853SOL     OW32017   1.698   2.928   5.346  0.1639 -0.1495  0.0148
 6853SOL    HW132018   1.608   2.902   5.325  0.7812  0.2115 -3.1004
 6853SOL    HW232019   1.749   2.900   5.270 -1.3734  1.1662 -1.4963
 6854SOL     OW32020   0.815   1.627   9.337  0.1990  0.0129 -0.3367
 6854SOL    HW132021   0.785   1.555   9.393 -0.4207 -0.3826 -1.1641
 6854SOL    HW232022   0.867   1.671   9.403 -1.2161  1.2578 -0.0464
 6855SOL     OW32023   0.975   2.856   4.341 -0.2036 -0.4304 -0.4279
 6855SOL    HW132024   0.892   2.862   4.387  0.7190 -0.0460  1.1865
 6855SOL    HW232025   1.007   2.946   4.334  3.6317 -1.9008 -1.8877
 6856SOL     OW32026   2.067   1.166   4.403 -0.1128  0.5386 -0.1118
 6856SOL    HW132027   2.024   1.085   4.374 -0.3126  0.9861 -1.0601
 6856SOL    HW232028   2.108   1.196   4.322  0.2322 -0.5532 -0.3403
 6857SOL     OW32029   1.873   2.601  10.923  0.2662  0.0718 -0.0648
 6857SOL    HW132030   1.837   2.634  11.005  0.8704 -2.1532  1.1146
 6857SOL    HW232031   1.877   2.682  10.872  0.7513  0.9606  1.3745
 6858SOL     OW32032   0.003   1.726  10.555  0.1400 -0.0319 -0.0874
 6858SOL    HW132033   0.020   1.734  10.462  0.6618 -0.2082 -0.0090
 6858SOL    HW232034   0.083   1.725  10.607 -0.0223 -1.4825  0.1556
 6859SOL     OW32035   4.164   0.313   1.909 -0.0044 -0.5734  0.2063
 6859SOL    HW132036   4.177   0.312   1.814  1.7148  0.3415  0.4455
 6859SOL    HW232037   4.069   0.321   1.920  0.3579  0.8588  2.3310
 6860SOL     OW32038   2.710   2.562   2.538  0.3749  0.4594  0.0844
 6860SOL    HW132039   2.657   2.483   2.526 -0.1163  0.6889  0.7215
 6860SOL    HW232040   2.730   2.545   2.630 -2.1369  1.8410  0.8760
 6861SOL     OW32041   2.819   0.547  11.635 -0.0490 -0.0322  0.0705
 6861SOL    HW132042   2.772   0.620  11.676  2.4431  1.1908  0.7735
 6861SOL    HW232043   2.889   0.526  11.697  0.2489 -0.8431 -0.5445
 6862SOL     OW32044   3.652   0.831  16.270  0.3306 -0.0565 -0.5138
 6862SOL    HW132045   3.705   0.895  16.318  0.9968 -0.3623 -0.8505
 6862SOL    HW232046   3.718   0.763  16.256  0.0108 -0.2070 -1.2799
 6863SOL     OW32047   4.079   1.817  14.477 -0.6314  0.1087  0.1111
 6863SOL    HW132048   4.045   1.900  14.444 -0.4678  0.6113  1.1963
 6863SOL    HW232049   4.041   1.756  14.414  0.1572 -1.1034  0.8158
 6864SOL     OW32050   1.340   0.768   0.523 -0.2102  0.0743  0.9192
 6864SOL    HW132051   1.262   0.714   0.537 -0.2000 -0.6074 -1.6662
 6864SOL    HW232052   1.335   0.763   0.427  0.8157 -1.0882  0.9347
 6865SOL     OW32053   2.134   4.542   0.456  0.1071  0.1730 -0.1512
 6865SOL    HW132054   2.102   4.455   0.482  1.3179  0.2891  1.7299
 6865SOL    HW232055   2.124   4.534   0.361 -0.7574 -0.3373 -0.0158
 6866SOL     OW32056   3.744   2.011   6.206  0.6379  0.0876 -0.2547
 6866SOL    HW132057   3.789   1.936   6.169 -2.5246 -1.7530 -0.3637
 6866SOL    HW232058   3.715   2.056   6.127  0.9600  0.0030 -0.4185
 6867SOL     OW32059   0.378   0.858   4.246 -0.1833 -0.3112 -0.0276
 6867SOL    HW132060   0.456   0.820   4.206  1.6065  1.6377  1.6487
 6867SOL    HW232061   0.375   0.812   4.329  0.9996 -0.2117  0.0722
 6868SOL     OW32062   0.897   0.661   8.775  0.2556  0.6105 -0.2271
 6868SOL    HW132063   0.858   0.583   8.737 -1.1665  1.6937 -0.9631
 6868SOL    HW232064   0.824   0.704   8.821  0.2625  0.4126 -0.0328
 6869SOL     OW32065   1.723   4.313   7.094  0.3712 -0.4755  0.4852
 6869SOL    HW132066   1.640   4.357   7.077  1.1223  1.2007  1.1701
 6869SOL    HW232067   1.763   4.310   7.007  0.0186  1.3709  0.2719
 6870SOL     OW32068   0.402   2.714  13.684  0.1381 -0.1623 -0.4997
 6870SOL    HW132069   0.320   2.719  13.733  1.2494 -0.7018  1.3935
 6870SOL    HW232070   0.388   2.626  13.650 -2.6913  0.2834 -0.4619
 6871SOL     OW32071   2.172   0.689   7.682  0.0596  0.0485  0.5611
 6871SOL    HW132072   2.262   0.705   7.651 -0.4859  0.1875 -0.9409
 6871SOL    HW232073   2.191   0.659   7.771  2.2638  2.0630  0.7762
 6872SOL     OW32074   1.763   4.189   7.881  0.2072  0.1987 -0.5510
 6872SOL    HW132075   1.742   4.221   7.794 -0.7668  1.4508  0.1378
 6872SOL    HW232076   1.858   4.191   7.870  0.3230  0.6938  0.5090
 6873SOL     OW32077   2.011   1.002   7.201  0.2535  0.1175 -0.1658
 6873SOL    HW132078   1.959   0.927   7.228 -1.1526  1.3012  0.3746
 6873SOL    HW232079   2.018   1.054   7.281 -2.1837 -0.3065  0.3065
 6874SOL     OW32080   0.274   4.026   0.072  0.5149  0.3479 -0.5171
 6874SOL    HW132081   0.240   3.944   0.108  2.0355 -0.5482 -1.0913
 6874SOL    HW232082   0.202   4.067   0.024 -0.2787 -2.1617 -1.4924
 6875SOL     OW32083   0.864   0.866   1.910  0.2528 -0.3528 -0.1891
 6875SOL    HW132084   0.894   0.777   1.893  0.3373 -0.4401  0.3932
 6875SOL    HW232085   0.845   0.894   1.821  0.4893  1.6510  0.3995
 6876SOL     OW32086   2.647   3.735   5.326 -0.2624  0.2281 -0.0064
 6876SOL    HW132087   2.564   3.772   5.356  0.0934  1.4007 -0.4797
 6876SOL    HW232088   2.651   3.751   5.232  1.1492 -2.5268 -0.4278
 6877SOL     OW32089   2.738   3.392  12.293 -0.6463  0.5254  0.3058
 6877SOL    HW132090   2.669   3.453  12.318 -0.5180  0.9281 -0.3317
 6877SOL    HW232091   2.679   3.317  12.287  0.5784 -0.4165 -0.0508
 6878SOL     OW32092   3.963   2.692  13.051 -0.1697  0.4600 -0.1533
 6878SOL    HW132093   3.909   2.618  13.079  0.8058 -0.5378 -0.9318
 6878SOL    HW232094   3.952   2.710  12.958  0.4780  2.8463  0.2390
 6879SOL     OW32095   0.522   1.758  11.489  0.4234  0.7770  0.4954
 6879SOL    HW132096   0.607   1.800  11.475  1.3448 -0.9360  0.9019
 6879SOL    HW232097   0.553   1.673  11.521 -0.3805 -0.0405 -0.9302
 6880SOL     OW32098   1.167   4.709  16.187  0.5440  0.3188  0.3054
 6880SOL    HW132099   1.137   0.073  16.169 -1.2328 -0.2931  0.2215
 6880SOL    HW232100   1.234   0.002  16.253 -0.2278 -1.9491  1.7016
 6881SOL     OW32101   3.942   2.540   5.205 -0.1218  0.1717 -0.1877
 6881SOL    HW132102   3.924   2.518   5.113  1.0749 -1.4410 -0.0442
 6881SOL    HW232103   3.899   2.625   5.213 -1.6773 -0.4617 -1.6682
 6882SOL     OW32104   0.871   4.594  12.679  0.4325 -0.7191 -0.1398
 6882SOL    HW132105   0.853   4.676  12.633  0.8827 -1.4482 -1.6103
 6882SOL    HW232106   0.914   4.540  12.613  2.5402  0.9583 -0.1366
 6883SOL     OW32107   2.334   2.139   6.567 -0.3820  0.9383 -0.3215
 6883SOL    HW132108   2.239   2.146   6.578 -0.5840  0.8442 -1.9488
 6883SOL    HW232109   2.346   2.124   6.473 -1.6111 -1.0994 -0.1557
 6884SOL     OW32110   3.090   2.928   5.495 -0.0929  0.2884 -0.6210
 6884SOL    HW132111   3.137   3.011   5.494  1.0297 -0.3294  2.5248
 6884SOL    HW232112   3.069   2.919   5.588  0.7944  0.2945 -0.4176
 6885SOL     OW32113   2.199   3.409   2.038 -0.0782 -0.2289 -0.4856
 6885SOL    HW132114   2.159   3.451   1.962 -0.6405 -1.2808 -0.7634
 6885SOL    HW232115   2.284   3.451   2.048  0.1775 -1.0269  0.6912
 6886SOL     OW32116   0.217   4.347   8.464 -0.0298  0.1469  0.1231
 6886SOL    HW132117   0.186   4.268   8.509  3.4499 -2.3291 -1.7974
 6886SOL    HW232118   0.252   4.402   8.534  1.6588  0.1453 -0.7199
 6887SOL     OW32119   2.209   0.856   1.353 -0.4729 -0.4810  0.9361
 6887SOL    HW132120   2.215   0.761   1.341  0.2686 -0.4786  1.3126
 6887SOL    HW232121   2.296   0.876   1.386 -0.1335 -1.2263  0.4994
 6888SOL     OW32122   1.381   3.078   3.812 -0.2222  0.5667 -0.1454
 6888SOL    HW132123   1.317   3.121   3.755 -1.0412  0.2999  0.5880
 6888SOL    HW232124   1.456   3.122   3.770  0.7134 -0.7145  0.1701
 6889SOL     OW32125   1.940   0.659  10.650  0.2993 -0.2049  0.3028
 6889SOL    HW132126   1.873   0.624  10.591 -0.2426 -0.2527  0.9338
 6889SOL    HW232127   2.019   0.620  10.615 -1.0121 -0.9944 -1.7617
 6890SOL     OW32128   1.623   0.093  13.443  0.7886 -0.4157 -0.1399
 6890SOL    HW132129   1.604   0.187  13.451  0.0575 -0.6487  0.8816
 6890SOL    HW232130   1.664   0.071  13.526 -0.8916 -1.6507  0.3486
 6891SOL     OW32131   2.870   1.750  17.383 -0.3301 -0.6933 -0.1529
 6891SOL    HW132132   2.959   1.775  17.407 -0.0972 -2.6109  0.9251
 6891SOL    HW232133   2.858   1.781  17.293 -1.1775 -1.0908 -0.1791
 6892SOL     OW32134   0.032   0.526   4.153  0.3707  0.3550 -0.3528
 6892SOL    HW132135   0.018   0.618   4.134  2.8827  0.8057 -0.0645
 6892SOL    HW232136   0.127   0.531   4.166  0.1464  1.1586  0.9561
 6893SOL     OW32137   1.842   3.135   4.220  0.5024  0.5200  0.2924
 6893SOL    HW132138   1.928   3.166   4.250 -0.2635 -1.4253  4.4319
 6893SOL    HW232139   1.781   3.181   4.277 -1.7065 -2.8152  0.6023
 6894SOL     OW32140   2.550   0.022   0.852  0.1080  0.1986  0.1285
 6894SOL    HW132141   2.553   0.070   0.769  0.0895 -0.0853 -0.0389
 6894SOL    HW232142   2.624   4.687   0.835  1.3214  1.9430 -0.7103
 6895SOL     OW32143   4.386   3.596   8.546  0.3752 -1.0691 -0.2752
 6895SOL    HW132144   4.424   3.636   8.625 -1.4713 -1.6572  0.9130
 6895SOL    HW232145   4.459   3.575   8.488  2.9416  0.7673  2.2461
 6896SOL     OW32146   1.530   3.593   3.268 -0.5298 -0.6843  0.2514
 6896SOL    HW132147   1.528   3.546   3.352 -0.9425 -1.9638 -0.4850
 6896SOL    HW232148   1.488   3.529   3.210  3.5409 -1.3730 -1.9289
 6897SOL     OW32149   1.777   1.058   7.538 -0.7190 -0.0405 -0.2063
 6897SOL    HW132150   1.695   1.009   7.528 -1.8874  2.3819 -2.4870
 6897SOL    HW232151   1.830   0.988   7.574  2.4115  1.6027 -1.5755
 6898SOL     OW32152   2.705   2.834   5.888 -0.1557 -0.3630  0.5628
 6898SOL    HW132153   2.733   2.746   5.863 -0.7114  0.1626 -1.9258
 6898SOL    HW232154   2.660   2.827   5.972  0.3824 -2.6085  0.6462
 6899SOL     OW32155   1.756   1.229   6.977  0.3291  0.3741 -0.3728
 6899SOL    HW132156   1.771   1.138   7.003 -1.3584  1.2984  3.8007
 6899SOL    HW232157   1.662   1.219   6.967 -0.0983  3.1416  0.8485
 6900SOL     OW32158   0.293   0.797   3.257  0.5183 -0.2912  0.0965
 6900SOL    HW132159   0.314   0.797   3.164 -1.9235 -2.5055 -0.4529
 6900SOL    HW232160   0.199   0.813   3.269  0.2095 -0.1624 -2.6326
 6901SOL     OW32161   1.301   2.508   1.561  0.1051 -0.4679  0.1546
 6901SOL    HW132162   1.259   2.423   1.575  0.5218 -0.9066 -1.2524
 6901SOL    HW232163   1.392   2.479   1.551  0.7288  1.2420  0.8759
 6902SOL     OW32164   2.121   2.805  13.701 -0.0936  0.2405 -0.0776
 6902SOL    HW132165   2.194   2.754  13.735 -1.8691 -2.5952 -0.4853
 6902SOL    HW232166   2.048   2.742  13.703  1.9335 -2.0782  0.2102
 6903SOL     OW32167   3.965   4.470  14.377  0.2055  1.2084  0.5756
 6903SOL    HW132168   4.024   4.544  14.364  0.7420  0.6986  0.1005
 6903SOL    HW232169   3.979   4.448  14.469  2.4240  1.1216  0.2295
 6904SOL     OW32170   1.366   4.535   1.129  0.9859  0.5055  0.7885
 6904SOL    HW132171   1.400   4.540   1.219 -0.6804  3.5085  1.2526
 6904SOL    HW232172   1.380   4.620   1.087 -0.6192  0.5441  0.3475
 6905SOL     OW32173   4.494   4.366   2.762  0.0921 -0.9284  0.3085
 6905SOL    HW132174   4.519   4.278   2.789  2.9926 -0.9235 -2.2596
 6905SOL    HW232175   4.431   4.407   2.820 -1.1871 -1.4498 -0.7226
 6906SOL     OW32176   2.436   2.599   0.645  0.0615  0.8533 -0.4223
 6906SOL    HW132177   2.489   2.563   0.716  1.6486  2.6276 -0.7216
 6906SOL    HW232178   2.477   2.574   0.562  1.3735 -0.2182  0.5482
 6907SOL     OW32179   1.037   2.043   9.569  0.2044 -0.1640 -0.0064
 6907SOL    HW132180   0.984   1.969   9.600 -0.4166  0.7421  1.1125
 6907SOL    HW232181   0.981   2.110   9.609 -0.9720 -1.0028 -0.2334
 6908SOL     OW32182   0.541   1.971   5.837 -0.2279 -0.0323 -0.0651
 6908SOL    HW132183   0.592   2.042   5.877 -0.1685 -1.1366  1.8341
 6908SOL    HW232184   0.512   1.908   5.903  0.0839  0.7857  0.8559
 6909SOL     OW32185   4.017   0.190   7.333  0.4859 -0.6862 -0.2908
 6909SOL    HW132186   3.961   0.212   7.407  1.1562 -1.4162  0.4480
 6909SOL    HW232187   3.983   0.101   7.326 -0.0054 -0.6315  1.3574
 6910SOL     OW32188   3.939   0.440  10.171 -0.1985  0.4653  0.1027
 6910SOL    HW132189   3.846   0.420  10.155 -0.4995  1.0233  1.1562
 6910SOL    HW232190   3.950   0.499  10.097 -0.4687  0.7793  0.3107
 6911SOL     OW32191   3.105   1.143   0.275 -0.2728  0.7758  0.5131
 6911SOL    HW132192   3.131   1.135   0.367  0.6660  3.2047  0.4510
 6911SOL    HW232193   3.015   1.113   0.280  0.6863 -2.2466 -0.2342
 6912SOL     OW32194   4.055   2.756  16.064  0.6581  0.0455 -0.4402
 6912SOL    HW132195   3.991   2.713  16.120  1.5564 -1.3520 -0.4721
 6912SOL    HW232196   4.104   2.799  16.134 -1.5355 -0.5547  1.4709
 6913SOL     OW32197   0.572   2.173  11.579 -0.0110  0.4158  0.0224
 6913SOL    HW132198   0.630   2.237  11.620  1.9334 -0.8141 -0.8167
 6913SOL    HW232199   0.508   2.226  11.532  0.3946  1.2592  0.4140
 6914SOL     OW32200   2.265   2.540   9.455 -0.2183  0.2854 -0.0585
 6914SOL    HW132201   2.203   2.562   9.525 -0.5839 -0.8353 -0.0321
 6914SOL    HW232202   2.278   2.448   9.478 -2.1829 -0.0058 -0.1044
 6915SOL     OW32203   1.068   4.174   5.771 -0.4183  0.2954  0.1512
 6915SOL    HW132204   1.078   4.238   5.842 -0.0119 -0.1260  0.4762
 6915SOL    HW232205   1.073   4.092   5.820  1.5085 -0.5437 -1.4407
 6916SOL     OW32206   0.707   1.380  11.238  0.5874  0.3870  0.2186
 6916SOL    HW132207   0.765   1.361  11.312  2.1501 -3.2013 -1.9095
 6916SOL    HW232208   0.747   1.447  11.183  2.6189 -1.3298 -0.3974
 6917SOL     OW32209   3.541   4.647  14.538  0.1348  0.1397  0.0392
 6917SOL    HW132210   3.575   4.650  14.448 -1.5320  0.2487 -0.5969
 6917SOL    HW232211   3.445   4.649  14.530  0.2992  3.4981 -1.0900
 6918SOL     OW32212   3.768   3.024   7.078 -0.4085 -0.2341 -0.0280
 6918SOL    HW132213   3.795   3.110   7.111  1.4495 -0.8889  0.2065
 6918SOL    HW232214   3.687   3.011   7.126  0.1042 -0.3554  0.8027
 6919SOL     OW32215   3.213   2.450   1.693  0.5052  0.0998 -0.2419
 6919SOL    HW132216   3.174   2.450   1.605 -0.2367  1.0163  0.0842
 6919SOL    HW232217   3.285   2.393   1.668  0.7174  1.0681 -1.8358
 6920SOL     OW32218   4.254   3.381   5.425  0.2860 -0.1331  0.7617
 6920SOL    HW132219   4.328   3.332   5.461 -0.6698 -0.9125  1.6786
 6920SOL    HW232220   4.222   3.319   5.359  0.1131 -2.5298  3.1013
 6921SOL     OW32221   3.892   0.622  10.423 -0.2064  0.4319 -0.0571
 6921SOL    HW132222   3.933   0.565  10.359 -0.1991  1.3892 -0.9013
 6921SOL    HW232223   3.906   0.710  10.388  1.2120 -0.1566 -0.9955
 6922SOL     OW32224   1.633   1.388   5.592 -0.5009  0.3240  0.1606
 6922SOL    HW132225   1.586   1.467   5.563 -0.6176 -0.0536 -0.6766
 6922SOL    HW232226   1.626   1.381   5.687  2.4850  0.6067  0.3796
 6923SOL     OW32227   1.004   2.231   7.872 -0.1922  0.1068 -0.0469
 6923SOL    HW132228   0.942   2.215   7.800 -1.1982 -2.8260  1.4732
 6923SOL    HW232229   1.005   2.144   7.911 -2.5531 -0.4662 -1.2103
 6924SOL     OW32230   1.901   0.821   6.236 -0.5400 -0.3274 -0.5485
 6924SOL    HW132231   1.892   0.794   6.144  2.1813 -1.1176 -0.5810
 6924SOL    HW232232   1.876   0.913   6.235 -0.5632 -0.3243  0.7363
 6925SOL     OW32233   0.918   1.328   1.488 -0.1502 -0.5995  0.4255
 6925SOL    HW132234   0.845   1.285   1.443  1.6191  0.3960 -3.3033
 6925SOL    HW232235   0.886   1.329   1.579 -3.2252 -0.6130 -0.6580
 6926SOL     OW32236   2.872   1.386   4.466 -0.1863 -0.0099 -0.2130
 6926SOL    HW132237   2.956   1.430   4.459 -0.0934 -0.2956 -0.9361
 6926SOL    HW232238   2.818   1.463   4.480 -0.5887 -0.1702 -0.8918
 6927SOL     OW32239   3.187   4.319   7.369  0.4022  0.6750 -0.0476
 6927SOL    HW132240   3.135   4.257   7.318 -0.4484  0.2818  1.2801
 6927SOL    HW232241   3.119   4.385   7.385 -1.4921 -1.6292  1.4225
 6928SOL     OW32242   4.053   3.715   7.785 -0.2471  0.3611  0.0098
 6928SOL    HW132243   4.073   3.799   7.743  0.3373  0.7448  1.0667
 6928SOL    HW232244   4.135   3.687   7.825 -1.7149 -1.3534  1.8470
 6929SOL     OW32245   4.109   0.457   1.362  0.4180 -0.2004  0.3211
 6929SOL    HW132246   4.156   0.374   1.362 -0.5958 -0.7864 -2.0363
 6929SOL    HW232247   4.060   0.460   1.280  0.3080 -0.6261  0.3757
 6930SOL     OW32248   1.708   3.865   0.324 -0.0026 -0.0343  0.2340
 6930SOL    HW132249   1.774   3.903   0.383 -1.1188  1.9506  0.2079
 6930SOL    HW232250   1.648   3.831   0.390  0.6786  0.2701  1.0085
 6931SOL     OW32251   0.117   2.184   7.147  0.3359  0.5745  0.2337
 6931SOL    HW132252   0.079   2.271   7.158 -0.1283  0.1662  1.7850
 6931SOL    HW232253   0.039   2.131   7.131  1.7866 -1.6451  0.4587
 6932SOL     OW32254   4.319   0.440   2.736  0.1816 -0.1322 -0.4257
 6932SOL    HW132255   4.289   0.354   2.706  2.9028 -1.6241  1.1120
 6932SOL    HW232256   4.241   0.495   2.724  0.6874  1.1777  2.2954
 6933SOL     OW32257   2.276   2.637  17.595 -0.3099  0.6607 -0.2833
 6933SOL    HW132258   2.299   2.714  17.647 -0.2787  0.7376 -0.4106
 6933SOL    HW232259   2.360   2.623  17.551  1.0576  0.7464  2.3055
 6934SOL     OW32260   3.683   1.356   2.877 -0.2188  0.4698 -0.1956
 6934SOL    HW132261   3.609   1.390   2.928  0.0234 -1.8830  1.7489
 6934SOL    HW232262   3.642   1.310   2.804  1.4864 -0.7097 -0.4223
 6935SOL     OW32263   4.186   0.387  16.102  0.1006 -0.0396  0.0423
 6935SOL    HW132264   4.208   0.478  16.121  1.3138 -0.4258  0.5234
 6935SOL    HW232265   4.091   0.388  16.113 -0.0031 -3.8005 -0.3221
 6936SOL     OW32266   0.793   3.307   4.489 -0.3153 -0.1958 -0.2682
 6936SOL    HW132267   0.763   3.315   4.399 -1.6425  2.0868  0.3953
 6936SOL    HW232268   0.886   3.287   4.479 -0.3102 -0.9315  1.2007
 6937SOL     OW32269   1.657   1.935   4.759 -0.6233  0.6235 -0.5854
 6937SOL    HW132270   1.681   2.028   4.754 -1.2879  1.0153  3.4406
 6937SOL    HW232271   1.732   1.899   4.712 -0.0297  0.6691  0.3108
 6938SOL     OW32272   3.857   4.103  10.468  0.1065  0.0846 -0.4269
 6938SOL    HW132273   3.921   4.110  10.398 -0.9002 -1.6325 -1.5196
 6938SOL    HW232274   3.874   4.015  10.501  0.3321 -0.2001 -1.3334
 6939SOL     OW32275   1.384   0.898   1.799  0.0127 -0.2029 -0.2306
 6939SOL    HW132276   1.322   0.895   1.871 -0.0310 -1.2968 -0.3177
 6939SOL    HW232277   1.458   0.933   1.849 -1.0008  0.4880  0.7859
 6940SOL     OW32278   2.294   4.456   3.896  0.2348 -0.2830 -0.0670
 6940SOL    HW132279   2.362   4.476   3.832  2.0963  0.2513  2.1226
 6940SOL    HW232280   2.239   4.393   3.849 -1.5163 -0.1820  1.8253
 6941SOL     OW32281   1.088   1.396   6.775 -0.3103 -0.2098  0.1428
 6941SOL    HW132282   1.126   1.482   6.753  0.4579 -0.6280 -0.1611
 6941SOL    HW232283   1.136   1.374   6.854  0.2629  2.4600  0.5529
 6942SOL     OW32284   1.952   2.487   4.089  0.2125  0.9480 -0.2859
 6942SOL    HW132285   1.964   2.554   4.156 -1.0852  0.4824  0.4107
 6942SOL    HW232286   1.858   2.505   4.093 -0.0344 -0.3954 -0.0946
 6943SOL     OW32287   0.490   3.791   6.754  0.2938 -0.2745 -0.6665
 6943SOL    HW132288   0.530   3.708   6.782  0.1241 -0.3614 -0.6828
 6943SOL    HW232289   0.542   3.849   6.811 -2.5031  1.0078  0.5883
 6944SOL     OW32290   2.003   3.638   2.599 -0.0624 -0.8059 -0.8502
 6944SOL    HW132291   2.061   3.633   2.522  1.1770 -4.1154  0.2699
 6944SOL    HW232292   2.062   3.611   2.669 -2.0674 -2.6629  0.1346
 6945SOL     OW32293   0.369   2.755   6.992 -0.5350  0.1493  0.6958
 6945SOL    HW132294   0.402   2.810   6.921  1.0489 -0.4489  0.9636
 6945SOL    HW232295   0.378   2.819   7.062  0.1651 -0.2746  0.9923
 6946SOL     OW32296   3.765   2.970   4.995 -0.1222 -0.3076 -0.2401
 6946SOL    HW132297   3.838   2.932   5.043  1.9495  2.7980 -0.8785
 6946SOL    HW232298   3.690   2.937   5.044  0.2144  1.6459  1.6260
 6947SOL     OW32299   3.439   2.243  13.156  0.6273  0.0759  0.0137
 6947SOL    HW132300   3.400   2.316  13.108 -1.3373 -0.4285  0.8594
 6947SOL    HW232301   3.380   2.171  13.133 -1.1081  1.6757 -0.5425
 6948SOL     OW32302   2.056   2.780   2.901  0.4628 -0.1946 -0.4298
 6948SOL    HW132303   2.039   2.718   2.829 -0.1196 -2.5427  1.7350
 6948SOL    HW232304   2.007   2.744   2.975 -0.6795  2.2094 -0.0327
 6949SOL     OW32305   1.287   2.947   6.938 -0.3837  0.2972  0.5709
 6949SOL    HW132306   1.253   2.859   6.955  0.8062 -0.6086 -1.6851
 6949SOL    HW232307   1.381   2.931   6.945 -0.0138  1.4057 -1.7861
 6950SOL     OW32308   0.995   4.446   3.011 -0.2579 -0.4631 -0.1106
 6950SOL    HW132309   0.905   4.413   3.003  0.2273 -2.1102  1.2647
 6950SOL    HW232310   0.984   4.529   2.964  0.8869  0.3626  1.0886
 6951SOL     OW32311   4.453   3.306  16.147 -0.0958  0.1399  0.3279
 6951SOL    HW132312   4.532   3.308  16.092 -1.2579  0.2690 -1.3384
 6951SOL    HW232313   4.408   3.240  16.095 -1.6377 -0.7010  2.7478
 6952SOL     OW32314   3.433   2.974  12.396 -0.4365 -0.3154 -0.0694
 6952SOL    HW132315   3.524   2.974  12.426 -0.9507  0.8258  1.5081
 6952SOL    HW232316   3.452   3.003  12.307 -0.8128  0.8828  0.2409
 6953SOL     OW32317   1.606   3.774   9.300  0.0061  0.1434 -0.3106
 6953SOL    HW132318   1.669   3.842   9.325 -0.2824 -0.6691  2.6563
 6953SOL    HW232319   1.614   3.719   9.378  0.6385  0.2199 -0.3237
 6954SOL     OW32320   0.197   4.478   4.531 -0.0775  0.5250  0.0485
 6954SOL    HW132321   0.223   4.397   4.487  1.2093  0.7405  0.4120
 6954SOL    HW232322   0.124   4.505   4.475 -0.0643  0.3749 -0.0396
 6955SOL     OW32323   3.997   4.594  15.038 -0.2521 -0.0680  0.3335
 6955SOL    HW132324   3.905   4.613  15.057 -0.2668  0.9882 -0.8234
 6955SOL    HW232325   4.029   4.678  15.006 -1.1263  0.4870  0.9369
 6956SOL     OW32326   0.892   2.721   5.903 -0.1908 -0.4543  0.3480
 6956SOL    HW132327   0.945   2.776   5.845 -2.9715  0.8393 -0.9266
 6956SOL    HW232328   0.960   2.668   5.945  0.3903  1.0321  1.2962
 6957SOL     OW32329   3.293   0.125   4.749  0.2741  0.0372  0.1099
 6957SOL    HW132330   3.358   0.160   4.688  1.1053  0.5488  1.3017
 6957SOL    HW232331   3.231   0.081   4.691 -0.0732  1.3085 -0.4698
 6958SOL     OW32332   4.724   1.857  11.457 -0.1589  0.7445 -0.6954
 6958SOL    HW132333   4.659   1.927  11.448 -1.7966 -0.5810  0.6779
 6958SOL    HW232334   0.032   1.855  11.367 -0.0392  0.6800 -0.6507
 6959SOL     OW32335   1.806   2.315   2.485  0.5114 -0.2563 -0.7251
 6959SOL    HW132336   1.791   2.403   2.452 -0.7691  0.4607  1.7542
 6959SOL    HW232337   1.767   2.255   2.421 -0.9946  0.1089 -0.1637
 6960SOL     OW32338   0.946   0.871   0.961 -0.3240  0.9405  0.0650
 6960SOL    HW132339   0.865   0.910   0.929 -0.3070  2.0550  1.3883
 6960SOL    HW232340   0.930   0.782   0.928 -1.2225  1.7063 -1.5475
 6961SOL     OW32341   0.107   4.232   9.138  0.3251 -0.8014  0.4595
 6961SOL    HW132342   0.080   4.140   9.131  1.4183 -1.0268 -0.7509
 6961SOL    HW232343   0.104   4.239   9.233  0.0071 -0.8302  0.4519
 6962SOL     OW32344   3.184   1.376  17.085 -0.1866  0.0655 -0.1462
 6962SOL    HW132345   3.123   1.324  17.032  2.2270 -2.6358 -0.2377
 6962SOL    HW232346   3.272   1.343  17.068  0.2931  0.9316  0.7089
 6963SOL     OW32347   2.877   1.793   1.044 -0.2229  0.6776 -0.2531
 6963SOL    HW132348   2.851   1.884   1.061  0.2083  0.4605  1.6595
 6963SOL    HW232349   2.957   1.803   0.994  1.6434  1.1450  2.7905
 6964SOL     OW32350   3.351   2.208   5.178 -0.5406  0.7332  0.0441
 6964SOL    HW132351   3.419   2.143   5.197 -0.6148  0.5550 -0.2894
 6964SOL    HW232352   3.333   2.179   5.089 -1.0127 -0.6226  0.5827
 6965SOL     OW32353   0.395   3.919   0.957  1.0664  0.9323 -0.2496
 6965SOL    HW132354   0.484   3.898   0.927  0.8114  1.7228 -1.5829
 6965SOL    HW232355   0.373   3.828   0.975  0.5212  0.9747 -0.6994
 6966SOL     OW32356   0.017   1.799   7.396  0.4397 -0.4795 -0.3980
 6966SOL    HW132357   0.061   1.881   7.420 -0.8385  0.1516 -0.1970
 6966SOL    HW232358   0.059   1.772   7.315  2.7786  2.9831 -0.3512
 6967SOL     OW32359   1.693   3.270   5.162  0.3051  0.0776 -0.3937
 6967SOL    HW132360   1.604   3.238   5.179 -0.1395  1.4564 -0.1423
 6967SOL    HW232361   1.732   3.274   5.249  0.6087  2.6809 -0.6521
 6968SOL     OW32362   4.216   4.690  15.691 -0.5941  0.1764 -0.2921
 6968SOL    HW132363   4.286   4.642  15.648 -0.4630 -1.8222  2.1589
 6968SOL    HW232364   4.235   4.658  15.779 -2.3407 -0.0160  0.0156
 6969SOL     OW32365   0.088   3.557   5.330  0.3685 -0.0198  0.5257
 6969SOL    HW132366   0.104   3.591   5.242  2.4258 -0.2643  0.8204
 6969SOL    HW232367   0.013   3.609   5.359 -0.7360 -2.8531  2.7932
 6970SOL     OW32368   4.431   1.932   6.238  0.0041  0.0553  0.2450
 6970SOL    HW132369   4.428   1.874   6.314 -1.1228 -0.6376 -0.3389
 6970SOL    HW232370   4.408   1.869   6.171  0.8380 -0.1311  0.1313
 6971SOL     OW32371   0.348   2.731  16.427  0.4021  0.2725  0.4597
 6971SOL    HW132372   0.366   2.819  16.394 -1.2546  0.4530  0.0357
 6971SOL    HW232373   0.260   2.733  16.388  0.4400  3.8577  0.5919
 6972SOL     OW32374   3.359   1.556   6.574 -0.0929 -0.3363 -0.5624
 6972SOL    HW132375   3.435   1.607   6.546  0.5159 -0.8558  0.1482
 6972SOL    HW232376   3.406   1.473   6.569 -0.1645 -0.3459 -1.1011
 6973SOL     OW32377   1.644   4.488   4.258 -0.1569 -0.2784  0.1007
 6973SOL    HW132378   1.597   4.463   4.178 -1.1308  3.9995 -0.6748
 6973SOL    HW232379   1.661   4.403   4.299 -0.7548  0.5583  2.0981
 6974SOL     OW32380   0.916   0.846  12.561 -0.1798 -0.7142  0.4681
 6974SOL    HW132381   0.935   0.868  12.470 -0.9992 -1.6168  0.0753
 6974SOL    HW232382   0.903   0.751  12.556  1.2930 -1.0263  2.4347
 6975SOL     OW32383   3.797   1.589   4.101 -0.1561 -0.2263 -0.2868
 6975SOL    HW132384   3.808   1.544   4.018  0.2273 -0.3598 -0.1639
 6975SOL    HW232385   3.759   1.669   4.064  3.1266  0.4748 -2.1677
 6976SOL     OW32386   1.140   2.501  12.473 -0.4159  0.5098  0.2086
 6976SOL    HW132387   1.110   2.590  12.458  1.3395  0.9745 -0.5463
 6976SOL    HW232388   1.093   2.460  12.401 -1.7324 -0.6512  1.7277
 6977SOL     OW32389   0.340   0.315   4.561 -0.3935  0.1369  0.1077
 6977SOL    HW132390   0.322   0.269   4.643  1.7395  0.0110  0.4900
 6977SOL    HW232391   0.338   0.238   4.503 -0.5191 -0.1085  0.4355
 6978SOL     OW32392   1.011   3.110   4.241 -0.8511  0.4703  0.4187
 6978SOL    HW132393   1.071   3.125   4.168  0.7537 -0.7452  1.4752
 6978SOL    HW232394   0.929   3.099   4.193 -0.1431 -2.3873 -0.1591
 6979SOL     OW32395   0.356   1.225   4.483  0.1765 -0.2624 -0.0171
 6979SOL    HW132396   0.378   1.190   4.396 -0.5167 -1.2637  0.2143
 6979SOL    HW232397   0.308   1.153   4.523 -0.6789 -0.1036 -0.7595
 6980SOL     OW32398   3.023   0.319  13.647  0.7564  0.3282 -0.0148
 6980SOL    HW132399   3.013   0.225  13.630 -1.5104  0.7094 -0.8035
 6980SOL    HW232400   2.968   0.335  13.724  1.1206  1.1107  0.0843
 6981SOL     OW32401   4.577   3.996   9.657  0.2503 -0.8330 -0.6205
 6981SOL    HW132402   4.492   3.995   9.614 -0.6567  0.4662  1.1688
 6981SOL    HW232403   4.601   4.086   9.638  0.3420 -0.7608 -0.1574
 6982SOL     OW32404   4.181   2.806   4.160 -0.3616 -0.3805  0.0708
 6982SOL    HW132405   4.190   2.799   4.065  1.3053  2.2968  0.0318
 6982SOL    HW232406   4.087   2.790   4.166 -0.4169  0.5844  1.9530
 6983SOL     OW32407   3.060   2.117   7.673  0.0601 -0.0117  0.2230
 6983SOL    HW132408   3.095   2.129   7.761 -1.1957 -1.9198  0.9890
 6983SOL    HW232409   2.977   2.165   7.682  0.4095  0.4791  0.8532
 6984SOL     OW32410   3.995   3.074   7.355 -0.3544  0.1145  0.0530
 6984SOL    HW132411   4.023   3.051   7.267  0.2822  1.8243 -0.1975
 6984SOL    HW232412   4.043   3.157   7.357 -1.0076  0.4562  1.5497
 6985SOL     OW32413   2.215   0.342  10.085 -0.0890  0.4065 -0.0720
 6985SOL    HW132414   2.140   0.400  10.071  1.0988  2.5000  2.4637
 6985SOL    HW232415   2.229   0.310   9.995  1.2040 -1.4269  0.7867
 6986SOL     OW32416   3.226   4.677   4.383  0.6182 -0.3928  0.3819
 6986SOL    HW132417   3.165   4.612   4.421  0.0818  0.1068  0.3781
 6986SOL    HW232418   3.177   0.034   4.391 -0.2684 -0.6856 -2.0530
 6987SOL     OW32419   0.486   3.502   0.660 -0.1553 -0.4967  0.3212
 6987SOL    HW132420   0.501   3.522   0.753 -2.0872  2.5669 -0.0563
 6987SOL    HW232421   0.490   3.408   0.679 -0.6165 -0.2838  1.4914
 6988SOL     OW32422   4.675   4.259  11.985 -0.2817  0.3560 -0.1560
 6988SOL    HW132423   4.698   4.206  12.061 -0.2124 -1.0652 -1.1711
 6988SOL    HW232424   4.587   4.284  12.011 -0.2079  0.4426  0.0063
 6989SOL     OW32425   3.146   0.112   3.274 -0.0387 -0.3141 -0.0023
 6989SOL    HW132426   3.219   0.052   3.292  0.5081  0.1706 -0.5856
 6989SOL    HW232427   3.100   0.095   3.356 -0.8469 -0.8585 -0.5700
 6990SOL     OW32428   1.271   3.229   6.276 -0.0288 -0.0120  0.4772
 6990SOL    HW132429   1.245   3.310   6.231  0.5846 -0.7554 -1.2157
 6990SOL    HW232430   1.347   3.213   6.220 -1.4368  2.8269 -2.2726
 6991SOL     OW32431   0.620   2.921   6.805  0.1722 -0.6222  0.6366
 6991SOL    HW132432   0.702   2.873   6.795  1.2757  1.5655 -1.0203
 6991SOL    HW232433   0.596   2.923   6.712 -3.3912 -0.3706  1.5550
 6992SOL     OW32434   3.689   2.528   7.885  0.7581  0.5247  0.3974
 6992SOL    HW132435   3.737   2.597   7.930 -2.2440  1.9061  1.4229
 6992SOL    HW232436   3.759   2.475   7.845  2.6920  2.3586  1.3754
 6993SOL     OW32437   3.708   3.559   9.076 -0.4116 -0.2981  0.5426
 6993SOL    HW132438   3.747   3.563   9.164  0.0837  0.5247  0.2881
 6993SOL    HW232439   3.613   3.560   9.088 -0.5732 -0.6613 -0.6943
 6994SOL     OW32440   4.477   3.281   3.825 -0.3323 -0.2264  0.3209
 6994SOL    HW132441   4.519   3.345   3.882  2.0654  0.4317 -2.2146
 6994SOL    HW232442   4.452   3.330   3.747  1.4910  1.1823  0.6314
 6995SOL     OW32443   4.426   0.342   6.775  0.4092  0.2602  0.2860
 6995SOL    HW132444   4.516   0.328   6.802  0.0395 -0.5304  1.1126
 6995SOL    HW232445   4.392   0.394   6.847 -1.5742 -2.5498  1.3784
 6996SOL     OW32446   0.884   4.686   6.692 -0.2497 -0.4884  0.1076
 6996SOL    HW132447   0.839   4.712   6.611  0.3426 -0.9499 -0.3719
 6996SOL    HW232448   0.816   4.698   6.757  1.0707  0.0178  1.3979
 6997SOL     OW32449   1.486   3.806   0.154 -0.2432 -0.5990 -0.6443
 6997SOL    HW132450   1.472   3.885   0.102 -0.8710 -1.4490 -1.7581
 6997SOL    HW232451   1.555   3.836   0.213 -1.0175  0.1524 -0.1226
 6998SOL     OW32452   4.087   0.403  10.387 -0.3989 -0.1239 -0.5720
 6998SOL    HW132453   4.048   0.415  10.300 -3.7497 -0.7638  0.8546
 6998SOL    HW232454   4.106   0.493  10.413  1.3667 -0.6609  0.0090
 6999SOL     OW32455   1.386   2.128   7.178  0.7812 -0.4218 -0.1796
 6999SOL    HW132456   1.310   2.149   7.232  0.2632  1.7479 -1.7658
 6999SOL    HW232457   1.453   2.110   7.244  0.8901  0.1694 -0.1296
 7000SOL     OW32458   1.192   3.076   2.111  0.0286  0.0073 -0.3548
 7000SOL    HW132459   1.138   3.078   2.190 -2.3989 -0.4963 -2.0110
 7000SOL    HW232460   1.195   2.983   2.087  0.7817  0.3137 -1.4320
 7001SOL     OW32461   2.545   4.285   2.907 -0.1594  0.1005  0.3237
 7001SOL    HW132462   2.602   4.361   2.920  0.2277 -0.5641  2.6375
 7001SOL    HW232463   2.543   4.274   2.812  1.8856 -0.1583  0.3212
 7002SOL     OW32464   3.687   2.394   3.228  0.1367 -0.3319  0.2750
 7002SOL    HW132465   3.696   2.418   3.136  0.2239 -1.0910  0.0841
 7002SOL    HW232466   3.606   2.441   3.247 -0.5293 -0.4085 -2.3645
 7003SOL     OW32467   0.283   3.100   6.951  0.0554  0.1231 -0.4223
 7003SOL    HW132468   0.247   3.039   6.888  0.3824 -0.0601 -0.4312
 7003SOL    HW232469   0.333   3.167   6.904 -1.7366 -0.0620 -2.5715
 7004SOL     OW32470   2.504   0.963   3.769 -0.2781 -0.4296 -0.2765
 7004SOL    HW132471   2.457   1.038   3.734  0.6928 -0.6173 -1.9835
 7004SOL    HW232472   2.453   0.895   3.725  0.9421 -0.0593 -2.2517
 7005SOL     OW32473   2.130   1.945  12.745 -0.0857 -0.2581  0.2014
 7005SOL    HW132474   2.162   1.857  12.762  1.7020  0.4579  0.5622
 7005SOL    HW232475   2.153   1.961  12.653 -2.3560 -2.3787 -0.7347
 7006SOL     OW32476   3.453   0.486   0.593 -0.3426 -0.1222  0.1325
 7006SOL    HW132477   3.432   0.435   0.515 -0.7855 -0.7307  0.6427
 7006SOL    HW232478   3.434   0.418   0.658  1.1128 -0.9119 -0.2616
 7007SOL     OW32479   4.231   2.241   5.118  0.1462  0.0949  0.1293
 7007SOL    HW132480   4.154   2.228   5.063  0.8028  3.6774 -1.5984
 7007SOL    HW232481   4.281   2.160   5.127  1.5216  0.8808 -0.4297
 7008SOL     OW32482   2.742   2.399   3.632  0.0442 -0.4516 -0.0918
 7008SOL    HW132483   2.805   2.329   3.619  1.4999  0.7026  0.6715
 7008SOL    HW232484   2.688   2.365   3.703 -1.2732  0.4071 -0.6600
 7009SOL     OW32485   1.082   3.512   4.857  0.8101  0.0199 -0.3986
 7009SOL    HW132486   1.005   3.493   4.911 -0.1252  1.6458 -1.1554
 7009SOL    HW232487   1.123   3.566   4.923  0.4977  0.2947 -0.4281
 7010SOL     OW32488   0.402   4.092   3.063  0.1916  0.4566  0.3865
 7010SOL    HW132489   0.325   4.046   3.097  1.1754 -2.1689 -0.9979
 7010SOL    HW232490   0.373   4.135   2.983  1.4705 -0.4822 -0.5797
 7011SOL     OW32491   0.546   0.812   5.055 -0.1315 -0.0572  0.1988
 7011SOL    HW132492   0.601   0.774   4.987 -1.0590 -1.2817  0.1436
 7011SOL    HW232493   0.582   0.778   5.137  0.7060 -0.1887 -0.2168
 7012SOL     OW32494   4.581   2.971   2.646 -0.5200  0.6545  0.8957
 7012SOL    HW132495   4.549   2.964   2.555  2.1383  0.5758 -0.0361
 7012SOL    HW232496   4.500   2.970   2.697 -0.0465  0.0129  1.6259
 7013SOL     OW32497   0.367   3.337   7.631  0.4730  0.0996  0.2256
 7013SOL    HW132498   0.419   3.400   7.580 -1.1908  1.3275  0.0626
 7013SOL    HW232499   0.294   3.396   7.648  0.0588 -1.3245  3.4916
 7014SOL     OW32500   0.442   4.289   0.104 -0.2900  0.3717 -0.1346
 7014SOL    HW132501   0.389   4.211   0.121  0.6327 -0.7347 -2.3520
 7014SOL    HW232502   0.419   4.338   0.183  0.5285 -0.6074  0.7085
 7015SOL     OW32503   3.672   1.945   2.225 -0.6726 -0.4455 -0.2218
 7015SOL    HW132504   3.627   1.956   2.141  0.9922 -3.8323 -1.5543
 7015SOL    HW232505   3.685   1.851   2.233 -0.5851 -0.3467  0.7329
 7016SOL     OW32506   2.479   1.953   8.714  0.6174 -0.0644  0.0659
 7016SOL    HW132507   2.391   1.915   8.708  1.3527 -1.7892  0.2781
 7016SOL    HW232508   2.469   2.034   8.764 -2.7677  0.1087 -0.8921
 7017SOL     OW32509   2.140   0.330   6.406 -0.1156 -0.4975  0.2925
 7017SOL    HW132510   2.060   0.340   6.354  0.3062  2.2323  0.1711
 7017SOL    HW232511   2.117   0.241   6.432  1.4245  0.0058  3.3470
 7018SOL     OW32512   2.473   2.282   8.220 -0.0823 -0.1146 -0.2602
 7018SOL    HW132513   2.378   2.281   8.237  0.0956  1.0375  0.8215
 7018SOL    HW232514   2.469   2.273   8.125 -2.2544  0.0563 -0.1850
 7019SOL     OW32515   2.675   2.352   2.155 -0.1290  0.7406  0.1160
 7019SOL    HW132516   2.686   2.330   2.247  0.4791 -1.3321 -0.4514
 7019SOL    HW232517   2.736   2.291   2.113 -0.5009  0.3905  0.0844
 7020SOL     OW32518   2.939   4.416  11.441 -0.3948 -0.1426 -0.3206
 7020SOL    HW132519   2.962   4.506  11.463  0.2200 -0.9104  2.2602
 7020SOL    HW232520   3.002   4.372  11.498 -0.1911 -1.2942 -1.4268
 7021SOL     OW32521   4.239   0.492   8.548  0.0182 -0.2147  0.5276
 7021SOL    HW132522   4.305   0.532   8.492 -0.7611  0.1623 -0.1220
 7021SOL    HW232523   4.157   0.497   8.498  0.0205 -0.5951  0.4789
 7022SOL     OW32524   1.978   2.912  12.352 -0.1056  0.3613 -0.1371
 7022SOL    HW132525   1.895   2.875  12.380 -0.0222  0.9709  0.9416
 7022SOL    HW232526   1.987   2.978  12.422  0.2575 -0.0183  0.1764
 7023SOL     OW32527   0.573   3.974  17.378 -0.0272 -0.5321 -0.3483
 7023SOL    HW132528   0.488   3.935  17.358 -0.1373 -0.5181  0.1091
 7023SOL    HW232529   0.588   3.973  17.472 -0.3716 -0.2148 -0.2923
 7024SOL     OW32530   0.632   3.073   7.828  0.7550  0.3174  0.3698
 7024SOL    HW132531   0.578   3.144   7.863  1.9377  1.6150 -0.4408
 7024SOL    HW232532   0.699   3.062   7.895  1.1417 -0.3762 -0.1342
 7025SOL     OW32533   2.080   1.940   3.652 -0.0303  0.1241 -0.0060
 7025SOL    HW132534   2.051   1.855   3.617  3.4656 -1.1397  0.1283
 7025SOL    HW232535   2.049   2.003   3.588 -0.2767  0.5449  0.5332
 7026SOL     OW32536   0.530   4.684   6.116  0.1236  0.0075  0.7628
 7026SOL    HW132537   0.449   4.670   6.067  0.3805  1.8971 -0.2138
 7026SOL    HW232538   0.515   0.049   6.146 -0.3789 -0.2081  1.1398
 7027SOL     OW32539   3.928   2.178   2.595 -0.1577 -0.4951  0.3085
 7027SOL    HW132540   4.005   2.174   2.538 -1.5276  0.2096 -1.5819
 7027SOL    HW232541   3.859   2.183   2.529 -0.0249 -1.5145  0.1035
 7028SOL     OW32542   4.617   3.706   5.422  0.7490  0.0698  0.3748
 7028SOL    HW132543   4.547   3.649   5.455 -0.8921  2.0849  0.3465
 7028SOL    HW232544   4.618   3.777   5.486 -1.9515  1.1445 -0.7578
 7029SOL     OW32545   0.538   1.458   8.334 -0.0070 -0.5231 -0.4544
 7029SOL    HW132546   0.577   1.386   8.284 -0.0658 -1.8899  1.4229
 7029SOL    HW232547   0.577   1.436   8.419 -0.9214 -0.3144  0.0220
 7030SOL     OW32548   3.721   1.681   2.265  0.0316 -0.0622 -0.1695
 7030SOL    HW132549   3.662   1.654   2.335 -0.2098  0.1703 -0.2798
 7030SOL    HW232550   3.802   1.631   2.274  0.4970  0.9689  1.2308
 7031SOL     OW32551   3.286   0.627   8.366  0.5190 -0.6338 -0.0939
 7031SOL    HW132552   3.210   0.644   8.422 -1.0499 -0.5806 -2.2593
 7031SOL    HW232553   3.269   0.695   8.301  1.4324  3.2946  3.7907
 7032SOL     OW32554   0.846   3.948   5.841  0.1242  0.1432  1.0031
 7032SOL    HW132555   0.765   3.996   5.825  0.6122  0.8126  0.5048
 7032SOL    HW232556   0.847   3.948   5.936  3.3889  0.5226  0.9845
 7033SOL     OW32557   3.582   2.696  13.041  0.1344  0.0830  0.0220
 7033SOL    HW132558   3.562   2.626  12.979  1.0980 -0.5675  0.4462
 7033SOL    HW232559   3.640   2.642  13.095 -0.7775  2.5315  3.4626
 7034SOL     OW32560   2.899   0.681   5.157  0.2140 -0.3539  0.5116
 7034SOL    HW132561   2.832   0.696   5.223 -0.2370  0.9288 -0.2384
 7034SOL    HW232562   2.977   0.718   5.199  1.3532 -0.3216 -1.6349
 7035SOL     OW32563   2.416   1.523   7.806  0.1090  0.1532 -0.2735
 7035SOL    HW132564   2.333   1.571   7.804  0.1799  0.3640  1.5845
 7035SOL    HW232565   2.470   1.562   7.738 -1.3895  1.2763 -0.8196
 7036SOL     OW32566   3.796   2.250  10.548  0.3522  0.3927  0.4122
 7036SOL    HW132567   3.804   2.182  10.482  2.4315  1.2912 -0.2672
 7036SOL    HW232568   3.769   2.324  10.494  0.5250  0.3557  0.2783
 7037SOL     OW32569   2.504   3.196  11.933 -0.0647  0.3872 -0.6679
 7037SOL    HW132570   2.584   3.146  11.921 -0.2982 -0.1695  0.1096
 7037SOL    HW232571   2.480   3.205  11.841  0.2510 -1.9406 -0.9644
 7038SOL     OW32572   2.982   4.392   0.863  0.4179 -0.2222 -0.2418
 7038SOL    HW132573   3.037   4.463   0.830 -0.1486  0.0203 -0.6516
 7038SOL    HW232574   3.015   4.318   0.812  2.7652  2.1094 -2.1045
 7039SOL     OW32575   3.423   2.007   9.393 -0.4809 -0.1457 -0.3130
 7039SOL    HW132576   3.411   2.095   9.359  1.9453  0.5012  0.4380
 7039SOL    HW232577   3.334   1.975   9.407  0.1717 -1.8943 -0.1436
 7040SOL     OW32578   4.079   4.412  16.741 -0.1240  0.0619  0.2543
 7040SOL    HW132579   4.127   4.349  16.687 -0.5601 -0.1100  0.0684
 7040SOL    HW232580   4.142   4.445  16.805 -1.0033  1.2140  0.5116
 7041SOL     OW32581   4.702   1.771   2.709  0.0511 -0.5244  0.1006
 7041SOL    HW132582   4.654   1.852   2.698  0.7482  0.1239  1.7497
 7041SOL    HW232583   0.029   1.760   2.629 -0.4267 -0.7597 -0.1741
 7042SOL     OW32584   1.556   0.285   2.922  0.0186 -0.4479 -0.2058
 7042SOL    HW132585   1.482   0.258   2.868 -0.4575  0.9047 -0.2379
 7042SOL    HW232586   1.636   0.265   2.873 -0.1546 -0.1795 -0.5990
 7043SOL     OW32587   4.507   0.922   5.025 -0.2297  0.4105  0.4344
 7043SOL    HW132588   4.577   0.971   4.982 -1.0575  0.6904 -0.5795
 7043SOL    HW232589   4.550   0.900   5.108  1.1769 -1.3280 -0.7550
 7044SOL     OW32590   2.094   0.547   5.323 -0.0774  0.0449 -0.1820
 7044SOL    HW132591   2.035   0.551   5.398  1.0914  2.5403  0.6075
 7044SOL    HW232592   2.119   0.455   5.318  0.8787  0.4568 -2.8376
 7045SOL     OW32593   3.781   1.059   7.714 -0.3057  0.0490  0.5467
 7045SOL    HW132594   3.731   1.119   7.658  1.1945 -0.8271 -1.7366
 7045SOL    HW232595   3.862   1.047   7.664  2.2334  3.7559  3.7190
 7046SOL     OW32596   0.799   3.607   8.697  0.0673 -0.4760 -0.2454
 7046SOL    HW132597   0.884   3.620   8.739  0.6905 -1.9991 -1.0281
 7046SOL    HW232598   0.778   3.517   8.724 -3.4383  0.1735 -0.7675
 7047SOL     OW32599   4.542   0.978   6.776  0.3118  0.5559 -0.0595
 7047SOL    HW132600   4.617   1.035   6.760  1.5805 -1.0692  0.0239
 7047SOL    HW232601   4.470   1.035   6.751  0.2647  1.6361  2.5679
 7048SOL     OW32602   3.380   2.512   9.563  0.0264  0.0449 -0.0240
 7048SOL    HW132603   3.384   2.496   9.657 -0.4398  1.5965  0.2656
 7048SOL    HW232604   3.395   2.607   9.559  0.4772  0.1224  3.7380
 7049SOL     OW32605   3.513   2.750   3.151 -0.3472  0.2167  0.2246
 7049SOL    HW132606   3.538   2.749   3.059  1.6334 -0.2176  0.7526
 7049SOL    HW232607   3.418   2.735   3.153 -0.2864 -0.3738 -1.4925
 7050SOL     OW32608   3.163   3.073   2.936 -0.3041 -0.1585 -0.1835
 7050SOL    HW132609   3.143   2.979   2.937  1.5401 -0.5609 -0.8082
 7050SOL    HW232610   3.259   3.064   2.937 -0.3033 -0.1580 -0.2530
 7051SOL     OW32611   2.962   3.160   0.651  0.2140  0.4662  0.5731
 7051SOL    HW132612   2.956   3.200   0.564  2.0719  1.1893  0.7825
 7051SOL    HW232613   2.867   3.166   0.664 -0.2149 -0.1499 -2.1578
 7052SOL     OW32614   3.269   3.038  14.907  0.1854  0.4169  0.1051
 7052SOL    HW132615   3.333   3.093  14.952  1.6455  0.6884 -2.3012
 7052SOL    HW232616   3.322   3.014  14.831 -0.1932  1.6478 -0.5458
 7053SOL     OW32617   0.683   1.297   8.513  0.1962  0.0462  0.3467
 7053SOL    HW132618   0.772   1.329   8.496  0.0184  0.3503 -0.0121
 7053SOL    HW232619   0.687   1.280   8.607  0.0380 -0.6656  0.2183
 7054SOL     OW32620   0.040   4.083   8.338 -0.1671 -0.1333 -0.2571
 7054SOL    HW132621   0.089   4.113   8.262  0.9145  1.2937  0.9894
 7054SOL    HW232622   0.090   4.095   8.419 -1.7237  0.5248  0.6071
 7055SOL     OW32623   0.563   2.864   9.705  0.9897 -0.1405  0.2786
 7055SOL    HW132624   0.654   2.841   9.725  0.8577 -1.9770 -1.2025
 7055SOL    HW232625   0.563   2.955   9.734 -1.5762  0.2971 -1.1074
 7056SOL     OW32626   0.939   3.353   9.972 -0.5876  0.3088 -0.5056
 7056SOL    HW132627   0.917   3.432   9.924  2.1650  1.8979  0.8149
 7056SOL    HW232628   1.032   3.342   9.952  0.0061  2.0500  1.3044
 7057SOL     OW32629   0.299   3.487   3.643  0.3449 -0.5573 -0.5174
 7057SOL    HW132630   0.219   3.484   3.695 -0.3883  0.5440 -1.6030
 7057SOL    HW232631   0.285   3.562   3.585  1.1711 -0.3905 -0.5048
 7058SOL     OW32632   1.373   3.369   6.502 -0.0783 -0.1084  0.4948
 7058SOL    HW132633   1.351   3.319   6.423 -0.2584  0.0105  0.4694
 7058SOL    HW232634   1.367   3.461   6.479 -0.0454 -0.4013 -0.7032
 7059SOL     OW32635   3.240   3.120   0.127 -0.2648  0.2952  0.2684
 7059SOL    HW132636   3.223   3.078   0.211 -0.2485 -2.2981 -1.0153
 7059SOL    HW232637   3.334   3.103   0.124  0.2753  3.6835 -1.7914
 7060SOL     OW32638   3.914   4.702   0.784  0.1043  0.0333  0.0249
 7060SOL    HW132639   3.844   0.033   0.818  0.8151  1.4331 -0.7864
 7060SOL    HW232640   3.873   4.616   0.781  0.0290  0.0432  0.7122
 7061SOL     OW32641   4.695   3.757   9.512  0.0434 -0.0184  0.1782
 7061SOL    HW132642   0.035   3.810   9.466  2.3867 -2.9367  0.1250
 7061SOL    HW232643   4.669   3.822   9.577  0.9407  0.9891 -0.4896
 7062SOL     OW32644   0.280   2.357   6.126  0.6875 -0.6519  0.1220
 7062SOL    HW132645   0.216   2.334   6.193  1.6079 -1.9132  0.5723
 7062SOL    HW232646   0.368   2.360   6.163  0.5039  1.2468  0.4279
 7063SOL     OW32647   4.717   0.982   3.110  0.2734  0.1231  0.2416
 7063SOL    HW132648   4.649   0.926   3.073 -0.4516  0.8376  0.4921
 7063SOL    HW232649   0.010   0.916   3.177 -0.0232 -0.2953 -0.0987
 7064SOL     OW32650   3.469   3.352   2.017  0.1567  0.2128  0.2365
 7064SOL    HW132651   3.444   3.281   2.076 -0.6139  0.6124  0.3863
 7064SOL    HW232652   3.386   3.399   2.012 -0.4112 -0.7967  0.1147
 7065SOL     OW32653   0.158   2.513   2.108  0.3715 -0.2073 -0.1693
 7065SOL    HW132654   0.150   2.433   2.056 -0.1010 -1.1813  1.3836
 7065SOL    HW232655   0.109   2.491   2.187 -2.0897  1.1623 -1.2947
 7066SOL     OW32656   4.513   4.687   7.093  0.2044  0.5241  0.3041
 7066SOL    HW132657   4.493   4.674   7.186 -0.1387 -1.0227 -0.0064
 7066SOL    HW232658   4.609   4.687   7.102 -0.0298  0.4543  2.9454
 7067SOL     OW32659   1.004   0.882  12.303 -0.5084 -0.2246  0.0297
 7067SOL    HW132660   1.026   0.810  12.245 -0.3968 -0.7405  0.7215
 7067SOL    HW232661   0.994   0.950  12.236  2.3284  0.3485  0.1973
 7068SOL     OW32662   2.268   2.453  10.092 -0.0669 -0.5164  0.1831
 7068SOL    HW132663   2.221   2.524  10.134 -0.8957 -1.3275  0.6167
 7068SOL    HW232664   2.360   2.478  10.104 -0.0905 -1.0719  1.5502
 7069SOL     OW32665   1.360   0.734   1.133 -0.4939  0.1568 -0.2785
 7069SOL    HW132666   1.387   0.642   1.136 -0.1606  0.2503 -0.4641
 7069SOL    HW232667   1.302   0.736   1.209 -0.1606 -1.6456  0.0440
 7070SOL     OW32668   2.799   2.151   0.792  0.3732  0.5169 -0.4344
 7070SOL    HW132669   2.739   2.156   0.717 -0.3371  0.4219  0.1357
 7070SOL    HW232670   2.874   2.208   0.772  1.3490 -0.3029  0.8703
 7071SOL     OW32671   0.208   0.453   8.086 -0.3666 -0.4073 -0.2435
 7071SOL    HW132672   0.140   0.468   8.021 -3.8280  3.1047  4.1319
 7071SOL    HW232673   0.212   0.358   8.077 -0.4628 -0.3761 -0.6261
 7072SOL     OW32674   4.376   3.591   5.227  0.6123 -0.2040  0.2173
 7072SOL    HW132675   4.359   3.542   5.147  1.5161  0.9174 -0.6484
 7072SOL    HW232676   4.355   3.519   5.288 -3.6204  0.1751 -0.7555
 7073SOL     OW32677   0.319   2.169   0.591  0.2709  0.1031  0.2726
 7073SOL    HW132678   0.414   2.167   0.587  0.2905  2.7777 -0.4621
 7073SOL    HW232679   0.295   2.111   0.663  2.2348  0.1345  0.9302
 7074SOL     OW32680   1.009   2.409  10.773  0.1427  0.0545 -0.3460
 7074SOL    HW132681   1.015   2.440  10.683 -0.0675  0.9842 -0.0443
 7074SOL    HW232682   0.996   2.317  10.750 -0.6266 -0.0509  0.4898
 7075SOL     OW32683   0.891   2.258   6.873 -0.2222 -0.0039 -0.4327
 7075SOL    HW132684   0.963   2.311   6.907 -1.3712  2.8645 -2.4867
 7075SOL    HW232685   0.821   2.318   6.897 -0.7555 -0.7042 -0.2340
 7076SOL     OW32686   2.093   2.730   5.584  0.1102  0.0915  0.3447
 7076SOL    HW132687   2.033   2.671   5.629  0.6019  0.1078  1.0221
 7076SOL    HW232688   2.171   2.673   5.586 -0.2120 -0.4104 -2.0266
 7077SOL     OW32689   2.266   2.055   2.431 -0.1400  0.1160  0.1318
 7077SOL    HW132690   2.341   2.060   2.372  0.1183 -2.0465  0.2692
 7077SOL    HW232691   2.245   1.962   2.424  3.0186 -0.5931  0.2782
 7078SOL     OW32692   0.166   3.316   2.933  0.3649  0.1750  0.0770
 7078SOL    HW132693   0.250   3.325   2.889 -1.3290 -0.3084 -3.2297
 7078SOL    HW232694   0.120   3.303   2.850  2.0454 -3.7364 -0.2487
 7079SOL     OW32695   2.138   3.576   8.907 -0.0132  0.5597 -0.2330
 7079SOL    HW132696   2.081   3.565   8.831  0.2535  0.9296 -0.4888
 7079SOL    HW232697   2.197   3.642   8.869 -0.7092 -0.1972 -2.6358
 7080SOL     OW32698   0.241   2.345   7.539 -0.6808 -0.2391  0.0559
 7080SOL    HW132699   0.200   2.357   7.624 -4.0168 -0.8265 -1.4633
 7080SOL    HW232700   0.194   2.273   7.497 -1.0696 -0.6224  1.1539
 7081SOL     OW32701   4.448   4.292   0.779 -0.0352  0.0549  0.0207
 7081SOL    HW132702   4.509   4.225   0.750 -0.9807 -0.9099  0.2694
 7081SOL    HW232703   4.368   4.240   0.773  1.5982 -2.0583 -2.8706
 7082SOL     OW32704   2.028   0.604   8.883 -0.0674  0.1441  0.2329
 7082SOL    HW132705   2.048   0.673   8.819 -0.2264 -0.3753 -0.3794
 7082SOL    HW232706   2.031   0.658   8.962 -0.4504  0.4041  0.0675
 7083SOL     OW32707   2.866   2.238  13.736  0.0673  0.0064  0.0465
 7083SOL    HW132708   2.961   2.224  13.746  0.1646  0.2025 -0.6001
 7083SOL    HW232709   2.832   2.247  13.824 -0.1267  2.2064 -0.2497
 7084SOL     OW32710   3.045   2.064   8.526 -0.4110 -0.7553 -0.2526
 7084SOL    HW132711   3.005   2.097   8.446 -3.4747  0.1258  1.6114
 7084SOL    HW232712   3.138   2.051   8.509 -0.7222 -3.6783  0.3889
 7085SOL     OW32713   2.224   0.568   3.223  0.0726 -0.0147  0.3055
 7085SOL    HW132714   2.229   0.474   3.211 -0.3875  0.3931 -2.9387
 7085SOL    HW232715   2.149   0.583   3.281  0.4801  2.4638  0.2007
 7086SOL     OW32716   3.632   1.642   0.901  0.6321 -0.0177  0.2423
 7086SOL    HW132717   3.666   1.647   0.812 -0.1059 -2.3802 -0.1766
 7086SOL    HW232718   3.584   1.724   0.899 -1.7637 -1.4009  0.3486
 7087SOL     OW32719   0.609   3.179   4.663 -0.0928 -0.2816  0.4317
 7087SOL    HW132720   0.690   3.208   4.621 -0.4398  0.1121  0.0301
 7087SOL    HW232721   0.645   3.163   4.751 -0.7111  1.5816  1.0274
 7088SOL     OW32722   3.709   4.244  11.286 -0.3922  0.0440 -0.0301
 7088SOL    HW132723   3.614   4.254  11.289 -0.4923 -1.1802  1.0398
 7088SOL    HW232724   3.726   4.296  11.365  1.7156  3.2578 -2.6471
 7089SOL     OW32725   2.220   1.015  16.552 -0.1807  0.4400  0.6858
 7089SOL    HW132726   2.158   1.087  16.542  0.9483  1.3577  0.4227
 7089SOL    HW232727   2.214   0.978  16.464 -0.5410 -1.5347  1.5255
 7090SOL     OW32728   2.841   1.711   4.699  0.1777  0.2027  0.4299
 7090SOL    HW132729   2.863   1.760   4.778 -2.2185 -0.8217  1.7517
 7090SOL    HW232730   2.760   1.750   4.666  0.5470  1.1325  0.6151
 7091SOL     OW32731   1.296   0.791   0.270  0.8938 -0.7552  0.5949
 7091SOL    HW132732   1.311   0.885   0.258  0.5391 -0.8035 -0.2219
 7091SOL    HW232733   1.206   0.793   0.236  0.6078  0.7438  1.4351
 7092SOL     OW32734   1.880   1.701   8.117  0.4594 -0.2161  0.6363
 7092SOL    HW132735   1.917   1.787   8.138  1.0742 -0.2055 -0.4849
 7092SOL    HW232736   1.910   1.647   8.191 -0.9168 -0.3655  1.0708
 7093SOL     OW32737   0.343   0.698   5.769 -0.0984 -0.3386  0.0685
 7093SOL    HW132738   0.251   0.679   5.749  0.2552  0.0850 -1.9797
 7093SOL    HW232739   0.387   0.691   5.684 -0.5451  3.0627 -0.4373
 7094SOL     OW32740   1.724   0.752   1.956  0.6017  0.2122 -0.0430
 7094SOL    HW132741   1.719   0.819   1.888  2.0473  0.8942  0.5297
 7094SOL    HW232742   1.694   0.672   1.913 -1.0486  1.5714 -1.4173
 7095SOL     OW32743   3.929   2.831   7.011  0.6446  0.2769 -0.0720
 7095SOL    HW132744   3.856   2.892   7.020  1.8736  1.9850 -1.6969
 7095SOL    HW232745   3.988   2.869   7.076  2.1613  0.5236 -1.5758
 7096SOL     OW32746   1.154   3.358   0.809 -0.2388 -0.1820 -0.1921
 7096SOL    HW132747   1.130   3.275   0.850 -0.2889  0.2334  0.6098
 7096SOL    HW232748   1.093   3.422   0.845  0.5801  1.3243 -1.5189
 7097SOL     OW32749   1.441   0.008   6.635  0.5649 -0.1285 -0.2580
 7097SOL    HW132750   1.492   0.087   6.618 -0.1504  0.5678  0.8097
 7097SOL    HW232751   1.426   4.707   6.544 -0.2065  0.2190 -0.2254
 7098SOL     OW32752   3.172   0.579   4.496  0.5245 -0.0406  0.6813
 7098SOL    HW132753   3.091   0.539   4.529 -0.5066  0.8244 -0.7795
 7098SOL    HW232754   3.149   0.555   4.406  0.4130  0.8005  0.4884
 7099SOL     OW32755   0.359   0.926   7.986  0.6026  0.3433  0.1670
 7099SOL    HW132756   0.338   0.908   8.078 -1.9744  0.8397 -0.3019
 7099SOL    HW232757   0.305   1.005   7.977  0.4106  0.0486 -1.2830
 7100SOL     OW32758   2.955   0.381   7.652 -0.2868 -0.0737  0.3347
 7100SOL    HW132759   3.040   0.388   7.695  0.6462  0.0071 -1.5394
 7100SOL    HW232760   2.944   0.290   7.624  0.2937 -0.6999  2.1522
 7101SOL     OW32761   0.151   2.168  17.222 -0.0407 -0.1624  0.3518
 7101SOL    HW132762   0.138   2.123  17.306  2.0807 -2.2060 -0.4182
 7101SOL    HW232763   0.104   2.114  17.159  0.3447  0.3255 -0.3593
 7102SOL     OW32764   4.405   3.695   2.955 -0.4706  0.2119 -0.0187
 7102SOL    HW132765   4.378   3.763   2.893  1.0710 -0.8765 -1.8620
 7102SOL    HW232766   4.332   3.633   2.956 -0.7491  0.5039 -1.6388
 7103SOL     OW32767   1.603   1.476   0.334  0.5559  0.3141 -0.3550
 7103SOL    HW132768   1.586   1.426   0.254 -1.9330 -0.0193  0.3668
 7103SOL    HW232769   1.521   1.445   0.374 -0.1039  4.0888  1.2374
 7104SOL     OW32770   0.915   2.273  11.124 -0.3580 -0.1040 -0.1570
 7104SOL    HW132771   0.974   2.233  11.060  1.0079  0.8274  0.4961
 7104SOL    HW232772   0.945   2.247  11.211  0.7599  1.4746 -0.0652
 7105SOL     OW32773   3.844   2.437   3.665  0.0504  0.0184 -0.0738
 7105SOL    HW132774   3.896   2.469   3.591 -1.0438  0.8792 -0.4737
 7105SOL    HW232775   3.894   2.474   3.738  1.7199 -2.1308 -0.1569
 7106SOL     OW32776   4.352   0.618   7.494  0.0047  0.1332 -0.1360
 7106SOL    HW132777   4.354   0.581   7.406 -3.5402 -0.5252  0.0606
 7106SOL    HW232778   4.366   0.709   7.469  5.0404 -0.8475 -1.0595
 7107SOL     OW32779   0.223   2.961  14.980 -0.1401  0.2347  0.5620
 7107SOL    HW132780   0.176   2.909  14.914 -0.2907  0.7797  0.2338
 7107SOL    HW232781   0.175   2.951  15.062 -1.8089 -3.0913 -0.8265
 7108SOL     OW32782   1.030   0.756   9.942  0.4970 -0.0581  0.2649
 7108SOL    HW132783   1.068   0.835   9.902  0.3409  0.8569  1.9432
 7108SOL    HW232784   0.969   0.745   9.869 -0.8483 -0.9323  1.5430
 7109SOL     OW32785   1.081   1.224   2.124  0.2505  0.0137 -0.6634
 7109SOL    HW132786   1.028   1.233   2.203 -0.1381  0.8409 -1.0207
 7109SOL    HW232787   1.064   1.309   2.083 -1.5723 -0.1271 -0.2077
 7110SOL     OW32788   0.696   4.136   6.017  0.2510 -0.4095 -1.1910
 7110SOL    HW132789   0.686   4.184   6.099 -0.7312 -4.4014  1.0087
 7110SOL    HW232790   0.724   4.213   5.966  0.2172 -0.2014 -0.8959
 7111SOL     OW32791   3.878   2.635   6.577  0.0159  0.2880 -0.0623
 7111SOL    HW132792   3.791   2.619   6.614 -0.2790  2.2249  0.0982
 7111SOL    HW232793   3.892   2.553   6.530 -0.3403 -0.8541  1.8216
 7112SOL     OW32794   1.448   2.037   5.449 -0.1207  0.0030  0.2251
 7112SOL    HW132795   1.406   1.995   5.373 -0.1281 -1.2874  0.9369
 7112SOL    HW232796   1.375   2.088   5.485 -0.2067  2.3484 -3.2700
 7113SOL     OW32797   1.140   4.440   5.449 -0.0049  0.3233 -0.1757
 7113SOL    HW132798   1.144   4.467   5.541 -0.2716  1.0447 -0.3845
 7113SOL    HW232799   1.234   4.422   5.447  0.1399  1.1555 -0.7872
 7114SOL     OW32800   4.573   2.816   3.066  0.4799  0.7456  0.0245
 7114SOL    HW132801   4.616   2.845   2.985 -0.8582  1.3204 -0.4896
 7114SOL    HW232802   4.584   2.890   3.127  1.7714 -0.0581  0.7651
 7115SOL     OW32803   3.139   1.151  10.373  0.2089 -0.5622  0.0111
 7115SOL    HW132804   3.077   1.141  10.445  0.4238 -1.6780  0.0508
 7115SOL    HW232805   3.132   1.245  10.357 -0.6966 -0.3664  1.5913
 7116SOL     OW32806   2.157   1.000   0.785  0.4439  0.1656  0.3887
 7116SOL    HW132807   2.215   0.979   0.858  0.9789  1.5552  0.3746
 7116SOL    HW232808   2.075   1.028   0.825 -0.2162 -1.1860 -0.0219
 7117SOL     OW32809   3.378   0.392   4.280 -0.8002 -0.1328 -0.1000
 7117SOL    HW132810   3.322   0.468   4.266 -2.4011 -1.2080  0.4488
 7117SOL    HW232811   3.342   0.327   4.220 -1.1471  0.5516 -0.6218
 7118SOL     OW32812   3.886   0.466  13.719  0.1351 -0.2917  0.1831
 7118SOL    HW132813   3.965   0.454  13.667 -0.5115 -2.5853 -0.2669
 7118SOL    HW232814   3.842   0.384  13.696 -0.1881 -0.0610 -0.0111
 7119SOL     OW32815   0.061   2.435   5.356  0.2024  0.0442  0.3393
 7119SOL    HW132816   4.706   2.451   5.305  1.1736 -1.2272 -1.5230
 7119SOL    HW232817   0.073   2.524   5.389 -0.4367  0.7534 -1.3542
 7120SOL     OW32818   2.317   2.358  14.062 -0.2946  0.1359 -0.3066
 7120SOL    HW132819   2.245   2.391  14.116 -1.5471  0.2466 -2.0657
 7120SOL    HW232820   2.397   2.360  14.116 -1.5301 -1.3128  1.5902
 7121SOL     OW32821   3.598   4.188   8.879  0.2549  0.5808  0.2525
 7121SOL    HW132822   3.508   4.219   8.871 -0.0625 -0.1751  0.9452
 7121SOL    HW232823   3.602   4.154   8.968 -1.7755  0.4516  0.2979
 7122SOL     OW32824   3.113   3.471  13.133 -0.0835 -0.0615  0.1296
 7122SOL    HW132825   3.071   3.548  13.094  1.3447  0.4900 -0.3490
 7122SOL    HW232826   3.103   3.490  13.227  1.6524  0.8082  0.1421
 7123SOL     OW32827   3.828   0.279   1.404 -0.0485  0.7716 -0.2080
 7123SOL    HW132828   3.852   0.342   1.336 -1.5005 -0.2125 -1.6491
 7123SOL    HW232829   3.906   0.270   1.459  0.3064  2.0186 -0.5201
 7124SOL     OW32830   1.670   3.857  16.837 -0.5709  0.0545  0.0266
 7124SOL    HW132831   1.704   3.835  16.923 -2.4647 -0.6263  0.6067
 7124SOL    HW232832   1.577   3.845  16.857 -0.3727 -1.1573  0.2356
 7125SOL     OW32833   3.835   0.060   4.694 -0.1396 -0.2827  0.0354
 7125SOL    HW132834   3.741   0.074   4.679  0.1761 -0.0237 -1.6743
 7125SOL    HW232835   3.851   4.692   4.677  0.4583 -0.0780 -0.5151
 7126SOL     OW32836   1.470   2.727   7.187 -0.4283 -0.3805 -0.7177
 7126SOL    HW132837   1.445   2.647   7.232 -0.8997  0.7528  1.0314
 7126SOL    HW232838   1.432   2.795   7.242  0.4189  0.2016 -0.8478
 7127SOL     OW32839   4.551   3.420   7.859 -0.2264 -0.1615 -0.0260
 7127SOL    HW132840   4.571   3.441   7.950  1.2766  2.5248 -0.9864
 7127SOL    HW232841   4.529   3.326   7.859 -0.1685 -0.1781 -1.0024
 7128SOL     OW32842   1.629   2.604   3.360 -0.5627  0.0403  0.2352
 7128SOL    HW132843   1.694   2.641   3.300 -0.2736  0.5838  0.8800
 7128SOL    HW232844   1.610   2.523   3.313 -0.7280 -0.3342  0.9582
 7129SOL     OW32845   0.912   4.653   7.736 -0.4057 -0.0788 -0.1394
 7129SOL    HW132846   0.840   4.715   7.727 -1.1606 -0.9238  0.0670
 7129SOL    HW232847   0.979   4.701   7.688 -0.1248  0.8609  1.1852
 7130SOL     OW32848   0.584   3.871   6.147  0.0749  0.4615 -0.2816
 7130SOL    HW132849   0.529   3.822   6.086 -1.3767 -2.0870  3.0455
 7130SOL    HW232850   0.548   3.851   6.233  1.2848 -0.8442 -0.0782
 7131SOL     OW32851   1.429   3.258  12.100  0.0080 -0.2463 -0.0765
 7131SOL    HW132852   1.505   3.291  12.148 -0.1953 -0.6819  0.5435
 7131SOL    HW232853   1.410   3.188  12.163 -1.6768 -1.8716 -2.4097
 7132SOL     OW32854   1.130   4.315   6.820 -0.3097  0.0050  0.2105
 7132SOL    HW132855   1.212   4.336   6.775  0.8154 -0.9154  1.8535
 7132SOL    HW232856   1.069   4.338   6.750  0.2856  0.0503 -0.2993
 7133SOL     OW32857   1.737   3.182   4.906  0.1457  0.6831  0.1276
 7133SOL    HW132858   1.821   3.141   4.929 -0.9752 -0.9907  1.2317
 7133SOL    HW232859   1.714   3.216   4.993 -0.5590 -0.7952  0.5228
 7134SOL     OW32860   2.482   4.413   9.436  0.4110 -0.1540  0.6443
 7134SOL    HW132861   2.437   4.342   9.482 -0.3135  1.1903  2.0176
 7134SOL    HW232862   2.403   4.461   9.412 -0.7221 -1.0700  2.5594
 7135SOL     OW32863   3.412   3.280   2.589  0.3040  1.2136  0.1002
 7135SOL    HW132864   3.351   3.349   2.561 -1.6635 -0.4131  0.4139
 7135SOL    HW232865   3.346   3.216   2.615 -0.4566  2.0927  0.3145
 7136SOL     OW32866   4.133   2.708   7.682  0.1993  0.1336 -0.1714
 7136SOL    HW132867   4.173   2.623   7.696 -1.2101 -0.2896  1.3590
 7136SOL    HW232868   4.139   2.717   7.587  2.4100 -3.1831 -0.3319
 7137SOL     OW32869   2.082   0.184   4.487 -0.0086  0.5614  0.3653
 7137SOL    HW132870   2.100   0.206   4.395 -0.5620 -0.8728 -0.0890
 7137SOL    HW232871   2.175   0.180   4.510  0.7060  0.6026 -2.4767
 7138SOL     OW32872   1.681   1.740   1.916  0.1791  0.1356  0.0503
 7138SOL    HW132873   1.656   1.762   2.005  0.1246  0.9317 -0.1659
 7138SOL    HW232874   1.620   1.666   1.909 -1.9498  1.9200 -0.0488
 7139SOL     OW32875   3.222   3.807   3.226 -0.0007 -0.4257  0.4374
 7139SOL    HW132876   3.224   3.728   3.171 -2.9075 -2.0743  2.7327
 7139SOL    HW232877   3.197   3.776   3.313  0.1684 -0.8387  0.3406
 7140SOL     OW32878   3.215   3.087   3.642 -0.2421 -0.3444 -0.4892
 7140SOL    HW132879   3.299   3.133   3.640  0.1859 -1.0784  0.4177
 7140SOL    HW232880   3.249   3.009   3.598 -2.9087 -0.5661 -2.1219
 7141SOL     OW32881   2.852   4.296   2.002 -0.2216 -0.2092  0.0623
 7141SOL    HW132882   2.829   4.235   2.072  1.1817 -0.2734  0.4544
 7141SOL    HW232883   2.931   4.257   1.967  1.4108  1.0567  2.3527
 7142SOL     OW32884   0.210   1.164   7.956  0.2557  0.1874 -0.5195
 7142SOL    HW132885   0.225   1.230   8.024  0.4833 -0.3502 -0.0540
 7142SOL    HW232886   0.130   1.199   7.917 -0.8694 -1.0004  0.7045
 7143SOL     OW32887   1.633   1.264   3.645  0.0004  0.0303  0.1002
 7143SOL    HW132888   1.677   1.341   3.612 -0.1476  0.7933  1.7070
 7143SOL    HW232889   1.558   1.271   3.586 -1.2842 -3.0109  1.3595
 7144SOL     OW32890   0.883   4.614  16.317 -0.5880  0.6793 -0.2405
 7144SOL    HW132891   0.852   4.704  16.328 -0.7584  0.4035  1.4542
 7144SOL    HW232892   0.880   4.578  16.405  1.3321  1.1361  0.0198
 7145SOL     OW32893   0.973   1.015   8.461  0.3088  0.2484 -0.2955
 7145SOL    HW132894   1.011   1.035   8.547 -0.5024  1.6665 -0.2618
 7145SOL    HW232895   0.880   1.015   8.484  0.0567  0.6562 -1.3236
 7146SOL     OW32896   2.266   2.771   5.875 -0.3298  0.3068  0.2956
 7146SOL    HW132897   2.231   2.775   5.964 -2.9580 -0.5311 -0.7248
 7146SOL    HW232898   2.222   2.692   5.846  0.6968 -0.5051  0.9486
 7147SOL     OW32899   3.649   0.843   7.777 -0.7019 -0.0297 -0.1776
 7147SOL    HW132900   3.714   0.911   7.759  0.0722 -1.3086 -2.1559
 7147SOL    HW232901   3.581   0.907   7.795 -0.1097 -0.1940  2.6860
 7148SOL     OW32902   3.833   3.920   6.849  0.3909  0.0494 -0.2477
 7148SOL    HW132903   3.840   3.946   6.941 -0.9321 -1.6828  0.3220
 7148SOL    HW232904   3.915   3.956   6.814  0.0718  0.7608 -0.2774
 7149SOL     OW32905   0.214   4.624   1.620  0.0823  0.3639 -0.4306
 7149SOL    HW132906   0.135   4.653   1.664  0.8622  1.1743  0.4174
 7149SOL    HW232907   0.281   4.628   1.688 -0.2792 -0.0604 -0.0504
 7150SOL     OW32908   4.153   4.537   5.370 -0.5814 -0.1539 -0.0379
 7150SOL    HW132909   4.193   4.467   5.318 -3.2015  0.4837 -2.8815
 7150SOL    HW232910   4.146   4.611   5.309  0.7216  0.0308  0.0351
 7151SOL     OW32911   1.891   3.300   7.770  0.5146  0.2321 -0.2127
 7151SOL    HW132912   1.865   3.268   7.683 -0.0314 -1.5018  0.5844
 7151SOL    HW232913   1.912   3.389   7.744  1.9652 -0.4629 -1.3769
 7152SOL     OW32914   2.548   4.056   1.745  0.2468  0.0588  0.2964
 7152SOL    HW132915   2.495   3.990   1.700  1.2534 -0.9078  0.5549
 7152SOL    HW232916   2.637   4.023   1.747  0.6941  1.1521 -1.7442
 7153SOL     OW32917   2.362   2.869   1.740 -0.4937  0.3214 -0.4854
 7153SOL    HW132918   2.351   2.956   1.700 -1.7181 -0.3159 -1.5264
 7153SOL    HW232919   2.369   2.888   1.834 -1.0593 -0.1819 -0.3400
 7154SOL     OW32920   1.130   4.275  12.683 -0.1826 -0.4569 -0.1440
 7154SOL    HW132921   1.166   4.220  12.752 -1.6048  0.3058  1.1772
 7154SOL    HW232922   1.083   4.334  12.742  2.8460 -1.1735  2.9653
 7155SOL     OW32923   2.595   4.659   3.961 -0.1705 -0.2338  0.6279
 7155SOL    HW132924   2.605   4.564   3.967 -0.2191  0.0261  4.9725
 7155SOL    HW232925   2.671   4.690   4.010 -0.2733 -0.1657  0.7430
 7156SOL     OW32926   4.217   1.781   5.181  0.5010  0.2777  0.3556
 7156SOL    HW132927   4.122   1.776   5.166  0.9349 -1.3303 -1.9157
 7156SOL    HW232928   4.225   1.777   5.277  0.2083  1.1180  0.4151
 7157SOL     OW32929   1.427   3.779   8.372 -0.2490 -0.3421  0.1188
 7157SOL    HW132930   1.466   3.864   8.347 -3.3128  0.7527 -0.9031
 7157SOL    HW232931   1.493   3.715   8.346  1.6402  1.0567  1.4015
 7158SOL     OW32932   0.352   0.793  14.586 -0.2215  0.0756 -0.6711
 7158SOL    HW132933   0.383   0.815  14.674  2.1123  0.2898 -1.5542
 7158SOL    HW232934   0.425   0.820  14.530 -1.3393 -0.0112 -2.1616
 7159SOL     OW32935   2.943   1.205   7.315  0.1186  0.1655  0.0722
 7159SOL    HW132936   2.848   1.219   7.309  0.0119 -0.4970  0.3000
 7159SOL    HW232937   2.976   1.259   7.387  2.4231 -1.7110  0.4173
 7160SOL     OW32938   3.797   2.195   6.410 -0.7751  0.1754 -0.2151
 7160SOL    HW132939   3.822   2.106   6.386  3.0551  1.6776 -1.8201
 7160SOL    HW232940   3.730   2.216   6.345 -1.3309 -0.9550  0.0066
 7161SOL     OW32941   3.173   0.740   5.073  0.4586 -0.7537  0.4028
 7161SOL    HW132942   3.221   0.689   5.138  2.3677  0.5744  0.0399
 7161SOL    HW232943   3.111   0.680   5.032 -0.2217  0.0508  0.2641
 7162SOL     OW32944   2.201   0.094  11.764  0.2375 -0.4242 -0.2779
 7162SOL    HW132945   2.245   0.072  11.846 -1.2034 -0.7316  0.4247
 7162SOL    HW232946   2.110   0.065  11.771  0.2896 -1.3525 -3.5593
 7163SOL     OW32947   2.216   2.301   8.318 -0.1098 -0.2696 -0.6387
 7163SOL    HW132948   2.179   2.246   8.387 -0.0855 -0.6987 -0.9635
 7163SOL    HW232949   2.183   2.386   8.345 -2.1602 -1.0017 -0.8720
 7164SOL     OW32950   0.465   0.300   7.023  0.1840  0.4217 -0.0101
 7164SOL    HW132951   0.460   0.377   7.080  1.5130 -0.0726  0.7900
 7164SOL    HW232952   0.479   0.224   7.079  2.1490  0.0344 -1.0409
 7165SOL     OW32953   1.330   2.064  11.743  0.1147 -0.1073 -0.1627
 7165SOL    HW132954   1.332   2.027  11.654  0.2386 -2.1848  0.7038
 7165SOL    HW232955   1.417   2.104  11.753 -1.0852  2.5378 -0.3153
 7166SOL     OW32956   2.109   1.809   4.420  0.4002  0.4677 -0.2119
 7166SOL    HW132957   2.177   1.754   4.459  1.2854  1.8552  0.1910
 7166SOL    HW232958   2.070   1.752   4.353  2.1641  0.3661 -1.1559
 7167SOL     OW32959   4.061   3.997   3.925  0.0086 -0.1413  0.3822
 7167SOL    HW132960   4.068   3.950   4.008 -0.0964 -1.5799 -0.4173
 7167SOL    HW232961   3.991   4.061   3.940  0.7878  0.6510  0.6149
 7168SOL     OW32962   0.700   4.307   6.232  0.0320 -0.0359 -0.1131
 7168SOL    HW132963   0.715   4.295   6.326 -5.1096 -3.3496  0.3222
 7168SOL    HW232964   0.752   4.386   6.222  0.5098 -0.0944  1.7966
 7169SOL     OW32965   3.439   1.121   3.158  0.0520 -0.0199 -0.0581
 7169SOL    HW132966   3.356   1.078   3.177 -0.9178  1.0861 -1.7337
 7169SOL    HW232967   3.406   1.209   3.138  1.1881  0.6641  1.1159
 7170SOL     OW32968   0.614   1.938  11.033 -0.6369 -0.0683  0.2130
 7170SOL    HW132969   0.677   1.959  10.964  0.5791 -1.7746  0.8140
 7170SOL    HW232970   0.539   1.983  10.993 -0.4915  0.3872  0.4557
 7171SOL     OW32971   2.348   1.286  15.637 -0.3199  0.5353  0.1309
 7171SOL    HW132972   2.278   1.248  15.690 -0.4827  0.2253 -0.3087
 7171SOL    HW232973   2.387   1.214  15.589  1.6709  2.7408 -1.5715
 7172SOL     OW32974   4.407   3.582  13.306  0.3331 -0.6205 -0.4215
 7172SOL    HW132975   4.392   3.600  13.214  0.4466 -1.3354 -0.5784
 7172SOL    HW232976   4.502   3.594  13.309  0.1792  0.1714  1.9635
 7173SOL     OW32977   4.229   3.883   8.608  0.1558  0.4266 -0.1018
 7173SOL    HW132978   4.219   3.978   8.621 -3.3571  0.0611 -0.1294
 7173SOL    HW232979   4.235   3.880   8.513  0.2019  1.4301 -0.1325
 7174SOL     OW32980   0.940   2.864   6.297 -0.3223  0.3750 -0.0555
 7174SOL    HW132981   0.878   2.882   6.227 -2.3858 -1.7593  1.2397
 7174SOL    HW232982   0.983   2.949   6.308  0.3030  0.0962 -0.3401
 7175SOL     OW32983   4.282   0.627   3.769  0.2612  0.0680  0.9960
 7175SOL    HW132984   4.259   0.716   3.745  2.6916  0.1402 -1.1112
 7175SOL    HW232985   4.377   0.628   3.779  0.3060  1.8232  0.3952
 7176SOL     OW32986   4.026   2.601   2.949  0.1282 -0.2621  0.4549
 7176SOL    HW132987   4.070   2.583   3.032 -1.2033  2.1759  1.7008
 7176SOL    HW232988   4.103   2.612   2.894  0.0655 -0.9953  0.2271
 7177SOL     OW32989   1.273   2.318   5.745 -0.1221 -0.2557  0.1669
 7177SOL    HW132990   1.283   2.383   5.814  1.3791  0.6790 -0.9325
 7177SOL    HW232991   1.353   2.338   5.696  0.4446  1.8921  1.9915
 7178SOL     OW32992   4.222   0.452   5.669 -0.0917 -0.2907 -0.4825
 7178SOL    HW132993   4.133   0.477   5.645  1.3076  2.2941 -3.1011
 7178SOL    HW232994   4.250   0.539   5.699 -0.6958 -0.2601 -0.0087
 7179SOL     OW32995   4.266   2.670   0.589 -0.7852  0.3535 -0.4520
 7179SOL    HW132996   4.302   2.755   0.614  1.3681 -0.5593 -0.3888
 7179SOL    HW232997   4.210   2.642   0.661 -0.6332 -0.9154 -0.8211
 7180SOL     OW32998   3.996   1.857   9.562  0.6060 -0.0187  0.4949
 7180SOL    HW132999   4.088   1.835   9.548 -0.2567 -2.7462 -0.8775
 7180SOL    HW233000   4.012   1.888   9.651 -1.2471  1.5796  0.2730
 7181SOL     OW33001   0.335   1.807   2.297  0.2595 -0.0495 -0.4457
 7181SOL    HW133002   0.421   1.839   2.324 -0.3836 -0.6644  2.2757
 7181SOL    HW233003   0.359   1.779   2.209  2.9667  1.2163 -0.1245
 7182SOL     OW33004   4.654   4.527   7.513 -0.2075  0.0927 -0.3279
 7182SOL    HW133005   4.671   4.592   7.581 -0.0726 -1.6538  1.3288
 7182SOL    HW233006   4.723   4.463   7.534 -0.0880  0.9412  1.9409
 7183SOL     OW33007   1.370   2.130  15.862 -0.1447 -0.3600  0.0210
 7183SOL    HW133008   1.301   2.067  15.841 -0.7853 -0.0565  1.1913
 7183SOL    HW233009   1.347   2.199  15.799  1.0621  0.7548  0.7882
 7184SOL     OW33010   1.421   4.384   7.888  0.5547 -0.8925  0.5749
 7184SOL    HW133011   1.418   4.461   7.945  2.1096 -0.3461 -0.0963
 7184SOL    HW233012   1.328   4.359   7.887  0.3858 -0.2752  1.5507
 7185SOL     OW33013   0.338   2.045   8.920  0.1695  0.8557 -0.4500
 7185SOL    HW133014   0.414   2.044   8.862  1.7902  1.3277  1.6592
 7185SOL    HW233015   0.292   1.966   8.890 -3.0025  2.0301  1.2756
 7186SOL     OW33016   1.958   2.717   6.305  0.5045 -0.3949  0.8071
 7186SOL    HW133017   1.874   2.755   6.279  0.1376 -0.7740  1.4176
 7186SOL    HW233018   2.021   2.745   6.239  1.3239 -0.9398  1.3550
 7187SOL     OW33019   0.929   1.756  14.646 -0.2755 -0.0991 -0.4909
 7187SOL    HW133020   0.897   1.816  14.714 -0.5070  1.6582 -2.1756
 7187SOL    HW233021   0.970   1.816  14.585  0.0230  2.0131  1.7628
 7188SOL     OW33022   1.820   1.606  14.591 -0.0779 -0.0276 -0.4532
 7188SOL    HW133023   1.813   1.519  14.629 -0.4326  0.3381  0.3217
 7188SOL    HW233024   1.850   1.663  14.662 -0.2530 -1.3343  0.6828
 7189SOL     OW33025   1.612   2.503   1.780  0.8839  0.0372  0.1335
 7189SOL    HW133026   1.625   2.589   1.741 -1.8097 -0.0475 -0.9346
 7189SOL    HW233027   1.698   2.485   1.817  1.4158  1.1842 -0.5783
 7190SOL     OW33028   0.287   0.391  11.900  0.2401 -0.2427  0.0962
 7190SOL    HW133029   0.262   0.334  11.827  0.2425 -2.4563  1.8222
 7190SOL    HW233030   0.382   0.377  11.902  0.2315 -0.4236 -0.9993
 7191SOL     OW33031   1.928   0.839   6.761 -0.0835  0.8730  0.6994
 7191SOL    HW133032   1.929   0.929   6.726 -3.0096  1.2776  1.6680
 7191SOL    HW233033   1.860   0.850   6.827  0.3623  1.2682  1.0940
 7192SOL     OW33034   4.384   2.574  11.197  0.0036 -0.0299 -0.0196
 7192SOL    HW133035   4.442   2.530  11.135  1.0361 -0.2233  1.0926
 7192SOL    HW233036   4.380   2.665  11.167  0.2895 -0.3534 -1.0652
 7193SOL     OW33037   0.065   0.674   8.193 -0.1088  0.6581  0.8122
 7193SOL    HW133038   0.087   0.580   8.194  0.7095  0.8622  3.2410
 7193SOL    HW233039   0.121   0.698   8.267 -1.9030  2.8457  1.4547
 7194SOL     OW33040   2.601   4.455   1.555  0.1168  0.1794 -0.1738
 7194SOL    HW133041   2.679   4.509   1.541  0.1265  0.5182  1.1414
 7194SOL    HW233042   2.570   4.452   1.465 -1.0093  1.3551  0.1711
 7195SOL     OW33043   2.472   1.618   6.400 -0.0022 -0.5198  0.3616
 7195SOL    HW133044   2.458   1.615   6.495 -0.4327 -0.8712  0.2860
 7195SOL    HW233045   2.552   1.565   6.395  1.1116  1.1952  0.1201
 7196SOL     OW33046   0.352   2.738   4.485  0.2862 -0.5098  0.2362
 7196SOL    HW133047   0.364   2.670   4.552 -2.0020  0.5171  1.6723
 7196SOL    HW233048   0.421   2.801   4.505  0.8155 -0.5610 -1.4246
 7197SOL     OW33049   3.137   0.933   5.671 -0.2154  0.2401  0.1797
 7197SOL    HW133050   3.049   0.906   5.648  0.6811 -0.9816 -1.8250
 7197SOL    HW233051   3.193   0.904   5.599  0.5459 -2.5350  1.9001
 7198SOL     OW33052   4.514   3.564  15.692 -0.3146 -0.0735  0.2178
 7198SOL    HW133053   4.589   3.608  15.652 -0.1162 -0.2930  0.3449
 7198SOL    HW233054   4.493   3.497  15.628  6.5604 -1.2186 -0.8555
 7199SOL     OW33055   2.092   1.767   6.457 -0.3358  0.7939 -0.3007
 7199SOL    HW133056   2.170   1.793   6.506 -0.5529  1.6326 -0.4010
 7199SOL    HW233057   2.079   1.680   6.494  0.6196 -0.6621 -3.3313
 7200SOL     OW33058   0.241   3.720   3.463  0.6373 -0.0414  0.2732
 7200SOL    HW133059   0.200   3.740   3.548 -2.5230 -1.7900 -0.8521
 7200SOL    HW233060   0.279   3.804   3.438 -1.5776  1.0065  0.4431
 7201SOL     OW33061   2.804   0.913   7.039 -0.0265 -0.2632  0.0899
 7201SOL    HW133062   2.719   0.871   7.053 -0.4170  0.1028 -1.1396
 7201SOL    HW233063   2.854   0.850   6.987 -2.7865 -1.6383 -0.8883
 7202SOL     OW33064   4.497   2.038   8.971  0.2571 -0.5136  0.0906
 7202SOL    HW133065   4.509   2.025   8.877 -1.8965  1.2266 -0.4333
 7202SOL    HW233066   4.412   1.996   8.987  1.2102 -2.4827 -0.0254
 7203SOL     OW33067   3.025   1.130   3.480  0.2778 -0.5036  0.2641
 7203SOL    HW133068   3.029   1.051   3.533 -2.7158 -0.9824 -0.2457
 7203SOL    HW233069   2.934   1.130   3.451  1.6164  0.0198 -3.9755
 7204SOL     OW33070   0.271   3.133   6.525 -0.2672  0.2975 -0.6519
 7204SOL    HW133071   0.240   3.192   6.457  1.5536  0.3562 -1.4544
 7204SOL    HW233072   0.317   3.062   6.480  2.2304 -0.5643  3.2201
 7205SOL     OW33073   1.939   0.871   3.691 -0.6125 -0.0644 -0.0098
 7205SOL    HW133074   1.898   0.954   3.665 -1.0962 -0.7501 -1.4425
 7205SOL    HW233075   2.006   0.908   3.749 -0.7466  0.6436 -0.3148
 7206SOL     OW33076   4.200   1.554   8.812  0.1624 -0.1111 -0.7777
 7206SOL    HW133077   4.246   1.478   8.777  0.0626 -0.7799  0.5445
 7206SOL    HW233078   4.122   1.514   8.850  0.3070  0.5410  0.2282
 7207SOL     OW33079   2.988   0.956   6.445  0.3356  0.4392 -0.0058
 7207SOL    HW133080   3.000   1.009   6.525 -2.8983  2.5657 -0.9277
 7207SOL    HW233081   2.956   1.023   6.385 -2.6543 -0.4498  0.5731
 7208SOL     OW33082   4.613   3.490   3.095  0.0045 -0.9617  0.2829
 7208SOL    HW133083   4.694   3.446   3.122  1.1404 -1.8873 -4.4589
 7208SOL    HW233084   4.547   3.423   3.079 -0.7046  0.2889 -2.0397
 7209SOL     OW33085   0.958   1.723   9.537 -0.2473 -0.4460  0.6002
 7209SOL    HW133086   0.927   1.645   9.583 -3.1192  0.6101  0.4169
 7209SOL    HW233087   1.052   1.722   9.559 -0.8221  0.0140  3.0769
 7210SOL     OW33088   2.677   2.770   5.193 -0.4735 -0.2762 -0.2212
 7210SOL    HW133089   2.636   2.684   5.201  1.8369 -1.6480 -2.9359
 7210SOL    HW233090   2.759   2.746   5.237 -0.6200 -1.5731 -0.6796
 7211SOL     OW33091   1.614   1.857   7.740 -0.2881  0.0360  0.4849
 7211SOL    HW133092   1.663   1.776   7.750 -1.3296 -0.5856  0.6207
 7211SOL    HW233093   1.672   1.916   7.788  2.7947 -1.6599 -1.1693
 7212SOL     OW33094   1.152   4.499  15.002  0.1777 -0.0492  0.0303
 7212SOL    HW133095   1.206   4.420  15.002  0.4484  0.1337  0.3401
 7212SOL    HW233096   1.217   4.553  15.047 -0.5855 -0.2471  1.3797
 7213SOL     OW33097   3.392   1.830  10.499 -0.7025  0.4227  0.1998
 7213SOL    HW133098   3.401   1.762  10.566 -0.6179  1.6379  1.4218
 7213SOL    HW233099   3.331   1.890  10.542 -1.7027 -0.0182 -0.6208
 7214SOL     OW33100   1.054   0.363   6.133 -0.1353 -0.1351  0.1746
 7214SOL    HW133101   1.071   0.456   6.147 -3.9256  0.9773 -2.7530
 7214SOL    HW233102   1.050   0.339   6.226 -1.1268  3.3032  1.0058
 7215SOL     OW33103   3.048   3.169  12.873  0.1008 -0.2272  0.5214
 7215SOL    HW133104   3.068   3.257  12.841 -0.0812 -0.4408 -0.1709
 7215SOL    HW233105   2.979   3.191  12.936  2.1705 -0.5570  2.9328
 7216SOL     OW33106   2.351   3.803  12.398 -0.1676  0.0552 -0.0771
 7216SOL    HW133107   2.286   3.813  12.468 -2.3156 -0.7559 -1.9905
 7216SOL    HW233108   2.378   3.895  12.398  0.6769 -0.1898 -1.4142
 7217SOL     OW33109   3.942   2.074   5.887  0.4377  0.3937 -0.3705
 7217SOL    HW133110   3.965   2.106   5.800  1.6734  1.4448  0.3376
 7217SOL    HW233111   3.958   2.157   5.932  2.2603  0.1367 -0.5322
 7218SOL     OW33112   3.334   2.444  13.022 -0.2796 -0.8176  0.0911
 7218SOL    HW133113   3.285   2.415  12.945  0.0137 -0.0005 -0.3987
 7218SOL    HW233114   3.317   2.537  13.030  1.4301 -0.3592 -1.4764
 7219SOL     OW33115   3.259   2.387   7.561 -0.0198 -0.2971 -1.0542
 7219SOL    HW133116   3.164   2.385   7.549 -0.0828  0.7679 -0.7255
 7219SOL    HW233117   3.300   2.410   7.478  2.0302 -1.2460 -0.3138
 7220SOL     OW33118   1.189   0.790   4.347  0.1674  0.0557  0.4312
 7220SOL    HW133119   1.217   0.872   4.306  0.1214 -1.1847 -2.0869
 7220SOL    HW233120   1.261   0.735   4.315 -0.7086 -0.2678 -1.0098
 7221SOL     OW33121   4.346   0.925  12.712 -0.8488  0.4478  0.0753
 7221SOL    HW133122   4.355   1.001  12.771 -0.7616  0.1786  0.4108
 7221SOL    HW233123   4.384   0.850  12.758  0.5547  1.1130 -0.0068
 7222SOL     OW33124   1.786   0.060  16.299 -0.2576 -0.6932 -0.4478
 7222SOL    HW133125   1.700   0.020  16.310 -1.1714  1.8523  1.7077
 7222SOL    HW233126   1.803   0.088  16.390 -1.6297 -1.1711 -0.0421
 7223SOL     OW33127   1.225   1.856   8.432  0.6481  0.0021  0.0461
 7223SOL    HW133128   1.253   1.877   8.521  3.6570 -1.6399 -0.5155
 7223SOL    HW233129   1.300   1.799   8.414  0.0128 -0.3227 -1.5021
 7224SOL     OW33130   2.561   4.058   2.456  0.1736 -0.0159  0.6977
 7224SOL    HW133131   2.525   4.018   2.377  1.8973  1.3244 -0.7463
 7224SOL    HW233132   2.617   4.120   2.409  0.9533 -1.7030 -0.5916
 7225SOL     OW33133   4.600   4.645   3.874  0.8547 -0.1553  0.0864
 7225SOL    HW133134   4.655   4.570   3.900 -1.5969 -2.0932 -0.3049
 7225SOL    HW233135   4.603   4.636   3.778 -0.3315  0.5851 -0.0083
 7226SOL     OW33136   2.864   1.863   4.949 -0.2633 -0.2121  0.4731
 7226SOL    HW133137   2.956   1.880   4.931  0.0045 -1.6596  0.5137
 7226SOL    HW233138   2.864   1.787   5.007  1.8176  0.8084  1.8123
 7227SOL     OW33139   1.076   0.573  10.957  0.3900 -0.0579 -0.4213
 7227SOL    HW133140   1.129   0.607  11.030 -0.1177  2.2535 -1.1335
 7227SOL    HW233141   0.986   0.576  10.988  1.5330 -1.5995  3.0838
 7228SOL     OW33142   1.828   0.588  12.611  0.1740  0.0244  0.4952
 7228SOL    HW133143   1.915   0.600  12.573 -0.9558  0.4664 -1.9593
 7228SOL    HW233144   1.843   0.625  12.698 -1.9789  0.6846  0.5727
 7229SOL     OW33145   1.837   2.243   4.296  0.4335 -0.3975  0.1223
 7229SOL    HW133146   1.850   2.181   4.368  0.5403 -0.8167 -0.2587
 7229SOL    HW233147   1.913   2.300   4.308 -0.2979  0.5510  0.3285
 7230SOL     OW33148   3.445   0.851   9.849 -0.3967 -0.5691 -0.3888
 7230SOL    HW133149   3.410   0.777   9.799 -1.8489 -0.9879  1.2505
 7230SOL    HW233150   3.535   0.822   9.865 -1.1279 -0.4443  3.7820
 7231SOL     OW33151   0.102   0.206   8.103 -0.5911 -0.2312 -0.2464
 7231SOL    HW133152   0.008   0.194   8.089 -0.6745  1.7408 -1.3111
 7231SOL    HW233153   0.099   0.224   8.197 -0.3539  1.4548 -0.5741
 7232SOL     OW33154   1.818   4.475  12.606 -0.5022  0.3032 -0.2148
 7232SOL    HW133155   1.736   4.430  12.630  0.3109  0.0625  2.1186
 7232SOL    HW233156   1.788   4.565  12.602  0.0478  0.5444  1.1152
 7233SOL     OW33157   3.317   1.863   7.502  0.5014  0.5267  0.0462
 7233SOL    HW133158   3.324   1.958   7.506  0.4525  0.6413 -2.5287
 7233SOL    HW233159   3.229   1.840   7.531  1.3669 -2.1824  0.5795
 7234SOL     OW33160   3.181   4.479   8.383 -0.2505 -0.7612 -0.1105
 7234SOL    HW133161   3.165   4.418   8.456  2.3566  1.2468  2.1466
 7234SOL    HW233162   3.271   4.461   8.360 -0.1645 -0.9626  0.3760
 7235SOL     OW33163   2.726   2.779   6.470  0.7875  0.0260  0.8731
 7235SOL    HW133164   2.808   2.728   6.472  0.5276 -0.5269 -1.8101
 7235SOL    HW233165   2.689   2.708   6.417  1.6864 -0.2647  0.6281
 7236SOL     OW33166   0.275   3.928   7.556 -0.4093  0.4260 -0.0321
 7236SOL    HW133167   0.312   4.016   7.556  1.1752 -0.2475 -0.2718
 7236SOL    HW233168   0.246   3.914   7.465 -0.2187 -0.4037  0.0298
 7237SOL     OW33169   3.797   0.181   2.185 -0.2848  0.4873  0.1964
 7237SOL    HW133170   3.849   0.251   2.148 -0.4526  1.2096  1.3216
 7237SOL    HW233171   3.709   0.219   2.193 -0.2364  0.7140 -0.3960
 7238SOL     OW33172   3.901   0.221   9.575 -0.1230 -0.0126 -0.2145
 7238SOL    HW133173   3.847   0.163   9.628 -1.4060  0.0356 -1.4710
 7238SOL    HW233174   3.945   0.150   9.529 -0.8641 -0.8140  0.3171
 7239SOL     OW33175   1.820   1.799   8.405 -0.0712 -0.4552  0.9590
 7239SOL    HW133176   1.816   1.707   8.378  0.4599  0.7618 -3.2441
 7239SOL    HW233177   1.883   1.843   8.348 -3.2922  2.5685 -0.2145
 7240SOL     OW33178   3.530   2.140   3.365 -0.1208 -0.0014  0.2154
 7240SOL    HW133179   3.581   2.187   3.431 -0.1844  1.1270 -0.5332
 7240SOL    HW233180   3.595   2.139   3.295  2.2515  2.0320  2.3722
 7241SOL     OW33181   4.319   1.842  12.206 -0.0257  0.0180 -0.3293
 7241SOL    HW133182   4.259   1.780  12.166 -0.9019 -0.4353  1.7038
 7241SOL    HW233183   4.304   1.920  12.153 -0.6676 -0.3181 -0.6353
 7242SOL     OW33184   0.085   1.780   7.124 -0.4442  0.5939 -1.0105
 7242SOL    HW133185   0.076   1.709   7.061 -0.9557 -1.1682  1.0240
 7242SOL    HW233186   0.155   1.832   7.085  3.3650 -3.0651  0.9448
 7243SOL     OW33187   3.734   1.659   6.189  0.0604  0.2124 -0.7089
 7243SOL    HW133188   3.816   1.682   6.146  0.9673  0.2042  0.9999
 7243SOL    HW233189   3.678   1.713   6.133 -0.1070  0.6577 -0.1114
 7244SOL     OW33190   3.251   1.601   2.586 -0.1741 -0.8240 -0.3650
 7244SOL    HW133191   3.226   1.509   2.600  0.0563 -0.6858  0.8730
 7244SOL    HW233192   3.278   1.600   2.494 -0.9362 -0.0677 -0.5960
 7245SOL     OW33193   1.011   0.630   7.030  0.0854 -0.1925 -0.1344
 7245SOL    HW133194   0.934   0.679   7.005  0.4819  0.4121 -0.1742
 7245SOL    HW233195   0.991   0.541   7.000  1.3298  0.0136 -1.5569
 7246SOL     OW33196   4.335   4.062  17.352  0.3863 -0.3131  0.2046
 7246SOL    HW133197   4.398   4.131  17.374  1.2210 -1.0323  0.0776
 7246SOL    HW233198   4.252   4.091  17.389  0.2981 -1.2887  0.7553
 7247SOL     OW33199   1.547   3.250  12.348  0.5856  0.6552  0.2450
 7247SOL    HW133200   1.519   3.173  12.398  0.3915  1.3259  1.1614
 7247SOL    HW233201   1.596   3.294  12.417 -0.3706  1.5023  0.3963
 7248SOL     OW33202   1.041   1.593  15.682  0.4664 -0.4606 -0.2446
 7248SOL    HW133203   1.131   1.615  15.659  0.9664 -2.3253  0.0000
 7248SOL    HW233204   1.017   1.686  15.681 -0.2924 -0.6707 -1.1423
 7249SOL     OW33205   0.386   0.135  10.989 -0.0439  0.3295  0.1376
 7249SOL    HW133206   0.375   0.225  11.018  1.7615  0.7310 -0.4019
 7249SOL    HW233207   0.450   0.104  11.054 -0.8509  0.8943  1.1875
 7250SOL     OW33208   2.328   0.691  15.057 -1.0368 -0.2712 -0.3028
 7250SOL    HW133209   2.362   0.731  14.977  0.2793 -0.2249  0.2765
 7250SOL    HW233210   2.310   0.770  15.108  1.5709 -0.0268  0.2443
 7251SOL     OW33211   3.311   1.424  16.157  0.1878  0.6856 -0.0764
 7251SOL    HW133212   3.330   1.518  16.158  1.5823  0.4083 -0.7815
 7251SOL    HW233213   3.243   1.427  16.225 -1.8941  0.7572 -2.1519
 7252SOL     OW33214   1.427   0.581  14.146  0.6984  0.0047  0.6506
 7252SOL    HW133215   1.376   0.500  14.156 -0.6552  0.7468 -0.2116
 7252SOL    HW233216   1.508   0.583  14.198  1.2796 -0.5066 -0.2410
 7253SOL     OW33217   2.773   3.471  10.408  0.4481  0.7586 -0.4091
 7253SOL    HW133218   2.862   3.443  10.383  0.0063 -0.4060 -0.7115
 7253SOL    HW233219   2.797   3.544  10.464 -0.0491 -0.3351  1.2153
 7254SOL     OW33220   1.184   0.883   5.079  0.2945 -0.4512  0.3377
 7254SOL    HW133221   1.230   0.958   5.117  0.6263 -0.0812 -0.7974
 7254SOL    HW233222   1.100   0.915   5.048  2.2352  1.5578 -2.8439
 7255SOL     OW33223   0.794   1.731   2.208 -0.1859  0.4559 -0.1849
 7255SOL    HW133224   0.770   1.677   2.133 -2.6470  1.0301  0.1836
 7255SOL    HW233225   0.821   1.663   2.271  0.7604  0.8855 -0.1224
 7256SOL     OW33226   1.925   1.847   3.103  0.4403  0.0540  0.3929
 7256SOL    HW133227   2.010   1.813   3.072 -0.1816 -1.6560  0.5391
 7256SOL    HW233228   1.937   1.940   3.087  0.8426 -0.0197  0.2552
 7257SOL     OW33229   3.766   0.153   1.817 -0.3730  0.5011  0.5208
 7257SOL    HW133230   3.851   0.117   1.793 -0.5359  0.7909 -0.5059
 7257SOL    HW233231   3.704   0.102   1.765 -1.9187 -0.0879  2.9534
 7258SOL     OW33232   4.263   1.645   9.280 -0.4006  0.1256 -0.4806
 7258SOL    HW133233   4.208   1.569   9.260 -0.9291  0.6432 -1.0112
 7258SOL    HW233234   4.337   1.636   9.220 -0.3440  0.7703 -0.5142
 7259SOL     OW33235   1.881   4.203   1.128  0.0440 -0.0488 -0.4841
 7259SOL    HW133236   1.907   4.292   1.105 -2.8799  0.3386 -2.2195
 7259SOL    HW233237   1.793   4.191   1.093 -0.2830 -0.7197  0.5692
 7260SOL     OW33238   2.466   0.090   2.183 -0.1177  0.4004 -0.3606
 7260SOL    HW133239   2.518   0.100   2.103 -1.1965  1.4380 -0.9402
 7260SOL    HW233240   2.416   0.011   2.166 -1.2310  1.3682 -1.5502
 7261SOL     OW33241   0.552   2.675   3.944 -0.0503  1.0179  0.6953
 7261SOL    HW133242   0.579   2.755   3.989  0.0768 -0.5515  3.3990
 7261SOL    HW233243   0.589   2.605   3.998  0.2825 -0.0715 -0.9239
 7262SOL     OW33244   4.699   4.686   5.006 -0.1847 -0.7311  0.2241
 7262SOL    HW133245   0.067   4.686   5.031  0.3274  1.5947 -1.6761
 7262SOL    HW233246   4.704   0.030   4.939 -0.6299 -0.5526  0.3723
 7263SOL     OW33247   0.363   2.509   3.356 -0.0990 -0.1559  0.2630
 7263SOL    HW133248   0.339   2.597   3.385  2.1220  0.7741 -0.7108
 7263SOL    HW233249   0.300   2.459   3.407 -1.3631  1.0322 -0.1390
 7264SOL     OW33250   0.698   1.874   3.892 -0.4266  0.3717 -0.6844
 7264SOL    HW133251   0.606   1.848   3.893 -0.2498 -0.1545  1.3030
 7264SOL    HW233252   0.702   1.950   3.950 -1.6356  0.1393 -0.2967
 7265SOL     OW33253   1.971   2.773   4.851  0.0149  0.1910  0.1472
 7265SOL    HW133254   1.956   2.709   4.921 -0.3562 -0.7242 -0.7817
 7265SOL    HW233255   2.065   2.758   4.839 -0.1205 -1.0820  0.6915
 7266SOL     OW33256   2.297   4.569   4.144 -0.0526 -0.3600  0.1760
 7266SOL    HW133257   2.298   4.659   4.114 -1.1536 -0.7414 -0.9991
 7266SOL    HW233258   2.310   4.515   4.065 -1.2286 -1.5416  0.7961
 7267SOL     OW33259   0.358   2.438  13.673  0.1842  0.0106 -0.1172
 7267SOL    HW133260   0.378   2.355  13.717 -0.0339 -0.9624 -1.8491
 7267SOL    HW233261   0.428   2.441  13.608  0.4544 -1.9412  0.0866
 7268SOL     OW33262   1.839   3.323   8.035 -0.2255 -0.3924  0.0956
 7268SOL    HW133263   1.845   3.298   7.943  0.6808  0.8142 -0.1705
 7268SOL    HW233264   1.927   3.297   8.064  0.2727  0.6069 -0.5019
 7269SOL     OW33265   4.336   3.115  16.327  0.1162 -0.6588 -0.0803
 7269SOL    HW133266   4.287   3.169  16.388 -1.0526 -0.8430 -0.8516
 7269SOL    HW233267   4.391   3.182  16.287 -0.9825  0.5253  0.4146
 7270SOL     OW33268   2.363   4.395   5.996 -0.2502  0.3686 -0.6202
 7270SOL    HW133269   2.369   4.332   5.924 -2.0389 -0.6512  0.1157
 7270SOL    HW233270   2.327   4.339   6.064 -0.6070 -0.7552 -1.7239
 7271SOL     OW33271   2.221   2.396  17.498 -0.1790 -0.2398  0.5230
 7271SOL    HW133272   2.269   2.320  17.531 -1.1395 -0.4171  1.5013
 7271SOL    HW233273   2.255   2.467  17.552  3.3517 -0.9137 -0.7872
 7272SOL     OW33274   1.493   4.175   9.298 -0.3856  0.8681 -0.2760
 7272SOL    HW133275   1.568   4.176   9.240 -0.0881 -0.0618  0.0769
 7272SOL    HW233276   1.441   4.108   9.254 -0.6561  0.3721  0.7938
 7273SOL     OW33277   1.851   4.453   3.696 -0.0246 -0.0222  0.4464
 7273SOL    HW133278   1.927   4.404   3.667  1.3827  1.9923  0.7038
 7273SOL    HW233279   1.876   4.532   3.647 -1.3430 -0.3255 -0.7219
 7274SOL     OW33280   4.355   4.475   0.596  0.3831  0.4141  0.3971
 7274SOL    HW133281   4.381   4.395   0.641 -0.5048  0.4148  0.9193
 7274SOL    HW233282   4.284   4.510   0.650  1.0804  1.9336  0.3520
 7275SOL     OW33283   4.567   2.797  16.678 -0.3072 -0.2909 -0.1878
 7275SOL    HW133284   4.574   2.765  16.768 -0.3643  3.8207  1.2674
 7275SOL    HW233285   4.656   2.811  16.647  0.1923 -1.6896  0.6251
 7276SOL     OW33286   1.898   1.545   2.111  0.0085 -0.0398  0.0540
 7276SOL    HW133287   1.811   1.506   2.122 -0.4220  0.0266 -3.1096
 7276SOL    HW233288   1.868   1.610   2.048 -2.1471 -2.1022 -1.0673
 7277SOL     OW33289   0.265   4.625   9.830  0.2128 -0.0787  0.0711
 7277SOL    HW133290   0.350   4.593   9.861 -1.3180 -1.6960  2.5064
 7277SOL    HW233291   0.245   4.689   9.898 -1.0186 -1.1850  0.7335
 7278SOL     OW33292   4.229   4.211   2.183  0.2125  0.0599  0.6993
 7278SOL    HW133293   4.303   4.184   2.238  0.3782  0.9674  0.9238
 7278SOL    HW233294   4.209   4.125   2.145 -0.2659  1.3653 -2.0144
 7279SOL     OW33295   3.111   3.056  13.282  0.3648 -0.6108 -0.3495
 7279SOL    HW133296   3.043   3.049  13.215 -0.4599 -1.4106  0.5727
 7279SOL    HW233297   3.149   3.136  13.245  0.3174 -0.4663 -0.0847
 7280SOL     OW33298   3.177   3.673   7.010 -0.0321 -0.0856  0.2223
 7280SOL    HW133299   3.250   3.725   7.044 -0.7787 -0.9068  3.1368
 7280SOL    HW233300   3.216   3.595   6.970 -0.0861  0.6278 -1.2050
 7281SOL     OW33301   2.928   3.227   3.190 -0.7659 -0.4153 -0.3074
 7281SOL    HW133302   2.935   3.132   3.201  0.6579 -0.2789  0.0597
 7281SOL    HW233303   2.849   3.240   3.138  1.9080  2.3301 -3.6540
 7282SOL     OW33304   2.837   3.003   8.048 -0.6258 -0.3269  0.1165
 7282SOL    HW133305   2.880   2.943   7.987 -0.9204  1.2489 -1.6223
 7282SOL    HW233306   2.894   3.080   8.046 -1.0245  0.0093  1.4360
 7283SOL     OW33307   3.303   0.033  17.375 -0.4759  0.5371  0.7186
 7283SOL    HW133308   3.235   0.099  17.389 -0.7839  0.4089 -0.1255
 7283SOL    HW233309   3.308   0.040  17.279 -2.6249 -0.6985  0.5034
 7284SOL     OW33310   2.400   1.122   5.883  0.0384 -0.2276  0.1254
 7284SOL    HW133311   2.344   1.072   5.824  0.0639 -0.3671  0.2211
 7284SOL    HW233312   2.440   1.182   5.820  0.1334 -2.3009 -1.7584
 7285SOL     OW33313   2.737   1.152  17.681  0.1586 -0.3534 -0.7458
 7285SOL    HW133314   2.755   1.208  17.605 -0.3907  2.1260  0.9647
 7285SOL    HW233315   2.824   1.113  17.693 -1.2081 -2.7736  1.1237
 7286SOL     OW33316   3.224   1.107   3.932 -0.4477  0.3200  0.4476
 7286SOL    HW133317   3.216   1.135   3.841 -0.7007 -1.3748 -0.0533
 7286SOL    HW233318   3.319   1.117   3.923 -0.5494  0.4496 -0.4516
 7287SOL     OW33319   4.040   3.979   9.101  0.1342  0.2301  0.1025
 7287SOL    HW133320   4.131   3.988   9.075  0.4462 -2.5977  0.2147
 7287SOL    HW233321   4.041   3.945   9.191 -1.4195 -1.5217 -0.5463
 7288SOL     OW33322   1.721   2.954   3.855 -0.1947 -0.1975  0.0303
 7288SOL    HW133323   1.743   2.861   3.851 -1.3459 -0.4254 -0.9403
 7288SOL    HW233324   1.759   2.972   3.769 -0.9848  2.7869  0.2809
 7289SOL     OW33325   1.230   0.545  16.882 -0.1240  0.5512  0.4979
 7289SOL    HW133326   1.172   0.475  16.850  0.0564 -0.0844  1.5419
 7289SOL    HW233327   1.316   0.505  16.892  0.5536  2.0832  0.8422
 7290SOL     OW33328   3.979   4.213   9.608 -0.2078  0.7150  0.0882
 7290SOL    HW133329   3.935   4.262   9.538  0.2740  0.5273 -0.3468
 7290SOL    HW233330   4.067   4.252   9.601 -0.1277  0.4776 -0.1970
 7291SOL     OW33331   2.934   0.113   7.544 -0.0086  0.1051  0.5024
 7291SOL    HW133332   2.885   0.070   7.474  0.3228  1.7106 -0.7340
 7291SOL    HW233333   3.026   0.095   7.528  0.2072  0.0768  1.7592
 7292SOL     OW33334   1.479   3.393  10.679 -0.1956 -0.0389  0.6856
 7292SOL    HW133335   1.538   3.374  10.751 -1.7813 -0.0112  1.9919
 7292SOL    HW233336   1.446   3.304  10.668  1.5253 -0.5495 -0.2949
 7293SOL     OW33337   2.812   0.042  11.597 -0.2227 -0.0924  0.2599
 7293SOL    HW133338   2.895   0.012  11.560 -0.3417 -0.7591  0.5372
 7293SOL    HW233339   2.804   0.134  11.571  1.8162  0.0419  0.1686
 7294SOL     OW33340   0.070   0.398   2.101  0.3791  0.7030 -0.5150
 7294SOL    HW133341   0.040   0.310   2.120  2.0617  0.0506 -0.8938
 7294SOL    HW233342   0.003   0.449   2.147  0.8045 -0.2149  1.1296
 7295SOL     OW33343   4.074   1.477   5.397  0.4830  0.4685  0.2717
 7295SOL    HW133344   3.987   1.507   5.424  1.4079  0.9855  2.7008
 7295SOL    HW233345   4.134   1.551   5.405 -0.1654  0.9779  0.5074
 7296SOL     OW33346   3.299   4.113   5.673 -0.0892 -0.4015  0.6576
 7296SOL    HW133347   3.260   4.135   5.758 -0.3607  2.1567 -0.1162
 7296SOL    HW233348   3.249   4.036   5.647 -1.6770  0.6653  0.5063
 7297SOL     OW33349   2.093   2.574   3.114 -0.1329  0.3217  0.3111
 7297SOL    HW133350   2.002   2.603   3.118  0.5585  2.2321  2.3493
 7297SOL    HW233351   2.100   2.492   3.164  1.6458 -0.4097 -1.1224
 7298SOL     OW33352   1.644   0.894   2.220  0.2488  0.0206  0.2891
 7298SOL    HW133353   1.651   0.799   2.222  1.9589  0.1593  0.5004
 7298SOL    HW233354   1.598   0.906   2.136 -1.3291 -1.5509  0.9235
 7299SOL     OW33355   0.334   2.739   3.530 -0.4722  0.2759 -0.0259
 7299SOL    HW133356   0.403   2.704   3.587  0.6524 -0.6888 -1.9862
 7299SOL    HW233357   0.348   2.829   3.560 -1.3058  0.3707  0.0682
 7300SOL     OW33358   3.427   4.181   9.341  0.2678  0.3447  0.5991
 7300SOL    HW133359   3.404   4.217   9.427  0.4952 -0.0911  0.8420
 7300SOL    HW233360   3.343   4.154   9.303  0.8405  0.6537 -0.8931
 7301SOL     OW33361   2.601   2.513   3.026  0.1531 -0.1016  0.1373
 7301SOL    HW133362   2.505   2.521   3.021 -0.0500 -1.7383  1.2626
 7301SOL    HW233363   2.622   2.571   3.099  2.2781 -1.6108  0.7214
 7302SOL     OW33364   1.097   4.330   3.251 -0.4245  0.3977  0.0487
 7302SOL    HW133365   1.073   4.391   3.182 -1.7167 -1.5516 -1.2010
 7302SOL    HW233366   1.012   4.292   3.272 -0.4105  0.7095  0.6907
 7303SOL     OW33367   0.700   4.373   1.263  0.3736  0.0349 -0.5082
 7303SOL    HW133368   0.713   4.308   1.195  1.3569 -2.9564  2.5368
 7303SOL    HW233369   0.613   4.351   1.294  0.4253  2.4699  1.3798
 7304SOL     OW33370   0.232   2.948  11.340  0.3332  0.5996 -0.4529
 7304SOL    HW133371   0.243   2.898  11.422 -3.0718  2.1825  0.9508
 7304SOL    HW233372   0.284   3.026  11.357 -2.9231  2.7533 -0.4664
 7305SOL     OW33373   2.109   2.949  15.730  0.5252  0.0869 -0.1334
 7305SOL    HW133374   2.124   2.968  15.638  0.9955  1.4856  0.2273
 7305SOL    HW233375   2.016   2.929  15.729  0.4576  0.2469  1.7900
 7306SOL     OW33376   2.601   4.536   6.693 -0.2814  0.3907 -0.2032
 7306SOL    HW133377   2.648   4.552   6.775  0.2016  0.4887 -0.4967
 7306SOL    HW233378   2.557   4.458   6.725 -0.5176 -0.6336 -3.0098
 7307SOL     OW33379   1.966   4.283   2.469 -0.5481 -0.3440 -0.0007
 7307SOL    HW133380   2.036   4.217   2.466 -0.7399 -0.5258 -0.4223
 7307SOL    HW233381   1.947   4.276   2.562  1.1255 -1.1630  0.2996
 7308SOL     OW33382   0.949   1.778  10.693 -0.1419  0.2116  0.0717
 7308SOL    HW133383   1.028   1.811  10.651 -1.4501  1.1624 -1.6556
 7308SOL    HW233384   0.980   1.704  10.745 -0.3342  0.4768  0.5663
 7309SOL     OW33385   1.564   0.503  10.346 -1.1037 -0.0095  0.2176
 7309SOL    HW133386   1.608   0.483  10.428  0.6925  0.5013 -0.6283
 7309SOL    HW233387   1.475   0.468  10.357 -0.2470 -1.6238  1.9116
 7310SOL     OW33388   2.900   2.585   7.690 -0.3613 -0.3918  0.0441
 7310SOL    HW133389   2.959   2.556   7.620 -0.9965  1.1139 -1.1398
 7310SOL    HW233390   2.941   2.550   7.769  1.1340  1.6675  0.1746
 7311SOL     OW33391   1.181   4.062  11.409 -0.3353 -0.0195  0.1087
 7311SOL    HW133392   1.171   4.150  11.373  0.0913  0.4258  1.0844
 7311SOL    HW233393   1.222   4.011  11.339 -0.5702 -0.2749  0.1582
 7312SOL     OW33394   1.009   1.931   5.381  0.2766 -1.0318  0.2726
 7312SOL    HW133395   1.067   2.000   5.414  0.7331 -2.6072  2.7216
 7312SOL    HW233396   1.019   1.866   5.450 -2.2179 -1.7951 -0.0890
 7313SOL     OW33397   0.067   3.647   2.736 -0.3303 -0.1085 -0.6038
 7313SOL    HW133398   4.723   3.604   2.786 -0.0615 -1.8160 -1.7057
 7313SOL    HW233399   0.074   3.597   2.655 -1.7237  1.0424 -1.4354
 7314SOL     OW33400   1.389   4.452   4.055 -0.0615 -1.0462 -0.2659
 7314SOL    HW133401   1.407   4.360   4.078 -1.6713 -1.5621 -1.0822
 7314SOL    HW233402   1.362   4.443   3.964  1.6419  0.5288 -0.9105
 7315SOL     OW33403   4.036   3.786  12.285 -0.7458 -0.8720  0.1917
 7315SOL    HW133404   3.975   3.713  12.297 -2.6919  0.6181 -0.5179
 7315SOL    HW233405   4.100   3.759  12.221 -0.3158 -1.3455  0.8234
 7316SOL     OW33406   0.582   4.385   4.728  0.0951  0.3384  0.4539
 7316SOL    HW133407   0.529   4.413   4.802  1.3854 -1.0501  1.8802
 7316SOL    HW233408   0.665   4.429   4.745 -0.4519  1.7433 -0.4590
 7317SOL     OW33409   3.746   2.788   7.949 -0.6456  0.2306  0.2558
 7317SOL    HW133410   3.756   2.822   8.038  2.4210 -0.4883  0.1900
 7317SOL    HW233411   3.803   2.846   7.899  1.2041 -1.1678  0.7340
 7318SOL     OW33412   4.311   4.626  12.230  0.1444  0.3222 -0.8079
 7318SOL    HW133413   4.291   4.577  12.310  0.5678  0.9534 -0.3103
 7318SOL    HW233414   4.398   4.663  12.241 -0.6335  2.6292 -2.5366
 7319SOL     OW33415   1.462   3.761  15.359  0.1226 -0.2322 -0.4943
 7319SOL    HW133416   1.474   3.754  15.264 -1.4701 -1.8154 -0.5631
 7319SOL    HW233417   1.540   3.712  15.385 -1.8402 -2.3417  1.4150
 7320SOL     OW33418   4.477   2.021   3.083 -0.6828 -0.6395  0.0161
 7320SOL    HW133419   4.413   1.982   3.143 -1.3255 -0.3220 -0.4679
 7320SOL    HW233420   4.441   2.005   2.996 -1.2818 -0.9539  0.3184
 7321SOL     OW33421   4.597   0.457   5.467 -0.8196  0.0048 -0.4482
 7321SOL    HW133422   4.503   0.471   5.460 -0.9278 -0.5947 -0.1480
 7321SOL    HW233423   4.615   0.373   5.425  0.9808  0.4017 -0.4713
 7322SOL     OW33424   1.271   1.695  13.180  0.3894 -0.1752 -0.4339
 7322SOL    HW133425   1.284   1.660  13.091 -1.1181 -2.6438  0.3375
 7322SOL    HW233426   1.286   1.620  13.237  1.0492 -0.9830 -1.6472
 7323SOL     OW33427   1.987   3.655   6.247 -0.4208 -0.2219 -0.4175
 7323SOL    HW133428   2.020   3.606   6.322  1.2473  2.2124  0.4471
 7323SOL    HW233429   1.942   3.732   6.283 -1.3592 -0.5190 -0.9476
 7324SOL     OW33430   4.156   3.986  11.708  0.3209  1.0334  0.3426
 7324SOL    HW133431   4.099   4.011  11.635  0.3014 -1.8947 -0.6389
 7324SOL    HW233432   4.149   4.070  11.753 -1.6265  1.1632 -0.2142
 7325SOL     OW33433   1.066   2.526   7.623 -0.5228 -0.5962 -0.2771
 7325SOL    HW133434   1.124   2.451   7.635  0.2327 -0.2276 -1.5833
 7325SOL    HW233435   1.021   2.517   7.707 -1.1737  1.0715 -0.4437
 7326SOL     OW33436   2.497   4.286   2.189 -0.1183 -0.3363  0.0913
 7326SOL    HW133437   2.424   4.340   2.219 -0.2782 -0.8168  0.5549
 7326SOL    HW233438   2.465   4.243   2.110  1.4593 -1.7191  0.2108
 7327SOL     OW33439   2.066   2.116  16.597 -0.5194 -0.6626 -0.1743
 7327SOL    HW133440   2.098   2.057  16.666 -0.8281 -0.9276 -0.2569
 7327SOL    HW233441   2.136   2.180  16.609 -2.5601  0.9842  2.7946
 7328SOL     OW33442   3.981   0.117   4.925  0.4235  0.0214  0.6695
 7328SOL    HW133443   4.017   0.030   4.940  1.8590  0.8109  1.8396
 7328SOL    HW233444   3.932   0.099   4.845  0.3653  2.0495  0.2490
 7329SOL     OW33445   2.092   1.826  15.263 -0.0299  0.5340  0.9369
 7329SOL    HW133446   2.029   1.754  15.262 -1.0293  1.3875  1.8909
 7329SOL    HW233447   2.046   1.910  15.264 -0.0099  0.5535  0.0924
 7330SOL     OW33448   3.856   0.321   4.269 -0.1533 -0.1634 -0.3388
 7330SOL    HW133449   3.763   0.296   4.268 -0.3843  0.6674  0.0340
 7330SOL    HW233450   3.890   0.248   4.322 -0.3748  1.0257  1.4530
 7331SOL     OW33451   3.196   0.027   8.695 -0.2949  0.3583 -0.1587
 7331SOL    HW133452   3.153   4.712   8.619  0.5488  0.7551 -0.8491
 7331SOL    HW233453   3.131   0.059   8.757 -0.4549 -1.2458  0.4999
 7332SOL     OW33454   1.159   1.839  14.077  0.2025 -0.2227 -0.3746
 7332SOL    HW133455   1.065   1.838  14.064  0.1778 -1.1279 -0.1319
 7332SOL    HW233456   1.189   1.797  13.996 -1.5519 -1.4046 -0.3986
 7333SOL     OW33457   4.563   2.877   6.522 -0.2111 -0.2249 -0.3910
 7333SOL    HW133458   4.530   2.822   6.594 -1.5556  1.8777  0.6012
 7333SOL    HW233459   4.603   2.951   6.568 -0.4206 -0.1445 -0.3365
 7334SOL     OW33460   4.192   3.083   6.589  0.0339 -0.2425  0.1826
 7334SOL    HW133461   4.208   3.049   6.501 -0.4075 -0.7246  0.2953
 7334SOL    HW233462   4.099   3.066   6.602  0.2943 -0.9274  1.1252
 7335SOL     OW33463   1.404   2.529   7.856 -0.3294  0.0336  0.3612
 7335SOL    HW133464   1.486   2.488   7.883 -1.1039 -1.5256  0.3728
 7335SOL    HW233465   1.341   2.488   7.915 -1.0430 -1.6622 -1.5745
 7336SOL     OW33466   4.153   1.919   3.555 -0.2883  0.0747  0.4133
 7336SOL    HW133467   4.083   1.873   3.602  0.0463 -0.3487  0.5079
 7336SOL    HW233468   4.169   1.997   3.608  0.8895 -0.5278  0.9565
 7337SOL     OW33469   3.067   3.373  12.263 -0.4659 -0.1665  0.1354
 7337SOL    HW133470   3.150   3.336  12.231 -0.1615 -0.0609  0.8224
 7337SOL    HW233471   3.090   3.466  12.265 -1.1688  0.0409 -1.1688
 7338SOL     OW33472   0.117   1.512   7.517  0.3111 -0.3050  0.3297
 7338SOL    HW133473   0.063   1.585   7.489  2.0995 -0.2996 -3.1220
 7338SOL    HW233474   0.154   1.545   7.599 -2.2007 -0.2179  1.4030
 7339SOL     OW33475   2.067   1.094   6.953  0.3481 -0.1732  0.3756
 7339SOL    HW133476   2.038   1.185   6.955 -0.3044 -0.3531 -0.8165
 7339SOL    HW233477   2.047   1.078   7.045 -0.1856  2.3685  0.7164
 7340SOL     OW33478   0.002   0.567   2.990  0.0209  0.0338  0.2642
 7340SOL    HW133479   4.652   0.609   3.033 -0.0819 -1.8018  1.9142
 7340SOL    HW233480   4.686   0.548   2.906  0.8939  0.4586 -0.2436
 7341SOL     OW33481   3.206   2.251  10.715 -0.2685  0.0052 -0.5568
 7341SOL    HW133482   3.194   2.303  10.794 -3.3866  0.9581 -1.6717
 7341SOL    HW233483   3.115   2.222  10.711  0.2795 -2.0863  2.3687
 7342SOL     OW33484   2.133   1.886   4.810 -0.0040  0.0565  0.0226
 7342SOL    HW133485   2.227   1.876   4.794 -0.1176  0.2225 -0.7805
 7342SOL    HW233486   2.108   1.794   4.813  1.0645 -0.2418 -0.0740
 7343SOL     OW33487   0.282   1.103   3.935  0.5845 -0.3680 -0.2164
 7343SOL    HW133488   0.189   1.125   3.945  0.4665  0.0043 -2.2666
 7343SOL    HW233489   0.285   1.083   3.842 -2.0833 -1.7469 -0.0340
 7344SOL     OW33490   1.065   4.043  10.633  0.7492 -0.3166  0.3935
 7344SOL    HW133491   1.066   3.962  10.684 -1.3190 -1.0166 -0.6770
 7344SOL    HW233492   0.972   4.057  10.616  0.7773 -1.4943 -0.8229
 7345SOL     OW33493   0.592   0.128   4.460  0.7911 -0.4071  0.2918
 7345SOL    HW133494   0.496   0.128   4.456  0.7180 -0.7897  1.8226
 7345SOL    HW233495   0.616   0.041   4.492  0.9441 -0.5211 -0.1352
 7346SOL     OW33496   0.062   2.193  15.139 -0.2803 -0.9295 -0.1655
 7346SOL    HW133497   4.720   2.147  15.189 -0.1533  1.1117  1.8999
 7346SOL    HW233498   0.126   2.212  15.208  0.9076 -1.2429 -1.1670
 7347SOL     OW33499   3.286   3.053  14.609 -0.3807 -0.0508  0.3588
 7347SOL    HW133500   3.211   3.109  14.590  0.5401  0.5593 -1.3969
 7347SOL    HW233501   3.319   3.036  14.521  1.9042 -4.2582  2.0416
 7348SOL     OW33502   2.807   1.618   7.179 -0.0736  0.0234  0.1080
 7348SOL    HW133503   2.834   1.674   7.106 -1.8922 -0.5361 -0.9860
 7348SOL    HW233504   2.873   1.642   7.245  0.5120  2.7456 -1.4819
 7349SOL     OW33505   2.522   3.617   8.792  0.0999 -0.5056 -0.6675
 7349SOL    HW133506   2.530   3.670   8.712  0.4623 -1.7507 -1.4464
 7349SOL    HW233507   2.432   3.586   8.793  0.0072 -0.2230  0.6793
 7350SOL     OW33508   4.474   0.386   7.983 -0.5038  0.1301 -0.8810
 7350SOL    HW133509   4.380   0.366   7.979 -0.6485  0.6572 -0.0273
 7350SOL    HW233510   4.493   0.380   8.076  0.5331 -1.3855 -1.1877
 7351SOL     OW33511   2.749   0.062   6.037  0.9615  0.0797 -0.2443
 7351SOL    HW133512   2.684   4.718   6.024 -2.1820  3.3288 -1.7691
 7351SOL    HW233513   2.720   0.132   5.978 -0.4683 -1.6638 -1.5863
 7352SOL     OW33514   2.043   0.594   9.428  0.5450  0.5450 -0.3507
 7352SOL    HW133515   2.037   0.560   9.338 -0.7449 -0.7212  0.2033
 7352SOL    HW233516   1.956   0.560   9.449  2.2544 -2.8766  1.1327
 7353SOL     OW33517   2.004   2.575   1.033  0.8864 -0.0506  0.2232
 7353SOL    HW133518   2.012   2.639   1.104  0.4304  0.9071 -0.5930
 7353SOL    HW233519   2.034   2.496   1.077 -0.7188 -0.6676  0.2102
 7354SOL     OW33520   0.436   2.240  16.112 -0.3463 -0.0345 -0.3016
 7354SOL    HW133521   0.513   2.269  16.063 -0.8599  1.4675 -0.2472
 7354SOL    HW233522   0.469   2.216  16.198 -0.6462 -0.6192 -0.3509
 7355SOL     OW33523   3.168   1.782   5.610 -0.2959  0.2537 -0.1612
 7355SOL    HW133524   3.221   1.818   5.539 -0.0889 -1.4744 -0.8883
 7355SOL    HW233525   3.229   1.711   5.632 -1.8838 -0.7862  0.9552
 7356SOL     OW33526   1.080   0.025  17.032  0.3075 -0.1291  0.2522
 7356SOL    HW133527   0.985   0.022  17.028  0.3070 -1.0536  0.9751
 7356SOL    HW233528   1.090   0.110  17.076 -0.4928  0.1385 -0.0953
 7357SOL     OW33529   3.685   2.022  12.017  0.0509 -0.0273 -0.0235
 7357SOL    HW133530   3.709   1.932  11.995 -1.8357 -1.2651  3.0609
 7357SOL    HW233531   3.684   2.027  12.112  0.3193 -1.7589  0.0740
 7358SOL     OW33532   1.923   4.536  10.356 -0.2193  0.4637 -0.1323
 7358SOL    HW133533   1.890   4.507  10.442 -2.1552  2.6676 -0.1186
 7358SOL    HW233534   1.926   4.630  10.375  1.1141 -0.0752  2.4140
 7359SOL     OW33535   0.205   0.571   4.503 -0.0125  0.1352 -0.2541
 7359SOL    HW133536   0.246   0.654   4.529  1.0101 -0.1557 -0.9583
 7359SOL    HW233537   0.279   0.512   4.514  0.3232  0.8643  1.4531
 7360SOL     OW33538   1.713   4.232   6.002  0.4347 -0.4576  0.1659
 7360SOL    HW133539   1.642   4.179   6.037 -1.7028  1.9826 -0.4237
 7360SOL    HW233540   1.734   4.177   5.926  0.8368 -0.2828  0.1502
 7361SOL     OW33541   3.274   1.972   6.505 -0.0340 -0.0547  0.5022
 7361SOL    HW133542   3.325   1.958   6.585 -0.4027 -2.7304  0.2752
 7361SOL    HW233543   3.315   1.928   6.431 -0.4552  0.1404  0.1514
 7362SOL     OW33544   0.659   2.031   1.868 -0.0318  0.4202 -0.0726
 7362SOL    HW133545   0.699   2.010   1.784  0.5727  0.7672  0.1285
 7362SOL    HW233546   0.679   2.123   1.886 -0.2537  0.2754  0.9563
 7363SOL     OW33547   4.311   2.359   2.863  0.3305  0.0173 -0.1140
 7363SOL    HW133548   4.275   2.439   2.824 -3.4505 -1.5969  0.0109
 7363SOL    HW233549   4.290   2.290   2.799  0.7965  1.7247 -2.1246
 7364SOL     OW33550   0.117   4.296   4.770 -0.0670  0.1783  0.6666
 7364SOL    HW133551   0.144   4.358   4.837  1.4613  0.9706 -0.6710
 7364SOL    HW233552   0.117   4.365   4.704  2.3139 -0.2633  0.2052
 7365SOL     OW33553   2.496   1.297   2.581 -0.4277  0.0399 -0.2564
 7365SOL    HW133554   2.434   1.252   2.524 -0.8085  2.4396 -1.7418
 7365SOL    HW233555   2.434   1.365   2.607  0.1988  0.9383 -1.1019
 7366SOL     OW33556   3.096   0.353   7.152  0.2167 -0.0398  0.1753
 7366SOL    HW133557   3.129   0.439   7.176 -0.5790  0.1073  0.7118
 7366SOL    HW233558   3.126   0.345   7.061 -0.0452  0.9692  0.0099
 7367SOL     OW33559   2.611   1.825   6.708 -0.2336  0.0918  0.0872
 7367SOL    HW133560   2.610   1.863   6.620  0.5534  3.7764  1.6518
 7367SOL    HW233561   2.697   1.846   6.746 -0.5225 -2.9714  2.4079
 7368SOL     OW33562   4.584   4.317   5.570 -0.1909  0.0824 -0.0299
 7368SOL    HW133563   4.554   4.290   5.657  0.7806 -1.3759 -0.1553
 7368SOL    HW233564   4.523   4.264   5.519 -1.1861 -1.5324  2.8697
 7369SOL     OW33565   4.338   3.193   0.677 -1.0206  0.0902 -0.2234
 7369SOL    HW133566   4.372   3.219   0.763  0.9881  1.2055 -1.3638
 7369SOL    HW233567   4.265   3.254   0.675  0.4137  1.8026 -0.3096
 7370SOL     OW33568   3.165   0.513   9.552 -0.0223 -0.2750 -0.4444
 7370SOL    HW133569   3.165   0.420   9.527  2.0884 -0.0223 -1.4149
 7370SOL    HW233570   3.139   0.570   9.479  0.1027 -1.1400 -1.1731
 7371SOL     OW33571   1.146   1.650   6.729  0.3473 -0.3957  0.4212
 7371SOL    HW133572   1.077   1.667   6.664  0.2271  4.3515  1.8070
 7371SOL    HW233573   1.169   1.742   6.744 -0.2672 -0.3418  1.0527
 7372SOL     OW33574   3.211   1.736   4.295  0.6492  0.2957 -0.2624
 7372SOL    HW133575   3.270   1.668   4.264  0.6893  0.5495 -0.7425
 7372SOL    HW233576   3.133   1.687   4.322  0.1272 -0.5152 -3.2374
 7373SOL     OW33577   2.865   3.759   0.482  0.4349  0.0372 -0.3871
 7373SOL    HW133578   2.934   3.699   0.455  0.2899 -0.2311 -0.1646
 7373SOL    HW233579   2.794   3.711   0.524 -0.8920  3.0661  0.8483
 7374SOL     OW33580   1.267   1.736  13.783  0.0693  0.4379  0.4539
 7374SOL    HW133581   1.327   1.751  13.710  0.8140 -1.3299  0.7037
 7374SOL    HW233582   1.319   1.667  13.823 -0.6191 -0.1615  0.3125
 7375SOL     OW33583   0.270   0.709   3.923 -0.2496 -0.2881 -0.3418
 7375SOL    HW133584   0.359   0.743   3.915  0.0030 -0.6523  1.0579
 7375SOL    HW233585   0.245   0.731   4.013  0.4088  0.1781 -0.2749
 7376SOL     OW33586   2.675   2.475   5.656 -0.5287  0.1506  0.5051
 7376SOL    HW133587   2.611   2.546   5.663  1.2882  1.6615  1.5166
 7376SOL    HW233588   2.669   2.446   5.565 -1.5629 -0.5639  0.7930
 7377SOL     OW33589   0.086   0.216  13.448  0.6516  0.1560 -0.1065
 7377SOL    HW133590   0.154   0.255  13.392  0.7636 -1.3635 -1.0296
 7377SOL    HW233591   0.116   0.125  13.447 -0.3560 -0.1544 -1.3232
 7378SOL     OW33592   3.886   3.086   9.029 -0.3214 -0.1077 -0.0927
 7378SOL    HW133593   3.882   3.072   8.934 -3.2132  0.5318 -0.0770
 7378SOL    HW233594   3.960   3.146   9.026 -1.0115  0.7747  0.5800
 7379SOL     OW33595   4.272   1.367   6.417 -0.2502  0.2104 -0.2057
 7379SOL    HW133596   4.345   1.383   6.357 -1.1541  1.1887 -1.0449
 7379SOL    HW233597   4.199   1.409   6.371 -1.3587 -0.2919  1.1068
 7380SOL     OW33598   2.990   0.095   3.039  0.1947 -0.0374  0.3134
 7380SOL    HW133599   2.972   0.004   3.015  2.9250  0.2054 -2.5997
 7380SOL    HW233600   3.034   0.088   3.124 -1.3228  2.4246  1.3179
 7381SOL     OW33601   2.951   1.272   1.574  0.4132  0.0637 -0.6571
 7381SOL    HW133602   2.973   1.347   1.518 -0.7330  0.9647  0.1042
 7381SOL    HW233603   3.022   1.211   1.554 -1.9734 -2.2414 -2.2046
 7382SOL     OW33604   1.588   0.315   8.258  0.5073  0.1834 -0.1765
 7382SOL    HW133605   1.495   0.306   8.234  0.4292  0.7495 -0.0809
 7382SOL    HW233606   1.592   0.238   8.315  0.3971  0.4595  0.2036
 7383SOL     OW33607   2.138   2.910   5.181  0.3108 -0.7501 -0.1938
 7383SOL    HW133608   2.159   2.957   5.100 -0.8048  2.1840  1.2054
 7383SOL    HW233609   2.161   2.980   5.243  0.9465 -1.8380  0.7939
 7384SOL     OW33610   0.306   1.108   8.848  0.0743  0.1259 -0.1585
 7384SOL    HW133611   0.219   1.085   8.814 -1.0939  1.9730  1.5454
 7384SOL    HW233612   0.290   1.118   8.942 -3.5498 -0.9383 -0.6537
 7385SOL     OW33613   0.489   0.460   4.879 -0.1891 -0.4758 -0.0066
 7385SOL    HW133614   0.414   0.515   4.856  1.4506  1.3943 -0.9448
 7385SOL    HW233615   0.515   0.514   4.953  0.4975 -0.9799  0.1196
 7386SOL     OW33616   3.659   4.126   3.066 -0.1617  0.3171 -0.1748
 7386SOL    HW133617   3.699   4.059   3.123  2.9033  1.6313 -0.7810
 7386SOL    HW233618   3.598   4.167   3.127  0.5624 -3.2400  2.9865
 7387SOL     OW33619   4.375   2.310   9.593  0.0695 -0.5372 -0.2038
 7387SOL    HW133620   4.299   2.344   9.640 -1.1860 -0.8525 -1.9867
 7387SOL    HW233621   4.323   2.248   9.541 -2.3307 -0.0070  1.5664
 7388SOL     OW33622   2.775   4.612   8.636 -0.1027 -0.0047 -0.4575
 7388SOL    HW133623   2.721   4.687   8.662 -2.6656 -1.9971 -0.1013
 7388SOL    HW233624   2.837   4.605   8.708  1.8219 -0.2938 -2.1632
 7389SOL     OW33625   0.787   1.551   7.782  0.6386  0.8440 -0.2143
 7389SOL    HW133626   0.832   1.508   7.855 -1.0157  0.2864  0.4892
 7389SOL    HW233627   0.695   1.545   7.810  0.3735 -1.4751 -1.5891
 7390SOL     OW33628   4.193   4.211  11.867  0.4092 -0.0522  0.1004
 7390SOL    HW133629   4.132   4.276  11.830  0.8192 -0.6177 -1.5576
 7390SOL    HW233630   4.268   4.228  11.810  1.3098  1.8516  1.8487
 7391SOL     OW33631   0.006   4.063   3.008  0.1378  0.4306 -0.1289
 7391SOL    HW133632   4.649   4.100   2.973 -0.0591 -1.1725 -1.3376
 7391SOL    HW233633   4.710   3.970   2.998  1.0052  0.5343 -2.8403
 7392SOL     OW33634   2.393   4.322  10.188 -0.0175  0.7055  0.0981
 7392SOL    HW133635   2.403   4.305  10.282 -0.6345 -2.4477 -0.4120
 7392SOL    HW233636   2.355   4.410  10.197 -2.8611 -0.6370  1.3515
 7393SOL     OW33637   2.818   4.202   9.239  0.2657  0.3518 -0.3048
 7393SOL    HW133638   2.821   4.274   9.302  1.4820 -0.1329  0.1943
 7393SOL    HW233639   2.811   4.131   9.302  1.5405 -0.5551 -1.1921
 7394SOL     OW33640   4.631   1.802   4.928  0.2527  0.2622 -0.2193
 7394SOL    HW133641   4.659   1.758   4.848 -1.2374  1.4061 -1.3588
 7394SOL    HW233642   4.541   1.769   4.933  1.2559 -2.3481  0.8035
 7395SOL     OW33643   3.462   0.982   8.727 -0.3717  0.1992  0.2572
 7395SOL    HW133644   3.456   1.067   8.682 -0.3604  0.9518  1.6607
 7395SOL    HW233645   3.401   0.933   8.672  1.0477  0.5608 -1.6539
 7396SOL     OW33646   2.364   0.406   6.245 -0.2199 -0.2868 -0.2783
 7396SOL    HW133647   2.437   0.399   6.307 -0.6331  1.8242  0.4455
 7396SOL    HW233648   2.292   0.375   6.299 -0.4759  1.2409  0.2406
 7397SOL     OW33649   1.244   1.551  11.018 -0.3962  0.1936  0.0909
 7397SOL    HW133650   1.273   1.484  10.955 -0.8826  3.0198 -3.1176
 7397SOL    HW233651   1.328   1.576  11.054 -0.9425  2.2846 -0.0719
 7398SOL     OW33652   0.306   0.005   2.576  0.1959  0.0921  0.4988
 7398SOL    HW133653   0.348   4.651   2.611 -0.0926 -0.4304 -0.3445
 7398SOL    HW233654   0.309   0.057   2.656  0.4076  1.3164 -0.3069
 7399SOL     OW33655   0.311   3.766   9.011 -0.0800  0.4048  0.4910
 7399SOL    HW133656   0.326   3.782   9.104  1.5962  0.3959  0.2340
 7399SOL    HW233657   0.400   3.769   8.974 -0.0507  0.4040  0.5622
 7400SOL     OW33658   0.977   1.091   1.125 -0.4688  0.3731 -0.3258
 7400SOL    HW133659   0.955   1.017   1.069 -0.1478  0.7019 -0.8843
 7400SOL    HW233660   0.985   1.060   1.215 -2.2334  0.8980  0.0031
 7401SOL     OW33661   2.441   4.283   3.297  0.0310  0.0510  0.8430
 7401SOL    HW133662   2.487   4.341   3.359  1.2309  1.1174 -1.0493
 7401SOL    HW233663   2.368   4.334   3.263 -2.0591 -1.5560  2.9066
 7402SOL     OW33664   4.614   2.402   6.779  0.4616  0.6292 -0.2101
 7402SOL    HW133665   4.660   2.369   6.702 -1.1076  1.5943 -1.5409
 7402SOL    HW233666   4.550   2.332   6.789  1.9959 -0.6716  0.6781
 7403SOL     OW33667   0.982   3.842  16.229  0.3545  0.3581 -0.4945
 7403SOL    HW133668   0.955   3.924  16.271 -2.4846  0.1846 -1.9568
 7403SOL    HW233669   0.989   3.877  16.140 -0.1824 -0.9488 -1.0570
 7404SOL     OW33670   2.374   2.559   9.174  0.2645  0.5487 -0.0783
 7404SOL    HW133671   2.468   2.573   9.163  0.3641 -1.9833 -2.3183
 7404SOL    HW233672   2.362   2.561   9.269 -1.1651  1.1750 -0.2720
 7405SOL     OW33673   2.945   2.576   2.378  0.3540  0.3666  0.3942
 7405SOL    HW133674   2.865   2.601   2.425 -0.1431  0.7285 -0.6389
 7405SOL    HW233675   2.965   2.498   2.430  2.6002 -0.4801 -1.7070
 7406SOL     OW33676   2.189   3.071   3.289  0.0613 -0.9140  0.2798
 7406SOL    HW133677   2.140   3.095   3.210  0.4088  0.4715  0.4881
 7406SOL    HW233678   2.272   3.039   3.254  2.1005  2.1295  2.3070
 7407SOL     OW33679   4.289   2.406   4.886 -0.4117  0.1877 -0.3539
 7407SOL    HW133680   4.340   2.333   4.921 -1.5177  0.0608  1.0139
 7407SOL    HW233681   4.212   2.404   4.943  0.6601  1.7009  1.1569
 7408SOL     OW33682   3.357   3.857  14.485  0.3389  0.3212  1.0840
 7408SOL    HW133683   3.350   3.765  14.461  0.6766  0.6777 -0.4012
 7408SOL    HW233684   3.448   3.860  14.513  0.1527  3.7673  1.3714
 7409SOL     OW33685   0.111   2.327   8.627 -0.4708 -0.4366 -0.1697
 7409SOL    HW133686   0.129   2.237   8.599  1.1134 -0.1580 -0.0400
 7409SOL    HW233687   0.047   2.348   8.559 -1.3309 -0.8778  0.5083
 7410SOL     OW33688   0.922   0.031   6.157  0.1920  0.0382  0.0428
 7410SOL    HW133689   0.870   4.685   6.194  0.2796  0.3936  0.8490
 7410SOL    HW233690   0.985   0.048   6.228  1.0326 -1.8128 -0.2587
 7411SOL     OW33691   4.444   2.265   6.437  0.4502  0.1298  0.7831
 7411SOL    HW133692   4.469   2.242   6.348 -3.5014 -1.2370  0.0275
 7411SOL    HW233693   4.453   2.183   6.485 -0.5473 -1.3214 -1.5094
 7412SOL     OW33694   3.297   0.984   4.516 -0.8437  0.6938 -0.1075
 7412SOL    HW133695   3.343   0.902   4.503 -2.7231 -0.1808 -1.1999
 7412SOL    HW233696   3.212   0.941   4.520 -0.5486 -0.0975 -2.3153
 7413SOL     OW33697   3.515   2.505   2.041 -0.4624  0.0632 -0.1790
 7413SOL    HW133698   3.455   2.451   2.093 -0.4336  1.0604  0.8967
 7413SOL    HW233699   3.593   2.460   2.074 -1.6061  0.0739  2.5514
 7414SOL     OW33700   4.172   2.393   3.114  0.4416  0.1510 -0.2886
 7414SOL    HW133701   4.262   2.425   3.127 -0.0995  1.7510 -0.4789
 7414SOL    HW233702   4.183   2.346   3.032 -0.4022 -0.4729 -0.0358
 7415SOL     OW33703   4.402   2.798  15.188  0.1297  0.2153  0.1635
 7415SOL    HW133704   4.478   2.823  15.134  0.8393 -2.3535 -0.0509
 7415SOL    HW233705   4.438   2.804  15.277 -0.6617 -1.8718  0.6136
 7416SOL     OW33706   0.848   3.230   7.578 -0.1004 -0.2562 -0.4969
 7416SOL    HW133707   0.876   3.218   7.487  4.6646 -0.3605  0.9794
 7416SOL    HW233708   0.859   3.140   7.606  1.2556 -0.4046 -1.4875
 7417SOL     OW33709   2.368   1.661   4.120 -0.8246  0.0126 -0.5184
 7417SOL    HW133710   2.314   1.729   4.080 -1.6158  1.0860  2.3831
 7417SOL    HW233711   2.305   1.590   4.134 -0.6841  0.4676  2.4600
 7418SOL     OW33712   3.565   1.995  17.386  0.1667  0.0984 -0.3560
 7418SOL    HW133713   3.501   2.000  17.457 -0.3487  1.7486 -0.9591
 7418SOL    HW233714   3.503   1.934  17.346 -0.4701 -1.0699  2.3824
 7419SOL     OW33715   1.815   3.469   9.710 -0.3427  1.2320 -0.0372
 7419SOL    HW133716   1.823   3.464   9.614  3.1088 -1.4064  0.4256
 7419SOL    HW233717   1.880   3.535   9.734 -0.0476  0.9190  0.0133
 7420SOL     OW33718   0.071   1.829   5.130  0.2248  0.1417  0.1480
 7420SOL    HW133719   0.017   1.877   5.192 -1.4404  2.6127 -3.2399
 7420SOL    HW233720   0.009   1.833   5.057 -0.9191 -3.1806  0.9132
 7421SOL     OW33721   4.521   2.278   8.047  0.6218  0.3800 -0.5713
 7421SOL    HW133722   4.436   2.253   8.083  0.9887 -0.3471 -0.2153
 7421SOL    HW233723   4.508   2.267   7.953  1.2503  0.6129 -0.6891
 7422SOL     OW33724   0.088   0.086   4.585 -0.1764 -0.5936 -0.2724
 7422SOL    HW133725   0.153   0.052   4.647 -0.7286 -2.5358 -0.7403
 7422SOL    HW233726   0.055   0.005   4.546 -3.3254  1.1889 -1.2779
 7423SOL     OW33727   4.704   4.638   6.047  0.1405 -0.2185 -0.3233
 7423SOL    HW133728   0.037   4.648   5.971 -0.5603  2.2241 -0.5387
 7423SOL    HW233729   4.723   4.723   6.086 -1.1722 -0.2477  0.3835
 7424SOL     OW33730   2.503   3.076   2.759  0.0532  0.2546 -0.2596
 7424SOL    HW133731   2.510   3.167   2.729 -1.8151  0.3314 -0.4681
 7424SOL    HW233732   2.597   3.056   2.753 -0.1931 -0.6196 -1.1806
 7425SOL     OW33733   1.025   1.719   5.559 -0.1637  0.2797 -0.3517
 7425SOL    HW133734   1.006   1.626   5.554  0.1573  0.0686  2.4065
 7425SOL    HW233735   1.093   1.717   5.626 -0.4363 -0.9435 -0.1254
 7426SOL     OW33736   3.130   0.281   9.424  0.2917  0.2460 -0.4090
 7426SOL    HW133737   3.111   0.306   9.333 -0.4739  0.1205 -0.2861
 7426SOL    HW233738   3.068   0.208   9.431  0.0624  0.4321 -0.4740
 7427SOL     OW33739   4.427   3.882   4.172 -0.4785  0.1157 -0.0739
 7427SOL    HW133740   4.418   3.897   4.078 -1.2470 -1.2120 -0.2132
 7427SOL    HW233741   4.417   3.964   4.220  1.9934 -0.5264  1.5702
 7428SOL     OW33742   0.765   3.623   1.166 -0.1179  0.3424 -0.5301
 7428SOL    HW133743   0.742   3.608   1.258  0.5568 -1.2307 -0.6349
 7428SOL    HW233744   0.705   3.563   1.122  0.8022 -0.9975  0.0414
 7429SOL     OW33745   1.158   3.101   0.962  0.4114  0.9062  0.6287
 7429SOL    HW133746   1.232   3.051   0.997 -0.6545 -0.0451  1.5284
 7429SOL    HW233747   1.087   3.039   0.945  0.5447  1.6045 -2.4545
 7430SOL     OW33748   3.416   4.648   3.826 -0.1774  0.3305  0.0484
 7430SOL    HW133749   3.433   0.013   3.798 -0.3081 -0.2146 -1.7275
 7430SOL    HW233750   3.476   4.600   3.769  1.8823  1.4407  1.2726
 7431SOL     OW33751   0.136   0.421   3.197 -0.0591 -0.6928  0.4992
 7431SOL    HW133752   0.132   0.493   3.260  0.3500 -0.4134  0.2096
 7431SOL    HW233753   0.076   0.454   3.130  1.4046  2.9202  0.9828
 7432SOL     OW33754   4.261   1.225   1.374 -0.2302  0.2085 -0.9934
 7432SOL    HW133755   4.257   1.286   1.301  1.3372 -0.9015 -1.9970
 7432SOL    HW233756   4.215   1.149   1.337  0.4157 -0.7876  0.2146
 7433SOL     OW33757   4.685   1.726   9.259 -0.6104 -0.0375  0.4326
 7433SOL    HW133758   0.011   1.729   9.340  1.2197  1.0559 -0.7521
 7433SOL    HW233759   4.614   1.786   9.281 -0.8815 -0.4890  0.7949
 7434SOL     OW33760   1.581   1.272  12.786 -0.3778 -1.0844 -0.3928
 7434SOL    HW133761   1.524   1.244  12.858  1.9193 -0.6100  1.6316
 7434SOL    HW233762   1.645   1.204  12.803 -1.3421 -1.5252  1.4578
 7435SOL     OW33763   3.092   0.480  15.217  0.0075  0.2159  0.0474
 7435SOL    HW133764   3.089   0.572  15.243  1.1707  0.1232  0.5366
 7435SOL    HW233765   3.068   0.485  15.124 -1.6476  2.2569  0.5835
 7436SOL     OW33766   4.091   3.796   0.989  0.3085 -0.1634  0.2277
 7436SOL    HW133767   4.025   3.864   0.974  1.0822  0.3749 -0.7375
 7436SOL    HW233768   4.119   3.786   0.898 -0.9492 -1.2250 -0.0462
 7437SOL     OW33769   2.702   3.190   0.730 -0.3391 -0.2375  0.1487
 7437SOL    HW133770   2.632   3.200   0.666  1.2107  1.1943 -1.3153
 7437SOL    HW233771   2.701   3.270   0.783 -0.5901 -0.3247  0.2745
 7438SOL     OW33772   2.093   1.420   4.477 -0.0809  0.3338  0.0541
 7438SOL    HW133773   2.006   1.436   4.513 -0.0279 -0.6183  0.6101
 7438SOL    HW233774   2.097   1.328   4.449  1.0301  0.1260  0.8742
 7439SOL     OW33775   2.908   4.212  15.129  0.1401 -0.2406  0.6893
 7439SOL    HW133776   2.948   4.163  15.056 -0.1276  1.7433 -0.8040
 7439SOL    HW233777   2.823   4.169  15.130  0.2393 -0.5874 -2.7054
 7440SOL     OW33778   2.275   3.318   8.430  0.0801 -0.2362 -0.1969
 7440SOL    HW133779   2.212   3.281   8.368 -0.9310  2.0089 -0.5206
 7440SOL    HW233780   2.347   3.255   8.419  0.8883  0.7224 -0.4069
 7441SOL     OW33781   3.051   3.979   9.351 -0.6072 -0.4084 -0.2564
 7441SOL    HW133782   2.959   4.002   9.362 -0.3451  0.8695 -0.6852
 7441SOL    HW233783   3.069   3.929   9.431  1.9359 -0.0938 -0.6186
 7442SOL     OW33784   2.275   0.851  11.452  0.2424 -0.9418  0.3201
 7442SOL    HW133785   2.260   0.842  11.358 -0.9561  1.7732  0.2607
 7442SOL    HW233786   2.367   0.824  11.453  0.6002  0.2365 -1.2476
 7443SOL     OW33787   2.477   1.277   6.851  0.1313 -0.0733 -0.3147
 7443SOL    HW133788   2.551   1.218   6.868 -0.2501  0.2260  2.2288
 7443SOL    HW233789   2.414   1.219   6.807 -0.1832 -0.1811  0.2778
 7444SOL     OW33790   1.759   1.411  13.653 -0.2169 -0.3227  0.0550
 7444SOL    HW133791   1.735   1.333  13.603 -0.0729 -0.4433  0.1749
 7444SOL    HW233792   1.824   1.458  13.600 -0.6402  2.3979  1.9223
 7445SOL     OW33793   3.719   0.681   1.318  0.2210 -0.4619  0.0299
 7445SOL    HW133794   3.724   0.585   1.319  0.2002 -0.4249  2.8284
 7445SOL    HW233795   3.765   0.701   1.236  1.8361  0.1950  1.1105
 7446SOL     OW33796   1.926   1.934   6.617  0.4448 -0.2661 -0.4648
 7446SOL    HW133797   1.937   2.024   6.588 -2.6320 -0.5487 -2.4634
 7446SOL    HW233798   2.005   1.883   6.598  0.6774  0.8396 -2.5528
 7447SOL     OW33799   2.973   4.565   4.078  0.0328  0.0918  0.3564
 7447SOL    HW133800   3.052   4.529   4.118  0.6529  0.2774 -0.7133
 7447SOL    HW233801   2.947   4.482   4.037 -0.3251 -0.5759  1.9198
 7448SOL     OW33802   2.761   4.693   7.326 -0.1311  0.2173  0.0073
 7448SOL    HW133803   2.681   0.011   7.355 -0.4698  1.0292 -2.1356
 7448SOL    HW233804   2.792   0.030   7.260  1.0636 -1.3518 -0.9135
 7449SOL     OW33805   4.070   3.837   4.614  0.3182  0.5117  0.0146
 7449SOL    HW133806   4.067   3.931   4.600  1.3427  0.8303  1.9480
 7449SOL    HW233807   4.162   3.824   4.592  0.1233  1.1806 -1.2218
 7450SOL     OW33808   1.159   4.692   2.065  0.0244  0.1958 -0.4429
 7450SOL    HW133809   1.222   4.697   2.137  0.2904 -0.1214 -0.6550
 7450SOL    HW233810   1.220   4.673   1.994  1.7658  1.2159  0.7929
 7451SOL     OW33811   4.132   1.901   9.224  0.1154 -0.0956  0.3545
 7451SOL    HW133812   4.064   1.863   9.278  0.5755 -0.0463  0.9717
 7451SOL    HW233813   4.178   1.819   9.206 -0.4077 -0.1640 -0.6445
 7452SOL     OW33814   0.940   4.469  17.108  0.5315 -0.0232 -0.4434
 7452SOL    HW133815   0.875   4.538  17.117 -0.1673 -0.6612 -0.6353
 7452SOL    HW233816   1.012   4.497  17.164  0.5938 -1.0127 -0.0332
 7453SOL     OW33817   1.612   4.680   8.665  0.0781  0.2944 -0.3331
 7453SOL    HW133818   1.635   4.693   8.757  1.2406  3.3561 -1.0860
 7453SOL    HW233819   1.558   4.601   8.670  1.4036 -0.5412  0.7042
 7454SOL     OW33820   1.103   4.635  12.521 -0.1428 -0.1818 -0.6233
 7454SOL    HW133821   1.170   4.569  12.538  0.2533 -0.1152 -1.9319
 7454SOL    HW233822   1.113   4.692  12.597  1.3715 -0.2168 -0.8057
 7455SOL     OW33823   2.393   4.362  17.403 -0.2542 -0.7893 -0.6519
 7455SOL    HW133824   2.450   4.438  17.417 -1.5510  0.3465 -1.5044
 7455SOL    HW233825   2.354   4.338  17.487 -1.0890 -0.9981 -1.0949
 7456SOL     OW33826   3.157   3.120  15.308 -0.4074  0.1349 -0.2703
 7456SOL    HW133827   3.223   3.170  15.259 -0.7354  1.2273  0.4165
 7456SOL    HW233828   3.130   3.185  15.373 -0.1357  1.3498 -1.3527
 7457SOL     OW33829   2.656   2.268   2.926 -0.0520 -0.1955 -0.2463
 7457SOL    HW133830   2.569   2.243   2.895 -0.0189 -1.5075  0.7574
 7457SOL    HW233831   2.626   2.335   2.988  0.8136  1.9362 -2.1132
 7458SOL     OW33832   0.276   0.295   7.751  0.2641  0.3312 -0.3470
 7458SOL    HW133833   0.203   0.315   7.809  0.5170 -0.2190  0.1664
 7458SOL    HW233834   0.295   0.388   7.734  2.7592 -0.0811  0.1315
 7459SOL     OW33835   0.746   3.721   4.724 -0.0412  0.0744 -0.2768
 7459SOL    HW133836   0.685   3.651   4.700 -0.0867  0.3277 -0.9044
 7459SOL    HW233837   0.733   3.732   4.818 -2.0383  0.1896 -0.5696
 7460SOL     OW33838   1.313   4.045   1.338  0.4802  0.3979 -0.8032
 7460SOL    HW133839   1.333   4.120   1.393 -2.4136  0.2513  0.4147
 7460SOL    HW233840   1.395   4.007   1.304  0.2949 -1.0598  0.3986
 7461SOL     OW33841   3.762   3.015   3.970  0.6213 -0.0863 -0.0698
 7461SOL    HW133842   3.725   3.070   4.038  1.1164  1.0601 -0.7343
 7461SOL    HW233843   3.689   2.996   3.911 -0.3327 -0.2138  1.1496
 7462SOL     OW33844   4.626   4.617  15.347  0.3370 -0.6056 -0.1331
 7462SOL    HW133845   4.626   4.628  15.252  0.3164  0.4123 -0.0171
 7462SOL    HW233846   4.687   4.685  15.374 -3.3781  2.6192  0.2057
 7463SOL     OW33847   0.483   2.599   4.864  0.5100  0.1134  0.1344
 7463SOL    HW133848   0.428   2.670   4.833 -1.2286 -0.1220  2.6928
 7463SOL    HW233849   0.430   2.552   4.928  0.7316  2.8402  2.3198
 7464SOL     OW33850   0.724   2.931   5.296  0.5848  0.1654  0.3230
 7464SOL    HW133851   0.755   2.853   5.251  0.6382  2.2504 -3.2898
 7464SOL    HW233852   0.629   2.922   5.283  1.0211 -0.2901 -2.7401
 7465SOL     OW33853   0.741   0.310  11.381  0.0880  0.0702  0.2407
 7465SOL    HW133854   0.814   0.363  11.349 -0.4642  1.5430  1.4573
 7465SOL    HW233855   0.681   0.375  11.417  0.1540  0.6431 -0.6800
 7466SOL     OW33856   0.105   3.924  15.399  0.2077  0.6138  0.5228
 7466SOL    HW133857   0.017   3.910  15.435 -0.1103 -1.5860 -1.0883
 7466SOL    HW233858   0.092   4.016  15.379 -0.6364  0.9311  2.4991
 7467SOL     OW33859   1.049   0.300   5.394  0.9205  0.0587 -0.6914
 7467SOL    HW133860   1.108   0.343   5.456  1.1751 -3.7089  1.6441
 7467SOL    HW233861   0.994   0.252   5.455 -0.1271 -1.8149 -3.1231
 7468SOL     OW33862   1.497   1.611   8.872 -0.5812  0.5325 -0.6842
 7468SOL    HW133863   1.528   1.562   8.948  0.1840 -0.0667 -1.3886
 7468SOL    HW233864   1.578   1.619   8.823  0.0536  1.7368  0.5670
 7469SOL     OW33865   0.971   2.406  13.191  0.2410 -0.7632  0.5919
 7469SOL    HW133866   0.915   2.329  13.183  1.2491 -1.2349 -1.8960
 7469SOL    HW233867   1.023   2.398  13.111  1.8330  0.5746  1.5000
 7470SOL     OW33868   0.479   1.361   1.878  0.0355 -0.5131  0.3090
 7470SOL    HW133869   0.474   1.304   1.955  1.0669  0.1375  0.8626
 7470SOL    HW233870   0.394   1.405   1.885 -0.0420 -0.7124  0.5960
 7471SOL     OW33871   3.537   1.734   4.615 -0.1699 -0.3960 -0.2363
 7471SOL    HW133872   3.507   1.651   4.578  1.0359 -0.8399 -0.2367
 7471SOL    HW233873   3.516   1.725   4.708  0.0246 -0.5707 -0.2086
 7472SOL     OW33874   0.480   4.202   9.188  0.3277  0.6260 -0.2225
 7472SOL    HW133875   0.438   4.135   9.243 -0.5826  0.5689 -0.9828
 7472SOL    HW233876   0.458   4.281   9.237 -0.7802  1.4512 -2.0506
 7473SOL     OW33877   3.095   1.907  13.191  0.1501 -0.0344 -0.0994
 7473SOL    HW133878   3.030   1.849  13.150  1.2061  0.7209 -2.8430
 7473SOL    HW233879   3.103   1.848  13.266 -0.1665 -2.1952 -1.7435
 7474SOL     OW33880   2.267   1.003   5.677 -0.6002  0.4176 -0.3130
 7474SOL    HW133881   2.194   1.065   5.683 -1.3512 -0.4237 -0.7190
 7474SOL    HW233882   2.243   0.966   5.592 -0.0838 -3.1277  1.0918
 7475SOL     OW33883   3.638   3.005   6.614 -0.0800  0.8920  0.0805
 7475SOL    HW133884   3.603   2.925   6.574  1.7948  0.1083 -0.0173
 7475SOL    HW233885   3.639   3.067   6.541  0.5672 -0.2458 -0.8742
 7476SOL     OW33886   2.026   1.396   1.397  0.1786  0.6126 -0.2943
 7476SOL    HW133887   2.035   1.396   1.301  1.3751 -1.1572 -0.2000
 7476SOL    HW233888   1.935   1.423   1.407 -0.1208 -0.8760  1.0441
 7477SOL     OW33889   4.037   0.402   4.788 -0.3258  0.4050  0.9181
 7477SOL    HW133890   4.038   0.420   4.882  0.1458 -1.6357  1.3011
 7477SOL    HW233891   4.054   0.308   4.787  0.5126  0.5581  0.7229
 7478SOL     OW33892   1.066   3.434   8.211  0.5503 -0.5509 -0.0495
 7478SOL    HW133893   1.109   3.519   8.219 -1.1309  0.3973 -1.2300
 7478SOL    HW233894   1.095   3.395   8.129 -0.7269 -0.1881 -0.6545
 7479SOL     OW33895   4.521   2.061   1.826 -0.4334 -0.2643  0.2919
 7479SOL    HW133896   4.582   2.066   1.753 -2.6747 -1.4573 -1.6640
 7479SOL    HW233897   4.574   2.113   1.887  0.9020  0.3570 -1.4002
 7480SOL     OW33898   0.199   4.180   2.424 -0.3063  0.0288  0.4862
 7480SOL    HW133899   0.275   4.188   2.366 -0.0864  0.2572  0.8089
 7480SOL    HW233900   0.122   4.185   2.367  0.6710  1.9360 -0.6506
 7481SOL     OW33901   1.709   1.972   6.777  0.2475  0.2553  0.1563
 7481SOL    HW133902   1.796   1.965   6.739  0.2467  0.9036  0.0210
 7481SOL    HW233903   1.728   1.951   6.868  1.7268  2.2316  0.2881
 7482SOL     OW33904   0.717   2.898   2.565 -0.0747 -0.0074 -0.3346
 7482SOL    HW133905   0.625   2.897   2.539 -0.3304 -1.0592  0.5866
 7482SOL    HW233906   0.734   2.992   2.571 -0.3664 -0.0233  0.7740
 7483SOL     OW33907   4.518   4.468   6.801  0.0737 -0.7887  0.1141
 7483SOL    HW133908   4.434   4.502   6.833  0.4872  0.2742  0.0652
 7483SOL    HW233909   4.500   4.406   6.731  0.2078  1.6078 -2.0423
 7484SOL     OW33910   2.075   0.602   8.426 -0.8353  0.1736 -0.3255
 7484SOL    HW133911   2.135   0.604   8.352 -0.5440 -1.1260 -0.1389
 7484SOL    HW233912   2.119   0.536   8.481  0.0908  0.7750 -0.3421
 7485SOL     OW33913   0.675   2.002  16.140  0.5277 -0.2662 -0.0986
 7485SOL    HW133914   0.649   2.007  16.232 -0.8725 -0.5686 -0.4764
 7485SOL    HW233915   0.722   2.083  16.121 -0.6528  0.9636  2.1134
 7486SOL     OW33916   2.488   3.464   3.750  0.5931 -0.7461  0.5022
 7486SOL    HW133917   2.523   3.400   3.812 -0.9410 -1.6663  0.4110
 7486SOL    HW233918   2.394   3.444   3.751  0.0429  1.8586 -1.1799
 7487SOL     OW33919   3.301   2.249  12.586  0.7897  0.1916  0.1108
 7487SOL    HW133920   3.346   2.330  12.564  1.5289 -0.8954 -2.4651
 7487SOL    HW233921   3.226   2.259  12.527 -0.4669  0.0735  1.6890
 7488SOL     OW33922   2.271   4.155  11.282  0.0931 -0.4687  1.1498
 7488SOL    HW133923   2.314   4.079  11.244 -0.9876 -2.0214  3.0577
 7488SOL    HW233924   2.232   4.200  11.207 -0.2154  1.0804  2.2302
 7489SOL     OW33925   2.732   3.426  11.842 -0.2680  0.0730  0.1133
 7489SOL    HW133926   2.664   3.359  11.836  0.3770 -0.4324 -1.3145
 7489SOL    HW233927   2.772   3.384  11.918 -2.0347 -0.3570  0.8198
 7490SOL     OW33928   1.928   0.983   4.255  0.2833 -0.1147 -0.1275
 7490SOL    HW133929   1.984   0.915   4.218 -1.9012 -1.8666 -0.2237
 7490SOL    HW233930   1.892   0.932   4.328 -1.1285  2.0421  0.7104
 7491SOL     OW33931   1.568   1.004   7.087  0.1232 -0.3985  0.4846
 7491SOL    HW133932   1.581   0.925   7.139 -0.7835  1.0327  2.9026
 7491SOL    HW233933   1.565   1.076   7.150 -0.1379 -0.6265  0.7290
 7492SOL     OW33934   3.723   1.127  13.848 -0.2131 -0.8175 -0.1352
 7492SOL    HW133935   3.673   1.160  13.773 -0.1320 -1.9911 -0.7250
 7492SOL    HW233936   3.798   1.090  13.801 -0.8319 -0.3910 -1.4714
 7493SOL     OW33937   0.474   0.122   7.973  0.1040  0.3637  0.0525
 7493SOL    HW133938   0.503   0.193   7.915  0.0950 -0.1074 -0.5349
 7493SOL    HW233939   0.531   0.140   8.048 -0.5005  1.5228  0.2286
 7494SOL     OW33940   1.826   2.910   5.084 -0.2101  0.0012  0.2465
 7494SOL    HW133941   1.859   2.837   5.032 -1.8865 -0.1425 -0.6215
 7494SOL    HW233942   1.894   2.976   5.072 -1.7558  1.1647 -2.1246
 7495SOL     OW33943   2.877   4.174  15.841  0.9400  0.0727  0.1582
 7495SOL    HW133944   2.855   4.123  15.763  0.4426  2.0994 -1.0327
 7495SOL    HW233945   2.972   4.175  15.851  1.0394  0.6034 -0.8242
 7496SOL     OW33946   3.511   3.121  14.738 -0.6009  0.6588  0.3588
 7496SOL    HW133947   3.432   3.109  14.685 -0.5084 -0.9953  0.6115
 7496SOL    HW233948   3.569   3.050  14.711 -0.6749  1.0580 -0.8675
 7497SOL     OW33949   4.317   2.423  11.434  0.5518  0.0604 -0.7078
 7497SOL    HW133950   4.357   2.483  11.371  1.1110 -0.0868 -0.4959
 7497SOL    HW233951   4.312   2.335  11.396  0.8354  1.5106 -4.1590
 7498SOL     OW33952   2.149   4.207   5.520 -0.4317 -0.0065 -0.4848
 7498SOL    HW133953   2.093   4.278   5.489  0.6591  1.6679  1.4076
 7498SOL    HW233954   2.145   4.144   5.447 -1.4098 -0.5009 -0.0044
 7499SOL     OW33955   4.546   0.059   4.745 -0.4101 -0.0267 -0.0664
 7499SOL    HW133956   4.562   0.097   4.659  0.7883 -0.5374 -0.0606
 7499SOL    HW233957   4.601   0.115   4.800  1.9706 -0.9665 -1.5194
 7500SOL     OW33958   3.216   4.633  10.192 -0.0377  0.0258  0.9386
 7500SOL    HW133959   3.260   4.717  10.202 -0.9505  0.5616  0.3976
 7500SOL    HW233960   3.195   4.610  10.283 -2.5197  0.2215  0.4282
 7501SOL     OW33961   4.151   1.588   4.436 -0.1931  0.0452 -0.3330
 7501SOL    HW133962   4.112   1.639   4.507  0.2410 -1.6758  1.1686
 7501SOL    HW233963   4.131   1.649   4.365  1.4060 -1.3614 -1.9914
 7502SOL     OW33964   2.624   0.658  11.935  0.6896 -0.7699  0.0900
 7502SOL    HW133965   2.539   0.664  11.893  0.6296  3.2840  0.8453
 7502SOL    HW233966   2.637   0.564  11.949  4.1851 -0.5303 -1.5833
 7503SOL     OW33967   3.099   3.024  12.643 -0.1471 -0.3776  0.1240
 7503SOL    HW133968   3.102   3.080  12.720  0.7810  0.7852 -0.7586
 7503SOL    HW233969   3.055   3.071  12.572  1.8209 -0.0198 -0.8688
 7504SOL     OW33970   3.115   3.661  17.282 -0.7401  0.1134 -0.0641
 7504SOL    HW133971   3.165   3.716  17.222 -1.0348  0.6744  0.1969
 7504SOL    HW233972   3.139   3.698  17.367 -1.6113 -1.4503  0.8667
 7505SOL     OW33973   0.362   3.438  15.874 -0.3553 -0.0303  0.0986
 7505SOL    HW133974   0.413   3.376  15.822 -1.1535  1.0979 -2.0041
 7505SOL    HW233975   0.361   3.397  15.961 -1.3372  0.3972  0.2773
 7506SOL     OW33976   1.963   0.812   0.719  0.0332 -0.2426  0.1642
 7506SOL    HW133977   2.051   0.835   0.748  0.5934  0.3366 -2.0314
 7506SOL    HW233978   1.926   0.767   0.795  1.5854  0.5588  1.3929
 7507SOL     OW33979   3.052   2.696   4.709  0.0000  0.0094 -0.1139
 7507SOL    HW133980   2.962   2.671   4.728 -0.4732  1.5736 -0.2961
 7507SOL    HW233981   3.053   2.791   4.717  1.5020  0.0548 -0.7819
 7508SOL     OW33982   2.578   3.886   4.811 -0.8552 -0.1677 -0.4324
 7508SOL    HW133983   2.540   3.810   4.766 -2.9483  1.0348 -0.6617
 7508SOL    HW233984   2.498   3.919   4.850 -0.0023  0.6789  0.5931
 7509SOL     OW33985   2.593   1.240   8.275 -0.0139  0.8902 -0.0683
 7509SOL    HW133986   2.506   1.269   8.302 -0.4930 -0.4027 -0.2553
 7509SOL    HW233987   2.619   1.298   8.203  0.9009  1.6323  0.8462
 7510SOL     OW33988   4.275   2.095   9.394  0.7279 -0.1708 -0.0223
 7510SOL    HW133989   4.339   2.024   9.397  1.0350  0.1797  1.7357
 7510SOL    HW233990   4.211   2.056   9.333  0.1965 -2.3813  1.9316
 7511SOL     OW33991   3.468   0.365   7.540 -0.1739  0.0412  0.3722
 7511SOL    HW133992   3.393   0.421   7.519  1.3953  1.3465 -1.7604
 7511SOL    HW233993   3.518   0.361   7.458 -0.0844 -1.7916  0.5067
 7512SOL     OW33994   0.759   2.869   3.924  0.0439  0.2068 -0.6811
 7512SOL    HW133995   0.842   2.822   3.931 -0.5058 -0.8766 -1.2868
 7512SOL    HW233996   0.726   2.887   4.012  1.4925 -0.0449 -0.0937
 7513SOL     OW33997   0.218   2.995  16.841  0.3278 -0.0005  0.1319
 7513SOL    HW133998   0.199   2.993  16.747 -1.6125  1.0131  0.4890
 7513SOL    HW233999   0.127   2.991  16.871  0.2218 -0.3523 -0.2362
 7514SOL     OW34000   1.100   4.623   0.996 -0.4359 -0.0780  0.0649
 7514SOL    HW134001   1.085   4.528   1.003 -2.4649 -0.1061 -4.7427
 7514SOL    HW234002   1.118   4.642   1.088 -0.1377  2.8863 -0.6022
 7515SOL     OW34003   1.979   3.577   8.689  0.5218  0.0450  0.4113
 7515SOL    HW134004   1.948   3.607   8.603  2.4841  1.5811  0.2497
 7515SOL    HW234005   1.900   3.536   8.725 -0.3442 -0.0929 -1.6051
 7516SOL     OW34006   3.423   3.925  12.260  0.2374 -0.3092 -0.0632
 7516SOL    HW134007   3.387   3.846  12.219 -1.1756 -0.3541  1.2272
 7516SOL    HW234008   3.513   3.897  12.274 -0.0845 -1.5457 -0.4402
 7517SOL     OW34009   0.167   4.005  16.435  0.1267  0.2008  0.3526
 7517SOL    HW134010   0.094   3.989  16.494  0.4464 -1.7691  0.1894
 7517SOL    HW234011   0.130   4.044  16.356 -0.7295  1.3629  1.3330
 7518SOL     OW34012   4.126   2.173  11.706  0.1982 -0.2069  0.1831
 7518SOL    HW134013   4.080   2.249  11.669 -1.1263 -1.0836  0.0525
 7518SOL    HW234014   4.069   2.144  11.777 -0.8432  0.7788 -0.2416
 7519SOL     OW34015   2.271   4.253   5.117  0.3743  0.5492 -0.0710
 7519SOL    HW134016   2.313   4.246   5.202  0.9820  1.1059 -0.3238
 7519SOL    HW234017   2.253   4.347   5.114  2.2462  0.9034 -0.2517
 7520SOL     OW34018   4.452   0.214   5.339  0.0457 -0.0857  1.1004
 7520SOL    HW134019   4.533   0.164   5.336  0.6394  0.8056  2.1042
 7520SOL    HW234020   4.423   0.200   5.249 -0.7973 -0.5606  1.4457
 7521SOL     OW34021   1.883   4.136   6.193 -0.1284  0.3871 -0.1559
 7521SOL    HW134022   1.865   4.137   6.099  2.2827 -1.3683 -0.6270
 7521SOL    HW234023   1.872   4.231   6.198  0.2356  0.4556 -0.6653
 7522SOL     OW34024   2.714   3.749  10.266  0.4470  0.2119 -0.4990
 7522SOL    HW134025   2.760   3.669  10.241  2.3404  0.8544  0.9739
 7522SOL    HW234026   2.789   3.808  10.267  1.2269 -0.7386 -3.3509
 7523SOL     OW34027   4.528   0.259   7.752  0.4681 -0.5772 -0.1995
 7523SOL    HW134028   4.511   0.316   7.828  0.0069 -2.1554  0.8826
 7523SOL    HW234029   4.485   0.308   7.682  0.8323 -0.5486 -0.4027
 7524SOL     OW34030   0.132   3.369   6.614 -0.4223  0.1416  0.6111
 7524SOL    HW134031   0.163   3.428   6.544 -0.6544 -0.4267  0.0326
 7524SOL    HW234032   0.203   3.307   6.597 -0.0338  0.7017  0.1466
 7525SOL     OW34033   1.975   2.096   3.044 -0.1116  0.3735 -0.3943
 7525SOL    HW134034   1.973   2.138   2.958  1.9109 -0.4279 -0.8446
 7525SOL    HW234035   2.025   2.158   3.099 -0.2637 -1.6181  2.0051
 7526SOL     OW34036   1.297   1.252   1.981  0.7269 -0.7439  0.5346
 7526SOL    HW134037   1.263   1.257   1.892 -0.3345  2.4189  1.1321
 7526SOL    HW234038   1.218   1.215   2.021 -0.6181  2.5348  0.8706
 7527SOL     OW34039   1.056   4.252   9.453  0.4015 -0.1741  0.1888
 7527SOL    HW134040   1.135   4.297   9.482  0.5171 -0.3648  0.1755
 7527SOL    HW234041   1.001   4.321   9.417 -1.2954 -1.9706 -0.6983
 7528SOL     OW34042   0.415   2.193   4.607  0.0714 -0.0549 -0.1117
 7528SOL    HW134043   0.368   2.268   4.643 -2.0502 -0.9695 -0.9935
 7528SOL    HW234044   0.349   2.132   4.640  0.4424 -0.6409 -0.4595
 7529SOL     OW34045   1.660   0.771   9.284 -0.4049  0.2065 -0.6069
 7529SOL    HW134046   1.693   0.688   9.319  2.4492  0.5407 -2.4627
 7529SOL    HW234047   1.740   0.823   9.293 -0.4453  0.3602 -1.1425
 7530SOL     OW34048   1.619   0.477   0.747  0.1590 -0.0794  0.0422
 7530SOL    HW134049   1.607   0.563   0.786  0.4450  0.8824 -1.9862
 7530SOL    HW234050   1.710   0.470   0.717 -0.1131  0.0946 -0.8240
 7531SOL     OW34051   3.411   2.692   1.288 -0.1345  0.1669 -0.3414
 7531SOL    HW134052   3.449   2.655   1.368 -1.1461 -1.2875 -0.5158
 7531SOL    HW234053   3.373   2.772   1.324  2.1524  0.8113  0.6198
 7532SOL     OW34054   2.684   0.322   3.839  0.2836  0.6146 -0.4790
 7532SOL    HW134055   2.751   0.260   3.811 -1.5750 -1.2609 -0.7632
 7532SOL    HW234056   2.646   0.350   3.756  0.2367 -0.8527 -0.9459
 7533SOL     OW34057   3.732   2.182   5.211  0.1788 -0.2408  0.5481
 7533SOL    HW134058   3.714   2.231   5.131  0.8299  0.0125  0.5574
 7533SOL    HW234059   3.760   2.100   5.170  0.1788  0.4967 -0.9338
 7534SOL     OW34060   2.538   1.516  11.414  0.2690 -0.3505 -0.0971
 7534SOL    HW134061   2.610   1.555  11.364 -1.6416 -0.6016 -3.0258
 7534SOL    HW234062   2.477   1.500  11.342 -1.0587  1.7776  0.5616
 7535SOL     OW34063   0.726   3.645  11.393  0.0094 -0.1769 -0.1795
 7535SOL    HW134064   0.665   3.642  11.319  3.5082  0.0570 -3.0434
 7535SOL    HW234065   0.788   3.708  11.356 -0.4941  0.9771  0.9027
 7536SOL     OW34066   3.171   2.637   8.785 -0.2000  0.0653 -0.1654
 7536SOL    HW134067   3.194   2.577   8.856  0.4014 -0.6349 -0.9538
 7536SOL    HW234068   3.099   2.684   8.828  0.4415 -0.4948  1.5563
 7537SOL     OW34069   0.108   2.416  10.750  0.6529  0.9173 -0.3655
 7537SOL    HW134070   0.017   2.445  10.744  0.7455  1.3462  0.3177
 7537SOL    HW234071   0.145   2.454  10.670 -0.2413 -0.9466 -1.6598
 7538SOL     OW34072   2.276   2.494   7.943  0.2032 -0.4484 -0.3306
 7538SOL    HW134073   2.369   2.471   7.934  0.9056  1.4835  1.9870
 7538SOL    HW234074   2.281   2.588   7.925  0.3888 -0.6279 -1.2268
 7539SOL     OW34075   0.341   4.224  17.490 -0.1117 -0.1295 -0.3209
 7539SOL    HW134076   0.400   4.189  17.557 -0.9185 -0.4949  0.2067
 7539SOL    HW234077   0.335   4.314  17.523 -0.1735 -0.0506 -0.5469
 7540SOL     OW34078   4.168   3.634  15.948  0.0934 -0.4183  0.7051
 7540SOL    HW134079   4.246   3.583  15.924  0.2964  0.9063 -1.5080
 7540SOL    HW234080   4.120   3.577  16.008 -1.4150 -1.8096 -1.8038
 7541SOL     OW34081   1.126   0.785  15.970 -0.1834  0.6447 -0.8222
 7541SOL    HW134082   1.144   0.876  15.993 -2.4898  0.9789 -0.2622
 7541SOL    HW234083   1.070   0.795  15.893 -1.9580  1.0772  0.5198
 7542SOL     OW34084   3.344   1.922  16.366  0.1468 -0.3170 -0.5596
 7542SOL    HW134085   3.372   1.833  16.344  2.0701 -0.3590  2.0754
 7542SOL    HW234086   3.288   1.938  16.290 -0.8245  1.0481  0.4578
 7543SOL     OW34087   2.632   1.708   8.632  0.1937  0.3266 -0.0375
 7543SOL    HW134088   2.567   1.774   8.655  0.0086  0.1801 -0.1402
 7543SOL    HW234089   2.620   1.645   8.703 -0.9119 -1.5063 -1.8589
 7544SOL     OW34090   1.498   3.962   5.595  0.4152 -0.3337  0.4703
 7544SOL    HW134091   1.456   4.002   5.520 -1.7406  0.1308  1.9390
 7544SOL    HW234092   1.454   4.015   5.661 -1.3389  1.7153 -2.4130
 7545SOL     OW34093   1.812   2.837  14.917  0.2458 -0.1758  0.4396
 7545SOL    HW134094   1.790   2.920  14.959  1.2864 -0.2743  1.1801
 7545SOL    HW234095   1.865   2.789  14.981  1.5204 -2.4896 -2.3529
 7546SOL     OW34096   0.054   3.307  13.312  0.3412  0.5193 -0.4585
 7546SOL    HW134097   0.113   3.328  13.385  0.1974  1.9568 -0.7400
 7546SOL    HW234098   4.720   3.383  13.306 -0.6941 -0.2555 -0.1164
 7547SOL     OW34099   0.325   4.027  13.261 -0.2904  0.8722 -0.3223
 7547SOL    HW134100   0.382   4.097  13.228  0.8175 -0.2898 -0.9061
 7547SOL    HW234101   0.291   4.066  13.341  0.1154 -0.3224  0.4368
 7548SOL     OW34102   0.599   1.706   3.463  0.1997 -0.2311 -0.0470
 7548SOL    HW134103   0.526   1.747   3.510  0.3551 -1.3538  1.1637
 7548SOL    HW234104   0.546   1.667   3.393 -2.5447 -0.7631  2.2881
 7549SOL     OW34105   4.137   4.208  17.564  0.0466 -0.9359  0.1137
 7549SOL    HW134106   4.065   4.202  17.626 -1.0239  0.8730 -0.9467
 7549SOL    HW234107   4.210   4.195  17.624  0.1666 -0.6955  0.0194
 7550SOL     OW34108   3.188   3.358  11.319  0.1384 -0.3603  0.4273
 7550SOL    HW134109   3.140   3.275  11.311  0.9913 -0.6987 -1.1926
 7550SOL    HW234110   3.246   3.352  11.243 -0.6339  1.5182 -0.3047
 7551SOL     OW34111   3.897   0.180   3.237  0.3934 -0.5611 -0.0209
 7551SOL    HW134112   3.858   0.211   3.155  0.9502  1.4175  0.4782
 7551SOL    HW234113   3.969   0.242   3.241 -0.3537 -0.0059  4.2384
 7552SOL     OW34114   2.525   3.670   8.126  0.0021 -0.6456  0.1371
 7552SOL    HW134115   2.615   3.654   8.154  1.1144  0.1324 -2.9868
 7552SOL    HW234116   2.535   3.765   8.117 -0.4402 -0.6304 -0.1886
 7553SOL     OW34117   4.519   3.619   6.755  0.4817 -0.8659 -0.1092
 7553SOL    HW134118   4.549   3.553   6.817 -1.1164 -0.1192  1.4573
 7553SOL    HW234119   4.603   3.647   6.717  0.9724 -0.3045  1.3910
 7554SOL     OW34120   1.356   4.171   5.762 -0.0979 -0.2321  0.0247
 7554SOL    HW134121   1.389   4.260   5.757  0.6261 -0.3300  3.4082
 7554SOL    HW234122   1.261   4.182   5.768  0.0198  0.2265  0.9345
 7555SOL     OW34123   2.387   0.381   4.903  1.0206  0.2161  0.3043
 7555SOL    HW134124   2.378   0.476   4.908  1.1100  0.2904 -0.8824
 7555SOL    HW234125   2.328   0.358   4.975  0.4393 -0.7011 -0.4477
 7556SOL     OW34126   3.398   2.343  13.815 -0.3520  0.3406  0.4817
 7556SOL    HW134127   3.424   2.270  13.758  1.4319 -0.2554  2.0537
 7556SOL    HW234128   3.476   2.398  13.811 -0.6007  0.9686  3.7569
 7557SOL     OW34129   1.096   3.069   2.880 -0.2546  0.4294 -0.1792
 7557SOL    HW134130   1.101   3.051   2.974  0.2157 -1.2280 -0.5125
 7557SOL    HW234131   1.029   3.007   2.850 -1.9815  2.0994  0.1968
 7558SOL     OW34132   0.069   2.816  14.807  0.3299  0.2649  0.3690
 7558SOL    HW134133   4.711   2.815  14.856 -0.0983  1.7495 -0.3245
 7558SOL    HW234134   0.117   2.740  14.839  1.0146  0.8556  0.7464
 7559SOL     OW34135   1.241   2.859   2.745 -0.3425  0.2187  0.0399
 7559SOL    HW134136   1.209   2.939   2.787 -0.4444  0.2221 -0.0441
 7559SOL    HW234137   1.279   2.805   2.815  0.2638  0.2644 -0.2595
 7560SOL     OW34138   3.654   0.084   8.960  0.4369  0.1222 -0.1359
 7560SOL    HW134139   3.563   0.115   8.962  0.2541 -0.4424  0.4458
 7560SOL    HW234140   3.640   0.010   8.901 -0.0630  0.2079 -0.1237
 7561SOL     OW34141   2.375   1.283   7.630  0.1913  0.3084 -0.1820
 7561SOL    HW134142   2.393   1.357   7.688  0.0162  0.2767 -0.0888
 7561SOL    HW234143   2.386   1.317   7.541  0.9579  1.0085  0.1699
 7562SOL     OW34144   0.882   1.826   6.138 -0.0804 -0.3533 -0.2994
 7562SOL    HW134145   0.827   1.875   6.199  2.8454  1.2370  1.0289
 7562SOL    HW234146   0.940   1.761   6.178  0.8037  0.9097  0.4569
 7563SOL     OW34147   3.883   3.212   3.431 -0.3228  0.5437  1.1373
 7563SOL    HW134148   3.837   3.280   3.481  0.6443  1.8401  0.2592
 7563SOL    HW234149   3.801   3.171   3.406  0.0658  0.1667  0.4761
 7564SOL     OW34150   1.235   3.713  11.117 -0.2196  0.1662  0.0619
 7564SOL    HW134151   1.154   3.763  11.125  0.0067  1.0369 -2.7785
 7564SOL    HW234152   1.249   3.698  11.023  1.3290 -1.3964  0.5426
 7565SOL     OW34153   0.522   4.643   0.667  0.0840  0.2417 -0.0137
 7565SOL    HW134154   0.447   4.582   0.661 -0.8954  1.4878 -0.4455
 7565SOL    HW234155   0.530   4.650   0.762  1.1012 -0.2155 -0.0655
 7566SOL     OW34156   0.352   2.665   9.766 -0.2788  0.3787  0.0925
 7566SOL    HW134157   0.422   2.729   9.771  0.9234 -0.7542 -2.4113
 7566SOL    HW234158   0.287   2.696   9.829 -0.0283  1.8683 -0.3945
 7567SOL     OW34159   3.443   3.561   9.099  0.0700  0.2750  0.0183
 7567SOL    HW134160   3.430   3.466   9.099  1.3030  0.0964 -2.2219
 7567SOL    HW234161   3.359   3.592   9.132 -0.1392  0.0432 -0.2907
 7568SOL     OW34162   1.071   4.248  17.011  0.4013  0.1246 -0.1318
 7568SOL    HW134163   1.044   4.326  17.059  0.5875 -1.6589  2.8758
 7568SOL    HW234164   1.098   4.185  17.079  1.2763 -0.0712 -0.6542
 7569SOL     OW34165   4.267   0.641  10.251 -0.2808  0.2682  0.2185
 7569SOL    HW134166   4.323   0.719  10.249 -0.5262  0.4385 -0.1416
 7569SOL    HW234167   4.193   0.685  10.209 -0.9701 -2.0640 -0.9855
 7570SOL     OW34168   0.875   2.177   6.184 -0.2827  0.3573  0.9147
 7570SOL    HW134169   0.791   2.138   6.160 -0.0196  0.0675  0.4694
 7570SOL    HW234170   0.865   2.270   6.162  0.7657  0.1899 -0.2617
 7571SOL     OW34171   1.954   4.720   7.569 -0.7021  0.7037 -0.1681
 7571SOL    HW134172   1.989   4.651   7.513 -0.6023 -2.1856  3.4409
 7571SOL    HW234173   1.890   0.030   7.507  2.6522 -0.8327 -4.4593
 7572SOL     OW34174   4.627   4.589   3.180 -0.3647  0.2952  0.1538
 7572SOL    HW134175   4.549   4.535   3.166 -0.9214  0.8084  1.2699
 7572SOL    HW234176   4.697   4.529   3.155 -1.4016 -1.3816  1.3438
 7573SOL     OW34177   2.515   2.028  15.295 -0.2811  0.0318  0.6238
 7573SOL    HW134178   2.469   1.964  15.241 -1.0600  2.7040 -1.8747
 7573SOL    HW234179   2.462   2.018  15.374 -0.1195 -1.8677  0.4842
 7574SOL     OW34180   4.169   1.627   9.544  0.0026 -0.2075  0.1588
 7574SOL    HW134181   4.265   1.624   9.553  0.1572  1.1575 -1.0008
 7574SOL    HW234182   4.174   1.624   9.448 -2.4018  0.8737  0.0159
 7575SOL     OW34183   3.180   2.956   9.467 -0.3891  0.2684  0.0525
 7575SOL    HW134184   3.162   2.862   9.470  1.7903 -0.1963 -1.6915
 7575SOL    HW234185   3.095   3.001   9.463  0.9869  2.7114 -1.8570
 7576SOL     OW34186   4.218   0.624   5.059 -0.3065  0.3344 -0.1920
 7576SOL    HW134187   4.152   0.693   5.048 -0.5185 -0.3193 -2.8162
 7576SOL    HW234188   4.158   0.550   5.051  0.6726 -0.1429 -2.9335
 7577SOL     OW34189   3.884   2.336   6.880 -0.1323 -0.7687 -0.2698
 7577SOL    HW134190   3.860   2.422   6.915  0.5337 -0.5799 -0.2778
 7577SOL    HW234191   3.794   2.303   6.878  0.0284 -1.2607  1.1596
 7578SOL     OW34192   3.957   0.410  12.823  0.1548 -0.2397  0.0879
 7578SOL    HW134193   3.932   0.440  12.910 -0.6973  1.4104 -0.7259
 7578SOL    HW234194   4.005   0.489  12.797  1.1009 -0.9667 -0.4134
 7579SOL     OW34195   1.983   1.930   8.241  0.1333  0.0507  0.0060
 7579SOL    HW134196   1.967   2.013   8.197  1.1761 -0.1775 -0.8045
 7579SOL    HW234197   2.063   1.949   8.290 -0.9422  0.9247  1.4283
 7580SOL     OW34198   4.056   0.899   3.629 -0.1779 -0.3637  0.0876
 7580SOL    HW134199   4.072   0.862   3.543  0.2892 -0.2451  0.1254
 7580SOL    HW234200   4.144   0.896   3.667  0.6996  0.4032 -1.8825
 7581SOL     OW34201   1.762   1.368   2.902 -0.1489 -0.3183  0.1906
 7581SOL    HW134202   1.759   1.446   2.847  0.6545  0.7431  1.6605
 7581SOL    HW234203   1.674   1.358   2.939  0.1368 -1.7929  0.4879
 7582SOL     OW34204   1.618   0.640   8.172 -0.0126 -0.0287 -0.2742
 7582SOL    HW134205   1.700   0.593   8.186 -0.5149 -0.9879 -0.5514
 7582SOL    HW234206   1.576   0.617   8.255  1.1848  0.8331  0.5635
 7583SOL     OW34207   3.887   0.579   3.562 -0.0512  0.5666 -0.2471
 7583SOL    HW134208   3.802   0.550   3.597 -1.1554  1.2710 -2.3310
 7583SOL    HW234209   3.939   0.594   3.640 -0.3452 -0.5663  0.1769
 7584SOL     OW34210   3.048   3.427   0.952 -0.1736  0.0757  0.0561
 7584SOL    HW134211   3.073   3.351   1.004 -1.0913  0.6089  1.2628
 7584SOL    HW234212   3.133   3.464   0.929  0.0869 -1.5793 -1.6785
 7585SOL     OW34213   2.077   2.386   1.225 -0.3163  0.1379  0.4861
 7585SOL    HW134214   2.117   2.300   1.236 -2.5795 -0.8837  0.8579
 7585SOL    HW234215   2.004   2.366   1.284 -0.9939 -1.7524 -0.9871
 7586SOL     OW34216   0.653   3.928   7.773  0.1306  0.3186  0.2348
 7586SOL    HW134217   0.726   3.986   7.795 -0.6165  0.6182  1.9183
 7586SOL    HW234218   0.579   3.989   7.771  0.6370  0.9073 -0.5083
 7587SOL     OW34219   2.330   3.114   1.636  0.5620  0.4062  0.0137
 7587SOL    HW134220   2.243   3.148   1.655  0.7731  0.7680  0.3280
 7587SOL    HW234221   2.356   3.187   1.580 -0.3286  1.1469  0.5711
 7588SOL     OW34222   0.125   3.370   3.198  0.2406 -0.8298  0.0122
 7588SOL    HW134223   0.212   3.394   3.230  0.0682 -2.9318  2.1150
 7588SOL    HW234224   0.141   3.341   3.109 -3.0340 -0.5745 -0.6593
 7589SOL     OW34225   3.151   3.635   7.300 -0.4094 -0.4474  0.0276
 7589SOL    HW134226   3.246   3.637   7.315 -0.5352  2.3754  0.4549
 7589SOL    HW234227   3.145   3.637   7.205 -1.8708  3.2703  0.1852
 7590SOL     OW34228   0.407   2.799   2.830  0.0525  0.2338 -0.5352
 7590SOL    HW134229   0.500   2.785   2.844 -0.5023 -1.3399  1.5031
 7590SOL    HW234230   0.379   2.708   2.820  2.1296 -0.4469 -0.1886
 7591SOL     OW34231   4.555   3.116   6.001 -0.7133  0.3392 -0.1776
 7591SOL    HW134232   4.541   3.207   5.977  3.2881  0.9660 -0.1587
 7591SOL    HW234233   4.466   3.080   5.996 -1.2022  1.2905  1.8411
 7592SOL     OW34234   0.057   0.359   4.357 -0.0037 -0.2064  0.3016
 7592SOL    HW134235   0.045   0.444   4.316 -0.0969 -0.7242 -0.7760
 7592SOL    HW234236   0.126   0.387   4.416 -0.2359 -0.4176  0.6779
 7593SOL     OW34237   1.389   4.284   0.989 -0.7013  0.2547 -0.7673
 7593SOL    HW134238   1.425   4.357   0.939  3.0165 -0.5849  0.6991
 7593SOL    HW234239   1.348   4.336   1.057  0.2160  2.6424 -2.0588
 7594SOL     OW34240   1.232   0.215   6.781 -0.6925  0.0257 -0.2385
 7594SOL    HW134241   1.168   0.167   6.729 -0.8931  0.2160 -0.1696
 7594SOL    HW234242   1.233   0.150   6.852 -2.2957  0.8224  0.5266
 7595SOL     OW34243   1.757   1.237   2.657  0.4930  0.4184  0.4718
 7595SOL    HW134244   1.769   1.278   2.743 -0.6740  0.6049  0.5383
 7595SOL    HW234245   1.783   1.148   2.680 -1.8083  0.0583  1.6898
 7596SOL     OW34246   2.363   3.165  15.660 -0.0459 -0.3542  0.0842
 7596SOL    HW134247   2.376   3.221  15.736  0.0818  1.4561 -1.2857
 7596SOL    HW234248   2.432   3.101  15.682 -0.8551 -0.6962  1.6846
 7597SOL     OW34249   3.980   0.069   2.982 -0.1988 -0.5829  0.3122
 7597SOL    HW134250   3.908   0.028   3.030 -0.6076 -0.2251  0.0185
 7597SOL    HW234251   3.934   0.147   2.949  0.7317  0.9816  2.6486
 7598SOL     OW34252   2.976   0.481  13.922  0.3029 -0.5985  0.2660
 7598SOL    HW134253   3.063   0.442  13.912  0.9764  0.9193  0.1337
 7598SOL    HW234254   2.968   0.493  14.016  1.0432 -1.6711  0.4670
 7599SOL     OW34255   3.277   2.216   2.804  0.0546 -0.1673  0.0039
 7599SOL    HW134256   3.257   2.126   2.778 -0.2485  0.1287 -0.7949
 7599SOL    HW234257   3.309   2.203   2.893 -1.3417 -1.6950  0.2827
 7600SOL     OW34258   1.270   1.985  16.710  0.5010 -0.1469 -0.2656
 7600SOL    HW134259   1.280   2.025  16.623  0.6432  1.3878  0.4504
 7600SOL    HW234260   1.249   1.896  16.683  0.1896 -0.3057  0.5119
 7601SOL     OW34261   1.162   1.257   4.368 -0.5418 -0.4124  0.0554
 7601SOL    HW134262   1.069   1.256   4.346 -0.4627 -0.7333 -0.2461
 7601SOL    HW234263   1.172   1.352   4.360 -0.4078 -0.2415  2.2197
 7602SOL     OW34264   1.503   0.403   5.724 -0.1177 -0.2092  0.2696
 7602SOL    HW134265   1.545   0.463   5.786  1.4402 -1.2062  0.1901
 7602SOL    HW234266   1.543   0.422   5.640 -2.2909 -0.1214 -0.7484
 7603SOL     OW34267   2.949   3.531   1.210  0.2384  0.0308 -0.1018
 7603SOL    HW134268   2.894   3.606   1.188 -0.1566 -0.2560 -0.0797
 7603SOL    HW234269   2.960   3.498   1.121  1.0554 -0.2358  0.0944
 7604SOL     OW34270   2.764   0.412   2.424  0.3555  0.3075  0.7030
 7604SOL    HW134271   2.759   0.506   2.408 -0.7298 -0.0634 -1.1016
 7604SOL    HW234272   2.744   0.381   2.336  2.4200  1.6617 -0.2285
 7605SOL     OW34273   1.094   2.633   2.102  0.1514  0.2836  0.4842
 7605SOL    HW134274   1.025   2.586   2.056  0.5471  1.1402 -0.9756
 7605SOL    HW234275   1.144   2.670   2.029 -2.1452  1.0408 -0.6783
 7606SOL     OW34276   0.092   2.273   8.069 -0.2299 -0.1236 -0.0707
 7606SOL    HW134277   0.067   2.187   8.036 -3.0016  1.2381 -1.4795
 7606SOL    HW234278   0.011   2.310   8.103 -0.6699 -0.3787 -0.8480
 7607SOL     OW34279   1.542   2.315   3.303 -0.5229  0.2018  0.1710
 7607SOL    HW134280   1.499   2.282   3.224 -1.6479 -0.4626  1.0616
 7607SOL    HW234281   1.482   2.288   3.372  1.5801 -0.8810  1.5820
 7608SOL     OW34282   3.830   1.311   5.385 -0.0049  0.6322 -0.7479
 7608SOL    HW134283   3.813   1.324   5.292  1.1151  1.9272 -0.7571
 7608SOL    HW234284   3.805   1.396   5.422  1.7218  0.7259  0.2065
 7609SOL     OW34285   4.650   0.156   9.204  0.4547  0.6928 -0.1720
 7609SOL    HW134286   4.587   0.102   9.156  2.5206 -2.1257  0.3084
 7609SOL    HW234287   4.604   0.183   9.284  0.0724  1.3483 -0.6137
 7610SOL     OW34288   1.387   3.875   7.507  0.3866 -0.0927  0.0444
 7610SOL    HW134289   1.335   3.885   7.428 -0.2468 -3.0627  0.1082
 7610SOL    HW234290   1.383   3.780   7.512  2.2474 -0.2582 -1.8446
 7611SOL     OW34291   2.733   2.256   5.805 -0.2743  0.1766 -0.3107
 7611SOL    HW134292   2.711   2.343   5.773 -1.3720  1.2932  3.4275
 7611SOL    HW234293   2.762   2.277   5.894 -0.9594  0.4921 -0.1605
 7612SOL     OW34294   2.456   3.522   5.472 -0.0219 -0.0022 -0.1182
 7612SOL    HW134295   2.501   3.606   5.458 -0.8994 -0.0528 -3.1151
 7612SOL    HW234296   2.428   3.520   5.564 -1.8169  3.3909 -0.5727
 7613SOL     OW34297   2.365   1.971   7.468 -0.8809  0.4614  0.0823
 7613SOL    HW134298   2.283   2.020   7.477 -0.3801  1.1468  0.9491
 7613SOL    HW234299   2.344   1.921   7.389  0.7850 -0.3614  0.1715
 7614SOL     OW34300   0.731   3.618   3.559  0.9492 -0.3123  0.1400
 7614SOL    HW134301   0.676   3.693   3.576  2.6185  1.2478 -1.3188
 7614SOL    HW234302   0.760   3.586   3.644  2.5312  1.1562  0.1534
 7615SOL     OW34303   1.462   1.864   4.569  0.4649 -0.4065 -0.3892
 7615SOL    HW134304   1.486   1.773   4.550 -1.9815 -1.0236 -0.4822
 7615SOL    HW234305   1.524   1.883   4.640  1.2948 -2.2896 -0.5994
 7616SOL     OW34306   0.586   2.241   7.791 -0.1890  0.1708  0.1238
 7616SOL    HW134307   0.549   2.301   7.727  1.7436  1.3969  0.1365
 7616SOL    HW234308   0.663   2.218   7.739  0.0455  0.6458  0.2503
 7617SOL     OW34309   0.650   0.722  17.394  0.2813 -0.2243 -0.3199
 7617SOL    HW134310   0.731   0.671  17.396 -0.5416 -1.5318  0.0663
 7617SOL    HW234311   0.679   0.787  17.331 -1.9277  0.9586 -0.1114
 7618SOL     OW34312   4.640   1.591   1.935  0.1557  0.3729 -0.5707
 7618SOL    HW134313   4.569   1.651   1.957  0.8981  1.2190 -0.5223
 7618SOL    HW234314   4.596   1.514   1.898  1.0381 -0.8327  0.9027
 7619SOL     OW34315   1.022   1.467  11.210 -0.0209 -0.2047 -0.2940
 7619SOL    HW134316   1.066   1.392  11.249  1.0336  1.3291  1.4404
 7619SOL    HW234317   1.091   1.502  11.154 -0.9834 -0.5756 -1.7372
 7620SOL     OW34318   2.731   2.899  16.912 -0.1663  0.0027  0.1261
 7620SOL    HW134319   2.678   2.978  16.924 -1.1083 -0.6037 -0.1097
 7620SOL    HW234320   2.801   2.909  16.978 -0.3769 -3.0459  0.8012
 7621SOL     OW34321   3.449   4.038   3.667  0.1233  0.2271  0.5012
 7621SOL    HW134322   3.531   4.005   3.630 -0.2821 -0.3004  0.0735
 7621SOL    HW234323   3.458   4.133   3.675 -2.0260  0.6039 -1.7325
 7622SOL     OW34324   0.930   0.396   6.866  0.6297 -0.9761  0.3485
 7622SOL    HW134325   0.973   0.311   6.855  0.6634 -0.9859  0.5580
 7622SOL    HW234326   0.855   0.411   6.809  2.0322  1.7040 -0.8083
 7623SOL     OW34327   4.633   1.984   7.109  0.0021 -0.9559  0.4790
 7623SOL    HW134328   4.588   1.954   7.029 -1.6863 -0.2745  1.1704
 7623SOL    HW234329   4.674   1.901   7.133 -0.3849 -0.9363  1.2172
 7624SOL     OW34330   1.868   2.720  13.041 -0.5288  0.2470  0.5602
 7624SOL    HW134331   1.883   2.626  13.031 -1.0003  0.2684 -0.3364
 7624SOL    HW234332   1.898   2.737  13.130 -1.5558  1.8853  0.6007
 7625SOL     OW34333   4.180   2.654   6.420  0.0597 -0.5635  0.0917
 7625SOL    HW134334   4.116   2.641   6.491  0.4751  0.7231  0.6965
 7625SOL    HW234335   4.260   2.621   6.461  0.6739 -0.3144 -0.9341
 7626SOL     OW34336   4.477   3.276   6.345 -0.8823 -0.2328 -0.5482
 7626SOL    HW134337   4.467   3.181   6.352 -0.5808 -0.2435 -0.2571
 7626SOL    HW234338   4.511   3.300   6.431 -1.2161 -2.5461  0.2194
 7627SOL     OW34339   0.661   2.773  16.900 -0.5046 -0.3156 -0.3087
 7627SOL    HW134340   0.658   2.681  16.873  0.5051 -0.9238  1.6705
 7627SOL    HW234341   0.639   2.769  16.993  1.3387 -0.9547  0.1034
 7628SOL     OW34342   1.943   0.893  14.680  0.1072 -0.2062 -0.7143
 7628SOL    HW134343   1.966   0.810  14.721  3.6622  0.4841 -1.2897
 7628SOL    HW234344   1.863   0.917  14.727 -0.2547 -1.5578 -0.6354
 7629SOL     OW34345   0.270   1.053  13.505  0.3583 -0.4364  0.0337
 7629SOL    HW134346   0.218   1.097  13.438  1.6543 -0.9382 -1.2836
 7629SOL    HW234347   0.196   1.011  13.549 -0.2444  0.5058 -0.0711
 7630SOL     OW34348   3.869   0.691   7.795 -0.6108 -0.4547 -0.1383
 7630SOL    HW134349   3.887   0.697   7.889  2.1540  1.0743 -0.7594
 7630SOL    HW234350   3.784   0.735   7.798 -0.2851  0.1077  0.9184
 7631SOL     OW34351   2.449   2.805   3.732 -0.7260  0.2255 -0.2949
 7631SOL    HW134352   2.484   2.762   3.655 -0.1285  0.5249 -0.1923
 7631SOL    HW234353   2.531   2.808   3.781 -0.7429 -0.6160 -0.2284
 7632SOL     OW34354   4.029   1.005   7.152 -0.3611  0.2787 -0.2876
 7632SOL    HW134355   3.970   0.974   7.083  1.1502  1.6981 -2.2177
 7632SOL    HW234356   3.975   1.076   7.188  1.2120  1.9721 -1.2357
 7633SOL     OW34357   0.021   0.403   4.668  0.0887  0.1522  0.5870
 7633SOL    HW134358   0.039   0.314   4.637  0.2269 -0.0895  1.3772
 7633SOL    HW234359   4.675   0.419   4.605  1.2367 -1.7981 -1.2016
 7634SOL     OW34360   1.194   3.897   2.374  0.6680  0.1764 -0.3470
 7634SOL    HW134361   1.279   3.871   2.411  0.7817  1.9279  0.5846
 7634SOL    HW234362   1.202   3.891   2.278 -0.1608  2.0779 -0.5385
 7635SOL     OW34363   2.282   4.682   0.931  0.2534  0.1842 -0.2154
 7635SOL    HW134364   2.223   4.668   0.857 -1.5042  0.4553  1.1472
 7635SOL    HW234365   2.363   4.688   0.879 -0.0002  1.4451 -0.4608
 7636SOL     OW34366   4.020   2.122   1.046  0.7329 -0.6173  0.0984
 7636SOL    HW134367   4.024   2.094   1.137 -1.2176  0.3393  0.4928
 7636SOL    HW234368   4.100   2.174   1.045  0.9892 -0.9860  1.3124
 7637SOL     OW34369   1.549   3.640   7.152 -0.0988  0.4341 -0.0930
 7637SOL    HW134370   1.522   3.635   7.060  2.4774 -0.2460 -0.7962
 7637SOL    HW234371   1.575   3.732   7.152 -1.3420  0.8138  3.0532
 7638SOL     OW34372   2.708   1.815   2.426 -0.5992 -0.3974 -0.5076
 7638SOL    HW134373   2.744   1.772   2.504  1.1427 -0.1332 -1.1721
 7638SOL    HW234374   2.711   1.737   2.371  1.8705 -0.3066 -0.4955
 7639SOL     OW34375   2.418   1.080   8.584 -0.2578  0.0762 -0.0161
 7639SOL    HW134376   2.466   1.026   8.646 -1.7641 -0.3589  0.7611
 7639SOL    HW234377   2.326   1.056   8.586 -0.7837  2.2095  1.5675
 7640SOL     OW34378   4.476   2.579  16.868 -0.0554 -0.9423  0.5522
 7640SOL    HW134379   4.558   2.534  16.890 -0.1696  0.0723  3.0439
 7640SOL    HW234380   4.404   2.527  16.904 -3.1409  1.3355 -2.3499
 7641SOL     OW34381   3.236   2.216  17.394  0.1936  0.6481 -0.5225
 7641SOL    HW134382   3.277   2.247  17.312  0.4258  1.7866  0.0250
 7641SOL    HW234383   3.283   2.275  17.453  1.9139 -0.3694 -0.8444
 7642SOL     OW34384   1.993   2.835   6.041 -0.1832 -0.3426 -0.2197
 7642SOL    HW134385   1.971   2.869   5.954 -1.5071  0.0818  0.2827
 7642SOL    HW234386   1.902   2.840   6.071  0.0976  1.5113  0.2778
 7643SOL     OW34387   0.748   0.032   4.940 -0.6476 -0.0895  0.6891
 7643SOL    HW134388   0.828   0.082   4.954  0.3145 -1.5298  0.2926
 7643SOL    HW234389   0.700   0.096   4.888  0.9968  1.1507  0.7303
 7644SOL     OW34390   1.123   3.230  15.216  0.2204  0.3221  0.4746
 7644SOL    HW134391   1.049   3.171  15.206  0.1423  0.8008 -1.7548
 7644SOL    HW234392   1.182   3.185  15.156 -0.3621  0.7011 -0.3808
 7645SOL     OW34393   2.004   4.455   1.077  0.2163  0.0485  0.5553
 7645SOL    HW134394   2.084   4.507   1.088  0.3652 -0.2079  0.6805
 7645SOL    HW234395   1.937   4.523   1.087  0.7680  0.6727  0.0255
 7646SOL     OW34396   4.125   3.092   8.467  0.3966 -0.0589  0.6984
 7646SOL    HW134397   4.155   3.035   8.537  0.7779  0.8667  1.2758
 7646SOL    HW234398   4.105   3.167   8.523  0.1493  0.7447 -0.4597
 7647SOL     OW34399   1.924   3.472   4.970 -0.6531 -0.6374 -0.3376
 7647SOL    HW134400   1.913   3.417   5.048 -2.3506 -1.7123 -1.3569
 7647SOL    HW234401   1.846   3.463   4.916 -0.3690  0.3820 -0.9105
 7648SOL     OW34402   3.004   1.616   2.891  0.0678 -0.6043 -0.5062
 7648SOL    HW134403   3.075   1.557   2.915 -0.5608  0.3145  3.6333
 7648SOL    HW234404   2.938   1.551   2.869 -0.5602 -1.3919  3.8807
 7649SOL     OW34405   0.490   0.038  16.597  0.5723 -0.1245 -0.3896
 7649SOL    HW134406   0.548   0.114  16.583  0.7584 -0.6615 -2.4457
 7649SOL    HW234407   0.553   4.691  16.589 -0.8919 -1.4954  0.4189
 7650SOL     OW34408   3.904   3.809   8.515  0.5128  0.1645 -0.3235
 7650SOL    HW134409   3.920   3.821   8.422  1.3563  2.7181  0.1340
 7650SOL    HW234410   3.808   3.811   8.520  0.6088 -0.2374  1.6625
 7651SOL     OW34411   2.594   3.080   7.784 -0.1235  0.1412  0.5225
 7651SOL    HW134412   2.583   2.988   7.760 -0.2863  0.2151  0.3123
 7651SOL    HW234413   2.645   3.105   7.707 -0.2999  0.7001  0.5867
 7652SOL     OW34414   2.876   2.863  17.628 -0.0826 -0.1542  0.7700
 7652SOL    HW134415   2.964   2.901  17.620 -0.2826  0.1132 -0.1317
 7652SOL    HW234416   2.873   2.874   0.023  0.9468  0.1678  0.7678
 7653SOL     OW34417   4.594   4.300  10.984 -0.1803 -0.3628 -0.3904
 7653SOL    HW134418   4.499   4.310  10.989  0.1071  0.5779  2.8557
 7653SOL    HW234419   4.604   4.208  11.007 -0.6627 -0.9566 -2.5674
 7654SOL     OW34420   0.659   0.227   5.159  0.1714  0.1160  0.2081
 7654SOL    HW134421   0.677   0.172   5.083 -2.5655 -2.5748  1.4995
 7654SOL    HW234422   0.645   0.172   5.236 -1.4893  1.3772  0.8155
 7655SOL     OW34423   0.798   2.206   9.390  0.1507  0.2683 -0.4001
 7655SOL    HW134424   0.872   2.224   9.447  0.4609 -1.7922 -0.1702
 7655SOL    HW234425   0.810   2.275   9.325 -2.9901  0.2067 -1.0588
 7656SOL     OW34426   4.412   1.910   6.891  0.2982 -0.4201 -0.4599
 7656SOL    HW134427   4.413   1.848   6.964  0.7048 -0.5681 -0.5911
 7656SOL    HW234428   4.323   1.907   6.855  0.1443  2.0016 -0.2197
 7657SOL     OW34429   2.385   2.847   2.826 -0.2867 -0.3364 -0.3888
 7657SOL    HW134430   2.398   2.937   2.795  0.8060 -0.7612 -1.1692
 7657SOL    HW234431   2.470   2.813   2.855 -0.3723  0.7769  1.1724
 7658SOL     OW34432   1.675   1.490  14.387 -0.3848 -0.1866  0.1676
 7658SOL    HW134433   1.737   1.531  14.448  0.1175  0.5403 -0.8404
 7658SOL    HW234434   1.655   1.412  14.438 -1.0736 -0.0815  0.0515
 7659SOL     OW34435   4.161   1.460   7.453 -0.0869  0.2594 -0.1981
 7659SOL    HW134436   4.069   1.439   7.467 -0.3440  1.5347  0.0077
 7659SOL    HW234437   4.190   1.465   7.544 -0.8528  1.7658 -0.0370
 7660SOL     OW34438   0.432   2.097  10.288  0.0902 -0.3326 -0.1372
 7660SOL    HW134439   0.512   2.056  10.256  0.3096 -0.0805  0.0883
 7660SOL    HW234440   0.432   2.174  10.232  1.1178  0.6022  1.1618
 7661SOL     OW34441   4.213   2.624   5.132  0.7208  0.1244 -0.0388
 7661SOL    HW134442   4.179   2.699   5.085  2.1873  0.8808  0.1228
 7661SOL    HW234443   4.135   2.571   5.151 -0.2968  1.6860  0.1751
 7662SOL     OW34444   1.810   1.557  11.358 -0.2867  0.2029 -0.5694
 7662SOL    HW134445   1.835   1.649  11.365  0.2709 -0.0103  0.2012
 7662SOL    HW234446   1.835   1.541  11.267  2.2656  2.4845 -0.2725
 7663SOL     OW34447   2.169   0.828   2.458 -0.3590 -0.0974  0.3012
 7663SOL    HW134448   2.099   0.893   2.457 -1.2199 -1.0286 -0.5144
 7663SOL    HW234449   2.118   0.758   2.499  2.2333 -0.3717  3.0832
 7664SOL     OW34450   4.304   3.594   9.680  0.1326 -0.5992 -0.5351
 7664SOL    HW134451   4.222   3.633   9.712  0.5968 -0.0174 -0.0449
 7664SOL    HW234452   4.362   3.634   9.745 -1.0243 -1.0831  0.7696
 7665SOL     OW34453   0.479   2.083   2.829  0.1598  0.6410 -0.0920
 7665SOL    HW134454   0.511   2.001   2.793  2.6773  1.4717  0.2230
 7665SOL    HW234455   0.385   2.072   2.815  0.0318 -0.6092  1.7223
 7666SOL     OW34456   3.617   2.880   3.716 -0.2092  0.0892  0.2489
 7666SOL    HW134457   3.695   2.871   3.661 -0.1090 -0.6121  0.5045
 7666SOL    HW234458   3.576   2.793   3.721  0.6327 -0.2798  0.8180
 7667SOL     OW34459   4.381   2.923   2.821 -0.0565 -0.2090  0.4980
 7667SOL    HW134460   4.377   2.978   2.899 -0.2882 -1.2704  1.2380
 7667SOL    HW234461   4.302   2.943   2.770  1.6295  1.4554 -1.4507
 7668SOL     OW34462   2.851   1.648   5.115 -0.0143  0.3303 -1.0759
 7668SOL    HW134463   2.796   1.628   5.190 -0.0401  0.2172 -1.1250
 7668SOL    HW234464   2.836   1.567   5.066  0.0030 -0.1660 -0.2516
 7669SOL     OW34465   1.679   0.437   5.539 -0.0855  0.1035  0.0293
 7669SOL    HW134466   1.770   0.458   5.562  0.1493  0.1361 -0.9336
 7669SOL    HW234467   1.669   0.474   5.451  2.4150  0.3681 -0.1464
 7670SOL     OW34468   2.642   2.111   7.553 -0.1312  0.2818 -0.4451
 7670SOL    HW134469   2.598   2.049   7.610 -1.2158 -0.1379 -1.7311
 7670SOL    HW234470   2.632   2.066   7.470 -1.1005  1.9759 -1.2520
 7671SOL     OW34471   3.239   3.456  17.690  0.6509  0.5098  0.7916
 7671SOL    HW134472   3.242   3.373  17.644  1.4369 -1.0713  3.6824
 7671SOL    HW234473   3.322   3.463   0.037  1.6092 -0.8729 -0.6743
 7672SOL     OW34474   2.520   1.324   1.702 -0.0527  0.1810  0.1904
 7672SOL    HW134475   2.521   1.365   1.788 -2.4040  0.9924 -0.1597
 7672SOL    HW234476   2.552   1.392   1.641 -0.9754 -1.3008 -1.9584
 7673SOL     OW34477   3.198   4.013  12.715  0.2111 -0.0751  0.6941
 7673SOL    HW134478   3.205   3.918  12.704  1.2589  0.0197  0.5906
 7673SOL    HW234479   3.199   4.056  12.629  0.9595 -0.0092  0.7423
 7674SOL     OW34480   3.173   0.283   3.898  0.6723 -0.5606  0.2137
 7674SOL    HW134481   3.113   0.338   3.848  1.6251  1.0331  0.8190
 7674SOL    HW234482   3.205   0.217   3.837 -0.0871 -0.7471  0.0200
 7675SOL     OW34483   1.236   4.025  11.135 -0.5128  0.4281  0.9210
 7675SOL    HW134484   1.158   4.002  11.085 -2.8006  1.3928  4.0546
 7675SOL    HW234485   1.254   4.099  11.077  0.7933  1.2953  2.4017
 7676SOL     OW34486   1.550   1.285  10.932  0.4806  0.0264  0.0509
 7676SOL    HW134487   1.540   1.235  11.013  0.0519  0.1323  0.0581
 7676SOL    HW234488   1.596   1.216  10.883  0.2828 -0.0110 -0.0826
 7677SOL     OW34489   4.400   0.869  10.240 -0.4533 -0.0000 -0.5060
 7677SOL    HW134490   4.432   0.896  10.326  1.4844 -3.6159 -0.1111
 7677SOL    HW234491   4.404   0.946  10.184 -0.9079 -1.6171 -2.7730
 7678SOL     OW34492   0.290   0.581  15.162 -0.1563 -0.0442  0.1636
 7678SOL    HW134493   0.227   0.538  15.221 -2.4083  0.9150 -1.5566
 7678SOL    HW234494   0.230   0.645  15.125 -2.7456 -2.0683  0.7967
 7679SOL     OW34495   1.234   1.049   0.565 -0.2080  0.6018 -0.2355
 7679SOL    HW134496   1.148   1.007   0.559  0.8139 -1.4296 -0.6861
 7679SOL    HW234497   1.214   1.125   0.510  2.4513  1.5776  0.1439
 7680SOL     OW34498   4.128   1.530   6.267 -0.0486  0.0012 -0.0431
 7680SOL    HW134499   4.055   1.509   6.326  1.0029 -1.9186  0.5645
 7680SOL    HW234500   4.119   1.626   6.263  1.5800  0.2466  2.0058
 7681SOL     OW34501   4.318   1.830   8.949  0.2838 -0.3340  0.4855
 7681SOL    HW134502   4.369   1.793   8.876 -0.8482 -1.4218  0.2561
 7681SOL    HW234503   4.327   1.758   9.012 -0.6394  0.5094  1.5782
 7682SOL     OW34504   2.913   2.490   4.008 -0.6210  0.1093 -0.0409
 7682SOL    HW134505   2.923   2.585   4.004  3.5150 -0.4350 -1.9846
 7682SOL    HW234506   2.819   2.473   4.021 -0.6655 -1.5126 -2.5247
 7683SOL     OW34507   1.183   4.723   9.378 -0.5781 -0.3794  0.3863
 7683SOL    HW134508   1.196   0.078   9.328 -1.7063 -0.6433 -0.3253
 7683SOL    HW234509   1.094   0.022   9.406 -2.0836 -3.2534 -1.9554
 7684SOL     OW34510   1.502   4.596  15.824  0.0363  0.3464 -0.9599
 7684SOL    HW134511   1.585   4.600  15.872  1.3881 -0.1057 -3.2454
 7684SOL    HW234512   1.514   4.534  15.752 -1.0154 -0.6028 -0.2968
 7685SOL     OW34513   4.685   3.428   6.848  0.4245 -0.1923 -0.2108
 7685SOL    HW134514   4.650   3.339   6.849  0.4917 -0.2274 -1.6516
 7685SOL    HW234515   0.041   3.419   6.797 -0.8134  0.7926 -2.3435
 7686SOL     OW34516   0.660   2.681   8.810  0.0778 -0.0323  0.0708
 7686SOL    HW134517   0.736   2.626   8.828  0.6216  0.6391 -0.1740
 7686SOL    HW234518   0.694   2.768   8.830  0.6341 -0.5247  1.3218
 7687SOL     OW34519   3.687   2.952  12.459 -0.5128  0.4994 -0.2344
 7687SOL    HW134520   3.687   2.866  12.418 -0.4623  0.6611 -0.5702
 7687SOL    HW234521   3.769   2.952  12.508 -0.2707  0.2089 -0.6448
 7688SOL     OW34522   2.844   3.277  14.969 -0.0703  0.1923  0.4450
 7688SOL    HW134523   2.877   3.356  14.927 -1.8590  1.3638  1.2199
 7688SOL    HW234524   2.903   3.215  14.927 -0.7484 -2.2161  2.9986
 7689SOL     OW34525   2.702   1.608   3.310 -0.0077 -0.6648  0.0675
 7689SOL    HW134526   2.738   1.611   3.221  0.8867 -0.5121  0.4265
 7689SOL    HW234527   2.671   1.698   3.311  0.8884 -0.3613  2.5996
 7690SOL     OW34528   4.361   1.351   8.951  0.2355 -0.7530  0.2477
 7690SOL    HW134529   4.318   1.437   8.953  0.7171 -0.5064  0.0843
 7690SOL    HW234530   4.338   1.308   9.033 -0.8088  0.4631  0.5811
 7691SOL     OW34531   2.194   0.092   8.231  0.5174  0.2826 -0.7844
 7691SOL    HW134532   2.214   4.724   8.242  0.6676  0.5344  0.9519
 7691SOL    HW234533   2.219   0.115   8.141 -1.0887  3.0512 -0.5272
 7692SOL     OW34534   4.261   2.937  15.530  0.3018  0.1516 -0.2348
 7692SOL    HW134535   4.306   2.856  15.553 -2.3650 -1.4867 -0.8807
 7692SOL    HW234536   4.169   2.937  15.556  0.2820  0.4670 -0.3004
 7693SOL     OW34537   2.261   3.061   5.375  0.2431  0.2070 -0.3980
 7693SOL    HW134538   2.282   3.048   5.467 -0.6893  0.1952 -0.1864
 7693SOL    HW234539   2.341   3.042   5.325 -0.4829 -0.7941 -1.1820
 7694SOL     OW34540   0.345   3.770  17.524  0.1965 -0.2844  0.3636
 7694SOL    HW134541   0.393   3.848  17.551  0.1140 -0.8216  2.0462
 7694SOL    HW234542   0.277   3.773  17.591  0.1594 -0.1330  0.3197
 7695SOL     OW34543   2.072   2.212   2.549  0.1756 -0.3618  0.4695
 7695SOL    HW134544   2.127   2.145   2.510 -0.4054 -0.2935 -0.4725
 7695SOL    HW234545   1.990   2.203   2.501 -1.0295  2.5406  1.9556
 7696SOL     OW34546   4.632   1.310   3.689  0.5129 -0.8015  0.0645
 7696SOL    HW134547   4.699   1.361   3.733  1.8500 -1.4384 -1.2530
 7696SOL    HW234548   4.662   1.224   3.720  0.3614 -0.5946  0.7729
 7697SOL     OW34549   2.736   3.123   6.742 -0.5200  0.1468  0.8732
 7697SOL    HW134550   2.812   3.141   6.686 -2.1524  0.4604 -1.2368
 7697SOL    HW234551   2.777   3.105   6.827  0.8974 -0.0995  0.1434
 7698SOL     OW34552   2.968   4.126   4.967 -0.4069  0.3015 -0.1496
 7698SOL    HW134553   2.988   4.038   5.000 -0.3506  1.3927  2.6676
 7698SOL    HW234554   2.886   4.116   4.918 -0.4184  1.4019 -0.3457
 7699SOL     OW34555   2.240   4.558   8.247  0.4458  0.7022 -0.0395
 7699SOL    HW134556   2.211   4.470   8.273 -1.7193  1.1718 -0.8325
 7699SOL    HW234557   2.335   4.546   8.256  0.8015  3.8410  0.3320
 7700SOL     OW34558   2.085   4.164   3.170 -0.0007 -0.5298 -0.5897
 7700SOL    HW134559   2.123   4.222   3.104  3.2083 -1.7073  0.2597
 7700SOL    HW234560   2.162   4.158   3.226  0.4523  1.7340 -0.9589
 7701SOL     OW34561   2.644   3.782   8.976 -0.0014 -0.1508  0.0269
 7701SOL    HW134562   2.602   3.725   8.911 -1.9606  2.5627 -1.0856
 7701SOL    HW234563   2.666   3.720   9.045  1.0796  2.8344  2.3028
 7702SOL     OW34564   1.918   4.300   9.451  0.2644  0.2441  0.5485
 7702SOL    HW134565   1.968   4.254   9.383 -0.4591 -2.5651  1.8829
 7702SOL    HW234566   1.970   4.289   9.530  0.2302  0.2512  0.5721
 7703SOL     OW34567   0.672   1.653   4.151  0.2597 -0.1684 -0.5707
 7703SOL    HW134568   0.763   1.669   4.127  0.1929 -0.2078 -0.8486
 7703SOL    HW234569   0.635   1.622   4.068  2.4755 -0.8909 -1.2953
 7704SOL     OW34570   2.338   2.515   5.255  0.1309 -0.0260  0.9370
 7704SOL    HW134571   2.334   2.571   5.177  1.4331  1.9317  2.2876
 7704SOL    HW234572   2.297   2.441   5.210 -0.1577  1.6356 -1.5492
 7705SOL     OW34573   4.540   0.082   8.251 -0.7329 -0.3826  0.0139
 7705SOL    HW134574   4.546   0.007   8.309  0.0591 -0.8677 -0.7039
 7705SOL    HW234575   4.525   0.043   8.165  0.1053 -2.4122  0.7964
 7706SOL     OW34576   2.479   0.259  15.545  0.2130 -0.3166 -0.5087
 7706SOL    HW134577   2.551   0.232  15.488  0.6483  0.5678 -0.3837
 7706SOL    HW234578   2.484   0.355  15.543  2.0610 -0.4038 -0.3417
 7707SOL     OW34579   0.658   4.665   3.229 -0.4319 -0.2351 -0.4743
 7707SOL    HW134580   0.660   4.714   3.147 -0.5269  0.0831 -0.2856
 7707SOL    HW234581   0.636   0.008   3.293  2.8237 -1.1723  1.6388
 7708SOL     OW34582   0.950   2.113   7.236 -0.1240  0.6805  0.8250
 7708SOL    HW134583   0.894   2.087   7.162  0.2102 -0.8808  1.1065
 7708SOL    HW234584   0.924   2.204   7.243 -0.3061  0.9881 -3.9355
 7709SOL     OW34585   2.859   2.656  11.299 -0.1151  0.1633 -0.1979
 7709SOL    HW134586   2.908   2.633  11.220  0.1790  0.3448 -0.0671
 7709SOL    HW234587   2.913   2.729  11.328  2.0990 -0.7647 -1.9991
 7710SOL     OW34588   2.695   0.842   1.094 -0.3160 -0.0562  0.0430
 7710SOL    HW134589   2.725   0.809   1.178 -0.2325 -2.1124 -0.7979
 7710SOL    HW234590   2.746   0.794   1.028 -2.5096 -1.2618 -0.7677
 7711SOL     OW34591   0.839   4.612   8.073  0.7304  0.0302  0.7680
 7711SOL    HW134592   0.760   4.635   8.122 -1.4187 -2.0357 -1.7891
 7711SOL    HW234593   0.874   4.695   8.042  1.0906 -1.2257 -2.2226
 7712SOL     OW34594   1.952   3.943   8.526 -0.1642 -0.1781 -0.5085
 7712SOL    HW134595   1.894   4.003   8.480 -1.7987  0.2250  2.0394
 7712SOL    HW234596   1.995   3.902   8.451  0.6970  1.1696 -0.7498
 7713SOL     OW34597   3.643   4.101  10.150 -0.3542 -0.4747 -0.2513
 7713SOL    HW134598   3.669   4.016  10.113  3.2107  1.0785 -1.2111
 7713SOL    HW234599   3.727   4.121  10.189 -0.4429  0.1508 -0.3784
 7714SOL     OW34600   1.254   1.688   7.467 -0.0741 -0.0216  0.0377
 7714SOL    HW134601   1.271   1.782   7.467 -1.8866  0.3011 -0.9877
 7714SOL    HW234602   1.299   1.659   7.547  0.7823  2.2309  0.3814
 7715SOL     OW34603   2.520   0.852  12.294 -0.3004 -0.2756  0.5619
 7715SOL    HW134604   2.588   0.917  12.277 -0.0101 -0.9096 -0.7111
 7715SOL    HW234605   2.449   0.914  12.309  0.2144  0.0188  1.7958
 7716SOL     OW34606   0.938   4.123   4.444  0.8381 -0.2941 -0.1771
 7716SOL    HW134607   0.993   4.054   4.408  1.6784  2.3278 -3.9869
 7716SOL    HW234608   0.960   4.197   4.387 -0.1005 -0.0261 -0.1878
 7717SOL     OW34609   3.213   4.073   4.529  0.4732 -0.1990 -0.2054
 7717SOL    HW134610   3.180   4.047   4.444  0.1976  1.7348 -0.7014
 7717SOL    HW234611   3.143   4.039   4.585 -1.6687  4.3795 -0.1001
 7718SOL     OW34612   2.641   2.903   7.315 -0.4424  0.4885  0.0654
 7718SOL    HW134613   2.652   2.995   7.337  2.6135  0.1340  0.0006
 7718SOL    HW234614   2.692   2.869   7.389  0.3466 -1.3777 -1.3137
 7719SOL     OW34615   3.236   3.051   2.350 -0.1039 -0.2034  0.0416
 7719SOL    HW134616   3.187   2.977   2.385 -0.6124  0.2668  0.3219
 7719SOL    HW234617   3.306   3.054   2.416  0.7789 -0.3274 -0.8954
 7720SOL     OW34618   3.750   4.507  16.002  0.3364  0.3991  0.1107
 7720SOL    HW134619   3.669   4.456  15.999  2.3014 -2.6238 -2.0562
 7720SOL    HW234620   3.773   4.509  16.095  0.0888  0.7322  0.1672
 7721SOL     OW34621   3.262   3.522   3.714  0.1008 -0.0437  0.1021
 7721SOL    HW134622   3.294   3.505   3.802  0.8274 -0.3580 -0.2253
 7721SOL    HW234623   3.308   3.457   3.661 -0.3414 -0.3126  0.0421
 7722SOL     OW34624   3.906   1.824  10.699  0.1576  0.1495 -0.2066
 7722SOL    HW134625   3.956   1.837  10.780 -0.4879 -0.1678  0.2447
 7722SOL    HW234626   3.840   1.893  10.714 -0.0488 -0.4958  1.8686
 7723SOL     OW34627   0.418   3.675   4.123  0.5611  0.3682  0.0310
 7723SOL    HW134628   0.433   3.645   4.034  2.3981  0.3234  0.3607
 7723SOL    HW234629   0.508   3.669   4.154  1.9679  0.7496 -4.0279
 7724SOL     OW34630   4.381   2.920   3.901  0.1588 -0.2863  0.8647
 7724SOL    HW134631   4.323   2.847   3.875 -1.9709  2.2079 -1.4004
 7724SOL    HW234632   4.329   2.974   3.961  1.0146  2.1213 -0.6048
 7725SOL     OW34633   0.081   4.025  10.445 -0.6233 -0.1519 -0.6929
 7725SOL    HW134634   0.153   4.083  10.467 -0.7174 -0.3020  0.0125
 7725SOL    HW234635   0.021   4.051  10.515 -0.1874 -0.1243 -0.3261
 7726SOL     OW34636   4.141   0.561  14.701 -0.7097  0.4202 -0.5868
 7726SOL    HW134637   4.164   0.591  14.614 -1.5776 -0.1822 -1.0201
 7726SOL    HW234638   4.182   0.629  14.754 -0.9733  1.0369 -1.1890
 7727SOL     OW34639   2.837   4.368   5.526  0.0989 -0.1801  0.2092
 7727SOL    HW134640   2.849   4.354   5.432 -1.5722 -0.2937  0.0157
 7727SOL    HW234641   2.771   4.300   5.535 -1.2831  1.4150  2.0241
 7728SOL     OW34642   2.253   3.865   7.488  0.0624 -0.6610 -0.0990
 7728SOL    HW134643   2.195   3.807   7.538 -3.3653  2.2194 -0.7741
 7728SOL    HW234644   2.336   3.849   7.532  1.1587  0.4652 -1.7737
 7729SOL     OW34645   4.698   4.653   1.940 -0.8651 -0.0232 -0.4966
 7729SOL    HW134646   0.045   4.702   1.980 -0.2294 -2.7621  1.7143
 7729SOL    HW234647   4.724   4.561   1.940  0.0560  0.2256  3.3588
 7730SOL     OW34648   1.209   1.848  11.299 -0.0776  0.4467  0.2790
 7730SOL    HW134649   1.191   1.758  11.272  2.5496 -0.1476  0.5344
 7730SOL    HW234650   1.137   1.897  11.259 -0.3044 -0.5702 -0.5534
 7731SOL     OW34651   1.527   2.820   3.493  0.4673 -0.3996  0.3121
 7731SOL    HW134652   1.558   2.759   3.426 -0.8161 -2.5657  1.7204
 7731SOL    HW234653   1.608   2.872   3.501  0.4466  0.2243 -3.2678
 7732SOL     OW34654   4.316   3.230   9.453  0.8452 -0.1245 -0.4171
 7732SOL    HW134655   4.362   3.258   9.532 -1.3096  0.4633  0.6282
 7732SOL    HW234656   4.297   3.315   9.415 -1.2645 -2.3437 -4.3645
 7733SOL     OW34657   0.737   1.110   4.861 -0.2923  0.4068  0.5232
 7733SOL    HW134658   0.793   1.116   4.784 -1.8196 -0.4550 -0.6548
 7733SOL    HW234659   0.714   1.202   4.874 -1.1353  0.4282 -1.1055
 7734SOL     OW34660   2.057   0.352   3.842 -0.2625  0.0703  0.4632
 7734SOL    HW134661   2.137   0.339   3.791  0.4114  0.9821  1.3039
 7734SOL    HW234662   2.095   0.387   3.922  2.4287 -0.1609 -0.7105
 7735SOL     OW34663   0.278   1.971   3.126 -0.0026  0.3088 -0.5238
 7735SOL    HW134664   0.193   2.004   3.098 -0.8382 -0.4652  1.1054
 7735SOL    HW234665   0.279   2.002   3.217 -1.7988 -1.6620  0.1820
 7736SOL     OW34666   4.714   0.897  12.753 -0.1949 -0.0371  0.4485
 7736SOL    HW134667   0.063   0.836  12.764  1.0791  1.3129 -0.6708
 7736SOL    HW234668   4.723   0.963  12.822 -1.3340  0.9436 -0.3499
 7737SOL     OW34669   2.664   1.199  10.223  0.2100 -0.1164  0.0064
 7737SOL    HW134670   2.686   1.272  10.281 -0.4976  0.2354 -0.1688
 7737SOL    HW234671   2.613   1.153  10.289 -2.5416 -0.0832 -2.0810
 7738SOL     OW34672   2.953   4.407   6.259  0.3483  0.4328  0.1987
 7738SOL    HW134673   2.987   4.496   6.252 -0.1265  0.4998 -1.2277
 7738SOL    HW234674   3.017   4.352   6.214 -0.3812  0.2791 -0.6533
 7739SOL     OW34675   4.200   2.990   2.619 -0.0740  0.4193  0.2008
 7739SOL    HW134676   4.136   2.923   2.592 -0.5560  0.6738  0.7102
 7739SOL    HW234677   4.264   2.993   2.548 -0.0940  0.0339  0.1616
 7740SOL     OW34678   0.947   0.172  12.015  0.3145  0.2278  0.0019
 7740SOL    HW134679   0.910   0.090  11.980  0.5175  0.4729 -0.7752
 7740SOL    HW234680   1.041   0.165  12.002  0.2673 -0.5153  0.0424
 7741SOL     OW34681   0.912   3.019   9.093  0.0531  0.7417 -0.2177
 7741SOL    HW134682   1.004   2.993   9.089  0.7352  2.6750  2.5398
 7741SOL    HW234683   0.916   3.115   9.099 -4.4300  1.1402 -2.8005
 7742SOL     OW34684   3.326   3.657   6.384 -0.2183  0.3602  0.5094
 7742SOL    HW134685   3.368   3.742   6.394  1.9802 -0.8066  1.2226
 7742SOL    HW234686   3.249   3.669   6.439 -0.1847 -1.5125  0.9785
 7743SOL     OW34687   3.064   0.137   1.323 -0.3875 -0.1347 -0.0462
 7743SOL    HW134688   3.076   0.084   1.244  0.5113  0.0988 -0.0674
 7743SOL    HW234689   3.131   0.095   1.378 -0.0060  0.1656 -0.2862
 7744SOL     OW34690   0.079   4.395   6.165  0.5323 -0.7522  0.1457
 7744SOL    HW134691   0.068   4.480   6.122  0.3999 -0.7279  0.2239
 7744SOL    HW234692   0.020   4.398   6.241  1.4464  0.6700  0.7977
 7745SOL     OW34693   3.911   3.698  16.330  0.6220 -0.6783 -0.5292
 7745SOL    HW134694   3.902   3.691  16.425  1.5937  1.5919 -0.2633
 7745SOL    HW234695   3.836   3.753  16.307  0.0917 -0.6277  1.3224
 7746SOL     OW34696   3.246   1.450   8.051 -0.2134  0.5982 -0.6352
 7746SOL    HW134697   3.300   1.382   8.012 -0.1877 -0.5474  1.4387
 7746SOL    HW234698   3.300   1.484   8.122  0.9007 -0.7977 -0.8170
 7747SOL     OW34699   3.704   0.011   9.694 -0.3833 -0.0634  0.1608
 7747SOL    HW134700   3.643   4.721   9.766 -0.0146  2.0978  0.9149
 7747SOL    HW234701   3.773   4.672   9.712 -0.2885  0.1531  0.5805
 7748SOL     OW34702   0.334   2.094   3.394  0.1924  0.2515 -0.6890
 7748SOL    HW134703   0.389   2.161   3.352  0.7851 -0.3591 -0.8753
 7748SOL    HW234704   0.403   2.042   3.434 -0.7673  0.4977  1.2906
 7749SOL     OW34705   3.079   4.153   1.489  0.3418  0.0400 -0.1939
 7749SOL    HW134706   3.071   4.240   1.451  1.1926 -0.1966 -0.9186
 7749SOL    HW234707   3.128   4.166   1.571 -0.0282 -0.6731  0.1414
 7750SOL     OW34708   1.642   4.698   8.927 -0.5275 -0.2286  0.3491
 7750SOL    HW134709   1.558   4.705   8.972 -0.4226 -0.9735  0.6719
 7750SOL    HW234710   1.685   4.623   8.969 -1.0444 -0.1960  0.9269
 7751SOL     OW34711   0.648   0.510  11.162  0.6831  0.0499 -0.6627
 7751SOL    HW134712   0.709   0.540  11.095  0.6827  0.2110 -0.5902
 7751SOL    HW234713   0.697   0.519  11.243  0.8359  1.1867 -0.8803
 7752SOL     OW34714   3.776   4.143  15.496 -0.5009 -0.3646 -0.0234
 7752SOL    HW134715   3.851   4.149  15.554 -0.0486  2.2259 -0.8740
 7752SOL    HW234716   3.798   4.188  15.414 -1.2337 -0.3832 -0.2374
 7753SOL     OW34717   3.337   0.624   2.339  0.3876  0.0812  0.2145
 7753SOL    HW134718   3.430   0.602   2.330  0.1493 -1.6887  2.0412
 7753SOL    HW234719   3.294   0.554   2.387 -0.1122 -0.4376 -0.9755
 7754SOL     OW34720   2.116   1.370   3.791 -0.1500  0.5842  0.2616
 7754SOL    HW134721   2.093   1.380   3.699  0.2554 -1.4403 -0.0691
 7754SOL    HW234722   2.197   1.319   3.782 -0.8132 -0.3050 -0.6773
 7755SOL     OW34723   1.821   2.725   3.207  0.3471  0.1903 -0.2724
 7755SOL    HW134724   1.891   2.756   3.265 -2.1559  0.2012  2.7541
 7755SOL    HW234725   1.818   2.799   3.147  0.3348  1.1218  0.8810
 7756SOL     OW34726   1.734   3.471   8.757 -0.2399  0.0993 -0.2539
 7756SOL    HW134727   1.735   3.389   8.707 -2.6241  0.4593 -0.9085
 7756SOL    HW234728   1.704   3.454   8.847 -1.5741 -1.4009 -0.9773
 7757SOL     OW34729   2.517   4.423   0.447 -0.1997 -0.3351  0.7387
 7757SOL    HW134730   2.474   4.507   0.463 -0.1446 -0.5422  1.9525
 7757SOL    HW234731   2.480   4.410   0.359  0.8710 -1.8844  0.5172
 7758SOL     OW34732   1.676   0.988  13.055 -0.2407 -0.3021 -0.7216
 7758SOL    HW134733   1.674   0.893  13.045  1.0574 -0.4743  0.6799
 7758SOL    HW234734   1.723   0.987  13.138 -0.5488  0.8537 -0.5351
 7759SOL     OW34735   2.763   4.574   0.829  0.2578  0.3078  0.0635
 7759SOL    HW134736   2.828   4.519   0.873  0.0487 -0.3735 -0.4636
 7759SOL    HW234737   2.741   4.518   0.754  1.7095 -0.2991  0.0856
 7760SOL     OW34738   3.571   2.639   6.901 -0.3140  0.4286  0.4592
 7760SOL    HW134739   3.528   2.723   6.887  2.1144  1.5080 -0.5656
 7760SOL    HW234740   3.529   2.598   6.977  2.5627 -0.9866  1.2946
 7761SOL     OW34741   1.606   3.531   9.024  0.1608 -0.1469 -0.1360
 7761SOL    HW134742   1.519   3.551   9.059 -0.0688  0.3533 -0.9854
 7761SOL    HW234743   1.627   3.455   9.077  1.8944  0.0844 -0.5047
 7762SOL     OW34744   3.463   1.989  13.353  0.1092 -0.3011 -0.2065
 7762SOL    HW134745   3.478   2.025  13.265 -2.9698  1.4222 -0.0375
 7762SOL    HW234746   3.509   1.905  13.349 -0.1162 -0.5971  3.1573
 7763SOL     OW34747   2.711   4.526  11.294  0.2806  0.0449  0.2506
 7763SOL    HW134748   2.739   4.608  11.254  0.4830 -0.9206 -1.6017
 7763SOL    HW234749   2.795   4.497  11.329  0.6874  0.1982 -0.6271
 7764SOL     OW34750   0.488   3.087   7.572 -0.4352  0.5498  0.0424
 7764SOL    HW134751   0.544   3.102   7.648 -1.6677 -0.7246  1.1978
 7764SOL    HW234752   0.436   3.166   7.584 -0.5987  0.6277 -1.1617
 7765SOL     OW34753   2.099   2.303   7.795  0.2503  0.1255 -0.4287
 7765SOL    HW134754   2.175   2.329   7.847  0.2637  0.5735 -0.6652
 7765SOL    HW234755   2.027   2.304   7.858 -0.9292  2.4597 -1.8304
 7766SOL     OW34756   1.777   2.005   6.220 -0.4114 -0.6039 -0.4266
 7766SOL    HW134757   1.694   2.033   6.182  1.2184  2.6760 -1.6326
 7766SOL    HW234758   1.744   2.012   6.310  0.9749 -0.0896  0.0450
 7767SOL     OW34759   1.045   1.353   8.507 -0.1216  0.4882  0.1076
 7767SOL    HW134760   1.051   1.427   8.567  0.7497  0.2662  0.2856
 7767SOL    HW234761   1.067   1.281   8.566  0.3994  1.6611  1.3266
 7768SOL     OW34762   3.360   1.285  12.536  0.3779 -0.1000  0.1221
 7768SOL    HW134763   3.423   1.262  12.605  0.2581 -0.4198  0.1246
 7768SOL    HW234764   3.306   1.351  12.579  0.5119  0.2053 -0.1801
 7769SOL     OW34765   2.009   4.464   5.418  0.0891  0.3791  0.2689
 7769SOL    HW134766   1.948   4.437   5.486 -1.0537  2.1408 -0.0378
 7769SOL    HW234767   1.963   4.537   5.376 -1.7643 -0.0110  1.6430
 7770SOL     OW34768   1.134   1.256   7.545 -0.3203 -0.3136 -0.7663
 7770SOL    HW134769   1.142   1.323   7.613  0.1085 -1.3762  0.2308
 7770SOL    HW234770   1.129   1.314   7.470  0.7360 -1.0612 -1.4142
 7771SOL     OW34771   1.001   1.998   5.918 -0.3114  0.3347  0.2941
 7771SOL    HW134772   1.030   2.089   5.915  1.6931 -0.3787 -2.1710
 7771SOL    HW234773   0.970   1.982   6.007  0.4546 -2.8076  0.0030
 7772SOL     OW34774   0.613   3.766   0.598 -0.1152 -0.1683  0.4031
 7772SOL    HW134775   0.568   3.692   0.640  2.1825 -1.2571  0.9580
 7772SOL    HW234776   0.705   3.747   0.618  0.6935  1.0080 -2.2727
 7773SOL     OW34777   2.534   4.276   2.637 -0.5557  0.4054  0.0401
 7773SOL    HW134778   2.585   4.226   2.574 -1.1720  2.2632 -1.9095
 7773SOL    HW234779   2.490   4.337   2.578  0.0046  0.0256 -0.7510
 7774SOL     OW34780   2.542   2.307  14.221 -0.7943  0.3300  0.0972
 7774SOL    HW134781   2.631   2.274  14.227  0.4818  3.8096  0.6214
 7774SOL    HW234782   2.543   2.344  14.309 -2.2531 -2.0859  1.1233
 7775SOL     OW34783   2.256   1.881   6.203  0.1546  0.6498 -0.4841
 7775SOL    HW134784   2.194   1.840   6.262  2.2963 -1.2100  0.4911
 7775SOL    HW234785   2.285   1.796   6.170 -1.0211  0.3861 -0.8219
 7776SOL     OW34786   0.621   0.555   8.676  0.1940  0.0708 -0.6239
 7776SOL    HW134787   0.594   0.647   8.670  0.5796  0.2547  0.5696
 7776SOL    HW234788   0.662   0.545   8.590 -1.6066 -2.1627 -1.2355
 7777SOL     OW34789   3.948   3.050   2.796  0.3011  0.1916 -0.2465
 7777SOL    HW134790   3.980   3.019   2.711  0.5369 -0.6781  0.1697
 7777SOL    HW234791   4.007   3.017   2.863 -1.4693 -1.1042  0.6847
 7778SOL     OW34792   2.667   4.670   0.502  0.3034  0.4959 -0.0956
 7778SOL    HW134793   2.685   4.646   0.411  2.3289  1.2841  0.0971
 7778SOL    HW234794   2.576   4.695   0.485  0.2472 -0.2294 -0.8539
 7779SOL     OW34795   1.149   3.553  13.812 -0.5890 -0.3967 -0.0927
 7779SOL    HW134796   1.098   3.621  13.855  2.1117  1.9470 -0.6097
 7779SOL    HW234797   1.120   3.566  13.721 -1.5342 -1.8685  0.0002
 7780SOL     OW34798   4.648   3.227  13.069 -0.6980 -0.3225 -0.1379
 7780SOL    HW134799   4.717   3.255  13.129  0.3159 -2.5045 -0.2673
 7780SOL    HW234800   4.634   3.315  13.034 -3.3439 -0.6066  0.1796
 7781SOL     OW34801   0.732   3.521  13.629 -0.2790 -0.2869  0.5456
 7781SOL    HW134802   0.727   3.463  13.553 -0.7409 -0.2373  0.5378
 7781SOL    HW234803   0.640   3.528  13.655 -0.8187  0.9556 -1.5993
 7782SOL     OW34804   0.746   4.582   6.274  0.1839  0.2455  0.2896
 7782SOL    HW134805   0.661   4.603   6.236  1.0045 -2.1821 -2.9206
 7782SOL    HW234806   0.742   4.630   6.357 -0.8954 -1.1200  1.0189
 7783SOL     OW34807   1.288   0.409   4.793 -0.4539  0.6351  0.0336
 7783SOL    HW134808   1.193   0.416   4.783 -0.1386  0.6975 -2.9489
 7783SOL    HW234809   1.320   0.392   4.704  1.8116  2.3153  0.5259
 7784SOL     OW34810   0.122   3.414   8.400  0.0723  0.3962  0.7406
 7784SOL    HW134811   0.124   3.484   8.335 -2.4219  0.3240  0.5770
 7784SOL    HW234812   0.208   3.381   8.376 -0.9813 -1.2531 -0.7414
 7785SOL     OW34813   2.393   0.492   8.541  0.8945  0.2211  0.0018
 7785SOL    HW134814   2.419   0.424   8.602 -2.5446  0.2972  1.5852
 7785SOL    HW234815   2.357   0.447   8.465 -1.8734  2.2067  0.1336
 7786SOL     OW34816   0.016   2.302   2.841 -0.2346 -0.3913  0.6923
 7786SOL    HW134817   0.080   2.350   2.893 -0.7141  1.0758 -0.0665
 7786SOL    HW234818   4.674   2.295   2.910  1.1842  0.2368  2.1241
 7787SOL     OW34819   1.995   2.061  10.824  0.3268 -0.4768  0.8039
 7787SOL    HW134820   2.054   2.122  10.781  0.1571 -0.1076  1.0913
 7787SOL    HW234821   1.949   2.129  10.874  0.7690 -1.9576  3.2519
 7788SOL     OW34822   3.851   3.669   3.202 -0.0639  0.1927  0.4239
 7788SOL    HW134823   3.786   3.681   3.271  0.8156  0.7491  1.1529
 7788SOL    HW234824   3.882   3.581   3.225  3.8822  1.2423 -0.8274
 7789SOL     OW34825   1.057   4.006   5.289 -0.2937  0.3089  0.4582
 7789SOL    HW134826   1.022   4.006   5.378 -1.2085 -1.2708  0.0961
 7789SOL    HW234827   1.053   4.100   5.275  2.1092 -0.0233 -2.5554
 7790SOL     OW34828   1.359   4.494   3.772  0.0113  0.0875 -0.2158
 7790SOL    HW134829   1.447   4.459   3.756  0.6534  1.8236 -0.5252
 7790SOL    HW234830   1.319   4.470   3.688  0.8009 -2.1337  0.0478
 7791SOL     OW34831   0.668   0.461   1.397 -0.6505 -0.3604 -0.6626
 7791SOL    HW134832   0.608   0.452   1.324 -2.0192 -2.3599  0.7248
 7791SOL    HW234833   0.697   0.371   1.409  0.1502 -0.2498 -1.7717
 7792SOL     OW34834   1.596   0.853  14.622  0.0809  0.3454 -0.4365
 7792SOL    HW134835   1.636   0.836  14.708 -1.0093 -1.4964 -0.3065
 7792SOL    HW234836   1.593   0.948  14.630 -1.4518  0.2712 -0.0956
 7793SOL     OW34837   3.222   1.224   3.694 -0.0769 -0.2299  0.6623
 7793SOL    HW134838   3.138   1.269   3.694  0.1215  0.1225  2.4513
 7793SOL    HW234839   3.208   1.164   3.620 -2.0237 -1.0055  1.6669
 7794SOL     OW34840   3.590   0.984   2.162  0.2922 -0.0785  0.0713
 7794SOL    HW134841   3.551   0.924   2.099 -0.3370 -0.8739  1.2185
 7794SOL    HW234842   3.680   0.953   2.169  0.8998  1.5534 -0.6226
 7795SOL     OW34843   0.332   0.337   8.560  0.3513  0.4399 -0.1475
 7795SOL    HW134844   0.324   0.389   8.640 -1.9688  2.0590 -1.4290
 7795SOL    HW234845   0.368   0.258   8.600  2.5339 -0.1983 -3.3996
 7796SOL     OW34846   2.788   2.752   5.493  0.2690 -0.4357  1.0550
 7796SOL    HW134847   2.858   2.752   5.428 -0.3714 -3.9399  0.3492
 7796SOL    HW234848   2.731   2.696   5.440  0.6598 -0.9759  1.2090
 7797SOL     OW34849   2.961   3.408   2.058  0.1009 -0.3011 -0.1695
 7797SOL    HW134850   2.913   3.326   2.054  0.4016 -0.4396 -1.1109
 7797SOL    HW234851   2.888   3.468   2.074  0.1989 -0.1761 -0.1845
 7798SOL     OW34852   4.590   4.129   1.161  0.2999 -0.2308 -0.5153
 7798SOL    HW134853   4.568   4.144   1.069 -1.3077 -2.0010 -0.4130
 7798SOL    HW234854   4.682   4.102   1.169  0.9011  1.7815 -0.5496
 7799SOL     OW34855   2.209   4.613   1.192 -0.7526 -0.3285  0.0611
 7799SOL    HW134856   2.205   4.700   1.232 -2.2289 -0.2933 -0.1702
 7799SOL    HW234857   2.252   4.631   1.107 -3.0227 -0.6942 -1.1503
 7800SOL     OW34858   0.556   1.640   6.981  0.4209 -0.4540 -0.1874
 7800SOL    HW134859   0.549   1.691   7.062 -2.7710 -1.1292 -0.0191
 7800SOL    HW234860   0.526   1.555   7.015 -0.4370 -1.2553 -2.9286
 7801SOL     OW34861   0.806   4.146   7.563  0.0791  0.2626  0.1769
 7801SOL    HW134862   0.845   4.145   7.650 -0.1283 -0.1567  0.2640
 7801SOL    HW234863   0.738   4.210   7.584  0.3006  1.0584 -1.5514
 7802SOL     OW34864   0.398   4.209   6.440 -0.3756 -0.3985 -0.1274
 7802SOL    HW134865   0.492   4.225   6.449 -0.2982 -1.0608  0.3107
 7802SOL    HW234866   0.379   4.189   6.531 -1.3871 -0.9341 -0.4515
 7803SOL     OW34867   2.576   1.617  11.671  0.3034  0.1802 -0.4148
 7803SOL    HW134868   2.543   1.587  11.587  0.6046  2.1935 -1.2385
 7803SOL    HW234869   2.620   1.536  11.700 -2.1545 -0.8469  0.4784
 7804SOL     OW34870   3.818   1.427   9.327  0.2307  0.0202 -0.0398
 7804SOL    HW134871   3.756   1.491   9.293  0.7008  1.0018  0.9600
 7804SOL    HW234872   3.763   1.350   9.337 -0.5538  0.7567  1.1816
 7805SOL     OW34873   3.814   0.471   5.126  0.1532 -0.7396  0.1370
 7805SOL    HW134874   3.897   0.424   5.117 -0.2779 -1.3748 -0.5123
 7805SOL    HW234875   3.811   0.526   5.047 -3.4814  0.2771  1.0100
 7806SOL     OW34876   3.857   1.987  10.278  0.1422 -0.2854  0.5170
 7806SOL    HW134877   3.801   1.942  10.340 -0.3514  0.9044  0.9482
 7806SOL    HW234878   3.927   2.021  10.334  2.3577 -2.9365 -0.6402
 7807SOL     OW34879   1.984   1.121  16.001  0.0302 -0.5087  0.2359
 7807SOL    HW134880   2.016   1.034  15.975 -0.2248 -1.4320  2.9547
 7807SOL    HW234881   2.030   1.173  15.936  1.1478 -0.9970  0.6317
 7808SOL     OW34882   4.619   3.096   7.958  0.7321 -0.0914  0.0291
 7808SOL    HW134883   4.649   3.043   8.031  0.4442 -2.0282 -1.2500
 7808SOL    HW234884   4.651   3.059   7.875  0.9197 -1.6079  0.7733
 7809SOL     OW34885   2.798   2.014   5.231  0.0361  0.3662 -0.4312
 7809SOL    HW134886   2.719   2.054   5.266  0.3687 -0.7970  1.6349
 7809SOL    HW234887   2.766   1.979   5.148  0.3171 -0.7315 -0.0816
 7810SOL     OW34888   0.694   2.566   7.356  0.4295  0.0858 -0.5773
 7810SOL    HW134889   0.601   2.580   7.373  0.8179  2.4980 -0.3871
 7810SOL    HW234890   0.731   2.650   7.384 -0.6333  0.2535  0.3327
 7811SOL     OW34891   0.225   0.551   4.806 -0.3746 -0.2463  0.1127
 7811SOL    HW134892   0.157   0.500   4.762  0.8042 -0.4674 -1.4451
 7811SOL    HW234893   0.214   0.638   4.766 -1.7526 -0.5669 -0.2290
 7812SOL     OW34894   2.219   3.773   6.686 -0.2450 -0.2676 -0.6182
 7812SOL    HW134895   2.212   3.779   6.782 -0.3288  0.8736 -0.6948
 7812SOL    HW234896   2.213   3.860   6.646  0.3785  0.6541  1.2784
 7813SOL     OW34897   0.118   0.785   4.157 -0.2828 -0.3189 -0.0978
 7813SOL    HW134898   0.101   0.878   4.141  1.2877 -0.1894 -1.0430
 7813SOL    HW234899   0.185   0.802   4.224 -0.2888  0.3453 -0.2612
 7814SOL     OW34900   1.588   4.394   3.699 -0.3471  0.7408 -0.4893
 7814SOL    HW134901   1.683   4.401   3.694 -0.3254  1.0671  0.5338
 7814SOL    HW234902   1.568   4.361   3.611 -1.0637  0.0862 -0.0771
 7815SOL     OW34903   3.204   3.531   2.057 -0.3998 -0.0935 -0.0488
 7815SOL    HW134904   3.125   3.481   2.033  0.2924 -0.6837 -1.1096
 7815SOL    HW234905   3.200   3.511   2.150 -0.8084  1.4911  0.2780
 7816SOL     OW34906   0.639   0.097   5.417  1.2254  0.2417  0.0900
 7816SOL    HW134907   0.701   0.034   5.452 -1.3631 -1.1789  2.1424
 7816SOL    HW234908   0.602   0.133   5.498  0.8348  1.6893 -0.7114
 7817SOL     OW34909   1.295   0.242   5.015 -0.5764 -0.1093 -0.0488
 7817SOL    HW134910   1.279   0.290   5.096  1.7149  3.1954 -1.5197
 7817SOL    HW234911   1.264   0.308   4.953  0.1901 -0.3084 -0.6607
 7818SOL     OW34912   3.409   4.663   1.663  0.3351 -0.3559  0.0079
 7818SOL    HW134913   3.465   0.013   1.685 -0.0573 -0.4026  1.1762
 7818SOL    HW234914   3.477   4.600   1.689  1.9921  1.6342  0.4796
 7819SOL     OW34915   0.529   0.860  13.962  0.1859 -0.4805 -0.2813
 7819SOL    HW134916   0.472   0.840  13.887  0.6871 -2.0133 -0.2563
 7819SOL    HW234917   0.493   0.806  14.032  0.0480 -0.3210 -0.2321
 7820SOL     OW34918   3.683   0.244   5.613 -0.7543 -0.3910  0.8246
 7820SOL    HW134919   3.760   0.265   5.666 -0.2698  2.0738 -0.8830
 7820SOL    HW234920   3.718   0.194   5.539 -1.2055 -1.3845  1.2738
 7821SOL     OW34921   4.057   1.112   2.780  0.2219 -0.5485  0.1622
 7821SOL    HW134922   4.067   1.161   2.862 -1.3853  0.0027  0.0294
 7821SOL    HW234923   3.964   1.114   2.758  0.1361  2.2113  0.8502
 7822SOL     OW34924   2.520   3.749  10.504 -0.4199  0.0303  0.3615
 7822SOL    HW134925   2.514   3.659  10.535 -1.9007  0.9896  2.8882
 7822SOL    HW234926   2.589   3.737  10.438 -0.6707  2.0455 -0.2732
 7823SOL     OW34927   1.997   2.070   4.461 -0.3400  0.1550  0.0263
 7823SOL    HW134928   2.046   2.100   4.538 -1.9315 -1.8637  1.7888
 7823SOL    HW234929   2.058   2.000   4.439  0.8596  1.4390 -0.8005
 7824SOL     OW34930   2.940   3.583   6.407 -0.4832  0.6565  0.6844
 7824SOL    HW134931   2.928   3.582   6.312 -3.1313 -0.3294  1.0334
 7824SOL    HW234932   2.888   3.660   6.432  0.5511 -0.0484  4.8873
 7825SOL     OW34933   4.088   4.325  15.295 -0.3026  0.4331 -0.1786
 7825SOL    HW134934   3.994   4.332  15.277 -1.1299  3.0583  5.0807
 7825SOL    HW234935   4.105   4.247  15.243  0.1688  1.6703 -1.9104
 7826SOL     OW34936   3.580   1.859  13.053 -0.1206  0.6720  0.3351
 7826SOL    HW134937   3.577   1.927  12.986  1.5600 -0.6028 -1.0084
 7826SOL    HW234938   3.635   1.796  13.007 -0.6091 -1.0786  2.1451
 7827SOL     OW34939   3.989   1.861  12.439  0.4890  0.6094  1.0460
 7827SOL    HW134940   4.020   1.952  12.449  0.9981  0.6133 -0.6386
 7827SOL    HW234941   4.066   1.816  12.405 -0.1811  1.6403 -1.7772
 7828SOL     OW34942   3.524   3.998   8.674 -0.1140 -0.2327 -0.2136
 7828SOL    HW134943   3.531   4.084   8.715 -1.5969  0.1789 -0.8158
 7828SOL    HW234944   3.485   3.938   8.737  0.1745  2.0521  2.1424
 7829SOL     OW34945   1.418   2.901   6.685 -0.4663 -0.2146 -0.3009
 7829SOL    HW134946   1.446   2.914   6.775 -2.7017  1.6741  0.1219
 7829SOL    HW234947   1.323   2.905   6.691 -0.4836  2.1247 -2.0545
 7830SOL     OW34948   0.736   2.382  14.262 -0.8479  0.5563 -0.2023
 7830SOL    HW134949   0.809   2.320  14.270 -1.3138  0.2390  1.5857
 7830SOL    HW234950   0.720   2.386  14.168 -0.1125  0.6344 -0.3260
 7831SOL     OW34951   4.489   0.930   2.966  0.3577 -0.0432  0.4212
 7831SOL    HW134952   4.405   0.906   3.006  0.9545 -0.5370  1.3770
 7831SOL    HW234953   4.502   0.863   2.899 -0.8324  0.8298 -0.6701
 7832SOL     OW34954   0.537   1.219   9.302  0.0469 -0.0484  0.3910
 7832SOL    HW134955   0.565   1.294   9.354 -2.0830  0.5681  0.6426
 7832SOL    HW234956   0.443   1.234   9.289  0.1963  0.0569 -0.5325
 7833SOL     OW34957   3.365   4.094   1.332 -0.3388 -0.3340  0.0175
 7833SOL    HW134958   3.412   4.067   1.253  0.3022  2.7578 -0.6522
 7833SOL    HW234959   3.316   4.012   1.338  0.0885 -0.6939 -1.2700
 7834SOL     OW34960   2.792   1.036   3.333 -0.8010 -0.0965  0.0436
 7834SOL    HW134961   2.745   1.025   3.251 -1.2044  0.0674  0.2555
 7834SOL    HW234962   2.811   0.947   3.363  0.1177  0.2181  0.3891
 7835SOL     OW34963   3.662   3.426  14.959  0.5254  0.2796  0.3758
 7835SOL    HW134964   3.658   3.518  14.933 -0.2292  0.5521  1.4450
 7835SOL    HW234965   3.636   3.435  15.050 -1.4127 -1.4769 -0.0041
 7836SOL     OW34966   2.299   3.178  12.141  0.5655 -0.4473 -0.2582
 7836SOL    HW134967   2.279   3.084  12.149  1.5320 -0.6256  0.0997
 7836SOL    HW234968   2.333   3.175  12.051  0.8083  0.4363 -0.1887
 7837SOL     OW34969   3.780   1.117   7.991  0.0793  0.4014 -0.0758
 7837SOL    HW134970   3.701   1.064   7.998 -0.7999  1.4236 -2.2281
 7837SOL    HW234971   3.804   1.115   7.899  1.1837 -2.3413  0.2679
 7838SOL     OW34972   0.955   3.060  14.869  0.4838  0.3039  0.4346
 7838SOL    HW134973   0.996   3.014  14.943 -2.1237  0.4372  1.9609
 7838SOL    HW234974   0.957   3.148  14.907 -1.4196  1.0242 -1.1682
 7839SOL     OW34975   2.847   0.239   3.641 -0.1363  0.0373  0.4377
 7839SOL    HW134976   2.866   0.306   3.575  0.9229 -2.2476 -1.6143
 7839SOL    HW234977   2.900   0.167   3.604  2.1578  1.2231  1.4674
 7840SOL     OW34978   1.461   0.551   7.964  0.2037 -0.0137 -0.0597
 7840SOL    HW134979   1.531   0.588   8.019  2.1783 -0.0723 -2.5065
 7840SOL    HW234980   1.385   0.607   7.980 -0.5380 -0.9032 -0.4808
 7841SOL     OW34981   3.975   1.711  15.661 -0.6949 -0.2184  0.7537
 7841SOL    HW134982   3.889   1.707  15.705 -1.1463 -2.0823 -0.3189
 7841SOL    HW234983   3.980   1.807  15.653  0.1950 -0.5253 -2.1212
 7842SOL     OW34984   1.459   1.479  14.247 -0.0325  0.2186  0.6006
 7842SOL    HW134985   1.542   1.514  14.280 -1.1939  3.1825  0.4124
 7842SOL    HW234986   1.388   1.537  14.275  0.0840  0.3040  0.7149
 7843SOL     OW34987   4.710   3.964   9.909 -0.2414 -0.4383  0.4086
 7843SOL    HW134988   0.028   4.049   9.904 -0.2877 -0.6394 -3.4417
 7843SOL    HW234989   4.653   3.968   9.832  1.2578  0.5579 -0.6397
 7844SOL     OW34990   2.383   3.771  11.402  0.0559  0.0237  0.0106
 7844SOL    HW134991   2.315   3.718  11.360 -1.7036  2.7423 -0.5346
 7844SOL    HW234992   2.375   3.850  11.350 -2.7709 -0.9318 -0.9904
 7845SOL     OW34993   3.498   4.584   0.742 -0.2343  0.3139 -0.0306
 7845SOL    HW134994   3.460   4.671   0.739 -1.3197 -0.2195 -1.5307
 7845SOL    HW234995   3.429   4.528   0.778 -1.4410  0.2499 -2.4494
 7846SOL     OW34996   1.274   0.939  10.175  0.2251  0.4271  0.5358
 7846SOL    HW134997   1.290   0.868  10.238  0.3295  1.3700  1.5651
 7846SOL    HW234998   1.359   0.944  10.133 -0.4898  0.6819 -0.8747
 7847SOL     OW34999   2.323   3.027   8.424 -0.3088  0.6395 -0.1121
 7847SOL    HW135000   2.397   2.968   8.409 -1.0383 -0.1258 -0.7668
 7847SOL    HW235001   2.265   2.972   8.477  0.9429  0.4099  1.0160
 7848SOL     OW35002   1.911   1.538   9.424  0.2285 -0.0760  0.2683
 7848SOL    HW135003   1.871   1.455   9.401 -0.4151 -0.2859  2.0994
 7848SOL    HW235004   1.975   1.563   9.358  1.3135 -1.6493  0.7223
 7849SOL     OW35005   0.123   1.853  11.192 -0.2610  0.1022  0.1078
 7849SOL    HW135006   0.214   1.825  11.207 -0.3563 -0.5581 -0.5832
 7849SOL    HW235007   0.146   1.943  11.170  2.8317 -0.4753  0.8614
 7850SOL     OW35008   2.740   3.657  14.116  0.3619 -0.0167 -0.3879
 7850SOL    HW135009   2.699   3.597  14.053 -0.4130 -0.0197  0.1333
 7850SOL    HW235010   2.758   3.737  14.067 -2.1314  0.8086  0.0533
 7851SOL     OW35011   0.938   2.747   6.755 -0.5210 -0.3818 -0.1873
 7851SOL    HW135012   0.894   2.803   6.691  2.2888 -1.3511 -2.9836
 7851SOL    HW235013   0.896   2.663   6.740 -0.9517  0.4431 -3.6889
 7852SOL     OW35014   3.297   2.681   2.682  0.3501  0.4653 -0.7944
 7852SOL    HW135015   3.262   2.598   2.650  1.3666 -0.4093  0.3731
 7852SOL    HW235016   3.338   2.725   2.607 -0.7776  4.5148  1.0143
 7853SOL     OW35017   2.796   1.781   1.981  0.1485 -0.8580 -0.1299
 7853SOL    HW135018   2.842   1.711   1.934 -0.2224 -0.9460 -0.3642
 7853SOL    HW235019   2.729   1.804   1.915  0.8431  0.3177 -0.4245
 7854SOL     OW35020   0.838   0.897   1.464 -0.3525  0.0131 -0.4221
 7854SOL    HW135021   0.795   0.863   1.542  1.0562  0.7262  0.6683
 7854SOL    HW235022   0.874   0.821   1.419 -0.5278  0.7372 -1.7870
 7855SOL     OW35023   1.305   2.675   5.492  0.4650  0.0086 -0.4497
 7855SOL    HW135024   1.234   2.672   5.428  0.2402 -0.6082 -0.1767
 7855SOL    HW235025   1.263   2.626   5.564  1.6027 -1.2649 -0.6542
 7856SOL     OW35026   4.621   3.835   2.980  0.2312  0.3021 -0.2611
 7856SOL    HW135027   4.549   3.773   2.991  1.0299 -0.5587  0.1851
 7856SOL    HW235028   4.611   3.846   2.886  2.7178 -0.6668 -0.6574
 7857SOL     OW35029   1.137   4.019   6.503 -0.3010  0.2719 -0.2704
 7857SOL    HW135030   1.175   4.046   6.586 -0.8013 -0.4645  0.1996
 7857SOL    HW235031   1.145   3.924   6.513  1.6685  0.2268 -2.3216
 7858SOL     OW35032   3.303   1.478  10.403  0.2066  0.1409 -0.1197
 7858SOL    HW135033   3.387   1.473  10.358  0.9336  0.4196  1.2148
 7858SOL    HW235034   3.324   1.529  10.481  2.4672 -2.3978  0.9293
 7859SOL     OW35035   0.200   0.335   7.385  0.2839  0.0550  0.1647
 7859SOL    HW135036   0.152   0.262   7.345 -0.3220  0.5610 -0.0153
 7859SOL    HW235037   0.176   0.402   7.322  0.5377  0.8071  0.8761
 7860SOL     OW35038   4.035   0.057   1.706 -0.3146 -0.3137 -0.0154
 7860SOL    HW135039   3.999   0.001   1.638 -0.4611  1.0781 -1.0862
 7860SOL    HW235040   4.072   4.711   1.759 -1.6038 -0.7447  0.3089
 7861SOL     OW35041   1.850   0.503   8.237 -0.1219  0.2394  0.5081
 7861SOL    HW135042   1.821   0.427   8.287  1.8290  0.5579  2.1099
 7861SOL    HW235043   1.941   0.520   8.261  0.1866  1.2253 -1.3310
 7862SOL     OW35044   1.686   0.865   0.588  0.0592 -0.0416  0.4093
 7862SOL    HW135045   1.755   0.909   0.539  1.7140 -2.4022  0.5880
 7862SOL    HW235046   1.736   0.813   0.651 -2.2472  1.2946  3.3300
 7863SOL     OW35047   3.683   0.380   3.469 -0.0790  0.5277 -0.2731
 7863SOL    HW135048   3.635   0.385   3.551  0.7820  1.6541  0.1598
 7863SOL    HW235049   3.701   0.286   3.462 -0.9825  0.2057  1.9879
 7864SOL     OW35050   3.790   1.508   3.238 -0.1938 -0.3666  0.3301
 7864SOL    HW135051   3.839   1.535   3.160  1.7088 -1.3186  1.1887
 7864SOL    HW235052   3.775   1.590   3.283 -0.8152  0.0232 -0.5930
 7865SOL     OW35053   2.115   1.992   8.470  0.2387 -0.3615  0.1868
 7865SOL    HW135054   2.041   1.976   8.529  0.6347 -1.0371  0.4909
 7865SOL    HW235055   2.148   2.075   8.503  0.9244 -1.0024  1.1023
 7866SOL     OW35056   1.507   1.816   3.275  0.2903 -0.5903  0.4172
 7866SOL    HW135057   1.426   1.855   3.241  0.1131 -0.2741  1.1985
 7866SOL    HW235058   1.558   1.812   3.194  2.1345  1.4978  1.4774
 7867SOL     OW35059   1.699   2.591   8.038  0.3738  0.0146  0.1753
 7867SOL    HW135060   1.648   2.513   8.060 -1.4017  1.0084 -0.4636
 7867SOL    HW235061   1.652   2.653   8.094  1.3734  1.8196 -1.0067
 7868SOL     OW35062   1.653   0.710  16.706 -0.0560  0.1504 -0.1227
 7868SOL    HW135063   1.599   0.788  16.696 -1.0775 -0.5545 -0.0693
 7868SOL    HW235064   1.741   0.747  16.694  0.7699 -0.8681  2.8741
 7869SOL     OW35065   3.891   4.467   7.943 -0.2350  0.1937 -0.5200
 7869SOL    HW135066   3.930   4.508   7.866  0.0369 -1.4924 -1.2989
 7869SOL    HW235067   3.943   4.494   8.018  2.3273 -0.4374 -2.0850
 7870SOL     OW35068   0.294   4.180  10.539 -0.4280 -0.4583  0.1330
 7870SOL    HW135069   0.236   4.210  10.609  0.8303  0.1778  0.9075
 7870SOL    HW235070   0.325   4.263  10.504 -2.3196  0.3387  0.3608
 7871SOL     OW35071   0.983   0.184   4.945  0.2880  0.0258  0.1270
 7871SOL    HW135072   1.009   0.264   4.992  2.3346 -0.3842 -0.3010
 7871SOL    HW235073   1.028   0.205   4.863  1.0578 -4.0639 -0.5043
 7872SOL     OW35074   4.484   2.734   5.021 -0.0934 -0.5225 -0.6365
 7872SOL    HW135075   4.394   2.702   5.018 -0.2872  0.1918 -2.0612
 7872SOL    HW235076   4.529   2.650   5.037 -2.9696 -1.8939  0.1980
 7873SOL     OW35077   2.647   4.549   2.938 -0.4382  0.1825  0.4856
 7873SOL    HW135078   2.727   4.570   2.985  0.6122  1.5099 -1.9254
 7873SOL    HW235079   2.674   4.594   2.858 -2.1212 -0.2377 -0.3408
 7874SOL     OW35080   3.762   0.622   2.796  0.8188 -0.5134 -0.6467
 7874SOL    HW135081   3.725   0.668   2.721 -0.7522 -0.9584 -0.1524
 7874SOL    HW235082   3.817   0.689   2.835 -1.5585  0.9391  0.1985
 7875SOL     OW35083   3.112   2.026  12.806 -0.3489 -0.0266  0.2286
 7875SOL    HW135084   3.071   2.047  12.722  0.7478 -1.1262 -0.5848
 7875SOL    HW235085   3.158   1.943  12.790 -2.4733 -1.5028  1.8461
 7876SOL     OW35086   0.366   2.358  11.503 -0.5338 -0.3298  0.0352
 7876SOL    HW135087   0.313   2.344  11.424 -1.9830 -0.0597  0.9628
 7876SOL    HW235088   0.356   2.453  11.508 -2.2301 -0.4680 -0.6139
 7877SOL     OW35089   1.849   0.293   9.254  0.1962  0.5097 -0.1790
 7877SOL    HW135090   1.792   0.272   9.328 -0.1080  2.0409  0.0201
 7877SOL    HW235091   1.930   0.266   9.296  0.1943 -0.3482 -0.7440
 7878SOL     OW35092   3.383   4.497   9.040 -0.2527 -0.4508  0.4353
 7878SOL    HW135093   3.362   4.536   9.125  2.4362 -1.2560  1.4826
 7878SOL    HW235094   3.478   4.491   9.034 -0.2751  0.4955 -0.9409
 7879SOL     OW35095   1.354   0.052   3.520 -0.2384  0.6123 -0.3345
 7879SOL    HW135096   1.304   0.068   3.600  0.1358 -1.2006  0.2576
 7879SOL    HW235097   1.433   0.009   3.551 -0.0616  0.1076 -1.4820
 7880SOL     OW35098   3.477   4.319   6.105  0.1710  0.2367 -0.2479
 7880SOL    HW135099   3.457   4.228   6.128 -1.7837  0.5597 -0.6683
 7880SOL    HW235100   3.494   4.351   6.193 -2.5666  0.8887  0.0548
 7881SOL     OW35101   4.413   1.634   4.874  0.1227 -0.2845 -0.6854
 7881SOL    HW135102   4.455   1.563   4.826  0.4397  0.0274 -0.8725
 7881SOL    HW235103   4.402   1.603   4.964 -1.5094  0.7937 -0.5164
 7882SOL     OW35104   2.051   1.739   7.905 -1.0317 -0.6632  0.4814
 7882SOL    HW135105   1.980   1.713   7.964 -2.0023 -2.8032 -1.6193
 7882SOL    HW235106   2.124   1.745   7.966 -0.2316  1.3593 -0.6531
 7883SOL     OW35107   1.167   1.512   6.330 -0.1927  0.6551  0.6004
 7883SOL    HW135108   1.229   1.549   6.393  2.4379 -2.3026 -0.2563
 7883SOL    HW235109   1.205   1.425   6.320  1.7262  1.8520 -2.6424
 7884SOL     OW35110   1.231   3.626   8.256 -0.2088  0.1175  0.1590
 7884SOL    HW135111   1.223   3.673   8.174  0.7531 -2.2317 -1.2733
 7884SOL    HW235112   1.312   3.661   8.293  0.6248 -0.7765 -0.8040
 7885SOL     OW35113   2.361   1.801  14.904  0.7564  0.5267 -0.1818
 7885SOL    HW135114   2.320   1.736  14.847 -0.5171  0.9188  0.2954
 7885SOL    HW235115   2.440   1.818  14.853  2.0157 -1.2259  1.1700
 7886SOL     OW35116   4.427   3.931   7.857 -0.1467  0.5736 -0.0139
 7886SOL    HW135117   4.354   3.991   7.871 -0.4130  0.5869 -1.4806
 7886SOL    HW235118   4.406   3.865   7.923  2.0265 -0.5125 -0.4174
 7887SOL     OW35119   1.029   3.571  11.267  0.0869  0.2979 -0.3368
 7887SOL    HW135120   0.949   3.529  11.235  0.6525 -0.6942 -0.4271
 7887SOL    HW235121   1.043   3.644  11.206  2.1278  0.4593  0.3305
 7888SOL     OW35122   2.472   2.696   7.268  0.4426  0.3229 -0.4334
 7888SOL    HW135123   2.542   2.631   7.261  1.3096  1.0314  1.6159
 7888SOL    HW235124   2.525   2.769   7.299  1.2623 -0.1713 -0.6835
 7889SOL     OW35125   0.872   4.637   2.442 -0.2765  0.0313  0.0259
 7889SOL    HW135126   0.952   4.691   2.441 -0.6906  0.6121 -1.4332
 7889SOL    HW235127   0.912   4.551   2.454 -0.9789 -0.3445 -0.3927
 7890SOL     OW35128   2.061   0.763   4.538 -0.4357 -0.3538 -0.0833
 7890SOL    HW135129   2.066   0.693   4.603 -0.2443 -0.9519 -0.7446
 7890SOL    HW235130   2.090   0.843   4.581 -0.2729 -0.6365  0.3349
 7891SOL     OW35131   3.941   3.638  13.290 -0.1807  0.5386  0.5445
 7891SOL    HW135132   3.925   3.733  13.295 -0.6875  0.4559  0.4331
 7891SOL    HW235133   3.892   3.600  13.363 -0.2876  1.7054  1.0844
 7892SOL     OW35134   0.444   0.172   6.551 -0.3535  0.6376  0.5213
 7892SOL    HW135135   0.427   0.243   6.613 -0.7119  0.8908  0.1340
 7892SOL    HW235136   0.368   0.114   6.558  0.2712 -0.1973  0.4144
 7893SOL     OW35137   2.399   3.351   6.191  0.1235 -0.2682  0.3958
 7893SOL    HW135138   2.439   3.382   6.272 -0.5052  0.7741  0.2995
 7893SOL    HW235139   2.377   3.266   6.229  1.8537 -0.1935  1.5558
 7894SOL     OW35140   2.782   4.097   8.533  0.1420 -0.1064  0.6835
 7894SOL    HW135141   2.747   4.014   8.566 -0.2001  0.1958  1.0847
 7894SOL    HW235142   2.734   4.159   8.589 -0.2064 -0.3037  0.6018
 7895SOL     OW35143   1.434   4.495   8.759 -0.4592  0.0244  0.1864
 7895SOL    HW135144   1.446   4.400   8.755  1.6514  0.2153  1.8311
 7895SOL    HW235145   1.418   4.500   8.853  2.6904  1.2738  0.6648
 7896SOL     OW35146   3.264   2.202   8.123 -0.4890  0.3813  0.2675
 7896SOL    HW135147   3.238   2.252   8.201  2.6649  1.7368  0.4671
 7896SOL    HW235148   3.327   2.264   8.085  0.5250  0.2643  1.7522
 7897SOL     OW35149   2.088   3.557   9.740  0.5461  0.1675  0.0487
 7897SOL    HW135150   2.088   3.462   9.738  0.8108  0.1579  0.4812
 7897SOL    HW235151   2.180   3.581   9.727  1.3761 -2.2774  1.3368
 7898SOL     OW35152   4.113   2.471   3.372  0.2671  0.8487 -0.4915
 7898SOL    HW135153   4.059   2.393   3.384  2.7828 -0.7235  0.5744
 7898SOL    HW235154   4.145   2.460   3.282 -1.4084 -0.9429 -0.8635
 7899SOL     OW35155   3.598   1.561   9.270 -0.4587 -0.3751  0.1107
 7899SOL    HW135156   3.556   1.634   9.316  0.3622 -0.2654  0.6835
 7899SOL    HW235157   3.576   1.578   9.179 -0.4962 -0.7419  0.0482
 7900SOL     OW35158   0.618   2.966   6.344 -0.7392  0.9026 -0.2657
 7900SOL    HW135159   0.535   2.920   6.358  0.7800 -2.5737 -2.8271
 7900SOL    HW235160   0.659   2.906   6.283  0.0649  0.1306  1.0445
 7901SOL     OW35161   3.805   3.660   2.914 -0.4555 -0.0496  0.0795
 7901SOL    HW135162   3.882   3.642   2.860  0.4710  1.5830  0.8551
 7901SOL    HW235163   3.825   3.636   3.004 -1.1873 -0.0365  0.2452
 7902SOL     OW35164   4.034   1.930   4.515  0.0633 -0.2018 -0.1952
 7902SOL    HW135165   4.049   2.025   4.510  0.4674 -0.2993 -0.8733
 7902SOL    HW235166   4.105   1.901   4.457 -0.6895  0.9917 -1.7044
 7903SOL     OW35167   1.275   4.481  10.551 -0.2983  0.0623 -0.5362
 7903SOL    HW135168   1.287   4.458  10.643 -1.5449 -1.9559 -0.8885
 7903SOL    HW235169   1.216   4.413  10.519  0.8007 -1.7256  1.2522
 7904SOL     OW35170   4.070   1.544  12.696 -0.6851 -0.1373 -0.0679
 7904SOL    HW135171   4.054   1.513  12.607  1.0943 -0.1384 -0.3852
 7904SOL    HW235172   4.053   1.462  12.742  1.4276  1.1181  2.8770
 7905SOL     OW35173   3.365   2.278   5.919 -0.0237  0.2966  0.1868
 7905SOL    HW135174   3.447   2.260   5.872 -0.7498  0.5520 -1.1861
 7905SOL    HW235175   3.376   2.368   5.951  0.7090  1.1380 -2.3833
 7906SOL     OW35176   1.077   1.766   9.174  0.1748 -0.0042 -0.0148
 7906SOL    HW135177   0.997   1.818   9.178  1.3102  1.8437 -1.6694
 7906SOL    HW235178   1.114   1.793   9.090  0.3792  2.3815  0.8447
 7907SOL     OW35179   4.692   1.402   8.033 -0.2517  0.3612  0.0706
 7907SOL    HW135180   4.629   1.473   8.038  1.0737  1.4485  1.2472
 7907SOL    HW235181   4.684   1.370   7.943  1.8952  0.3973 -0.1441
 7908SOL     OW35182   1.925   3.895   6.362  0.0719  0.4815  0.2372
 7908SOL    HW135183   1.832   3.898   6.383  0.0986  0.8906  0.2927
 7908SOL    HW235184   1.932   3.962   6.294 -1.0274  0.4115  0.0482
 7909SOL     OW35185   4.485   4.260   9.370  0.2950  0.0434 -0.3100
 7909SOL    HW135186   4.536   4.220   9.299 -0.8951  1.0280 -1.7198
 7909SOL    HW235187   4.401   4.245   9.327  0.8504  0.1377 -1.4341
 7910SOL     OW35188   2.136   2.361  12.008  0.4622  0.5827 -0.2691
 7910SOL    HW135189   2.101   2.388  11.923  1.5832 -0.4876 -1.0704
 7910SOL    HW235190   2.186   2.285  11.980 -3.0327 -0.8630 -2.6442
 7911SOL     OW35191   2.299   2.400   2.563  0.0811  0.2505 -0.1003
 7911SOL    HW135192   2.292   2.485   2.606 -0.8079  1.3015 -2.2915
 7911SOL    HW235193   2.240   2.343   2.613  1.4190  0.1222  1.2868
 7912SOL     OW35194   0.451   3.522  13.661  0.5410 -0.0443  0.3865
 7912SOL    HW135195   0.411   3.478  13.737  1.9247 -0.6522  0.7606
 7912SOL    HW235196   0.422   3.613  13.671  0.2595  0.0078 -0.9923
 7913SOL     OW35197   2.074   4.665   4.839 -0.0808 -0.4424  0.1558
 7913SOL    HW135198   2.170   4.656   4.837 -0.2206 -2.0030  0.3364
 7913SOL    HW235199   2.049   4.688   4.749 -2.0858  0.4472  0.9481
 7914SOL     OW35200   3.504   0.027  11.849 -0.4323 -0.4899  0.2815
 7914SOL    HW135201   3.466   4.724  11.766  1.6523 -0.4454 -0.6891
 7914SOL    HW235202   3.582   4.697  11.852  0.2295  0.5817  3.6013
 7915SOL     OW35203   0.129   3.040  16.588 -0.5281 -0.0823  0.5136
 7915SOL    HW135204   0.175   3.079  16.514  1.9032 -5.1209 -0.6560
 7915SOL    HW235205   0.039   3.041  16.557  0.0647 -1.1305 -1.2150
 7916SOL     OW35206   3.669   3.103   2.807  0.4772  0.5647  0.2487
 7916SOL    HW135207   3.752   3.055   2.805 -0.8885 -1.7900  0.0191
 7916SOL    HW235208   3.675   3.141   2.719  2.6499 -1.5879 -0.5406
 7917SOL     OW35209   1.000   3.091  11.763  0.5203 -0.0671 -0.0544
 7917SOL    HW135210   0.986   3.029  11.836  2.0525 -0.6263 -0.2302
 7917SOL    HW235211   1.090   3.059  11.759  1.1234  1.7159 -0.4522
 7918SOL     OW35212   3.914   0.267   5.770 -0.2787  0.1152  0.1892
 7918SOL    HW135213   3.981   0.279   5.838 -0.2488 -2.6240  0.6575
 7918SOL    HW235214   3.900   0.172   5.777 -1.0096  0.1794 -0.4972
 7919SOL     OW35215   2.492   1.331   5.725 -0.1239  0.0082 -0.2984
 7919SOL    HW135216   2.522   1.398   5.787  0.7669  1.1684 -1.9906
 7919SOL    HW235217   2.563   1.293   5.673 -1.9824 -0.3814 -2.5608
 7920SOL     OW35218   0.556   1.793  16.980  0.5992 -0.2735  0.1608
 7920SOL    HW135219   0.545   1.760  16.891 -0.6052  2.3866 -0.6996
 7920SOL    HW235220   0.632   1.851  16.967 -0.5322  1.8107  2.8583
 7921SOL     OW35221   4.357   4.527   4.428 -0.2393 -0.8088  0.1604
 7921SOL    HW135222   4.347   4.571   4.513 -0.7219  1.5117 -1.0872
 7921SOL    HW235223   4.267   4.507   4.406 -0.0167 -1.9014  0.2496
 7922SOL     OW35224   1.458   3.556   8.578  0.0704 -0.4764  0.5429
 7922SOL    HW135225   1.467   3.461   8.591  0.0140 -0.5879 -0.2402
 7922SOL    HW235226   1.518   3.605   8.634  0.9716  1.5932 -2.2542
 7923SOL     OW35227   2.212   3.951   3.632 -0.1463  0.5554  0.3415
 7923SOL    HW135228   2.214   3.989   3.545 -2.6471  1.6083  0.7367
 7923SOL    HW235229   2.256   3.868   3.615 -1.9820 -0.9851  3.1726
 7924SOL     OW35230   3.523   1.764   9.459  0.4034 -0.0944  0.2680
 7924SOL    HW135231   3.482   1.851   9.456 -1.5343 -0.9944  0.2669
 7924SOL    HW235232   3.607   1.787   9.498 -1.0834  1.3155  2.6489
 7925SOL     OW35233   1.822   1.476   4.520 -0.9006  0.4583  0.1491
 7925SOL    HW135234   1.764   1.489   4.595 -0.0377 -0.1467  0.9092
 7925SOL    HW235235   1.804   1.552   4.464 -0.2528  1.4311  1.2625
 7926SOL     OW35236   1.583   4.148   6.781 -0.0404 -0.2932 -0.3784
 7926SOL    HW135237   1.663   4.183   6.821 -0.7076 -1.1809  1.7757
 7926SOL    HW235238   1.620   4.075   6.731 -0.6472 -0.1899 -0.9806
 7927SOL     OW35239   3.114   1.622   1.666  0.2055 -0.3955 -0.0769
 7927SOL    HW135240   3.136   1.572   1.587  1.5604  1.1085 -0.6402
 7927SOL    HW235241   3.165   1.585   1.738 -2.2736  0.3460  2.0844
 7928SOL     OW35242   3.821   0.317   6.173  0.2028  0.3216  0.2862
 7928SOL    HW135243   3.888   0.306   6.241 -0.0169 -0.5274  0.3586
 7928SOL    HW235244   3.878   0.284   6.104  0.0494  1.8581 -0.5875
 7929SOL     OW35245   3.916   0.665  15.878 -0.2876  0.2846 -0.1693
 7929SOL    HW135246   3.822   0.655  15.863 -0.2681 -0.1187 -0.0385
 7929SOL    HW235247   3.909   0.757  15.903 -1.2543  0.0867  0.2731
 7930SOL     OW35248   3.985   3.499  13.047  0.1347  0.1242  0.3740
 7930SOL    HW135249   3.986   3.568  13.114  0.0884  1.2326 -0.7622
 7930SOL    HW235250   3.895   3.491  13.016  1.1410  1.3966 -2.8676
 7931SOL     OW35251   1.548   3.322   2.723 -0.2378 -0.1880 -0.2081
 7931SOL    HW135252   1.462   3.334   2.763 -0.5542 -0.7891 -0.7190
 7931SOL    HW235253   1.533   3.364   2.639  0.3994 -0.3136 -0.3849
 7932SOL     OW35254   0.704   2.509  10.534 -0.0887  0.1973  0.3295
 7932SOL    HW135255   0.703   2.446  10.606 -0.1709  1.5035  1.4646
 7932SOL    HW235256   0.796   2.501  10.507  0.5283  1.0637  2.1766
 7933SOL     OW35257   2.001   2.457  17.347  0.2682  0.3741 -0.8838
 7933SOL    HW135258   2.085   2.434  17.384 -1.3018 -2.3648  0.9668
 7933SOL    HW235259   1.951   2.474  17.427  1.4211  0.8471 -0.2673
 7934SOL     OW35260   2.571   4.018   3.848  0.0703 -0.3529  0.6208
 7934SOL    HW135261   2.592   3.941   3.900  1.1050 -0.2094  0.4097
 7934SOL    HW235262   2.481   4.028   3.877 -0.6216  0.5163 -1.8405
 7935SOL     OW35263   3.734   3.314   0.356 -0.2901 -0.3155 -0.1859
 7935SOL    HW135264   3.649   3.287   0.320 -0.0258 -0.1900 -0.9201
 7935SOL    HW235265   3.790   3.241   0.329  0.8961  0.5058  0.0950
 7936SOL     OW35266   4.704   4.375   1.313  0.3966  0.0867  0.1262
 7936SOL    HW135267   4.676   4.289   1.282 -0.2010 -0.1488  1.3442
 7936SOL    HW235268   4.637   4.393   1.378 -1.3228 -0.8263 -1.3736
 7937SOL     OW35269   1.916   1.481   1.817 -0.2009  0.3285 -0.4874
 7937SOL    HW135270   1.948   1.412   1.759  2.3636  0.6084  0.6142
 7937SOL    HW235271   1.821   1.466   1.819 -0.4724  1.9605 -0.7467
 7938SOL     OW35272   4.721   0.313   5.278 -0.1638  0.0052  0.1862
 7938SOL    HW135273   0.090   0.307   5.257  0.0307  2.9655  0.2266
 7938SOL    HW235274   4.712   0.218   5.286  2.9201 -0.3267 -0.2888
 7939SOL     OW35275   4.163   3.742   3.154  0.5687 -0.1858  0.1914
 7939SOL    HW135276   4.087   3.704   3.109  0.3481  1.1528 -0.5622
 7939SOL    HW235277   4.159   3.836   3.139 -3.0853 -0.1304  1.6263
 7940SOL     OW35278   0.349   4.187   4.950 -0.1625 -0.2777 -0.9349
 7940SOL    HW135279   0.434   4.172   4.909  0.8301  1.4330  0.5181
 7940SOL    HW235280   0.335   4.280   4.937  1.5220  0.3231  1.5457
 7941SOL     OW35281   1.244   1.150  13.633 -0.6785  0.5686 -0.7652
 7941SOL    HW135282   1.257   1.074  13.689 -3.6380  0.7979  0.2779
 7941SOL    HW235283   1.222   1.210  13.704  0.2571 -1.4925  1.2891
 7942SOL     OW35284   3.107   3.055  17.602  0.5627 -0.7388  0.2677
 7942SOL    HW135285   3.184   3.096  17.562 -0.0282  0.3175  0.2209
 7942SOL    HW235286   3.141   3.057  17.691  0.2562 -0.4621  0.3791
 7943SOL     OW35287   0.403   1.810   3.635  0.1517  1.0304  0.2340
 7943SOL    HW135288   0.401   1.790   3.729 -0.0255 -0.6339 -0.1271
 7943SOL    HW235289   0.381   1.903   3.635 -1.6744  0.5918  0.6809
 7944SOL     OW35290   3.567   0.102   7.287 -0.6099 -0.2327  0.7609
 7944SOL    HW135291   3.506   0.053   7.232 -0.0746 -0.9309  0.7951
 7944SOL    HW235292   3.534   0.078   7.374 -0.3866  2.7553  1.6974
 7945SOL     OW35293   2.525   1.511   4.975  0.0951  0.1000 -0.1012
 7945SOL    HW135294   2.500   1.441   5.036 -0.0960  0.1084 -0.1713
 7945SOL    HW235295   2.617   1.486   4.961 -0.5849 -2.4540 -0.0988
 7946SOL     OW35296   2.221   2.637  12.026 -0.4076 -0.5899  0.2249
 7946SOL    HW135297   2.291   2.592  12.073  0.0816  1.1808  1.1779
 7946SOL    HW235298   2.155   2.572  12.000  0.1388 -0.5290 -1.3070
 7947SOL     OW35299   1.109   2.034  12.964 -0.1028 -0.4853  0.0452
 7947SOL    HW135300   1.054   1.966  12.925  0.2939  0.0351 -1.4474
 7947SOL    HW235301   1.194   2.022  12.921  0.3085 -0.7278  0.9354
 7948SOL     OW35302   2.057   3.751   0.128  0.2379 -0.1913 -0.0075
 7948SOL    HW135303   2.117   3.727   0.058  1.2955  2.5822 -0.0454
 7948SOL    HW235304   2.067   3.846   0.133  1.4234 -0.2449 -1.6548
 7949SOL     OW35305   3.150   1.430   7.080 -0.1685 -0.1769 -0.0010
 7949SOL    HW135306   3.219   1.382   7.125 -1.9300 -2.1311  0.5754
 7949SOL    HW235307   3.141   1.494   7.151 -0.0999  1.3891 -1.4019
 7950SOL     OW35308   1.219   2.571   6.550  0.3116  0.2178 -0.6447
 7950SOL    HW135309   1.185   2.482   6.546 -0.6337  0.4561  2.7434
 7950SOL    HW235310   1.241   2.582   6.642 -1.6777  1.9858 -0.3728
 7951SOL     OW35311   0.392   1.118   4.197  0.1211  0.3567 -0.1162
 7951SOL    HW135312   0.335   1.119   4.120 -1.4052  1.7399  1.0188
 7951SOL    HW235313   0.400   1.024   4.213 -1.4475 -0.4080 -3.8292
 7952SOL     OW35314   1.859   2.809   7.040  0.0893 -0.0680 -0.3683
 7952SOL    HW135315   1.819   2.895   7.057  1.5337  0.2321  1.4760
 7952SOL    HW235316   1.881   2.782   7.128  1.0698 -1.7610 -1.1378
 7953SOL     OW35317   1.916   0.037  14.344  0.4994 -0.2494  0.3470
 7953SOL    HW135318   1.968   0.074  14.416 -2.4784 -1.0525  2.8944
 7953SOL    HW235319   1.953   4.674  14.334  0.3436 -0.0864 -1.6093
 7954SOL     OW35320   4.134   1.653   3.065 -0.0505  0.0641  0.0652
 7954SOL    HW135321   4.146   1.629   3.157  0.2927 -1.2185 -0.3252
 7954SOL    HW235322   4.142   1.749   3.064  2.1796 -0.0919  1.5324
 7955SOL     OW35323   0.261   2.459   8.825 -1.0601  0.0742 -0.1061
 7955SOL    HW135324   0.223   2.403   8.757 -1.4656  0.4133 -0.1598
 7955SOL    HW235325   0.354   2.464   8.803 -0.7492  1.0147  1.4529
 7956SOL     OW35326   4.247   2.548   6.751 -0.1541  0.3167  0.1523
 7956SOL    HW135327   4.259   2.535   6.845  0.0331 -0.9090 -0.0405
 7956SOL    HW235328   4.194   2.473   6.724 -0.4797  0.4000  0.5535
 7957SOL     OW35329   2.120   0.829   3.493 -0.8253 -0.1141 -0.3138
 7957SOL    HW135330   2.054   0.828   3.562  0.9789  1.6260  1.4430
 7957SOL    HW235331   2.104   0.742   3.457 -2.4536 -0.5151  1.4170
 7958SOL     OW35332   0.896   0.064  16.717  0.0323  0.2098 -0.2947
 7958SOL    HW135333   0.874   0.065  16.810 -1.3831 -0.3460 -0.6326
 7958SOL    HW235334   0.838   0.136  16.690 -0.3780  0.9452  2.5014
 7959SOL     OW35335   2.071   1.870   2.763  0.1241 -0.3021  0.3367
 7959SOL    HW135336   2.025   1.786   2.763 -1.8642  0.8047  2.5942
 7959SOL    HW235337   2.122   1.863   2.844  3.3744 -1.8672 -1.8431
 7960SOL     OW35338   1.354   2.373  15.724 -0.3661  0.5777  0.0672
 7960SOL    HW135339   1.432   2.429  15.722 -0.4632  0.6145 -2.0527
 7960SOL    HW235340   1.301   2.419  15.660  0.9971 -0.4462 -1.7931
 7961SOL     OW35341   3.972   3.083  15.543 -0.2537 -0.2754  0.1459
 7961SOL    HW135342   3.879   3.102  15.550 -1.0582 -2.8786 -3.9106
 7961SOL    HW235343   3.969   3.028  15.465 -1.8071  1.4306 -1.0011
 7962SOL     OW35344   3.355   1.068  13.812  0.3913  0.1329  0.2530
 7962SOL    HW135345   3.342   0.986  13.860  1.9801  0.2530  0.9132
 7962SOL    HW235346   3.342   1.127  13.886  0.9044 -1.4012  1.5643
 7963SOL     OW35347   2.970   2.826   8.334 -0.3416  0.0581 -0.0871
 7963SOL    HW135348   3.008   2.757   8.388  1.1515  0.2388 -0.9147
 7963SOL    HW235349   2.940   2.774   8.259 -0.1357  0.1716 -0.2469
 7964SOL     OW35350   0.037   4.429   2.822  0.1806 -0.1298  0.0812
 7964SOL    HW135351   0.077   4.388   2.745 -1.6406  1.2426 -1.5779
 7964SOL    HW235352   4.668   4.413   2.811  0.9850 -2.5504 -3.1388
 7965SOL     OW35353   1.180   2.753   1.608 -0.6045  0.3251 -0.7084
 7965SOL    HW135354   1.229   2.673   1.587  0.1251  0.5216  0.2317
 7965SOL    HW235355   1.117   2.718   1.670 -0.5751  2.7600  0.7139
 7966SOL     OW35356   4.590   2.280  17.377 -0.2030  0.3984  0.2517
 7966SOL    HW135357   4.649   2.347  17.342 -1.0140 -0.5530 -2.9455
 7966SOL    HW235358   4.651   2.217  17.416 -0.5645 -1.1849 -1.7203
 7967SOL     OW35359   3.413   1.373   5.349 -0.1153 -0.3161  0.5621
 7967SOL    HW135360   3.484   1.315   5.321 -0.9590 -0.4710 -1.2036
 7967SOL    HW235361   3.367   1.308   5.402  1.3269 -0.1501  2.0187
 7968SOL     OW35362   0.491   1.744   1.628 -0.0499 -0.4330 -0.3096
 7968SOL    HW135363   0.586   1.738   1.640 -0.2828  0.1486  1.9054
 7968SOL    HW235364   0.482   1.668   1.571 -0.1720 -1.2773  0.8374
 7969SOL     OW35365   1.240   2.497   1.251  0.1001  0.0423 -0.7197
 7969SOL    HW135366   1.280   2.577   1.217 -1.8564 -0.5451 -4.3290
 7969SOL    HW235367   1.307   2.469   1.314 -0.7176 -0.6063 -0.1518
 7970SOL     OW35368   4.265   4.555   8.217  0.2306 -0.5145 -0.2295
 7970SOL    HW135369   4.190   4.609   8.243  2.5673  2.1132  1.0263
 7970SOL    HW235370   4.296   4.598   8.137  1.2676  0.9531  0.9732
 7971SOL     OW35371   3.288   3.950   6.394 -1.2265 -0.0040 -1.0766
 7971SOL    HW135372   3.332   4.018   6.446  0.0023 -1.0963 -0.7145
 7971SOL    HW235373   3.360   3.922   6.338 -1.5402  0.3042 -1.6283
 7972SOL     OW35374   3.544   3.034   5.756  0.2415  0.7904 -0.0833
 7972SOL    HW135375   3.517   3.125   5.753 -1.7136  0.2416  0.4558
 7972SOL    HW235376   3.491   3.012   5.833  1.2498 -1.2844  0.0161
 7973SOL     OW35377   3.711   4.094   2.318 -0.7213  0.3700  0.1665
 7973SOL    HW135378   3.801   4.076   2.344 -0.7703 -0.6949 -0.3826
 7973SOL    HW235379   3.728   4.068   2.228 -1.3348 -2.3600  0.8187
 7974SOL     OW35380   0.050   2.989   5.927 -0.0628 -0.0810  0.3852
 7974SOL    HW135381   4.690   3.033   5.936 -0.7644 -1.5491  0.8771
 7974SOL    HW235382   0.086   3.034   5.850  1.9215  0.0516  1.3914
 7975SOL     OW35383   1.439   2.389   9.387 -0.4688  0.1409 -0.1893
 7975SOL    HW135384   1.447   2.321   9.321 -0.9071  0.0958 -0.1961
 7975SOL    HW235385   1.352   2.370   9.421 -0.3811 -1.6282 -0.9309
 7976SOL     OW35386   3.030   4.011  10.785 -0.5216  0.2446 -0.0834
 7976SOL    HW135387   2.959   3.962  10.745 -1.5518  1.2670  0.5043
 7976SOL    HW235388   3.083   3.931  10.787 -0.1430  0.4683 -0.7972
 7977SOL     OW35389   3.851   1.551   9.572  0.0038 -0.5204  0.1930
 7977SOL    HW135390   3.834   1.499   9.493  0.1041 -2.0128  1.1494
 7977SOL    HW235391   3.947   1.560   9.574 -0.0896  0.6237 -0.9367
 7978SOL     OW35392   4.666   0.516   2.323  0.5316  0.3520 -0.1822
 7978SOL    HW135393   4.701   0.449   2.383  0.2453  1.1972  0.9215
 7978SOL    HW235394   4.690   0.601   2.359 -0.4950  0.9110 -0.8406
 7979SOL     OW35395   3.940   3.035   4.480  0.2664  0.8314  0.0339
 7979SOL    HW135396   4.026   3.049   4.521 -0.1687  1.8962  0.5926
 7979SOL    HW235397   3.893   3.008   4.559  1.5035 -1.6184 -0.0575
 7980SOL     OW35398   2.577   3.706  16.776  0.2570  0.0380 -0.5013
 7980SOL    HW135399   2.591   3.756  16.857 -3.8170 -0.8644  0.7347
 7980SOL    HW235400   2.484   3.686  16.781  0.1891  0.1494 -1.3487
 7981SOL     OW35401   0.454   1.341  12.095 -0.1855  0.4191  0.0758
 7981SOL    HW135402   0.499   1.296  12.166  0.9692 -0.3838 -1.1880
 7981SOL    HW235403   0.365   1.344  12.131  0.4535 -2.2150  1.7898
 7982SOL     OW35404   4.440   1.751   3.469 -0.1158  0.3245 -0.2417
 7982SOL    HW135405   4.356   1.731   3.510  0.6658  0.7846  1.5816
 7982SOL    HW235406   4.417   1.788   3.384 -0.0251  0.1823 -0.3293
 7983SOL     OW35407   0.820   4.194  16.632  0.5509  0.0408 -0.7347
 7983SOL    HW135408   0.740   4.246  16.630  2.1226  2.5339  1.1847
 7983SOL    HW235409   0.784   4.107  16.612 -0.1738  0.7914 -2.6777
 7984SOL     OW35410   1.402   3.243   1.990 -0.8645  0.3651 -0.1146
 7984SOL    HW135411   1.481   3.204   2.029 -0.2305  1.7263 -0.0049
 7984SOL    HW235412   1.327   3.208   2.037 -1.0492  1.8639  0.7217
 7985SOL     OW35413   1.663   1.972   7.083 -0.2809 -0.2515  0.3197
 7985SOL    HW135414   1.631   2.002   7.168  2.4291  1.0468  0.8763
 7985SOL    HW235415   1.665   1.877   7.097 -0.4882 -0.3980 -0.6376
 7986SOL     OW35416   0.005   1.226   4.643  0.5228  0.1067 -0.2674
 7986SOL    HW135417   0.037   1.267   4.723 -0.0628 -0.5391  0.2896
 7986SOL    HW235418   4.656   1.176   4.677  0.6063  0.2525  0.1243
 7987SOL     OW35419   2.016   1.037   6.505 -0.5382 -0.4128 -0.1793
 7987SOL    HW135420   2.048   1.109   6.451  1.3539 -2.4290 -1.7708
 7987SOL    HW235421   2.087   0.973   6.495 -0.3214 -0.2978  0.6408
 7988SOL     OW35422   0.211   4.530   9.570 -0.3800 -0.0779 -0.1433
 7988SOL    HW135423   0.183   4.622   9.567 -1.1972 -0.3110  0.2168
 7988SOL    HW235424   0.245   4.525   9.659 -0.3433  1.7587 -0.0594
 7989SOL     OW35425   1.486   3.539   4.961  0.1522 -0.5898 -0.3798
 7989SOL    HW135426   1.428   3.613   4.978 -1.7622 -2.8171  2.7178
 7989SOL    HW235427   1.492   3.509   5.051 -3.6311  0.5738  0.2692
 7990SOL     OW35428   0.210   3.664   7.116 -0.0743  0.0837  0.0110
 7990SOL    HW135429   0.255   3.604   7.057  0.5975 -0.3236  0.9403
 7990SOL    HW235430   0.285   3.701   7.163  0.1857 -1.3396  0.7052
 7991SOL     OW35431   0.428   4.287   6.185  0.4679 -0.0463 -0.1765
 7991SOL    HW135432   0.524   4.289   6.188  0.3938  1.3276  1.6263
 7991SOL    HW235433   0.409   4.259   6.275 -3.7328  1.2207 -0.6709
 7992SOL     OW35434   4.124   0.491  11.374  0.2929  0.4507 -0.3582
 7992SOL    HW135435   4.137   0.397  11.383 -0.0927  0.4564  0.2841
 7992SOL    HW235436   4.146   0.507  11.282 -2.2143  1.1905 -0.8234
 7993SOL     OW35437   2.598   4.562   5.898  0.5907 -0.2237 -0.2935
 7993SOL    HW135438   2.543   4.634   5.867 -0.1237 -0.5200  0.2694
 7993SOL    HW235439   2.530   4.510   5.942  0.2830  0.3878 -0.0357
 7994SOL     OW35440   1.456   1.388   7.946 -0.0116  0.3324 -0.3542
 7994SOL    HW135441   1.460   1.483   7.941  2.1389  0.3303  1.0530
 7994SOL    HW235442   1.514   1.381   8.022  1.4297 -2.4122 -1.7116
 7995SOL     OW35443   2.089   2.285  10.351 -0.4650 -0.2425 -0.2888
 7995SOL    HW135444   2.115   2.290  10.259 -0.7402 -3.7819 -0.5335
 7995SOL    HW235445   2.095   2.192  10.372  0.0181 -0.0564  0.4153
 7996SOL     OW35446   1.100   1.500   1.384  0.1191  0.1166 -0.0497
 7996SOL    HW135447   1.023   1.452   1.415 -0.3860  0.2430 -1.1004
 7996SOL    HW235448   1.078   1.522   1.293  0.6752  2.6833  0.4310
 7997SOL     OW35449   2.712   0.612   0.514 -0.1544  0.5291 -0.2716
 7997SOL    HW135450   2.696   0.550   0.586  0.0589  2.2458  1.2313
 7997SOL    HW235451   2.736   0.690   0.563  0.4279 -0.6330  1.3188
 7998SOL     OW35452   0.768   0.703   9.474  0.1113 -0.2459 -0.0951
 7998SOL    HW135453   0.756   0.765   9.547  1.4460  0.9632 -0.9112
 7998SOL    HW235454   0.684   0.658   9.466 -0.5382  0.7615  0.9770
 7999SOL     OW35455   4.350   3.028  10.932 -0.0829  0.0615 -0.2708
 7999SOL    HW135456   4.273   3.075  10.902 -0.2550 -0.6365 -0.9410
 7999SOL    HW235457   4.319   3.002  11.019 -0.1949  1.1755  0.0129
 8000SOL     OW35458   2.833   4.692   1.104  0.0963  0.2267  0.3058
 8000SOL    HW135459   2.833   4.710   1.010  0.0026 -2.1919 -0.1516
 8000SOL    HW235460   2.928   4.692   1.112  0.0997 -1.2535  0.1277
 8001SOL     OW35461   0.981   4.408   4.971 -0.0361  0.4540  0.0888
 8001SOL    HW135462   1.007   4.479   4.912  0.8983  0.4763  0.5263
 8001SOL    HW235463   0.957   4.461   5.047 -0.2941  3.1276 -1.8527
 8002SOL     OW35464   3.385   1.733   4.861 -0.3431 -0.2434  0.0850
 8002SOL    HW135465   3.362   1.642   4.879  0.1335 -0.1562  1.1258
 8002SOL    HW235466   3.430   1.752   4.943 -1.1854  1.3327  0.1881
 8003SOL     OW35467   0.416   0.859   1.827 -0.2987 -0.3635  0.2405
 8003SOL    HW135468   0.361   0.864   1.905 -2.8153 -0.5280 -1.5623
 8003SOL    HW235469   0.394   0.771   1.797  0.0502 -0.4019  0.0909
 8004SOL     OW35470   0.003   1.966   9.103  0.0222 -0.5763 -0.2405
 8004SOL    HW135471   4.690   1.969   9.191  0.7529  2.4811 -0.0395
 8004SOL    HW235472   4.652   1.997   9.054  0.8270  0.6349 -0.7089
 8005SOL     OW35473   1.753   3.358   5.434  0.2599 -0.1108 -0.1231
 8005SOL    HW135474   1.836   3.388   5.471  0.7668 -0.2607 -1.1456
 8005SOL    HW235475   1.722   3.292   5.496  1.5358 -1.4813 -0.9706
 8006SOL     OW35476   4.444   4.150   4.279 -0.0957 -0.7572  0.8769
 8006SOL    HW135477   4.383   4.197   4.336 -2.6489 -0.6631 -1.9319
 8006SOL    HW235478   4.441   4.205   4.201 -1.8348 -3.2402 -0.7774
 8007SOL     OW35479   0.945   3.415   4.169  0.3281 -0.9031 -0.6723
 8007SOL    HW135480   0.860   3.373   4.178 -0.0066 -0.3986 -1.5344
 8007SOL    HW235481   0.919   3.488   4.226  1.5552 -0.0526 -1.2197
 8008SOL     OW35482   3.263   4.611  10.471  0.4293  0.4642  0.5239
 8008SOL    HW135483   3.329   4.543  10.467 -0.3024 -0.2528  0.6923
 8008SOL    HW235484   3.320   4.688  10.466  0.2171  0.6960  1.6238
 8009SOL     OW35485   1.972   2.270  12.222 -0.1713  0.6281 -0.5629
 8009SOL    HW135486   1.932   2.191  12.186  0.8372 -0.4439  0.7191
 8009SOL    HW235487   2.032   2.302  12.154 -1.0440  2.6703 -0.3625
 8010SOL     OW35488   4.046   4.620   2.696 -0.4735 -0.1127 -0.1317
 8010SOL    HW135489   4.010   4.677   2.763  0.0035  0.7573 -0.6244
 8010SOL    HW235490   3.989   4.544   2.685 -0.7777  0.2434 -1.0244
 8011SOL     OW35491   3.880   2.921   3.630 -0.2076 -0.0552 -0.1614
 8011SOL    HW135492   3.881   2.960   3.542 -0.6894  3.1353  1.2255
 8011SOL    HW235493   3.929   2.841   3.610  1.2503  0.7719  0.1154
 8012SOL     OW35494   1.415   3.448  14.233  0.1343  0.0042 -0.2124
 8012SOL    HW135495   1.414   3.542  14.251  0.5208 -0.0149 -0.0774
 8012SOL    HW235496   1.364   3.443  14.152  1.0957  0.0098 -0.8277
 8013SOL     OW35497   2.602   2.369   3.414  0.2980 -0.0357 -0.3229
 8013SOL    HW135498   2.629   2.375   3.505  0.4234  0.8798 -0.4203
 8013SOL    HW235499   2.683   2.352   3.366 -0.5783  0.0521 -1.8453
 8014SOL     OW35500   1.219   2.821   3.320 -0.3859 -0.2744  0.1453
 8014SOL    HW135501   1.291   2.770   3.281  0.1348  1.2615 -0.8781
 8014SOL    HW235502   1.160   2.746   3.326 -0.3616 -0.4824 -2.2414
 8015SOL     OW35503   4.448   3.353   9.643  0.3865  0.6539 -0.1684
 8015SOL    HW135504   4.535   3.393   9.638  1.5390 -1.3241  3.2953
 8015SOL    HW235505   4.398   3.432   9.664 -0.4999  0.4971 -1.7305
 8016SOL     OW35506   3.271   3.599   1.820 -0.2916 -0.1561  0.3331
 8016SOL    HW135507   3.231   3.563   1.899 -2.9215  1.8587 -0.0724
 8016SOL    HW235508   3.276   3.690   1.852 -0.7547 -0.8959  2.4894
 8017SOL     OW35509   2.759   3.763   5.925 -0.0733  0.6994 -0.5072
 8017SOL    HW135510   2.832   3.819   5.951  1.1477 -0.9093 -0.5362
 8017SOL    HW235511   2.785   3.676   5.955  0.4954  0.0609 -2.8574
 8018SOL     OW35512   1.314   1.171   1.004  0.4079 -0.3701  0.3612
 8018SOL    HW135513   1.242   1.108   0.992  0.3302 -0.2887  0.4002
 8018SOL    HW235514   1.309   1.176   1.099 -0.9632  0.0335  0.2668
 8019SOL     OW35515   2.027   2.459  11.486 -0.7077 -0.5134  0.7365
 8019SOL    HW135516   2.055   2.471  11.395  1.6975 -1.6039  1.3218
 8019SOL    HW235517   1.988   2.545  11.495  0.3213  0.0920 -0.6110
 8020SOL     OW35518   4.579   0.507   3.584  0.0944 -0.3923 -0.1525
 8020SOL    HW135519   4.557   0.425   3.628  1.8854 -1.0096 -0.4122
 8020SOL    HW235520   4.570   0.476   3.494  4.0737 -4.0107  0.7264
 8021SOL     OW35521   1.681   4.539   9.981 -0.0309 -0.2852  0.3134
 8021SOL    HW135522   1.609   4.600   9.963 -0.3060 -0.6703  0.1044
 8021SOL    HW235523   1.628   4.465  10.011  0.1273 -0.5339 -0.0190
 8022SOL     OW35524   2.873   0.428   5.965  0.4335 -0.3622 -0.0727
 8022SOL    HW135525   2.848   0.506   6.014 -0.3042 -1.4956  1.3351
 8022SOL    HW235526   2.962   0.455   5.940  1.1428 -1.4033  1.2982
 8023SOL     OW35527   0.213   2.136  10.539 -0.0337 -0.1976 -0.1456
 8023SOL    HW135528   0.304   2.144  10.569  0.2107 -2.2334 -0.3479
 8023SOL    HW235529   0.185   2.227  10.553 -1.8265 -0.8859  0.7974
 8024SOL     OW35530   2.906   0.864  13.336 -0.8791 -0.3181  0.4383
 8024SOL    HW135531   2.826   0.896  13.292 -0.8786 -0.8719  0.0408
 8024SOL    HW235532   2.945   0.950  13.354 -0.4374  0.1103 -2.5914
 8025SOL     OW35533   1.610   2.026  11.692 -0.1073  0.1709  0.5568
 8025SOL    HW135534   1.585   2.045  11.602  2.5127  2.1295  0.2412
 8025SOL    HW235535   1.670   1.954  11.672 -0.9106  0.1487 -1.6843
 8026SOL     OW35536   0.668   0.777   7.214  0.1207  0.1765  0.3439
 8026SOL    HW135537   0.739   0.785   7.278  0.5114  2.4120 -0.3599
 8026SOL    HW235538   0.595   0.731   7.255 -0.4867  3.0867  2.5512
 8027SOL     OW35539   1.107   2.684   4.985 -0.6081 -0.3461 -0.1246
 8027SOL    HW135540   1.164   2.620   4.944  0.9054  1.1653 -0.3767
 8027SOL    HW235541   1.027   2.669   4.933  0.2342  1.2369 -1.9003
 8028SOL     OW35542   4.082   1.028   8.148 -1.0267 -0.0467 -0.0554
 8028SOL    HW135543   4.076   1.118   8.179 -0.6411  0.7274 -2.2512
 8028SOL    HW235544   4.051   1.046   8.060 -0.0691  1.5903 -0.0564
 8029SOL     OW35545   2.085   0.182   1.495 -0.1049  0.4427  0.7892
 8029SOL    HW135546   2.121   0.269   1.515  1.4132 -0.3225  1.3798
 8029SOL    HW235547   2.104   0.186   1.401 -0.4971 -0.3726  0.6787
 8030SOL     OW35548   4.233   2.829   6.222  0.7167 -0.1750 -0.4150
 8030SOL    HW135549   4.142   2.856   6.232  0.4144 -1.8569  1.4961
 8030SOL    HW235550   4.242   2.758   6.286  0.4109 -0.1148 -0.3060
 8031SOL     OW35551   1.913   3.871   4.782 -0.1544 -0.1959  0.2203
 8031SOL    HW135552   1.936   3.844   4.871 -4.0279  0.1787  1.3487
 8031SOL    HW235553   1.894   3.964   4.793  1.0977  0.1211 -0.3410
 8032SOL     OW35554   0.066   1.699  10.960  0.2667  0.0860  0.0382
 8032SOL    HW135555   0.142   1.667  10.913 -0.3080 -1.4738  0.1762
 8032SOL    HW235556   0.084   1.718  11.052 -0.5632  0.7623  0.0634
 8033SOL     OW35557   1.091   3.429   2.939 -0.2059 -0.2783  0.6114
 8033SOL    HW135558   1.042   3.369   2.996  1.0378 -0.1139  1.8554
 8033SOL    HW235559   1.155   3.463   3.001  1.5910 -0.1089 -1.3265
 8034SOL     OW35560   2.193   0.908   5.433 -0.2952  0.1702  0.3877
 8034SOL    HW135561   2.247   0.833   5.409 -0.4227 -0.6529  2.7449
 8034SOL    HW235562   2.115   0.889   5.380 -0.6075  2.1296  0.1602
 8035SOL     OW35563   0.951   0.673  16.136  0.1877 -0.3145 -0.1269
 8035SOL    HW135564   0.999   0.693  16.056  0.2709  0.2967  0.0748
 8035SOL    HW235565   0.970   0.756  16.181 -2.6255  1.3993 -2.0784
 8036SOL     OW35566   1.438   4.438   5.767 -0.0017  0.2367 -0.1915
 8036SOL    HW135567   1.463   4.483   5.687 -3.0732 -0.1933 -1.3504
 8036SOL    HW235568   1.449   4.505   5.835 -0.1734  0.5257 -0.4526
 8037SOL     OW35569   0.072   4.309   3.633 -0.3950  1.0257 -0.0443
 8037SOL    HW135570   0.130   4.385   3.625  0.1506  0.6959  0.7617
 8037SOL    HW235571   0.051   4.295   3.540 -0.7122 -0.9829  0.3147
 8038SOL     OW35572   0.392   1.800  11.222 -0.8199 -0.0807  0.6457
 8038SOL    HW135573   0.458   1.847  11.171 -1.3047 -1.6435 -1.4664
 8038SOL    HW235574   0.431   1.770  11.303 -0.6326 -0.1665  0.5236
 8039SOL     OW35575   1.887   2.988   7.366  0.3842 -0.5346 -0.0049
 8039SOL    HW135576   1.971   2.943   7.370  1.6952  2.2037  3.5540
 8039SOL    HW235577   1.822   2.918   7.357  2.5405 -2.6801  1.1989
 8040SOL     OW35578   1.706   1.526   4.021 -0.1855 -0.1734 -0.4347
 8040SOL    HW135579   1.688   1.562   3.934  1.9620 -3.7147 -2.3275
 8040SOL    HW235580   1.801   1.536   4.019 -0.3217  0.8373 -1.7765
 8041SOL     OW35581   1.279   4.695   4.973  0.2029  0.5307 -0.0508
 8041SOL    HW135582   1.284   0.064   4.992  1.8061 -0.2042  3.1412
 8041SOL    HW235583   1.359   4.690   4.922  1.0829 -0.1601  1.3948
 8042SOL     OW35584   0.413   2.722  16.709  0.2196 -0.3327  0.5053
 8042SOL    HW135585   0.393   2.725  16.615  1.3400 -1.9552  0.2228
 8042SOL    HW235586   0.438   2.814  16.723  0.0395 -0.2261  0.1366
 8043SOL     OW35587   2.412   1.881   2.816 -0.0070  0.2501 -0.3146
 8043SOL    HW135588   2.355   1.850   2.886  0.9138 -1.5668 -0.3785
 8043SOL    HW235589   2.491   1.919   2.855 -0.3505  1.3466 -0.6785
 8044SOL     OW35590   2.071   1.305   5.005 -0.0548 -0.1794  0.0337
 8044SOL    HW135591   2.123   1.281   4.928 -1.1184  0.3472 -0.8662
 8044SOL    HW235592   2.133   1.308   5.078  0.3211 -4.1246 -0.1313
 8045SOL     OW35593   1.983   2.911  10.347  0.3447  0.2789 -0.7814
 8045SOL    HW135594   1.920   2.841  10.332 -1.0964  1.5588 -0.6852
 8045SOL    HW235595   1.932   2.992  10.347 -0.0113  0.0614  0.6333
 8046SOL     OW35596   4.661   3.223  17.137  0.1039 -0.1535  0.3435
 8046SOL    HW135597   4.658   3.177  17.054  2.4654 -1.9225  1.2339
 8046SOL    HW235598   0.017   3.186  17.172 -0.2757 -1.2299  0.0980
 8047SOL     OW35599   0.911   2.639   9.993 -0.3509  0.7877 -0.0000
 8047SOL    HW135600   0.855   2.663  10.067  0.1939  0.6898  0.4406
 8047SOL    HW235601   0.998   2.640  10.033 -0.9717 -0.9547  1.3628
 8048SOL     OW35602   1.161   1.585   1.045 -0.1209 -0.5465 -0.3220
 8048SOL    HW135603   1.107   1.585   0.965  1.0664  1.1032 -1.1213
 8048SOL    HW235604   1.241   1.539   1.021  1.4189  2.2174 -0.4750
 8049SOL     OW35605   2.659   4.501  14.559  0.1683  0.1449  0.5923
 8049SOL    HW135606   2.640   4.487  14.651  0.0282  1.8063  0.8132
 8049SOL    HW235607   2.641   4.594  14.545  0.6804  0.5789  2.8292
 8050SOL     OW35608   3.727   0.861   8.457 -0.3518 -0.4511  0.0051
 8050SOL    HW135609   3.663   0.799   8.491 -0.7314 -1.1333 -1.9940
 8050SOL    HW235610   3.803   0.809   8.481  0.9645  1.6457  0.3969
 8051SOL     OW35611   2.199   4.506   5.212 -0.4650 -0.2623 -0.5158
 8051SOL    HW135612   2.167   4.485   5.299  1.5395 -0.5500  0.1548
 8051SOL    HW235613   2.250   4.587   5.217  0.4283 -0.9152  0.9014
 8052SOL     OW35614   2.453   1.351   8.614  0.2682 -0.1419  0.0963
 8052SOL    HW135615   2.374   1.403   8.630 -0.1458 -1.3521  2.0482
 8052SOL    HW235616   2.423   1.261   8.602  0.2230 -0.0151 -0.7357
 8053SOL     OW35617   3.318   1.506   4.971 -0.5821 -0.1863 -0.3067
 8053SOL    HW135618   3.263   1.528   5.046 -0.6675 -0.6711 -0.2250
 8053SOL    HW235619   3.292   1.415   4.956 -2.2818  0.4416 -1.1729
 8054SOL     OW35620   2.793   0.570  12.224 -0.1650 -0.3405 -0.7387
 8054SOL    HW135621   2.754   0.504  12.166 -1.8528  0.9554 -1.0722
 8054SOL    HW235622   2.884   0.544  12.207 -0.5965 -0.7386 -2.4629
 8055SOL     OW35623   1.785   4.402   5.587 -0.1122 -0.8897 -0.4163
 8055SOL    HW135624   1.728   4.479   5.587  0.6189 -0.3365  1.0201
 8055SOL    HW235625   1.725   4.338   5.549 -0.0239 -0.9383 -0.4732
 8056SOL     OW35626   4.249   0.296   0.438 -0.4288 -0.2520 -0.1937
 8056SOL    HW135627   4.288   0.216   0.403 -1.5269 -1.1945  0.7160
 8056SOL    HW235628   4.185   0.318   0.371  0.7398  2.6059 -0.3650
 8057SOL     OW35629   2.249   1.000  17.186  0.5344 -0.1238  0.4730
 8057SOL    HW135630   2.170   1.052  17.173  0.8937  0.3442  0.1795
 8057SOL    HW235631   2.281   0.991  17.096  1.2852 -2.1889  0.9434
 8058SOL     OW35632   1.644   3.264   8.575 -0.1788 -0.0775 -0.2866
 8058SOL    HW135633   1.666   3.254   8.482 -0.8969  0.0278 -0.4650
 8058SOL    HW235634   1.681   3.181   8.606 -1.0541 -0.1485  0.5756
 8059SOL     OW35635   0.386   3.832   8.514 -0.3057 -0.2806  0.1582
 8059SOL    HW135636   0.382   3.864   8.605 -0.5919 -1.2199  0.4699
 8059SOL    HW235637   0.480   3.828   8.500 -0.3913 -2.6573  0.3488
 8060SOL     OW35638   3.960   3.123   2.261 -0.1978  0.8883 -0.5751
 8060SOL    HW135639   3.918   3.040   2.241 -0.2538  0.2097  2.3437
 8060SOL    HW235640   4.031   3.126   2.196  0.4629 -1.9341 -0.0069
 8061SOL     OW35641   3.683   4.044   9.602  0.6625  0.1051 -0.4729
 8061SOL    HW135642   3.591   4.062   9.621  1.2427  1.6648  0.7896
 8061SOL    HW235643   3.729   4.124   9.627 -0.0090 -0.5736  2.9320
 8062SOL     OW35644   0.719   3.296   9.021  0.0115 -0.1810  0.6765
 8062SOL    HW135645   0.662   3.221   9.039 -1.1837  0.3763 -0.7539
 8062SOL    HW235646   0.768   3.264   8.946  0.9666 -1.0317  1.6523
 8063SOL     OW35647   1.986   0.473   3.047 -0.4396 -0.4994 -0.0590
 8063SOL    HW135648   1.891   0.465   3.038 -0.3188 -1.5156 -0.3645
 8063SOL    HW235649   1.999   0.566   3.066  0.6100 -0.1819 -2.4195
 8064SOL     OW35650   2.803   0.031   4.142 -0.3487  0.3144  0.0342
 8064SOL    HW135651   2.868   4.691   4.115 -0.0275 -0.4336  2.5183
 8064SOL    HW235652   2.758   4.720   4.219 -0.8179  1.2232  0.1758
 8065SOL     OW35653   3.055   2.773  13.240  0.2003 -0.0753 -0.1317
 8065SOL    HW135654   3.043   2.863  13.272 -1.5792 -1.1151  2.0504
 8065SOL    HW235655   3.131   2.797  13.186  1.7938 -1.9520  1.2833
 8066SOL     OW35656   0.086   2.754   3.459 -0.2452  0.0437 -0.2878
 8066SOL    HW135657   0.101   2.833   3.407  0.1273  0.6647  0.7712
 8066SOL    HW235658   0.173   2.732   3.491 -0.1180 -0.8851 -1.2505
 8067SOL     OW35659   3.616   3.360   5.262 -0.7686 -0.5961 -0.1731
 8067SOL    HW135660   3.561   3.290   5.297 -1.1267  0.1076  0.6675
 8067SOL    HW235661   3.633   3.322   5.176  0.9783 -0.5238  0.1466
 8068SOL     OW35662   1.355   2.803   3.788  0.2800 -0.2950 -0.1167
 8068SOL    HW135663   1.295   2.809   3.862 -0.3511  1.0679 -0.7314
 8068SOL    HW235664   1.377   2.896   3.783 -2.4812  0.2893 -2.0184
 8069SOL     OW35665   0.533   3.530   8.779  0.4862  0.6795 -0.2599
 8069SOL    HW135666   0.572   3.598   8.834  0.3641 -1.1648  2.1384
 8069SOL    HW235667   0.499   3.580   8.705 -0.6351 -0.3418 -0.4298
 8070SOL     OW35668   3.885   1.326   4.651 -0.7410  0.3684 -0.3383
 8070SOL    HW135669   3.974   1.310   4.681 -1.5929 -2.2892  0.7539
 8070SOL    HW235670   3.862   1.244   4.606 -0.8896  0.9542 -1.3441
 8071SOL     OW35671   2.716   0.468   4.728  0.3769  0.3149 -0.0295
 8071SOL    HW135672   2.721   0.498   4.819 -3.5015  0.3088  0.2044
 8071SOL    HW235673   2.711   0.547   4.675  2.6230 -0.2821 -1.1208
 8072SOL     OW35674   1.088   3.387   5.358  0.2871 -0.2749 -0.2433
 8072SOL    HW135675   1.175   3.359   5.330  1.6760  0.6698  3.1537
 8072SOL    HW235676   1.032   3.363   5.285 -0.7479  0.1592  0.4089
 8073SOL     OW35677   1.914   2.711   8.084  0.2564  0.2785 -0.0025
 8073SOL    HW135678   1.975   2.642   8.109 -1.0810 -0.6124  0.8014
 8073SOL    HW235679   1.839   2.657   8.060  0.7916 -0.1618 -0.6803
 8074SOL     OW35680   0.673   3.185  15.428 -0.4759  0.4485 -0.3304
 8074SOL    HW135681   0.719   3.230  15.357  1.9334 -0.3120  0.7337
 8074SOL    HW235682   0.598   3.243  15.439 -0.0496  1.0790 -0.7260
 8075SOL     OW35683   0.691   0.561   5.709 -0.3337 -0.0891  0.5235
 8075SOL    HW135684   0.619   0.569   5.646 -1.6837  1.3518  2.2455
 8075SOL    HW235685   0.709   0.467   5.704  0.9160  0.1180  1.2839
 8076SOL     OW35686   2.921   3.186   2.811 -0.1575  1.0256 -0.1978
 8076SOL    HW135687   2.990   3.122   2.823  0.5231  2.0147  1.2304
 8076SOL    HW235688   2.889   3.200   2.900 -1.2901 -2.6080 -0.0419
 8077SOL     OW35689   1.767   3.868  13.182  0.3794  0.9462 -0.2244
 8077SOL    HW135690   1.768   3.963  13.191  0.0138  1.0296 -1.0746
 8077SOL    HW235691   1.843   3.838  13.231  0.6640 -0.5758 -1.5940
 8078SOL     OW35692   1.067   4.638   0.700  0.2656 -0.1976  0.1492
 8078SOL    HW135693   1.055   4.625   0.794 -2.0548  1.4031  0.0486
 8078SOL    HW235694   1.031   4.556   0.667 -0.2288  0.5748 -1.2265
 8079SOL     OW35695   2.161   3.225   7.771  0.3348 -0.3688 -0.8155
 8079SOL    HW135696   2.066   3.236   7.770  0.4622  0.7464  0.2229
 8079SOL    HW235697   2.190   3.305   7.728 -1.5141 -0.3376 -2.0081
 8080SOL     OW35698   1.462   3.060  15.282  0.0943 -0.3350  0.0598
 8080SOL    HW135699   1.444   2.966  15.287 -0.2019 -0.3436 -1.0813
 8080SOL    HW235700   1.423   3.093  15.202 -0.4748 -1.6810 -0.2243
 8081SOL     OW35701   2.244   3.575  11.253 -0.4352 -0.3660 -0.2232
 8081SOL    HW135702   2.167   3.610  11.208  0.7459  1.1520 -1.0781
 8081SOL    HW235703   2.259   3.486  11.223 -2.7702 -0.9913  0.4997
 8082SOL     OW35704   0.040   3.495   4.620  0.0438  0.7156  0.1325
 8082SOL    HW135705   0.036   3.588   4.642  1.3383  0.2548  2.3240
 8082SOL    HW235706   0.120   3.484   4.672 -1.3941  0.1306  2.1933
 8083SOL     OW35707   0.970   3.811   7.268 -0.1140 -0.0351  0.1051
 8083SOL    HW135708   0.894   3.754   7.261 -0.8746  1.1278 -1.0866
 8083SOL    HW235709   1.028   3.779   7.199 -1.4901 -0.7549 -0.7104
 8084SOL     OW35710   1.739   2.155   8.475 -0.5138 -0.4356  0.3907
 8084SOL    HW135711   1.657   2.197   8.500 -0.2249  0.1082  0.4389
 8084SOL    HW235712   1.755   2.109   8.558 -1.3801 -2.1789 -0.4129
 8085SOL     OW35713   4.094   4.628  13.401 -0.2389 -0.6314  0.2810
 8085SOL    HW135714   4.134   4.714  13.400 -2.1992  0.2830  0.0757
 8085SOL    HW235715   4.142   4.591  13.476  1.3349 -0.5610 -0.6938
 8086SOL     OW35716   3.906   0.583   8.956  0.5208 -0.1904 -0.1089
 8086SOL    HW135717   3.895   0.507   9.014  0.3778 -0.2078 -0.1607
 8086SOL    HW235718   3.822   0.588   8.912  0.0455 -0.0420  0.8018
 8087SOL     OW35719   4.154   3.959   2.124 -0.3281  0.3402  0.2632
 8087SOL    HW135720   4.213   3.887   2.103  0.3260  0.6730  0.9395
 8087SOL    HW235721   4.086   3.954   2.057 -0.4909  0.0173  0.4544
 8088SOL     OW35722   0.951   4.262   3.829 -0.2032 -0.1121 -0.7682
 8088SOL    HW135723   0.996   4.245   3.746  1.1606 -0.2700 -0.0035
 8088SOL    HW235724   0.968   4.186   3.885 -2.2455 -0.0298 -0.0548
 8089SOL     OW35725   3.031   3.590  10.737  0.0453 -0.3498 -0.0545
 8089SOL    HW135726   3.020   3.654  10.666 -0.5724 -0.8267 -0.3868
 8089SOL    HW235727   2.973   3.613  10.809  0.1570 -1.7895  0.4913
 8090SOL     OW35728   2.924   4.637   6.610 -0.7254 -0.5224  0.2713
 8090SOL    HW135729   2.898   4.574   6.677 -1.1627  0.6262  1.1777
 8090SOL    HW235730   2.854   4.627   6.545  0.6273 -1.0149 -1.1196
 8091SOL     OW35731   2.246   2.611   7.396  0.6574  0.5558 -0.1240
 8091SOL    HW135732   2.327   2.636   7.352  0.9125  0.0568  0.0675
 8091SOL    HW235733   2.285   2.554   7.462 -0.0996 -0.1154 -0.2667
 8092SOL     OW35734   3.970   1.452   8.934 -0.1785  0.1565 -0.1100
 8092SOL    HW135735   3.939   1.363   8.951  1.5949  0.0874  2.8266
 8092SOL    HW235736   3.886   1.494   8.917 -1.4670 -1.6614  1.7399
 8093SOL     OW35737   3.300   2.718  13.036 -0.4952 -0.1275  0.4063
 8093SOL    HW135738   3.304   2.813  13.025 -1.2615 -0.2011 -0.4913
 8093SOL    HW235739   3.386   2.707  13.077 -0.6276  1.2494  1.0581
 8094SOL     OW35740   0.436   1.379   1.557  0.4329 -0.0756 -0.5442
 8094SOL    HW135741   0.500   1.385   1.628  0.2796  0.0387 -0.4155
 8094SOL    HW235742   0.372   1.319   1.593 -0.1456  2.0697  2.0401
 8095SOL     OW35743   2.657   4.139   7.339  0.1917 -0.3949  0.1037
 8095SOL    HW135744   2.692   4.073   7.279 -2.7549 -0.7680 -1.2484
 8095SOL    HW235745   2.668   4.216   7.281  2.0122 -0.1523  0.7728
 8096SOL     OW35746   0.677   0.042   6.871  0.2241 -0.1141  0.4429
 8096SOL    HW135747   0.662   0.132   6.841  1.9095 -0.2155 -0.6837
 8096SOL    HW235748   0.673   0.065   6.964  3.1058 -0.5382  0.6457
 8097SOL     OW35749   4.106   3.155   6.145  0.0998 -0.0793 -0.1236
 8097SOL    HW135750   4.014   3.128   6.148  0.4955 -1.5391 -1.4607
 8097SOL    HW235751   4.102   3.235   6.198  0.8417 -2.4739  3.4840
 8098SOL     OW35752   0.702   3.118   4.903  0.0809 -0.0331  0.8218
 8098SOL    HW135753   0.669   3.028   4.902 -1.6062  0.5879  0.4734
 8098SOL    HW235754   0.790   3.117   4.942 -0.8730 -0.9829  2.9808
 8099SOL     OW35755   0.669   0.561   0.783 -0.4787 -0.0877  0.0115
 8099SOL    HW135756   0.687   0.654   0.768  0.0851 -0.4247 -1.3222
 8099SOL    HW235757   0.751   0.548   0.830 -0.5670  0.2760  0.2688
 8100SOL     OW35758   4.148   1.498  13.833 -0.2192  0.0328 -0.5518
 8100SOL    HW135759   4.135   1.418  13.781 -0.9191  2.3014 -3.8474
 8100SOL    HW235760   4.236   1.478  13.865 -0.8709  0.3690  1.4543
 8101SOL     OW35761   3.445   0.249   6.526  0.1964 -0.3649  0.2952
 8101SOL    HW135762   3.360   0.283   6.497  0.9536  0.2029 -1.2704
 8101SOL    HW235763   3.507   0.269   6.456 -0.4713  1.1724  0.1443
 8102SOL     OW35764   1.806   4.230   7.334 -0.1375 -0.2771  0.4828
 8102SOL    HW135765   1.756   4.262   7.259 -3.0047  0.5820  2.7737
 8102SOL    HW235766   1.892   4.263   7.306 -0.4590 -1.2449 -1.5703
 8103SOL     OW35767   1.802   3.216   0.974  0.1679 -0.1085  0.3530
 8103SOL    HW135768   1.753   3.255   0.902 -2.6491 -0.3066  2.1713
 8103SOL    HW235769   1.815   3.284   1.041 -0.5859  0.1305  0.2539
 8104SOL     OW35770   0.235   4.252   1.979 -0.1264  0.2102  0.1443
 8104SOL    HW135771   0.194   4.320   1.926  0.2893 -0.0731 -0.5433
 8104SOL    HW235772   0.324   4.261   1.944 -0.5261  1.1190 -0.6389
 8105SOL     OW35773   1.274   1.767   2.150 -0.0188  0.2897  0.1831
 8105SOL    HW135774   1.213   1.814   2.206  1.2964 -0.3558  2.1709
 8105SOL    HW235775   1.296   1.823   2.076  0.3447 -0.3598 -0.2020
 8106SOL     OW35776   1.955   1.296  11.787  0.1721  0.2441  0.2691
 8106SOL    HW135777   1.880   1.354  11.771  0.4986  0.9903  1.4162
 8106SOL    HW235778   1.978   1.322  11.877  1.6628 -0.1853  0.0113
 8107SOL     OW35779   3.419   1.716   8.487  0.1844 -0.2246 -0.2756
 8107SOL    HW135780   3.420   1.785   8.553  1.5895  0.2789 -0.8302
 8107SOL    HW235781   3.495   1.669   8.522  0.4360  1.6566  1.7231
 8108SOL     OW35782   1.481   2.275   8.545  0.0593  0.3397  0.1468
 8108SOL    HW135783   1.388   2.268   8.523  0.6137 -0.1500 -1.9904
 8108SOL    HW235784   1.485   2.233   8.631 -1.4192  1.6865  0.8766
 8109SOL     OW35785   2.299   2.175   1.774  0.1136  0.6957  0.3654
 8109SOL    HW135786   2.227   2.223   1.733 -0.0077  0.3223  0.1366
 8109SOL    HW235787   2.366   2.243   1.775 -0.4626  1.2074  3.4422
 8110SOL     OW35788   1.741   2.850  10.597  0.1256  0.0800 -0.2592
 8110SOL    HW135789   1.820   2.817  10.641  0.3155  1.2501  0.2769
 8110SOL    HW235790   1.731   2.940  10.627 -0.4484  0.0170 -0.2654
 8111SOL     OW35791   2.033   0.542   6.596  0.1810  0.3541  0.0191
 8111SOL    HW135792   2.022   0.448   6.610  0.8113  0.0417 -1.5383
 8111SOL    HW235793   1.953   0.572   6.640 -0.0911  0.7543 -0.7464
 8112SOL     OW35794   1.563   0.355   4.908 -0.1089 -0.1261  0.6480
 8112SOL    HW135795   1.571   0.425   4.973 -0.3133  0.2685  0.2508
 8112SOL    HW235796   1.468   0.347   4.906 -0.0135 -1.2301  1.0460
 8113SOL     OW35797   4.244   4.566   6.725 -0.5007  0.4426  0.4494
 8113SOL    HW135798   4.210   4.558   6.814  0.8670  1.5630  1.0607
 8113SOL    HW235799   4.269   4.658   6.726 -1.3895  0.7319 -1.6700
 8114SOL     OW35800   2.998   2.410   2.600 -0.1098 -0.0120  0.3265
 8114SOL    HW135801   2.981   2.321   2.568 -1.6021  0.1371  0.6858
 8114SOL    HW235802   2.918   2.422   2.651  0.2882 -1.4750  1.3246
 8115SOL     OW35803   2.288   3.340  17.581  0.2819 -0.3422  0.3733
 8115SOL    HW135804   2.234   3.320  17.505  2.2172  1.9728 -1.6040
 8115SOL    HW235805   2.333   3.420  17.554  2.6721 -0.7029  3.1308
 8116SOL     OW35806   0.197   3.074   9.061 -0.6337  0.7286  0.3930
 8116SOL    HW135807   0.225   3.152   9.013 -1.5306  0.9014  0.1418
 8116SOL    HW235808   0.266   3.064   9.127 -0.4675  0.7931  0.2304
 8117SOL     OW35809   2.365   0.199   1.075  0.4727 -0.0811 -0.0441
 8117SOL    HW135810   2.450   0.165   1.103 -0.5984 -0.1958  3.0314
 8117SOL    HW235811   2.355   0.131   1.008 -0.8527  0.5474 -0.4709
 8118SOL     OW35812   1.390   0.502   3.604 -0.0924 -0.3236 -0.3000
 8118SOL    HW135813   1.380   0.407   3.592  2.6350 -0.3898 -1.9790
 8118SOL    HW235814   1.412   0.535   3.517 -0.0824 -0.3698 -0.3150
 8119SOL     OW35815   0.967   1.817  16.442  0.6270 -0.5517 -0.0377
 8119SOL    HW135816   0.974   1.902  16.486 -1.2747  0.1030 -1.0329
 8119SOL    HW235817   0.887   1.778  16.476  0.4141 -1.3148 -1.4607
 8120SOL     OW35818   0.246   3.681  13.547 -0.0788 -0.2370  0.1034
 8120SOL    HW135819   0.236   3.719  13.459 -0.3221  2.9016  1.4838
 8120SOL    HW235820   0.280   3.593  13.534  4.7529  1.3844  1.7479
 8121SOL     OW35821   2.703   1.545  10.254 -0.3052 -0.6727 -0.1863
 8121SOL    HW135822   2.619   1.558  10.209 -0.5306  1.8607  0.9704
 8121SOL    HW235823   2.758   1.525  10.179 -0.3246 -0.4419 -0.2617
 8122SOL     OW35824   3.555   1.113   1.471  0.1039  0.7707 -0.2416
 8122SOL    HW135825   3.577   1.192   1.421  1.9483 -0.1091 -0.8151
 8122SOL    HW235826   3.480   1.083   1.420  0.8553 -0.6943 -0.4730
 8123SOL     OW35827   0.506   4.600   5.639 -0.0121 -0.8015 -0.6749
 8123SOL    HW135828   0.520   4.691   5.665 -0.6055 -1.4908  2.0413
 8123SOL    HW235829   0.564   4.594   5.563  0.9392 -1.4646  0.1100
 8124SOL     OW35830   3.126   0.819  11.625 -0.0133  0.0239 -0.5881
 8124SOL    HW135831   3.186   0.884  11.588 -0.1641  0.1768 -0.5644
 8124SOL    HW235832   3.111   0.774  11.542  3.1718 -2.0018 -0.0478
 8125SOL     OW35833   1.906   1.607  10.848 -0.8599 -0.4022  0.6764
 8125SOL    HW135834   1.917   1.526  10.797 -0.2358  1.2011 -1.7415
 8125SOL    HW235835   1.923   1.590  10.940 -0.4167  0.3936  0.7424
 8126SOL     OW35836   2.973   2.513   1.779  0.5198 -0.3238 -0.0518
 8126SOL    HW135837   2.997   2.519   1.872 -1.9760 -1.4830  0.6976
 8126SOL    HW235838   3.057   2.495   1.738  0.4734  2.2246 -1.2435
 8127SOL     OW35839   2.937   1.630   2.456  0.0446  0.3017 -0.1224
 8127SOL    HW135840   2.877   1.650   2.384 -0.5606 -1.0208  0.0367
 8127SOL    HW235841   2.934   1.536   2.440  2.7822 -0.2273  2.5099
 8128SOL     OW35842   0.657   0.256   4.833  0.2290  0.6010 -0.0438
 8128SOL    HW135843   0.580   0.311   4.843  2.1303  2.9059  1.8680
 8128SOL    HW235844   0.724   0.324   4.830 -0.2977  1.0809 -0.7528
 8129SOL     OW35845   1.235   3.117   1.353 -0.7578 -0.0698  0.5422
 8129SOL    HW135846   1.317   3.078   1.384 -0.5131 -0.9372 -1.1585
 8129SOL    HW235847   1.186   3.091   1.431 -1.1899 -1.6693 -0.2720
 8130SOL     OW35848   1.882   0.665   2.158 -0.1960 -0.5704 -0.1197
 8130SOL    HW135849   1.975   0.687   2.163 -0.6949  1.2761  1.0584
 8130SOL    HW235850   1.865   0.711   2.076 -0.7829  0.5375  0.6199
 8131SOL     OW35851   0.976   3.051   7.110 -0.4044  0.1933 -0.6773
 8131SOL    HW135852   0.951   3.060   7.018  1.1687  0.7829 -1.0498
 8131SOL    HW235853   0.921   2.978   7.136  0.5766 -0.2298  0.1823
 8132SOL     OW35854   2.717   0.998   2.437  0.1043 -0.3960 -0.2174
 8132SOL    HW135855   2.741   1.076   2.388  1.0023 -1.1153 -0.9325
 8132SOL    HW235856   2.626   0.981   2.411 -0.4559  1.9832  0.2594
 8133SOL     OW35857   4.114   2.940  15.818 -0.0834 -0.1025 -0.2468
 8133SOL    HW135858   4.152   3.027  15.810 -1.7759  0.6554 -0.0510
 8133SOL    HW235859   4.182   2.874  15.827  0.2608  0.2835 -0.0012
 8134SOL     OW35860   1.519   0.768   8.501  0.7052  0.0995  0.2510
 8134SOL    HW135861   1.424   0.769   8.494  0.7231  2.3184  0.3562
 8134SOL    HW235862   1.529   0.675   8.485  0.4490  0.0388  0.4424
 8135SOL     OW35863   0.999   2.662   1.768  0.4933  0.0685 -0.0225
 8135SOL    HW135864   0.955   2.602   1.829  0.5944 -0.6311 -0.6280
 8135SOL    HW235865   0.934   2.730   1.755 -1.1156 -1.2987  0.8961
 8136SOL     OW35866   3.467   1.384  16.883  0.1482  0.2162 -0.5038
 8136SOL    HW135867   3.537   1.380  16.818  1.8371  0.7965  1.3055
 8136SOL    HW235868   3.501   1.329  16.953 -2.4385  1.2897  1.5943
 8137SOL     OW35869   3.164   2.145   7.425  0.3664  0.4756  0.0515
 8137SOL    HW135870   3.128   2.145   7.513  0.4687  0.0060  0.0913
 8137SOL    HW235871   3.255   2.167   7.442  0.4220  1.4000 -1.3852
 8138SOL     OW35872   1.589   0.988  10.335  0.1623  0.0331 -0.0056
 8138SOL    HW135873   1.662   0.927  10.334 -0.4477 -0.7045  1.6889
 8138SOL    HW235874   1.540   0.979  10.253 -0.2636  0.0251  0.2498
 8139SOL     OW35875   2.349   0.697   9.120 -0.0439 -0.3517  0.0509
 8139SOL    HW135876   2.428   0.745   9.097 -0.1861 -0.3149 -0.3613
 8139SOL    HW235877   2.293   0.772   9.142  0.1972 -0.8251  2.3442
 8140SOL     OW35878   4.589   3.790   9.084  0.4602  0.2466  0.0778
 8140SOL    HW135879   4.598   3.773   8.990 -0.3716 -1.7139  0.3566
 8140SOL    HW235880   4.542   3.712   9.113  1.6150  0.1131  1.5697
 8141SOL     OW35881   2.127   0.307   5.931  0.6452 -0.4945  0.1539
 8141SOL    HW135882   2.187   0.248   5.977  2.0470  0.1453 -0.8703
 8141SOL    HW235883   2.040   0.271   5.946  0.8570 -0.7681  0.7412
 8142SOL     OW35884   2.338   2.339   3.653  0.1470 -0.5940 -0.5349
 8142SOL    HW135885   2.424   2.330   3.694  0.1937  0.6137 -0.3703
 8142SOL    HW235886   2.331   2.258   3.603 -0.5910 -1.8286  1.5401
 8143SOL     OW35887   0.198   0.213  11.666 -0.1634 -0.7941  0.3575
 8143SOL    HW135888   0.220   0.270  11.593 -1.8920 -0.4933  0.0788
 8143SOL    HW235889   0.198   0.134  11.613  3.3030 -0.5242 -0.0090
 8144SOL     OW35890   0.576   1.120  11.726  0.1122 -0.0353 -0.8612
 8144SOL    HW135891   0.583   1.054  11.657 -1.9382 -1.3972  0.2562
 8144SOL    HW235892   0.500   1.094  11.777  0.0516 -0.7279 -1.3066
 8145SOL     OW35893   2.888   0.903  10.028 -0.2805  0.2688 -0.1179
 8145SOL    HW135894   2.952   0.855  10.079  1.2176  0.9503 -1.3682
 8145SOL    HW235895   2.905   0.862   9.943  2.3567  1.4737 -0.1598
 8146SOL     OW35896   4.515   0.152  13.361  0.0770 -0.6993 -0.2025
 8146SOL    HW135897   4.542   0.244  13.355  0.6237 -0.7479  1.4097
 8146SOL    HW235898   4.568   0.130  13.284 -0.9366 -3.1069 -0.1984
 8147SOL     OW35899   1.059   1.052   6.886  0.1055 -0.3813  0.1015
 8147SOL    HW135900   1.018   0.988   6.944 -0.1120 -1.2870 -1.0597
 8147SOL    HW235901   1.079   1.111   6.958 -2.0561  0.4977 -0.0195
 8148SOL     OW35902   2.244   3.370   5.934  0.1834  0.5124  0.0158
 8148SOL    HW135903   2.309   3.307   5.902 -0.4454 -0.2398  0.2122
 8148SOL    HW235904   2.285   3.371   6.020  0.2940 -1.8972 -0.0022
 8149SOL     OW35905   2.000   0.042   3.933 -0.3467  0.0159 -0.1013
 8149SOL    HW135906   1.934   4.716   3.982 -0.1300 -2.5989 -2.5014
 8149SOL    HW235907   1.990   4.724   3.848 -0.8308  1.2544 -0.6683
 8150SOL     OW35908   0.224   1.230  15.847  0.6977 -0.0960  0.1438
 8150SOL    HW135909   0.318   1.221  15.857  1.1235  1.4212 -2.5646
 8150SOL    HW235910   0.212   1.317  15.885  2.0805  0.6095 -1.0326
 8151SOL     OW35911   4.078   2.101  17.396 -0.5553  0.4797 -0.3298
 8151SOL    HW135912   3.986   2.079  17.411 -0.9498  1.9092 -0.6513
 8151SOL    HW235913   4.115   2.030  17.447  1.6970 -0.1076 -2.7367
 8152SOL     OW35914   3.221   3.419  15.012 -0.0685 -0.3481 -0.8050
 8152SOL    HW135915   3.256   3.385  15.095  0.3449  1.6905 -0.1472
 8152SOL    HW235916   3.136   3.375  15.008 -0.8046  0.9142  1.4572
 8153SOL     OW35917   2.460   0.122   9.146 -0.3250  0.1543 -0.2516
 8153SOL    HW135918   2.451   0.035   9.107 -1.4525 -0.5431  1.5943
 8153SOL    HW235919   2.411   0.168   9.077  0.8824  0.1598 -1.1172
 8154SOL     OW35920   3.526   1.188   7.548 -0.2235  0.1397 -0.4586
 8154SOL    HW135921   3.431   1.183   7.534 -0.3287 -0.8942  0.6032
 8154SOL    HW235922   3.522   1.263   7.607  1.9368 -0.4347  0.4284
 8155SOL     OW35923   0.302   3.732   6.593  0.1152 -0.4344 -0.3564
 8155SOL    HW135924   0.300   3.638   6.611 -4.6563 -0.4198 -0.8798
 8155SOL    HW235925   0.376   3.754   6.649 -0.1573 -0.5323  0.0432
 8156SOL     OW35926   4.128   0.906   6.295  0.4136 -0.1130 -0.0170
 8156SOL    HW135927   4.128   0.957   6.376 -1.7236 -0.2027  0.0368
 8156SOL    HW235928   4.099   0.974   6.233 -1.0093 -1.2624 -0.5974
 8157SOL     OW35929   0.361   4.617   1.860 -0.4991 -0.2406 -0.3071
 8157SOL    HW135930   0.378   4.544   1.919 -0.0011  0.4719  0.4392
 8157SOL    HW235931   0.312   4.676   1.917  1.5814  1.4569 -0.2672
 8158SOL     OW35932   0.290   0.553   4.199  0.1860 -0.1577 -0.3232
 8158SOL    HW135933   0.361   0.524   4.142 -0.4629  0.2183 -1.3130
 8158SOL    HW235934   0.342   0.587   4.273 -1.8302  1.4718  0.3417
 8159SOL     OW35935   0.759   1.451   5.182  0.1946  0.4543  0.1197
 8159SOL    HW135936   0.753   1.516   5.252  0.2356  0.9897 -0.3750
 8159SOL    HW235937   0.751   1.517   5.113 -0.5072  0.6785  0.4222
 8160SOL     OW35938   1.368   4.367   9.453  0.1675 -0.4426  0.1036
 8160SOL    HW135939   1.428   4.301   9.419  0.2049 -0.7620  0.8093
 8160SOL    HW235940   1.394   4.388   9.542 -0.3487 -1.4726  0.5031
 8161SOL     OW35941   0.013   1.497   8.581 -0.2279 -0.0329 -0.1784
 8161SOL    HW135942   0.076   1.451   8.526 -1.7002 -1.6178 -0.5327
 8161SOL    HW235943   4.658   1.461   8.543 -0.0419 -0.2379 -0.3725
 8162SOL     OW35944   3.816   2.286   7.595 -0.7229 -0.1603  0.3862
 8162SOL    HW135945   3.889   2.267   7.654 -0.1117  0.1605 -0.2639
 8162SOL    HW235946   3.740   2.261   7.647  0.1029 -0.7889  1.2864
 8163SOL     OW35947   2.445   1.062   7.973 -0.1620 -0.0314 -0.0565
 8163SOL    HW135948   2.464   1.153   7.995  2.7409 -0.6560  0.0172
 8163SOL    HW235949   2.516   1.019   8.021  0.3391  0.6204 -0.2100
 8164SOL     OW35950   2.142   0.870   9.939 -0.1036  0.3222  1.0301
 8164SOL    HW135951   2.229   0.845   9.971  0.2641 -2.1308 -1.8602
 8164SOL    HW235952   2.099   0.787   9.959 -0.2264  0.1168 -0.0842
 8165SOL     OW35953   0.616   0.049  11.764 -0.2206  1.1434  0.4471
 8165SOL    HW135954   0.618   0.068  11.671 -1.7287 -0.1684  0.1431
 8165SOL    HW235955   0.572   4.689  11.760  1.2623  0.3932  0.0137
 8166SOL     OW35956   0.652   3.552  10.336 -0.3345  0.1718  0.4691
 8166SOL    HW135957   0.621   3.464  10.356 -1.7909  0.3679 -1.0045
 8166SOL    HW235958   0.731   3.551  10.392  0.3761  2.6956 -0.4784
 8167SOL     OW35959   2.346   3.580  12.081  0.0750  0.2495 -0.1036
 8167SOL    HW135960   2.389   3.500  12.054 -0.4516  0.0121 -0.2378
 8167SOL    HW235961   2.335   3.558  12.173 -1.7364 -1.2332 -0.6889
 8168SOL     OW35962   4.081   3.899   5.479  0.0548 -0.2578 -0.1710
 8168SOL    HW135963   4.098   3.863   5.566  0.2918  2.5806  0.9658
 8168SOL    HW235964   4.099   3.992   5.493 -0.8925 -0.0465 -0.3636
 8169SOL     OW35965   1.674   0.291  16.058  0.4647  0.1062  0.2248
 8169SOL    HW135966   1.653   0.365  16.115  2.5802  0.1778  0.9141
 8169SOL    HW235967   1.630   0.221  16.107 -1.2147  0.6969 -0.4380
 8170SOL     OW35968   3.025   4.666   2.366 -0.2660  0.0038  0.0133
 8170SOL    HW135969   2.945   4.710   2.337  0.6162 -0.7822 -3.6509
 8170SOL    HW235970   3.055   4.718   2.441  1.2753  1.4730 -1.6117
 8171SOL     OW35971   2.480   4.423  12.499 -0.8061 -0.0013 -0.0582
 8171SOL    HW135972   2.537   4.499  12.504  1.2875 -1.5814  0.3418
 8171SOL    HW235973   2.402   4.461  12.540 -0.0265  1.0408  0.4584
 8172SOL     OW35974   4.168   3.440   3.448 -0.1685  0.5935 -0.3181
 8172SOL    HW135975   4.136   3.468   3.534  0.0692  1.5466 -0.5365
 8172SOL    HW235976   4.229   3.510   3.426  0.4107  0.4189  0.7416
 8173SOL     OW35977   1.576   1.422   5.020 -0.4844 -0.7356  0.9548
 8173SOL    HW135978   1.670   1.442   5.012 -0.8504 -0.1305 -1.8592
 8173SOL    HW235979   1.559   1.395   4.930 -0.6386  0.8366  0.5041
 8174SOL     OW35980   0.517   3.243   6.844  0.0113 -0.6099  0.5027
 8174SOL    HW135981   0.551   3.169   6.894 -1.2781 -2.1758 -0.9330
 8174SOL    HW235982   0.593   3.267   6.792 -0.2593  0.8380  0.7768
 8175SOL     OW35983   2.035   2.769   8.845 -0.8422  0.1518 -0.0265
 8175SOL    HW135984   2.054   2.677   8.826  0.7606  0.6835 -0.9493
 8175SOL    HW235985   1.961   2.775   8.906  0.7363 -1.8255  2.0822
 8176SOL     OW35986   3.609   1.724   2.935  0.3164 -0.2468 -0.3044
 8176SOL    HW135987   3.527   1.692   2.898 -1.1693 -0.0884  2.8552
 8176SOL    HW235988   3.628   1.786   2.865  0.4082  1.5738  1.3199
 8177SOL     OW35989   2.277   0.269   3.201 -0.4436  0.7132 -0.2029
 8177SOL    HW135990   2.226   0.200   3.159 -1.1968  0.9722  0.2811
 8177SOL    HW235991   2.364   0.267   3.161 -0.7595  0.7890 -0.8946
 8178SOL     OW35992   2.867   4.090   7.809  0.7590  0.2019 -0.1274
 8178SOL    HW135993   2.956   4.109   7.780 -0.4758  3.4843 -1.9058
 8178SOL    HW235994   2.852   4.170   7.860  1.7369 -0.4703  1.1899
 8179SOL     OW35995   1.229   4.012   7.355  0.0085  0.2183  0.1871
 8179SOL    HW135996   1.134   4.026   7.359 -0.2634 -1.3524 -0.8450
 8179SOL    HW235997   1.262   4.073   7.288 -0.5427  0.5755  0.2401
 8180SOL     OW35998   3.948   3.396  12.611 -0.4201 -1.0097 -0.1469
 8180SOL    HW135999   4.005   3.459  12.567 -0.6657  0.8549  2.1890
 8180SOL    HW236000   4.001   3.348  12.674  1.1379  3.0578  1.6731
 8181SOL     OW36001   2.765   1.142   8.524 -0.2294 -0.4231 -0.4270
 8181SOL    HW136002   2.762   1.051   8.492  2.7512 -0.6247 -0.1988
 8181SOL    HW236003   2.719   1.185   8.452 -0.5147 -0.1095 -0.0521
 8182SOL     OW36004   0.113   0.147   6.740 -0.1267  0.0543  0.2988
 8182SOL    HW136005   0.200   0.119   6.766  0.5859  1.4040 -0.6692
 8182SOL    HW236006   0.077   0.058   6.747 -1.4025  0.6425  1.1905
 8183SOL     OW36007   2.702   4.247   7.082  0.0718  0.1361  0.9526
 8183SOL    HW136008   2.705   4.238   6.987  0.7648  0.1066  0.9782
 8183SOL    HW236009   2.609   4.224   7.095 -0.6049  2.0081 -0.6631
 8184SOL     OW36010   0.267   1.778   0.595  0.0468 -0.0360 -0.4413
 8184SOL    HW136011   0.192   1.833   0.569  0.6350  0.3667 -1.2821
 8184SOL    HW236012   0.331   1.844   0.569  1.6313 -1.2638  0.3933
 8185SOL     OW36013   3.434   4.456   5.509 -0.3445 -0.3013 -0.4973
 8185SOL    HW136014   3.484   4.464   5.591 -3.1460  1.2771  1.0791
 8185SOL    HW236015   3.356   4.501   5.544 -0.0135 -0.1371  0.0310
 8186SOL     OW36016   4.482   2.282   3.759 -0.8631  0.5794 -0.3632
 8186SOL    HW136017   4.523   2.197   3.748  0.0123  1.1349 -1.2989
 8186SOL    HW236018   4.468   2.315   3.671 -0.0499  0.0080 -0.7017
 8187SOL     OW36019   0.103   0.071   7.370  0.1784  0.1748  0.1001
 8187SOL    HW136020   0.091   4.709   7.330  0.3811  0.2378 -0.0929
 8187SOL    HW236021   0.128   0.034   7.455 -1.0079  0.2012  0.4718
 8188SOL     OW36022   0.252   3.532   2.327 -0.1258 -0.2848  0.3737
 8188SOL    HW136023   0.312   3.467   2.364  1.7269  0.5195 -1.1550
 8188SOL    HW236024   0.287   3.617   2.356 -1.1226  0.7569 -1.4854
 8189SOL     OW36025   3.310   4.331   4.642  0.2222 -0.7726  0.0445
 8189SOL    HW136026   3.266   4.337   4.727  2.0542 -2.2252  1.0853
 8189SOL    HW236027   3.283   4.242   4.619  0.1916 -0.8094  0.2250
 8190SOL     OW36028   3.009   3.022   3.401  0.2129  0.4219 -0.2080
 8190SOL    HW136029   3.042   3.074   3.474 -2.5971  2.6705 -0.5259
 8190SOL    HW236030   2.935   2.974   3.439 -0.8327  0.9550 -1.5771
 8191SOL     OW36031   4.648   3.064   3.877 -0.0106 -0.5221  0.3495
 8191SOL    HW136032   4.581   3.009   3.837  0.5453 -0.4406 -0.7072
 8191SOL    HW236033   4.612   3.148   3.846 -0.6075 -0.8610  0.1216
 8192SOL     OW36034   1.453   4.279   5.144  0.0258 -0.5561  0.8316
 8192SOL    HW136035   1.419   4.191   5.132  0.0738 -0.1878 -2.1486
 8192SOL    HW236036   1.458   4.304   5.051  0.2301 -0.5275  0.8505
 8193SOL     OW36037   3.999   0.706   2.440 -0.3506 -0.2360  0.0721
 8193SOL    HW136038   4.056   0.772   2.479 -0.2474  0.1080 -0.6675
 8193SOL    HW236039   3.927   0.719   2.502 -2.1299  0.5843 -2.1731
 8194SOL     OW36040   2.187   1.171   7.910 -0.4343  0.9417  0.4194
 8194SOL    HW136041   2.205   1.243   7.850 -1.2237 -0.6128 -1.6831
 8194SOL    HW236042   2.273   1.131   7.918 -1.3349 -0.8433  1.2887
 8195SOL     OW36043   4.375   0.599  14.890  0.1965 -0.3321  0.0861
 8195SOL    HW136044   4.403   0.603  14.981  1.2451  1.3197 -0.3027
 8195SOL    HW236045   4.382   0.509  14.858 -2.5475  0.3462 -2.5517
 8196SOL     OW36046   0.578   2.071   9.511  0.0533 -0.2813 -0.4960
 8196SOL    HW136047   0.627   2.017   9.573 -1.2453 -0.4560  0.4028
 8196SOL    HW236048   0.653   2.114   9.471  0.7080 -0.9417  0.0306
 8197SOL     OW36049   2.308   1.856   9.212 -0.0010  0.2323  0.5723
 8197SOL    HW136050   2.348   1.913   9.278  3.0594 -1.3041  0.0627
 8197SOL    HW236051   2.312   1.903   9.129  2.1125 -1.7387 -0.4361
 8198SOL     OW36052   3.004   3.635   3.745  0.0244 -0.1590 -0.2429
 8198SOL    HW136053   3.089   3.595   3.725  0.4768  1.1148 -0.8490
 8198SOL    HW236054   2.946   3.610   3.673 -0.2880 -2.9930  0.9862
 8199SOL     OW36055   3.235   3.556   4.722 -0.2469  0.3474 -0.8854
 8199SOL    HW136056   3.226   3.644   4.759  1.6014 -0.4102  1.3655
 8199SOL    HW236057   3.288   3.519   4.793  0.5805  2.3253 -0.4746
 8200SOL     OW36058   0.619   4.613   8.642  0.9148 -0.1047  0.2107
 8200SOL    HW136059   0.685   4.609   8.711 -0.1454  1.1148  1.2905
 8200SOL    HW236060   0.662   4.569   8.568 -1.0479 -0.2648 -0.8438
 8201SOL     OW36061   3.608   3.925   9.151  0.1738  0.1476 -0.2409
 8201SOL    HW136062   3.614   3.901   9.243  2.0938  3.1697  0.4497
 8201SOL    HW236063   3.638   4.016   9.163  0.4787  0.1757 -1.2240
 8202SOL     OW36064   4.124   0.164   4.030  0.8730  0.4727 -0.0803
 8202SOL    HW136065   4.032   0.143   4.040  1.1010 -0.6901 -0.3833
 8202SOL    HW236066   4.170   0.080   4.034  1.0875  0.6267  0.6788
 8203SOL     OW36067   1.996   3.042  14.596 -0.4502  0.0749 -0.2351
 8203SOL    HW136068   2.066   3.090  14.641  1.8144 -3.7089  0.2722
 8203SOL    HW236069   1.968   3.118  14.544 -0.6904  0.5737  0.6299
 8204SOL     OW36070   0.585   3.712   5.883  0.5075  0.1440  0.2263
 8204SOL    HW136071   0.613   3.643   5.823 -0.3734  0.4881 -0.5784
 8204SOL    HW236072   0.625   3.790   5.845 -1.9799  0.3462 -1.9967
 8205SOL     OW36073   2.924   1.508  13.148  0.0048  0.1025 -0.1800
 8205SOL    HW136074   2.927   1.600  13.120  1.3531  0.7343  2.0065
 8205SOL    HW236075   3.009   1.484  13.109 -0.4525 -1.3467 -0.2818
 8206SOL     OW36076   3.629   0.687   5.244  0.0560 -0.1899 -0.4082
 8206SOL    HW136077   3.695   0.743   5.287 -0.5847  1.1439 -1.1587
 8206SOL    HW236078   3.684   0.619   5.207 -1.1478 -0.3781 -1.8504
 8207SOL     OW36079   3.777   4.092  16.196  0.3148  0.1158 -0.0580
 8207SOL    HW136080   3.849   4.141  16.156  0.2250 -1.3011 -1.9375
 8207SOL    HW236081   3.721   4.164  16.225  1.6717  1.7687 -1.5505
 8208SOL     OW36082   3.439   0.435   6.992 -0.7350 -0.3258  0.1131
 8208SOL    HW136083   3.495   0.392   7.056  1.7927 -0.4492 -2.1449
 8208SOL    HW236084   3.483   0.519   6.978  2.2922 -1.6415  1.6616
 8209SOL     OW36085   2.739   0.243   5.136  0.0511 -0.3491 -0.0292
 8209SOL    HW136086   2.773   0.168   5.089  2.4188  0.2754  0.7068
 8209SOL    HW236087   2.784   0.317   5.096  1.7676 -1.0676  0.6026
 8210SOL     OW36088   1.926   1.700   5.948  0.1063 -0.3462 -0.7724
 8210SOL    HW136089   1.948   1.712   6.040 -1.0880 -0.1050 -0.5215
 8210SOL    HW236090   1.832   1.687   5.962 -0.4923  0.9807 -3.4526
 8211SOL     OW36091   3.477   3.840   4.120  0.8644 -0.1009 -0.0193
 8211SOL    HW136092   3.448   3.751   4.142 -0.6395 -0.5455 -3.8292
 8211SOL    HW236093   3.462   3.833   4.025 -0.4507 -0.1027  0.1877
 8212SOL     OW36094   2.537   4.580   4.735 -0.0108 -0.1133  0.4383
 8212SOL    HW136095   2.545   4.568   4.830 -1.4198 -3.5632  0.1214
 8212SOL    HW236096   2.503   4.493   4.714  0.9497 -0.3817 -0.0094
 8213SOL     OW36097   2.414   3.672   7.270  0.5042 -0.1643  0.1861
 8213SOL    HW136098   2.395   3.578   7.281  0.0111  0.3183  3.3816
 8213SOL    HW236099   2.505   3.682   7.243  0.2835 -0.7730 -0.8109
 8214SOL     OW36100   0.532   3.250   8.624  0.3382 -0.2855  0.1323
 8214SOL    HW136101   0.479   3.328   8.606 -2.0568 -2.4053 -2.0454
 8214SOL    HW236102   0.469   3.180   8.606 -1.1784  0.9393  0.6381
 8215SOL     OW36103   0.447   2.806   8.071 -0.6562 -0.4772 -0.2929
 8215SOL    HW136104   0.463   2.737   8.135  1.1131  0.1742 -0.0350
 8215SOL    HW236105   0.529   2.853   8.067 -2.0413  2.0264  1.0107
 8216SOL     OW36106   3.770   3.113   2.548  0.1045  0.2166  0.2565
 8216SOL    HW136107   3.837   3.045   2.538 -1.4927 -1.4301  0.9335
 8216SOL    HW236108   3.750   3.134   2.456 -0.1846 -0.3108  0.1987
 8217SOL     OW36109   0.734   2.238   1.005 -0.2330  0.5221 -0.0227
 8217SOL    HW136110   0.703   2.186   1.079  1.4904  2.2555  1.9439
 8217SOL    HW236111   0.755   2.166   0.946  0.3944  0.9180 -0.2860
 8218SOL     OW36112   1.194   1.632  17.534  0.0004  0.0708  0.0602
 8218SOL    HW136113   1.151   1.575  17.470 -0.3655 -0.6801  0.9946
 8218SOL    HW236114   1.135   1.708  17.531 -0.7341 -0.4697  0.7830
 8219SOL     OW36115   3.783   4.473  16.263 -0.0665  0.2005  1.0945
 8219SOL    HW136116   3.822   4.535  16.326  3.1502  0.3743 -1.0803
 8219SOL    HW236117   3.758   4.392  16.307  0.5461  0.3910  1.7982
 8220SOL     OW36118   1.750   1.948   5.385 -0.5246  0.0283 -0.1062
 8220SOL    HW136119   1.829   1.929   5.333  0.1139  0.5640  0.6663
 8220SOL    HW236120   1.687   1.886   5.348  0.5407 -1.9104  1.3003
 8221SOL     OW36121   3.998   4.095   6.125 -0.1843  0.0941 -0.1335
 8221SOL    HW136122   3.945   4.099   6.205 -2.2123 -2.9127 -1.3178
 8221SOL    HW236123   4.037   4.182   6.124 -3.0023  1.3472 -1.0812
 8222SOL     OW36124   0.179   2.309   3.530 -0.0594 -0.1651  0.4133
 8222SOL    HW136125   0.154   2.286   3.619  0.0108  0.0171  0.4782
 8222SOL    HW236126   0.149   2.229   3.485  0.1427 -0.0164  0.0083
 8223SOL     OW36127   0.636   2.099   4.083 -0.0346  0.1894 -0.0036
 8223SOL    HW136128   0.716   2.074   4.129  1.2791  2.2638 -1.1843
 8223SOL    HW236129   0.583   2.134   4.155  2.7187 -0.1283  2.1402
 8224SOL     OW36130   1.328   3.272   2.912 -0.9963  0.4397 -0.1589
 8224SOL    HW136131   1.246   3.294   2.868 -1.9251  0.2294  1.4340
 8224SOL    HW236132   1.317   3.180   2.935  1.9505  0.4063  1.0798
 8225SOL     OW36133   4.007   4.383  14.637  0.7325  0.4604 -0.2070
 8225SOL    HW136134   3.988   4.392  14.731 -0.0068 -2.0515 -0.1087
 8225SOL    HW236135   4.102   4.381  14.649  0.8589  1.1444 -1.1451
 8226SOL     OW36136   0.013   2.597  15.781 -0.4497 -0.1492 -0.0484
 8226SOL    HW136137   0.079   2.583  15.714  0.0643 -2.2802  0.9189
 8226SOL    HW236138   0.037   2.678  15.827 -2.7949  0.9696 -0.7991
 8227SOL     OW36139   1.827   1.364   3.338  0.4002 -0.2860  0.0839
 8227SOL    HW136140   1.767   1.292   3.315 -0.0029 -0.1021  0.5537
 8227SOL    HW236141   1.824   1.412   3.255  2.3584  1.1240  0.8340
 8228SOL     OW36142   1.740   2.994   5.595 -0.4428  0.7661  0.6572
 8228SOL    HW136143   1.721   2.911   5.639  1.0248 -0.6349 -1.3339
 8228SOL    HW236144   1.709   2.974   5.506  1.2806  1.0660 -0.0149
 8229SOL     OW36145   4.361   1.428   4.458  0.1844 -0.1985 -0.6019
 8229SOL    HW136146   4.280   1.476   4.443  0.0248 -0.6543 -1.2201
 8229SOL    HW236147   4.342   1.340   4.427 -0.9992  0.7550 -2.5887
 8230SOL     OW36148   1.742   2.187   4.798  0.2310  0.2846  0.0925
 8230SOL    HW136149   1.806   2.207   4.866  1.1061 -2.7977  0.1795
 8230SOL    HW236150   1.778   2.239   4.725  0.3803  1.9143  1.3211
 8231SOL     OW36151   2.519   0.603  12.654 -0.0241 -0.2395 -0.6937
 8231SOL    HW136152   2.554   0.533  12.709 -0.0895  0.6250  0.4368
 8231SOL    HW236153   2.577   0.609  12.578  1.5959 -2.1552  0.3768
 8232SOL     OW36154   2.598   1.740   9.989  0.1669 -0.2379  0.0005
 8232SOL    HW136155   2.526   1.700  10.036  1.0591  0.3358  1.8557
 8232SOL    HW236156   2.624   1.667   9.932  2.5166  0.2115  0.4657
 8233SOL     OW36157   4.545   3.580   9.336 -0.9719  0.2296 -0.2065
 8233SOL    HW136158   4.594   3.655   9.371  0.0246 -0.1571 -0.7570
 8233SOL    HW236159   4.609   3.515   9.307  0.3150  0.2613  2.4933
 8234SOL     OW36160   4.517   1.192  10.790  0.1511  0.5921  0.5365
 8234SOL    HW136161   4.595   1.241  10.764 -0.8840  1.8983 -0.1275
 8234SOL    HW236162   4.464   1.271  10.792 -0.1642  0.4533 -2.6517
 8235SOL     OW36163   1.374   3.258   5.345  0.1906  0.5818 -0.3822
 8235SOL    HW136164   1.438   3.229   5.410 -0.0349 -2.9992 -1.7361
 8235SOL    HW236165   1.327   3.178   5.319  1.0609 -0.7019  1.9598
 8236SOL     OW36166   4.309   3.251   7.143 -0.4497 -0.5268 -0.0659
 8236SOL    HW136167   4.295   3.279   7.233 -2.3834  1.0176 -0.8600
 8236SOL    HW236168   4.350   3.165   7.156 -1.4953 -1.3939 -2.5696
 8237SOL     OW36169   4.486   3.725  12.014  0.0468  0.8493  0.3359
 8237SOL    HW136170   4.518   3.812  12.038  0.8802  0.8394 -0.7639
 8237SOL    HW236171   4.563   3.678  11.980  0.2028  0.6189  1.0014
 8238SOL     OW36172   3.515   0.119   1.901  0.0168 -1.0090 -0.5780
 8238SOL    HW136173   3.531   0.061   1.975  0.1630  1.0072  0.9713
 8238SOL    HW236174   3.601   0.161   1.893 -0.7355  0.9042  1.4296
 8239SOL     OW36175   1.990   1.794   5.689  0.3262 -0.1298 -0.3550
 8239SOL    HW136176   1.953   1.745   5.761  0.7511  0.0118 -0.0408
 8239SOL    HW236177   1.940   1.875   5.699 -1.6633 -1.2885 -1.0566
 8240SOL     OW36178   3.353   1.669  16.536 -0.2650 -0.3652 -0.1497
 8240SOL    HW136179   3.360   1.750  16.586  1.0879 -1.3805  1.3206
 8240SOL    HW236180   3.314   1.609  16.599 -0.2885 -0.2202 -0.0264
 8241SOL     OW36181   3.756   0.497   5.965 -0.2463 -0.0779 -0.0026
 8241SOL    HW136182   3.736   0.408   5.937  1.1335 -0.2683 -0.3741
 8241SOL    HW236183   3.787   0.483   6.055 -0.1742 -1.7633 -0.3044
 8242SOL     OW36184   1.067   1.374   4.061  0.0389  0.5931  0.1822
 8242SOL    HW136185   1.054   1.367   3.967  2.2106 -0.3232 -0.0496
 8242SOL    HW236186   1.133   1.443   4.069 -0.2590  1.0394 -1.3412
 8243SOL     OW36187   0.893   1.186   3.019 -0.4779  0.2529 -0.6682
 8243SOL    HW136188   0.832   1.156   3.086 -1.5617 -2.0726 -2.7197
 8243SOL    HW236189   0.887   1.280   3.035 -4.6977 -0.4236  1.5282
 8244SOL     OW36190   3.616   1.525  12.534 -0.3691  0.0524  0.2590
 8244SOL    HW136191   3.693   1.582  12.534 -0.3956  0.0645  2.2577
 8244SOL    HW236192   3.620   1.488  12.622 -0.4530 -2.5882 -0.8550
 8245SOL     OW36193   2.231   1.651  14.705 -0.9297 -0.5265  0.6220
 8245SOL    HW136194   2.267   1.619  14.622 -1.3288  0.0798  0.2108
 8245SOL    HW236195   2.166   1.583  14.719  0.6113 -1.6004  2.4675
 8246SOL     OW36196   0.953   1.460   1.993  0.0735  0.6295  0.3201
 8246SOL    HW136197   0.876   1.422   1.951  1.1407 -0.8418 -0.2777
 8246SOL    HW236198   0.977   1.535   1.939  1.3080 -0.3117 -0.4170
 8247SOL     OW36199   4.516   2.155   5.395 -0.2357 -0.4752 -0.3474
 8247SOL    HW136200   4.466   2.236   5.387 -2.1126 -1.4877  1.2404
 8247SOL    HW236201   4.564   2.167   5.477 -0.1169  0.4503 -0.5473
 8248SOL     OW36202   4.564   1.277   2.107 -0.3420 -0.6486 -0.8493
 8248SOL    HW136203   4.559   1.185   2.083 -1.1601 -0.7097 -0.4310
 8248SOL    HW236204   4.482   1.319   2.079 -0.8160 -1.3557 -0.5145
 8249SOL     OW36205   0.871   0.750   7.415 -0.3034  0.7344 -0.3872
 8249SOL    HW136206   0.959   0.728   7.447 -0.3827 -0.5513 -1.0278
 8249SOL    HW236207   0.859   0.833   7.461  2.6370  0.5108  0.8050
 8250SOL     OW36208   0.938   1.806   7.424  0.6879  0.7003 -0.0292
 8250SOL    HW136209   0.896   1.733   7.468  2.5735  1.3008  2.8087
 8250SOL    HW236210   0.941   1.788   7.330  1.6343 -2.4818  0.6012
 8251SOL     OW36211   3.614   4.495   7.881  0.1405 -0.7866  0.0772
 8251SOL    HW136212   3.701   4.477   7.917 -0.0002  2.8313  2.1998
 8251SOL    HW236213   3.623   4.477   7.788  0.5978  2.8911 -0.5944
 8252SOL     OW36214   4.721   2.441  17.007  0.2907 -0.1759 -0.2107
 8252SOL    HW136215   4.684   2.353  17.001  2.7412 -1.4357  3.4045
 8252SOL    HW236216   4.675   2.479  17.082 -0.9982  0.8257 -1.5097
 8253SOL     OW36217   1.029   0.510   4.210  0.0083 -0.1326 -0.0582
 8253SOL    HW136218   1.104   0.567   4.223  0.6864 -0.5708 -2.1043
 8253SOL    HW236219   1.045   0.449   4.282  0.6471 -0.9419 -0.8885
 8254SOL     OW36220   0.599   0.407   4.586 -0.3709 -0.4847 -0.3575
 8254SOL    HW136221   0.510   0.376   4.571 -1.0229  1.0146  0.3361
 8254SOL    HW236222   0.660   0.339   4.559 -1.7698 -2.0771  0.5547
 8255SOL     OW36223   0.550   2.085   9.071  0.3051 -0.4355  0.0134
 8255SOL    HW136224   0.534   2.179   9.072 -1.3662 -0.7423  2.4045
 8255SOL    HW236225   0.458   2.059   9.059 -0.4008  0.4843  3.2348
 8256SOL     OW36226   1.377   1.943   9.852 -0.0336 -0.6369 -0.1780
 8256SOL    HW136227   1.445   1.998   9.813  1.4864 -0.7419  2.3519
 8256SOL    HW236228   1.344   1.987   9.930 -0.4743  0.2877 -0.8806
 8257SOL     OW36229   0.385   4.253   3.306  0.2343 -0.0698 -0.1548
 8257SOL    HW136230   0.447   4.256   3.379 -1.2653  2.4463  1.0041
 8257SOL    HW236231   0.446   4.254   3.232 -0.4711  2.2238 -0.6987
 8258SOL     OW36232   1.232   2.266   8.039  0.0903  0.3197  0.0536
 8258SOL    HW136233   1.281   2.186   8.061  0.3215 -0.3545 -2.8725
 8258SOL    HW236234   1.158   2.230   7.989  0.1854  1.0607 -0.6224
 8259SOL     OW36235   1.159   4.417   6.450  0.0986  0.4483 -0.2449
 8259SOL    HW136236   1.237   4.396   6.500  0.0039 -0.3448 -0.4234
 8259SOL    HW236237   1.091   4.411   6.517  0.3786  1.4609  0.1333
 8260SOL     OW36238   1.714   1.649   4.325 -0.0551  0.3225 -0.6400
 8260SOL    HW136239   1.791   1.679   4.277  1.1600  0.2720  1.2798
 8260SOL    HW236240   1.674   1.580   4.272  0.3629 -0.8463  0.5571
 8261SOL     OW36241   1.916   1.020   2.144 -0.2644  0.2678  0.1025
 8261SOL    HW136242   1.854   0.954   2.175 -0.3176  0.9377  1.4317
 8261SOL    HW236243   1.881   1.047   2.059 -0.1158  1.6820  0.4804
 8262SOL     OW36244   1.394   4.552   9.029  0.1386 -0.1493 -0.5382
 8262SOL    HW136245   1.380   4.471   9.077  2.4715  1.3187  2.5894
 8262SOL    HW236246   1.436   4.611   9.092 -0.9327  1.9245 -1.7761
 8263SOL     OW36247   2.866   2.948   3.843 -0.1301  0.4282  0.5421
 8263SOL    HW136248   2.898   3.033   3.811  1.0397 -0.3121 -0.2793
 8263SOL    HW236249   2.870   2.959   3.938  1.4465 -0.3741  0.5705
 8264SOL     OW36250   2.302   1.779   5.362 -0.0311 -0.4758  0.1673
 8264SOL    HW136251   2.258   1.849   5.410 -2.2857 -2.1283  0.5431
 8264SOL    HW236252   2.330   1.730   5.439  2.7616  1.9518  0.6859
 8265SOL     OW36253   1.526   3.214  14.862 -0.3025 -0.0442  0.2141
 8265SOL    HW136254   1.538   3.124  14.834  0.6249 -0.2868  1.3678
 8265SOL    HW236255   1.513   3.204  14.957  2.2626  2.1833  0.8033
 8266SOL     OW36256   0.859   1.199   6.111 -0.0508 -0.4017  0.8783
 8266SOL    HW136257   0.893   1.217   6.199  2.5489 -2.1210  0.2243
 8266SOL    HW236258   0.773   1.165   6.136 -0.4122  1.5813  2.3135
 8267SOL     OW36259   3.736   1.691  10.217 -0.4656 -0.7100 -0.4334
 8267SOL    HW136260   3.737   1.639  10.137 -3.0006  0.4189 -1.1945
 8267SOL    HW236261   3.654   1.741  10.217 -0.3464 -0.5044  1.6823
 8268SOL     OW36262   1.008   0.889   9.130  0.6818  0.1188 -0.0310
 8268SOL    HW136263   0.922   0.859   9.103  0.3255  2.0211 -1.0310
 8268SOL    HW236264   1.001   0.984   9.119 -0.0059 -0.1313 -1.7588
 8269SOL     OW36265   4.567   0.713   6.667 -0.5333  0.1638  0.3680
 8269SOL    HW136266   4.480   0.687   6.637 -0.1454 -0.1901 -0.4557
 8269SOL    HW236267   4.541   0.801   6.694 -3.9268 -0.4533 -0.9701
 8270SOL     OW36268   4.164   3.626  13.445 -0.1916  0.0337 -0.3268
 8270SOL    HW136269   4.243   3.608  13.394  0.8811 -1.9180  2.0312
 8270SOL    HW236270   4.103   3.617  13.372  0.4636 -0.6124 -0.7938
 8271SOL     OW36271   4.343   2.246  10.005 -0.1977 -0.0288 -0.4877
 8271SOL    HW136272   4.379   2.158  10.016 -0.2186 -0.2138 -1.8488
 8271SOL    HW236273   4.336   2.229   9.911  1.7996  1.7171 -0.9583
 8272SOL     OW36274   3.891   1.884  13.702 -0.4445  0.0502 -0.7261
 8272SOL    HW136275   3.906   1.922  13.616  2.4079  2.5303  0.9131
 8272SOL    HW236276   3.805   1.919  13.725 -0.1451  0.3128 -0.0304
 8273SOL     OW36277   0.220   0.297   9.083 -0.0640 -0.5119  0.3159
 8273SOL    HW136278   0.307   0.265   9.056  0.2532  0.7100 -0.1151
 8273SOL    HW236279   0.180   0.219   9.121  2.7433 -2.1113  0.0513
 8274SOL     OW36280   3.394   0.217   8.962 -0.2901  0.2643  0.1372
 8274SOL    HW136281   3.337   0.152   9.005 -0.5541 -1.5413 -2.9477
 8274SOL    HW236282   3.351   0.299   8.983  2.3775  1.4171  1.1508
 8275SOL     OW36283   2.827   3.538   9.074  0.5317  0.2501 -0.8008
 8275SOL    HW136284   2.808   3.558   8.983  3.4116  1.2185 -1.1896
 8275SOL    HW236285   2.912   3.494   9.066  0.1629 -0.5596 -0.1932
 8276SOL     OW36286   4.550   1.579   7.181 -1.1450  0.7051 -0.1298
 8276SOL    HW136287   4.470   1.536   7.211  0.5469 -1.9749  0.6214
 8276SOL    HW236288   4.510   1.661   7.154 -2.1291  0.9430  2.0679
 8277SOL     OW36289   3.205   1.526  13.099  0.3754  0.4509  0.1266
 8277SOL    HW136290   3.257   1.597  13.135 -0.1193 -0.0316  1.8122
 8277SOL    HW236291   3.230   1.535  13.007  1.6747  0.0313  0.4376
 8278SOL     OW36292   3.775   1.298   5.109 -0.4744  0.0171  0.7841
 8278SOL    HW136293   3.773   1.207   5.079  0.1076 -0.3624  1.9338
 8278SOL    HW236294   3.710   1.338   5.051  0.2814 -0.6500 -0.5384
 8279SOL     OW36295   1.554   3.836  16.178 -0.5137 -0.0160 -0.4279
 8279SOL    HW136296   1.602   3.888  16.243  1.6956 -1.2079 -1.1329
 8279SOL    HW236297   1.463   3.845  16.209 -0.5653 -0.4221 -0.4611
 8280SOL     OW36298   3.209   1.680  16.025  0.1757  0.3039 -0.6261
 8280SOL    HW136299   3.245   1.664  16.112  2.2797  0.3164 -1.4952
 8280SOL    HW236300   3.234   1.772  16.013 -2.3800  0.9348 -1.1393
 8281SOL     OW36301   3.392   1.770   0.633  0.4431  0.2735 -0.4135
 8281SOL    HW136302   3.430   1.683   0.619 -1.3192 -0.4626 -0.5592
 8281SOL    HW236303   3.327   1.752   0.565 -0.5249 -0.1212  0.6239
 8282SOL     OW36304   0.873   1.162   8.179 -0.2666 -0.3075  0.3687
 8282SOL    HW136305   0.914   1.235   8.225  1.7109 -0.0612 -1.7706
 8282SOL    HW236306   0.787   1.197   8.157  0.3313  0.7744 -0.2484
 8283SOL     OW36307   4.577   4.283   8.429 -0.2887  0.0531  0.2680
 8283SOL    HW136308   4.630   4.205   8.446 -0.3486  0.4085  2.0300
 8283SOL    HW236309   4.491   4.246   8.412  1.1661 -3.3053  0.2249
 8284SOL     OW36310   3.914   2.530   4.405 -0.0014 -0.0237 -0.0547
 8284SOL    HW136311   3.984   2.484   4.360  0.8733  2.5462 -1.2843
 8284SOL    HW236312   3.915   2.615   4.362  0.6738  0.5437  1.0842
 8285SOL     OW36313   0.449   2.571   1.984 -0.4401 -0.2326 -0.1914
 8285SOL    HW136314   0.472   2.506   2.050 -1.8041 -0.6036 -0.0881
 8285SOL    HW236315   0.356   2.578   2.006 -0.4078 -1.0251  0.1750
 8286SOL     OW36316   1.421   4.443   4.616  0.5563 -0.0157 -0.3372
 8286SOL    HW136317   1.366   4.402   4.550  1.2963  1.2133 -1.7251
 8286SOL    HW236318   1.455   4.365   4.659  1.7266  0.0003 -1.2282
 8287SOL     OW36319   1.719   1.959   2.369  0.1694 -0.6155 -0.2739
 8287SOL    HW136320   1.663   2.028   2.405  1.1385 -0.4747  0.9584
 8287SOL    HW236321   1.786   1.948   2.436  0.2242 -0.3502 -0.2822
 8288SOL     OW36322   1.749   2.110   2.704 -0.2080 -0.1670 -0.1831
 8288SOL    HW136323   1.806   2.039   2.675 -0.4382 -0.8501  1.0143
 8288SOL    HW236324   1.743   2.168   2.628  0.1774 -1.0665 -0.8978
 8289SOL     OW36325   0.735   0.085   3.014 -0.1915 -0.4581 -0.0985
 8289SOL    HW136326   0.829   0.071   3.016 -0.5741 -3.0862 -0.6280
 8289SOL    HW236327   0.722   0.070   2.921 -0.0449  0.7568 -0.3134
 8290SOL     OW36328   2.000   0.645  16.580 -0.0523 -0.0183 -0.6269
 8290SOL    HW136329   2.059   0.660  16.507  2.1744  1.9865  1.5766
 8290SOL    HW236330   1.980   0.735  16.606 -0.4322 -0.5239  0.8487
 8291SOL     OW36331   1.277   0.466   4.017 -0.0184  0.1175 -0.7701
 8291SOL    HW136332   1.329   0.505   3.947  0.5010  0.4819 -0.1748
 8291SOL    HW236333   1.333   0.449   4.093 -0.1287  1.0969 -0.4716
 8292SOL     OW36334   4.463   2.268  13.856 -0.3557 -0.0167 -0.3520
 8292SOL    HW136335   4.410   2.247  13.779 -1.4531 -0.5085  0.5411
 8292SOL    HW236336   4.403   2.331  13.896 -0.2917 -0.9705  1.2071
 8293SOL     OW36337   3.600   4.574   1.059  0.0728 -0.1976  0.1405
 8293SOL    HW136338   3.572   4.578   0.968  1.1003 -1.2079 -0.2258
 8293SOL    HW236339   3.655   4.496   1.068  0.1667 -0.1056  0.3576
 8294SOL     OW36340   0.817   1.578  11.119  0.3588 -0.7138 -0.0454
 8294SOL    HW136341   0.889   1.525  11.154 -0.7979 -0.9195  2.0099
 8294SOL    HW236342   0.810   1.650  11.181 -0.1161  0.5954 -1.6414
 8295SOL     OW36343   1.205   3.169   7.540 -0.2029  0.1916  0.1104
 8295SOL    HW136344   1.209   3.175   7.445 -0.4179 -1.6935 -0.0292
 8295SOL    HW236345   1.158   3.085   7.535 -0.6403  0.3916  0.7792
 8296SOL     OW36346   0.897   1.542   1.160  0.0413 -0.6382  0.1971
 8296SOL    HW136347   0.969   1.532   1.098  0.5794  0.4086  0.6613
 8296SOL    HW236348   0.829   1.500   1.107 -0.6521  1.6653 -0.7405
 8297SOL     OW36349   2.912   1.650   5.569  0.6174  0.1464 -0.0848
 8297SOL    HW136350   2.998   1.693   5.567  0.3077  0.7383 -0.3178
 8297SOL    HW236351   2.864   1.717   5.522  0.7080  1.5516  1.8621
 8298SOL     OW36352   3.222   4.108   8.829  0.0541 -0.4562 -0.0492
 8298SOL    HW136353   3.227   4.089   8.923 -1.2290 -1.0107 -0.0963
 8298SOL    HW236354   3.256   4.198   8.827 -0.1944 -0.3386  0.7736
 8299SOL     OW36355   3.723   3.753  12.441 -0.0820 -0.1744  0.1928
 8299SOL    HW136356   3.702   3.668  12.479  0.0733 -0.9404 -1.4216
 8299SOL    HW236357   3.718   3.736  12.347  1.1295  3.4907 -0.5655
 8300SOL     OW36358   3.290   3.485  12.932  0.0503  0.1203 -0.1645
 8300SOL    HW136359   3.205   3.447  12.954  0.0102  0.4632  0.2618
 8300SOL    HW236360   3.291   3.494  12.836 -0.7487  1.2233 -0.0640
 8301SOL     OW36361   2.189   1.131   4.153  1.1516 -0.2631 -0.2072
 8301SOL    HW136362   2.215   1.120   4.061  2.5687  0.3569  0.1161
 8301SOL    HW236363   2.198   1.039   4.176 -4.3052 -0.5245  0.7307
 8302SOL     OW36364   2.652   0.699   8.149 -0.9349  0.0130 -0.3306
 8302SOL    HW136365   2.624   0.696   8.240 -1.1033 -1.5448 -0.4274
 8302SOL    HW236366   2.666   0.793   8.145 -0.4992 -0.0739 -0.7777
 8303SOL     OW36367   2.030   3.490   7.527  0.3061 -0.3331 -0.1063
 8303SOL    HW136368   2.114   3.450   7.503 -0.4071 -0.9664 -1.5157
 8303SOL    HW236369   2.045   3.574   7.571  1.5265 -0.4448 -0.3013
 8304SOL     OW36370   2.509   3.938  10.741  0.1932 -0.4804 -0.2153
 8304SOL    HW136371   2.536   3.984  10.661  0.2025  0.3627  0.2851
 8304SOL    HW236372   2.439   3.880  10.710 -0.1045 -0.6262  0.7586
 8305SOL     OW36373   0.522   0.999   6.429  0.1506  0.1093  0.3206
 8305SOL    HW136374   0.613   0.985   6.456  0.1839 -0.0614  0.1170
 8305SOL    HW236375   0.482   0.913   6.445 -1.1692  0.8083  0.8253
 8306SOL     OW36376   0.175   3.757   3.046  0.3418 -0.2739  0.5213
 8306SOL    HW136377   0.083   3.745   3.022  0.4045 -1.2558  0.7542
 8306SOL    HW236378   0.174   3.829   3.108  0.7635  0.1016  0.0931
 8307SOL     OW36379   1.531   2.457   8.352 -0.0113 -0.0482 -0.6227
 8307SOL    HW136380   1.439   2.469   8.330 -0.4412 -0.0726  1.1603
 8307SOL    HW236381   1.535   2.379   8.407  2.5815  1.6391  1.5813
 8308SOL     OW36382   2.641   4.505   7.772  0.0641  0.8317 -0.7410
 8308SOL    HW136383   2.696   4.580   7.751  0.1040  0.4796 -1.8517
 8308SOL    HW236384   2.566   4.524   7.716 -1.2361 -1.5716  0.1787
 8309SOL     OW36385   1.611   0.610   2.372 -0.2630 -0.0332  0.5710
 8309SOL    HW136386   1.628   0.544   2.305  2.5780 -0.4136  1.6343
 8309SOL    HW236387   1.686   0.597   2.430  0.6403 -0.2201 -0.6321
 8310SOL     OW36388   2.886   3.716  11.739 -0.5109 -0.2242  0.1309
 8310SOL    HW136389   2.961   3.730  11.795 -1.0245 -1.2683  1.0849
 8310SOL    HW236390   2.909   3.745  11.650  1.9469 -1.7861  0.2555
 8311SOL     OW36391   4.663   2.454   1.881 -0.2598 -0.0728 -0.1585
 8311SOL    HW136392   4.723   2.500   1.822  0.9509  1.6646  2.4283
 8311SOL    HW236393   4.583   2.444   1.829 -0.7184  1.4432  0.2421
 8312SOL     OW36394   3.528   3.763   4.783  0.4307  0.1282  0.5670
 8312SOL    HW136395   3.471   3.714   4.843  2.9959 -4.3799 -0.6890
 8312SOL    HW236396   3.470   3.837   4.764  0.0248 -0.2674  0.2446
 8313SOL     OW36397   4.260   0.027  17.353  0.1787  0.1360 -0.3385
 8313SOL    HW136398   4.355   0.018  17.355  0.0529 -1.1975 -0.6528
 8313SOL    HW236399   4.237   4.703  17.274 -0.5705 -1.4133  0.8361
 8314SOL     OW36400   0.925   2.224   2.146 -0.0744  0.0271 -0.3569
 8314SOL    HW136401   0.911   2.131   2.163 -0.4960  0.3080  0.8871
 8314SOL    HW236402   0.999   2.213   2.086  0.6109 -0.2257  0.5340
 8315SOL     OW36403   3.825   4.131   1.091 -0.4959  0.3754 -0.0395
 8315SOL    HW136404   3.756   4.077   1.130 -0.1906 -0.8897 -1.2458
 8315SOL    HW236405   3.836   4.080   1.010  1.7781 -0.5567  0.8580
 8316SOL     OW36406   1.056   1.716   5.864  0.0841 -0.8972 -0.0231
 8316SOL    HW136407   1.051   1.631   5.907  2.1178 -1.1959 -0.3724
 8316SOL    HW236408   1.013   1.779   5.922  1.0928 -1.0113  0.8543
 8317SOL     OW36409   0.385   0.495  15.498  0.0081 -0.4741 -0.1332
 8317SOL    HW136410   0.311   0.527  15.446  0.6063 -0.6750 -1.1063
 8317SOL    HW236411   0.365   0.507  15.591 -0.5929 -0.1082 -0.3105
 8318SOL     OW36412   0.938   3.333  14.970 -0.8666  0.3705 -0.5774
 8318SOL    HW136413   0.883   3.318  14.893  0.2821  0.5499 -1.4472
 8318SOL    HW236414   0.867   3.328  15.034 -2.4538 -1.8657 -2.4901
 8319SOL     OW36415   2.905   3.626   0.011  0.0162 -0.1840 -0.2376
 8319SOL    HW136416   2.934   3.537   0.030  1.1873  0.2702  0.0754
 8319SOL    HW236417   2.969   3.680   0.057 -1.2812  0.0745  1.2848
 8320SOL     OW36418   2.005   3.804   5.440  0.0201 -0.1617  0.3239
 8320SOL    HW136419   2.081   3.796   5.498 -0.1103  1.1819  0.6843
 8320SOL    HW236420   2.003   3.718   5.398 -1.3843 -0.1193  0.2930
 8321SOL     OW36421   1.734   1.307  16.593  0.5969 -0.8402  1.0055
 8321SOL    HW136422   1.700   1.390  16.559  2.3973  0.6450  2.8623
 8321SOL    HW236423   1.663   1.245  16.576 -0.2409  0.5848 -0.6575
 8322SOL     OW36424   0.212   1.114   2.461 -0.0270  0.3870  0.4189
 8322SOL    HW136425   0.307   1.113   2.452 -0.3540 -0.0815 -2.9845
 8322SOL    HW236426   0.192   1.045   2.398  0.6328  0.4245  0.1673
 8323SOL     OW36427   2.164   2.168   4.158 -0.4504  0.4359  0.4646
 8323SOL    HW136428   2.194   2.225   4.088  1.0654 -0.6361  0.2438
 8323SOL    HW236429   2.223   2.184   4.232  0.3953  0.4769 -0.2250
 8324SOL     OW36430   2.933   0.804   7.658 -0.3023  0.3616  0.2375
 8324SOL    HW136431   2.930   0.822   7.564 -1.2595 -0.8097  0.0481
 8324SOL    HW236432   2.898   0.715   7.663  0.1330  0.2234  0.8438
 8325SOL     OW36433   3.282   1.073   0.542  0.3275  0.3204  0.0095
 8325SOL    HW136434   3.201   1.121   0.558 -0.5398 -0.8739 -0.8616
 8325SOL    HW236435   3.332   1.092   0.622 -2.5454 -0.1593  1.9177
 8326SOL     OW36436   2.853   2.498  14.238 -0.6055  0.1044  0.5702
 8326SOL    HW136437   2.770   2.522  14.198 -0.3550 -1.0270 -0.6153
 8326SOL    HW236438   2.832   2.405  14.243  0.8556 -0.3593 -1.7188
 8327SOL     OW36439   4.209   1.866   5.822 -0.1798 -0.0035 -0.3049
 8327SOL    HW136440   4.151   1.913   5.882  0.6152  0.8575 -0.2202
 8327SOL    HW236441   4.210   1.931   5.752  1.8034  0.5422  0.2140
 8328SOL     OW36442   1.433   1.893   2.740  0.2127 -0.4250 -0.1076
 8328SOL    HW136443   1.351   1.848   2.722 -0.3011  0.5481 -0.1523
 8328SOL    HW236444   1.492   1.856   2.675  0.0640 -3.6949  1.5902
 8329SOL     OW36445   3.215   4.448   4.175 -0.1721  0.4401 -0.4931
 8329SOL    HW136446   3.288   4.385   4.178 -1.7122 -1.3254  0.0125
 8329SOL    HW236447   3.281   4.515   4.156  1.3360 -1.1727 -0.9310
 8330SOL     OW36448   3.991   1.632   5.101  0.0264  0.1464  0.1889
 8330SOL    HW136449   3.941   1.628   5.020  0.4828  1.2893 -0.1445
 8330SOL    HW236450   3.921   1.620   5.165  0.3210 -0.3421  0.4225
 8331SOL     OW36451   4.593   4.404   6.375 -0.2275 -0.4744 -0.3515
 8331SOL    HW136452   4.576   4.496   6.356  0.9414 -0.4499 -1.2251
 8331SOL    HW236453   4.503   4.377   6.355  0.0905 -0.0857 -2.2529
 8332SOL     OW36454   3.772   3.156  11.807  0.4084 -0.2588  0.5763
 8332SOL    HW136455   3.749   3.243  11.773 -2.7585 -2.4120 -2.8438
 8332SOL    HW236456   3.794   3.187  11.895 -1.9635  0.6201  0.8689
 8333SOL     OW36457   2.371   2.331   4.597 -0.6199  0.0942 -0.3248
 8333SOL    HW136458   2.456   2.293   4.620 -0.8453 -1.3342 -1.8846
 8333SOL    HW236459   2.365   2.305   4.506 -0.3587  0.0883 -0.3410
 8334SOL     OW36460   0.540   2.378   6.640 -0.6613 -0.2030 -0.3830
 8334SOL    HW136461   0.608   2.360   6.706 -1.5586  2.3215  1.2233
 8334SOL    HW236462   0.456   2.370   6.684 -0.9458  3.9564 -0.1995
 8335SOL     OW36463   0.371   3.812  11.448  0.4069  0.2272  0.3291
 8335SOL    HW136464   0.344   3.720  11.449 -0.7619  0.5749 -0.0779
 8335SOL    HW236465   0.314   3.845  11.379 -0.2391 -3.3273 -0.8603
 8336SOL     OW36466   0.489   3.690   4.563 -0.6300  0.2583  0.0596
 8336SOL    HW136467   0.544   3.656   4.492 -3.2185 -2.3059 -0.7441
 8336SOL    HW236468   0.410   3.726   4.522 -0.2570  0.5455 -0.4182
 8337SOL     OW36469   2.292   0.570   6.534 -0.0509  0.6159  0.7351
 8337SOL    HW136470   2.331   0.488   6.565  0.8593  1.0654  0.7646
 8337SOL    HW236471   2.199   0.550   6.545 -0.5126  3.0317  1.3077
 8338SOL     OW36472   2.280   2.954  15.949 -0.1908  0.4126 -0.7198
 8338SOL    HW136473   2.367   2.954  15.909 -0.7780 -0.2848 -1.9919
 8338SOL    HW236474   2.222   2.954  15.873 -1.8923 -2.8489  0.5815
 8339SOL     OW36475   2.479   2.929   9.934 -0.2652  0.3691  0.5033
 8339SOL    HW136476   2.466   3.024   9.925 -0.1432  0.3065 -0.2660
 8339SOL    HW236477   2.460   2.914  10.027  0.2178  0.6611  0.6494
 8340SOL     OW36478   2.315   0.447   2.806 -0.0058  0.1132 -0.4443
 8340SOL    HW136479   2.361   0.395   2.739 -1.2714 -0.1622 -1.0935
 8340SOL    HW236480   2.230   0.407   2.790  1.2358 -1.2236 -3.8871
 8341SOL     OW36481   4.326   4.256  15.473  0.3261  0.1621 -0.7260
 8341SOL    HW136482   4.272   4.180  15.450  1.7912 -1.4851  1.2363
 8341SOL    HW236483   4.321   4.315  15.398  2.3204  1.3197  0.0468
 8342SOL     OW36484   2.863   0.480   2.929 -0.1834  0.1349 -0.0995
 8342SOL    HW136485   2.842   0.479   2.835 -0.1384  3.9381 -0.1394
 8342SOL    HW236486   2.933   0.415   2.933  0.7056  1.0814 -0.4376
 8343SOL     OW36487   4.584   2.144  15.297 -0.7796  0.3025 -0.2228
 8343SOL    HW136488   4.595   2.138  15.392 -0.3326  1.1672 -0.2249
 8343SOL    HW236489   4.489   2.136  15.285 -0.8557 -0.3963  0.8861
 8344SOL     OW36490   1.316   1.457   8.586  0.1261 -0.0595 -0.3836
 8344SOL    HW136491   1.315   1.367   8.616  0.0016  0.5582  1.4850
 8344SOL    HW236492   1.311   1.499   8.672 -0.6872  0.5379 -0.7193
 8345SOL     OW36493   1.173   1.370   9.089 -0.1366 -0.2515 -0.3050
 8345SOL    HW136494   1.201   1.445   9.142  1.6539 -0.8359 -0.4390
 8345SOL    HW236495   1.240   1.303   9.096  1.6828  1.7161  1.0351
 8346SOL     OW36496   2.896   3.072   9.942 -0.6721  0.0190  0.1033
 8346SOL    HW136497   2.954   3.107   9.875 -0.4299  1.2500  0.9460
 8346SOL    HW236498   2.844   3.001   9.904  0.6774 -1.4264  0.9799
 8347SOL     OW36499   3.359   2.915  17.039  0.2355 -0.3596 -0.3550
 8347SOL    HW136500   3.333   2.846  17.100  1.9313 -1.2719 -0.6641
 8347SOL    HW236501   3.309   2.990  17.070  1.7807 -0.0573  1.4338
 8348SOL     OW36502   3.452   2.773  10.696 -0.2323 -0.3686 -0.0321
 8348SOL    HW136503   3.403   2.808  10.771 -0.4328  0.5176 -0.5708
 8348SOL    HW236504   3.414   2.833  10.631  0.5193 -0.1180 -0.2353
 8349SOL     OW36505   2.236   3.863   7.983  0.4098  0.5020 -0.1647
 8349SOL    HW136506   2.301   3.845   7.915  1.6356 -0.2178  1.1966
 8349SOL    HW236507   2.285   3.926   8.035  2.9002  0.3776 -2.3707
 8350SOL     OW36508   3.186   4.519  13.966 -0.0639  0.7783 -0.2839
 8350SOL    HW136509   3.109   4.565  14.000 -0.0605 -0.4599  1.4443
 8350SOL    HW236510   3.189   4.437  14.015  3.0246  1.8476  1.3673
 8351SOL     OW36511   1.395   0.041  12.176 -0.2402  0.1214 -0.2828
 8351SOL    HW136512   1.305   0.023  12.202 -0.2851 -0.8731 -1.1307
 8351SOL    HW236513   1.450   0.024  12.253 -0.8220  0.5497  0.2334
 8352SOL     OW36514   3.364   0.527  11.866 -0.7480 -0.2256  0.3629
 8352SOL    HW136515   3.283   0.570  11.893 -1.3522 -1.2606  0.1888
 8352SOL    HW236516   3.362   0.441  11.907  0.6469  0.1944  1.3338
 8353SOL     OW36517   1.843   3.249  14.750  0.7056 -0.8135 -0.1939
 8353SOL    HW136518   1.919   3.195  14.772  2.0740  0.7625 -1.0699
 8353SOL    HW236519   1.774   3.184  14.739  0.2378 -0.4816  0.7890
 8354SOL     OW36520   2.297   2.696   5.069  0.1628 -0.2271  0.2871
 8354SOL    HW136521   2.229   2.752   5.106 -0.3101  0.8745 -2.2501
 8354SOL    HW236522   2.364   2.758   5.039  0.1726 -0.0220  0.7410
 8355SOL     OW36523   2.281   1.464   6.294  0.6125  0.7426 -0.0361
 8355SOL    HW136524   2.337   1.540   6.306  2.0593 -0.4318  0.6967
 8355SOL    HW236525   2.300   1.420   6.377 -0.4725 -2.3236 -1.3905
 8356SOL     OW36526   0.039   1.414   7.155 -0.4149 -0.3673 -0.0939
 8356SOL    HW136527   0.048   1.481   7.087  0.8141  0.7262  1.1371
 8356SOL    HW236528   4.694   1.460   7.202  0.2872  0.6393 -0.0329
 8357SOL     OW36529   3.510   3.888   2.601  0.5008 -0.2447 -0.5229
 8357SOL    HW136530   3.602   3.861   2.596  0.9825  1.2490  0.3966
 8357SOL    HW236531   3.514   3.952   2.673  1.1395 -2.4065  1.3626
 8358SOL     OW36532   0.896   1.812  15.277  0.2300  0.0816 -0.3510
 8358SOL    HW136533   0.906   1.717  15.280  0.2175  0.1007  0.2229
 8358SOL    HW236534   0.982   1.826  15.317  1.1667  2.2748 -3.1196
 8359SOL     OW36535   2.052   4.385  10.171 -0.2899 -0.1280 -0.2731
 8359SOL    HW136536   2.004   4.451  10.221  1.4723  0.1305  1.0797
 8359SOL    HW236537   2.080   4.334  10.247 -0.0769 -1.5220 -1.2761
 8360SOL     OW36538   1.729   0.907   1.129  0.1002 -0.3376 -0.2786
 8360SOL    HW136539   1.638   0.881   1.141  0.9165 -0.9289  4.3337
 8360SOL    HW236540   1.746   0.951   1.212 -0.8936  1.7909 -1.2041
 8361SOL     OW36541   1.538   2.592   0.939 -0.3006  0.3653  0.0718
 8361SOL    HW136542   1.558   2.501   0.958  0.6599  0.4444 -0.5378
 8361SOL    HW236543   1.503   2.576   0.851  0.6948 -1.0997 -0.0516
 8362SOL     OW36544   0.141   3.627  15.306  0.4984  0.2858 -0.3736
 8362SOL    HW136545   0.218   3.612  15.361  0.2558 -0.1197 -0.1456
 8362SOL    HW236546   0.137   3.723  15.301 -0.8868  0.2766  0.5195
 8363SOL     OW36547   1.296   1.104   9.066 -0.1697 -0.1980 -0.3507
 8363SOL    HW136548   1.367   1.092   9.129 -0.4511  0.5827  0.1284
 8363SOL    HW236549   1.309   1.019   9.026 -0.3565 -1.2768  1.8798
 8364SOL     OW36550   1.444   4.196   4.702  0.3497  0.7212  0.1115
 8364SOL    HW136551   1.515   4.191   4.637  0.6759  0.8323  0.4633
 8364SOL    HW236552   1.422   4.102   4.698  0.4979  0.7436 -1.3774
 8365SOL     OW36553   3.453   0.399  15.068 -0.5001  0.1269  0.0011
 8365SOL    HW136554   3.462   0.488  15.035  1.4561  0.1721  0.6382
 8365SOL    HW236555   3.475   0.350  14.988 -0.1100 -1.2704  0.9611
 8366SOL     OW36556   2.999   0.704   3.312  0.5913 -0.7735 -0.1121
 8366SOL    HW136557   3.085   0.686   3.274  0.5515  0.4646 -0.7980
 8366SOL    HW236558   2.951   0.723   3.231  0.6236  0.1984  0.0947
 8367SOL     OW36559   4.106   3.985   1.846  0.5250 -0.6373  0.0123
 8367SOL    HW136560   4.068   4.068   1.873  2.3371  0.2257 -0.0940
 8367SOL    HW236561   4.053   3.979   1.766  0.4862 -0.0674 -0.0017
 8368SOL     OW36562   3.761   2.441   8.517 -0.1220 -0.0497  0.0497
 8368SOL    HW136563   3.729   2.518   8.564  0.6858  0.7330 -0.6808
 8368SOL    HW236564   3.856   2.441   8.530 -0.0910 -1.3432 -0.1885
 8369SOL     OW36565   2.173   3.882   5.159  0.0436  0.1043  0.3848
 8369SOL    HW136566   2.097   3.830   5.133 -0.2310  1.9448 -2.4554
 8369SOL    HW236567   2.133   3.946   5.217 -0.6210 -0.3394  0.4190
 8370SOL     OW36568   3.686   3.784   1.690  0.5397 -0.6821  0.1699
 8370SOL    HW136569   3.630   3.712   1.660  0.2358  0.1822 -1.3588
 8370SOL    HW236570   3.685   3.769   1.785  1.9195  0.2971  0.3356
 8371SOL     OW36571   2.641   3.338   3.956 -0.7969 -0.6385 -0.7477
 8371SOL    HW136572   2.732   3.357   3.933 -0.7374 -0.7100 -0.5698
 8371SOL    HW236573   2.642   3.243   3.969 -0.8046 -0.0928  3.0032
 8372SOL     OW36574   1.948   2.322   8.415 -0.3546 -0.3139 -0.3064
 8372SOL    HW136575   1.879   2.258   8.435 -0.4131  0.0949  0.8301
 8372SOL    HW236576   1.969   2.309   8.323  0.5468 -0.8199 -0.0371
 8373SOL     OW36577   4.016   0.959   5.216  0.2354  0.2589 -0.1429
 8373SOL    HW136578   4.003   1.052   5.195  1.5705  1.0684  2.6041
 8373SOL    HW236579   4.088   0.940   5.156  0.0724  0.2616 -0.3404
 8374SOL     OW36580   3.023   3.108   8.317  0.1221  0.1179 -0.4034
 8374SOL    HW136581   3.089   3.127   8.250  0.2141 -0.7970 -0.5672
 8374SOL    HW236582   3.025   3.013   8.322 -0.3752  0.2647  2.3766
 8375SOL     OW36583   0.914   4.131   0.820  0.1821 -0.3727  0.0655
 8375SOL    HW136584   0.878   4.174   0.742  0.7691  1.0603  0.5924
 8375SOL    HW236585   0.928   4.040   0.793 -0.8638 -0.6921  0.5666
 8376SOL     OW36586   0.127   1.601  12.629 -0.2190 -0.2868  0.0808
 8376SOL    HW136587   0.127   1.559  12.543 -2.8734  0.3778 -0.2229
 8376SOL    HW236588   0.197   1.549  12.669 -0.0203 -0.7034 -0.7978
 8377SOL     OW36589   4.412   4.115  11.487  0.2560  0.0591  0.3870
 8377SOL    HW136590   4.441   4.077  11.403  3.0693  0.3018  1.2490
 8377SOL    HW236591   4.327   4.151  11.464  1.5185  4.0938  2.0932
 8378SOL     OW36592   2.234   2.454   7.620 -0.1249 -0.0381 -0.5648
 8378SOL    HW136593   2.301   2.386   7.611  0.5822  0.5140  0.5913
 8378SOL    HW236594   2.166   2.407   7.670  0.0543  0.6777  0.3554
 8379SOL     OW36595   3.799   3.554   0.438 -0.2638  0.3139  0.3492
 8379SOL    HW136596   3.792   3.465   0.405 -0.7459 -0.0601  1.4620
 8379SOL    HW236597   3.893   3.557   0.456  0.4084 -0.2020 -3.1834
 8380SOL     OW36598   2.033   3.924   3.863 -0.4990  0.3633  0.3642
 8380SOL    HW136599   2.073   3.922   3.950  1.7068 -0.1364 -0.6396
 8380SOL    HW236600   2.099   3.954   3.800 -0.6872  1.8678  0.9009
 8381SOL     OW36601   0.129   4.622  16.459  0.5861 -0.1866 -0.0812
 8381SOL    HW136602   0.183   4.606  16.382  2.2443  0.6636  0.9197
 8381SOL    HW236603   0.079   4.695  16.420  0.5448 -0.4388 -0.4972
 8382SOL     OW36604   1.527   4.524   1.563 -0.5171  0.5212  0.4235
 8382SOL    HW136605   1.533   4.505   1.656 -1.7396 -0.6273  0.2625
 8382SOL    HW236606   1.571   4.450   1.522  0.6779  1.0273  0.7611
 8383SOL     OW36607   2.762   0.896   8.419 -0.1434 -0.5103 -0.0409
 8383SOL    HW136608   2.686   0.838   8.410 -0.6575 -0.0558  1.3009
 8383SOL    HW236609   2.806   0.862   8.497 -2.0440 -1.7315  0.5181
 8384SOL     OW36610   2.653   1.491   8.430 -0.3581  0.2735 -0.5766
 8384SOL    HW136611   2.585   1.446   8.480  1.2645 -0.6820  0.7608
 8384SOL    HW236612   2.641   1.579   8.467  0.6640  0.5240 -0.8293
 8385SOL     OW36613   2.535   0.211   3.058  0.8542 -0.4927  0.1630
 8385SOL    HW136614   2.596   0.277   3.089 -1.3385  1.9700 -0.8364
 8385SOL    HW236615   2.539   0.167   3.143 -2.3922  0.5259  0.8265
 8386SOL     OW36616   1.105   4.415   8.996 -0.0893  0.5585 -0.7149
 8386SOL    HW136617   1.063   4.479   9.052 -1.0676  0.0128 -0.8356
 8386SOL    HW236618   1.193   4.415   9.034 -0.2349  0.0004 -0.3672
 8387SOL     OW36619   3.244   0.285   6.350  0.1243  0.0761 -0.3701
 8387SOL    HW136620   3.173   0.340   6.316 -0.3546 -2.3380 -3.3339
 8387SOL    HW236621   3.285   0.273   6.264  0.2428  1.0664 -0.4575
 8388SOL     OW36622   2.577   3.964  16.639  0.4331 -0.8577 -0.5479
 8388SOL    HW136623   2.576   3.870  16.655  1.0576 -0.7791 -0.0307
 8388SOL    HW236624   2.658   3.978  16.687  0.9408  0.0066 -1.6667
 8389SOL     OW36625   2.575   4.438   7.401  0.0195  0.4574 -0.1118
 8389SOL    HW136626   2.648   4.394   7.444  1.1781  4.6199  2.1872
 8389SOL    HW236627   2.618   4.519   7.373  1.8422 -0.3331  0.4118
 8390SOL     OW36628   0.019   3.280   6.294  0.4497 -0.2583 -0.4220
 8390SOL    HW136629   4.649   3.265   6.292  0.3863 -0.0317  0.8947
 8390SOL    HW236630   0.039   3.206   6.236 -2.8336 -0.7316 -0.9372
 8391SOL     OW36631   1.945   3.067   4.517 -0.0724 -0.1428  0.1561
 8391SOL    HW136632   1.943   2.979   4.553 -1.3819  0.1131  0.7024
 8391SOL    HW236633   1.878   3.109   4.571 -1.0132  0.2858 -1.3182
 8392SOL     OW36634   0.062   1.055   4.126 -0.4676  0.2802 -0.4146
 8392SOL    HW136635   0.056   1.079   4.219  0.8136  0.3468 -0.3482
 8392SOL    HW236636   0.018   1.132   4.089 -1.3830 -0.5863 -1.1228
 8393SOL     OW36637   0.811   2.094   5.690 -0.0178  0.0379  0.7938
 8393SOL    HW136638   0.818   2.001   5.667  0.3578  0.4367 -0.6957
 8393SOL    HW236639   0.800   2.093   5.785 -0.1311  1.8189  0.7980
 8394SOL     OW36640   3.340   0.603  14.245 -0.4380  0.4267 -0.1207
 8394SOL    HW136641   3.394   0.556  14.181  3.1337 -1.4685  4.2357
 8394SOL    HW236642   3.393   0.680  14.264  1.0274 -0.4725 -0.5283
 8395SOL     OW36643   2.904   1.320   5.532  0.4932  0.0247 -0.0809
 8395SOL    HW136644   2.893   1.410   5.563 -3.9339 -0.1816 -0.9968
 8395SOL    HW236645   2.998   1.314   5.512  0.6427 -0.3522  0.7507
 8396SOL     OW36646   2.139   3.945  12.544  0.1895 -0.0468  0.4491
 8396SOL    HW136647   2.096   4.016  12.497  2.2830  1.0716  0.2348
 8396SOL    HW236648   2.206   3.992  12.594  0.7868  0.4507 -0.8162
 8397SOL     OW36649   2.236   1.993   5.036 -0.3063  0.6770 -0.6211
 8397SOL    HW136650   2.208   1.966   4.949  0.8942 -0.0465 -0.7807
 8397SOL    HW236651   2.308   1.931   5.048 -0.9172  0.5213  2.4719
 8398SOL     OW36652   3.394   3.738   7.404  0.7155  0.4753 -0.1398
 8398SOL    HW136653   3.411   3.784   7.487  2.2428 -2.0135  0.9412
 8398SOL    HW236654   3.425   3.804   7.342 -0.0544 -0.1852 -1.2214
 8399SOL     OW36655   3.573   1.503  10.393 -0.5135 -0.2199 -0.3515
 8399SOL    HW136656   3.603   1.586  10.355  0.4334 -1.0604 -1.4384
 8399SOL    HW236657   3.657   1.469  10.422  0.7210  1.2724 -2.1424
 8400SOL     OW36658   1.966   0.235   8.693 -0.0509  0.2432  0.4983
 8400SOL    HW136659   2.025   0.179   8.642 -1.4968 -0.9623  0.1366
 8400SOL    HW236660   1.884   0.242   8.644 -0.3886  2.0752  1.3594
 8401SOL     OW36661   0.017   3.200   9.477 -0.2324  0.1139  0.6972
 8401SOL    HW136662   0.067   3.122   9.500  3.3515  2.6420  1.4696
 8401SOL    HW236663   0.082   3.264   9.505 -0.1279 -0.4249  1.6835
 8402SOL     OW36664   2.807   4.463   2.619  0.0019 -0.5204 -0.3780
 8402SOL    HW136665   2.875   4.531   2.631  1.9158 -2.6697  1.0103
 8402SOL    HW236666   2.844   4.376   2.604 -0.3316 -0.2360 -2.7518
 8403SOL     OW36667   1.172   1.003   6.248 -0.3389 -0.0868  0.6022
 8403SOL    HW136668   1.195   0.953   6.326 -0.3684  1.4210  1.5730
 8403SOL    HW236669   1.148   0.931   6.190 -0.9781  1.0346 -0.5362
 8404SOL     OW36670   0.921   1.989   1.714  0.0978  0.6975 -0.0876
 8404SOL    HW136671   0.993   1.983   1.651  1.3235 -0.7463  1.4275
 8404SOL    HW236672   0.905   1.897   1.737 -0.2794  0.3735 -1.6466
 8405SOL     OW36673   1.864   0.563   0.630  0.3656  0.3788 -0.0508
 8405SOL    HW136674   1.898   0.546   0.542 -0.0372  1.0461 -0.3366
 8405SOL    HW236675   1.889   0.654   0.648 -0.8728  0.4845  1.1870
 8406SOL     OW36676   1.741   2.781   7.835  0.2386 -0.4209 -0.0594
 8406SOL    HW136677   1.761   2.859   7.886  1.8508 -0.0113 -1.3235
 8406SOL    HW236678   1.702   2.733   7.908  0.6380 -1.3764 -0.4756
 8407SOL     OW36679   3.202   1.323   2.590 -0.1721  0.2314  0.0327
 8407SOL    HW136680   3.140   1.251   2.596  0.2376 -0.0949  0.3614
 8407SOL    HW236681   3.249   1.282   2.518  2.7687 -0.1529  2.1517
 8408SOL     OW36682   0.542   3.713   9.663 -0.4000 -0.3851 -0.1032
 8408SOL    HW136683   0.496   3.752   9.737 -0.3497 -1.4706  0.4968
 8408SOL    HW236684   0.584   3.791   9.626  0.1535 -0.8999 -0.5530
 8409SOL     OW36685   4.720   0.973  14.344  0.6301 -0.0311  0.1403
 8409SOL    HW136686   0.061   1.022  14.394  1.1394 -0.7578  0.1842
 8409SOL    HW236687   0.020   0.884  14.368 -3.2916 -0.9721  0.6002
 8410SOL     OW36688   4.652   0.061   5.654 -0.5963 -0.3404  0.2036
 8410SOL    HW136689   4.611   0.002   5.591 -2.2421  2.1522 -1.1001
 8410SOL    HW236690   4.579   0.084   5.712 -1.2990  0.2627 -0.9100
 8411SOL     OW36691   4.375   4.088   6.367 -0.1863 -0.4629 -0.2734
 8411SOL    HW136692   4.359   4.154   6.300  1.2105  0.4217  0.2651
 8411SOL    HW236693   4.288   4.050   6.378 -0.5716  0.4173 -0.2313
 8412SOL     OW36694   1.078   1.469   3.465  0.4210 -0.3736  0.0361
 8412SOL    HW136695   1.104   1.447   3.555 -0.2309  3.0719  1.0520
 8412SOL    HW236696   1.087   1.384   3.421 -0.0488 -1.5151  2.1394
 8413SOL     OW36697   1.598   3.493   6.914 -0.3470 -0.3109 -0.2524
 8413SOL    HW136698   1.595   3.464   6.823 -0.2387  0.7289 -0.5909
 8413SOL    HW236699   1.665   3.561   6.904 -1.1102  0.6806  1.5539
 8414SOL     OW36700   3.157   1.783   3.634  0.2368 -0.2207 -0.2210
 8414SOL    HW136701   3.199   1.734   3.705 -2.7799 -0.1056  1.6728
 8414SOL    HW236702   3.231   1.795   3.575  0.0130  0.7884 -0.2926
 8415SOL     OW36703   4.219   2.184   6.849  0.3008  0.2443  0.4179
 8415SOL    HW136704   4.169   2.106   6.825 -1.2530  0.4347  3.0622
 8415SOL    HW236705   4.156   2.251   6.822  2.3504  1.2385 -1.9399
 8416SOL     OW36706   4.658   3.782  10.389 -0.5568 -0.2342  0.9936
 8416SOL    HW136707   4.716   3.850  10.424 -0.9353  0.1857  0.8110
 8416SOL    HW236708   4.640   3.812  10.300  0.3875 -2.5314  0.0436
 8417SOL     OW36709   4.360   2.945   0.562  0.1352 -0.5000  0.4395
 8417SOL    HW136710   4.353   3.027   0.609  0.4873 -0.8783  1.1505
 8417SOL    HW236711   4.394   2.968   0.475 -0.4069  0.8153  0.5755
 8418SOL     OW36712   0.359   2.130   5.245  0.2513  0.4022 -0.1143
 8418SOL    HW136713   0.426   2.093   5.302  0.9656  2.6898  0.5353
 8418SOL    HW236714   0.299   2.175   5.304 -0.9884 -2.3601  0.7039
 8419SOL     OW36715   3.811   1.882  17.006  0.1609  0.4502 -0.5190
 8419SOL    HW136716   3.897   1.922  17.022  0.1634 -0.2602  1.2936
 8419SOL    HW236717   3.789   1.919  16.921 -0.4166  1.0896 -0.0894
 8420SOL     OW36718   1.815   3.809   8.187 -0.3542  0.1424  0.7263
 8420SOL    HW136719   1.732   3.841   8.151  0.6148 -0.6613 -2.1849
 8420SOL    HW236720   1.829   3.734   8.129  0.4299  0.8562  0.0037
 8421SOL     OW36721   1.597   3.763   5.979 -0.4636  0.0751 -0.6918
 8421SOL    HW136722   1.519   3.738   5.930 -0.2689  2.6937 -2.2809
 8421SOL    HW236723   1.623   3.849   5.948  1.1989 -0.2638 -0.2319
 8422SOL     OW36724   0.262   2.873  11.599 -0.4718 -0.0753  0.3169
 8422SOL    HW136725   0.201   2.930  11.645 -1.8526 -0.9693 -0.3795
 8422SOL    HW236726   0.350   2.896  11.628 -0.5144 -1.3069  1.4540
 8423SOL     OW36727   2.481   0.965   1.484  0.2009 -0.2905 -0.4303
 8423SOL    HW136728   2.425   0.988   1.558 -0.0228 -0.1474 -0.6400
 8423SOL    HW236729   2.558   1.015   1.509 -0.2500  1.7300 -2.9990
 8424SOL     OW36730   4.309   1.468   7.244 -0.1420 -0.8587 -0.2312
 8424SOL    HW136731   4.243   1.473   7.175 -1.1420 -1.4725  0.6803
 8424SOL    HW236732   4.256   1.465   7.323  2.0907  1.8715  1.3698
 8425SOL     OW36733   4.167   0.724   4.360 -0.1263 -0.1545  0.6183
 8425SOL    HW136734   4.234   0.676   4.408 -2.1728 -0.6908  2.9416
 8425SOL    HW236735   4.120   0.642   4.341 -1.4677  1.1167 -1.5177
 8426SOL     OW36736   3.124   4.242  11.566 -0.0628  0.0646 -0.0207
 8426SOL    HW136737   3.077   4.193  11.634 -2.5568  2.0948 -0.3042
 8426SOL    HW236738   3.150   4.319  11.617  0.3302  0.3770 -0.7026
 8427SOL     OW36739   4.419   1.830  11.455  0.0412 -0.0037 -0.3122
 8427SOL    HW136740   4.387   1.910  11.415 -4.3611 -0.8558  1.4962
 8427SOL    HW236741   4.378   1.830  11.542  0.9213 -0.1796  0.1059
 8428SOL     OW36742   2.301   2.160   5.232  0.3131  0.1848  0.1424
 8428SOL    HW136743   2.281   2.239   5.182 -1.0077  0.0746  0.4846
 8428SOL    HW236744   2.283   2.085   5.175 -3.6123  1.0822  0.2381
 8429SOL     OW36745   3.942   4.580   9.776  0.5340  1.0021 -0.2020
 8429SOL    HW136746   3.995   4.552   9.701 -0.6006 -1.6159 -0.0208
 8429SOL    HW236747   4.008   4.634   9.818  2.0422  0.0033 -1.2634
 8430SOL     OW36748   3.299   2.808   7.191 -0.0502 -0.0929 -0.1522
 8430SOL    HW136749   3.278   2.780   7.102  4.2535 -3.8198  0.0030
 8430SOL    HW236750   3.352   2.885   7.172  1.5119 -1.0233  0.4221
 8431SOL     OW36751   4.105   3.997   7.657 -0.1432 -0.2159 -0.1993
 8431SOL    HW136752   4.117   4.047   7.576  1.5615 -0.8293 -0.3178
 8431SOL    HW236753   4.095   4.066   7.722 -0.6094  2.6104 -3.2416
 8432SOL     OW36754   1.025   3.743   2.591  0.3284 -0.3033  0.3731
 8432SOL    HW136755   1.065   3.761   2.506 -1.1393  2.4703  0.2770
 8432SOL    HW236756   0.931   3.732   2.575 -0.3245  3.0855  1.9229
 8433SOL     OW36757   2.025   1.171  14.833 -0.2604 -0.0769 -0.2242
 8433SOL    HW136758   1.938   1.131  14.828  0.1613 -0.7813 -1.9157
 8433SOL    HW236759   2.075   1.114  14.892  2.4674 -0.1678 -2.6305
 8434SOL     OW36760   2.293   0.352   6.741  0.7504 -0.4159 -0.4736
 8434SOL    HW136761   2.273   0.280   6.681 -0.4045 -1.6810  1.4354
 8434SOL    HW236762   2.238   0.331   6.816  0.2552 -1.1181 -1.0390
 8435SOL     OW36763   2.208   0.748   2.862 -0.2699 -0.4073 -0.2436
 8435SOL    HW136764   2.222   0.692   2.938 -0.2255  1.1178  0.8624
 8435SOL    HW236765   2.143   0.812   2.892 -0.0636 -0.9783  1.3978
 8436SOL     OW36766   2.735   0.197   2.844  0.3116 -0.9002  0.5076
 8436SOL    HW136767   2.668   0.196   2.913 -1.6564  2.8843 -1.3974
 8436SOL    HW236768   2.706   0.122   2.792  0.6390 -1.2952  0.8853
 8437SOL     OW36769   2.774   3.849  10.753 -0.0063 -0.0737  0.3001
 8437SOL    HW136770   2.683   3.878  10.757 -0.1539 -0.3439 -0.9030
 8437SOL    HW236771   2.776   3.807  10.839 -0.0629 -0.6301  0.0326
 8438SOL     OW36772   0.622   3.798  10.280  0.6019  0.1314 -0.7254
 8438SOL    HW136773   0.650   3.710  10.304  0.1647 -0.1538 -1.2779
 8438SOL    HW236774   0.620   3.808  10.185 -0.5402  0.4628 -0.6674
 8439SOL     OW36775   0.128   2.070   8.536  0.2643  0.1332 -0.5778
 8439SOL    HW136776   0.129   2.041   8.445 -3.2524  0.9113 -0.8527
 8439SOL    HW236777   0.220   2.046   8.544  1.0308  3.0778 -0.2235
 8440SOL     OW36778   3.332   0.550   1.093  0.0797 -0.4566  0.1291
 8440SOL    HW136779   3.380   0.595   1.162  0.8786  0.1809 -0.8303
 8440SOL    HW236780   3.308   0.472   1.142 -0.1528  0.9136  2.1736
 8441SOL     OW36781   0.680   2.122   3.677 -0.4568 -0.4318 -0.0869
 8441SOL    HW136782   0.609   2.065   3.706 -2.5438  1.7140 -0.9245
 8441SOL    HW236783   0.648   2.208   3.705  1.5756  1.0758 -2.3315
 8442SOL     OW36784   4.292   3.893   1.145 -0.4941  0.0252 -0.0028
 8442SOL    HW136785   4.314   3.912   1.054  1.2314  0.5300  0.5223
 8442SOL    HW236786   4.209   3.851   1.124 -0.6385 -0.3358  1.2694
 8443SOL     OW36787   4.692   1.416   5.439  0.3286 -0.1280  0.0989
 8443SOL    HW136788   0.037   1.461   5.486  0.7891 -0.1746 -0.5430
 8443SOL    HW236789   4.634   1.492   5.429 -0.6467 -0.9293 -0.3781
 8444SOL     OW36790   0.159   0.060   5.505  0.1928  0.3573  0.0283
 8444SOL    HW136791   0.203   0.143   5.528  2.1176 -0.9336  1.0257
 8444SOL    HW236792   0.077   0.081   5.549  0.4500 -1.6883  1.4748
 8445SOL     OW36793   4.625   4.120   7.915 -0.0908 -0.1212  0.4366
 8445SOL    HW136794   4.691   4.055   7.892  0.9409  0.8403  0.6977
 8445SOL    HW236795   4.544   4.073   7.896  0.2694  0.4584 -2.5117
 8446SOL     OW36796   0.262   3.837   2.792 -0.4054  0.3190 -1.0933
 8446SOL    HW136797   0.217   3.767   2.746  0.6222 -0.7771 -0.4319
 8446SOL    HW236798   0.250   3.808   2.882  1.2648 -1.7944 -1.5563
 8447SOL     OW36799   1.331   4.029   5.108 -0.3654 -0.0710 -0.3130
 8447SOL    HW136800   1.246   3.999   5.078 -0.2427 -0.4600 -0.2770
 8447SOL    HW236801   1.395   3.970   5.066 -0.7279 -1.6551  1.3366
 8448SOL     OW36802   1.477   4.275   2.479  0.7409  0.0997  0.7800
 8448SOL    HW136803   1.492   4.266   2.385 -1.4285  0.6411  0.3748
 8448SOL    HW236804   1.466   4.186   2.511  0.3246 -0.9551 -2.3186
 8449SOL     OW36805   4.236   2.662   7.426 -0.2565  0.2182 -0.4677
 8449SOL    HW136806   4.289   2.735   7.459 -1.3495  0.2325  1.2482
 8449SOL    HW236807   4.270   2.644   7.338 -0.8075  0.8146 -0.8048
 8450SOL     OW36808   3.161   4.642   7.527 -0.3143  0.4476  0.1753
 8450SOL    HW136809   3.101   4.628   7.454 -0.6858  5.5587 -0.4648
 8450SOL    HW236810   3.151   4.555   7.565  0.6146  1.4960  2.8143
 8451SOL     OW36811   2.475   4.260  12.860 -0.8784 -0.1911 -0.5561
 8451SOL    HW136812   2.440   4.300  12.781  0.0453  1.0081 -0.3598
 8451SOL    HW236813   2.568   4.255  12.837 -0.7203 -0.3285  0.1340
 8452SOL     OW36814   2.968   4.679   0.278 -0.0692  0.3403 -0.2640
 8452SOL    HW136815   2.957   4.724   0.194  1.4129 -2.3650 -1.9097
 8452SOL    HW236816   3.034   4.612   0.260 -1.2238 -0.5135 -1.3375
 8453SOL     OW36817   0.667   1.372   7.355 -0.1185 -0.3485  0.3393
 8453SOL    HW136818   0.696   1.285   7.381 -0.6869  0.0119  2.1729
 8453SOL    HW236819   0.678   1.371   7.260 -0.8728 -0.1945  0.2471
 8454SOL     OW36820   1.346   2.125   2.006  0.0286 -0.8336 -0.5297
 8454SOL    HW136821   1.287   2.161   2.072  0.7231  2.4909 -1.7475
 8454SOL    HW236822   1.351   2.195   1.941 -1.5757  1.0783  1.4056
 8455SOL     OW36823   3.497   3.029  16.451 -0.4467  0.2768  0.2314
 8455SOL    HW136824   3.449   3.064  16.526  0.3572  1.1360  0.3505
 8455SOL    HW236825   3.443   2.956  16.422  0.9150 -0.8692  0.5768
 8456SOL     OW36826   0.366   0.886   8.267 -0.0461 -0.4494  0.6438
 8456SOL    HW136827   0.450   0.845   8.243  0.3464  1.2622 -0.8753
 8456SOL    HW236828   0.356   0.846   8.353 -0.4449 -0.0344  0.7888
 8457SOL     OW36829   1.956   0.020   8.325 -0.5662 -1.0111 -0.0136
 8457SOL    HW136830   1.993   4.675   8.379  0.9751  1.0036  1.4990
 8457SOL    HW236831   2.032   0.055   8.279 -1.5668  0.5107 -0.4926
 8458SOL     OW36832   2.498   4.382  12.198  0.5621  0.6450 -0.4101
 8458SOL    HW136833   2.454   4.300  12.176  2.5880 -0.2730 -1.1118
 8458SOL    HW236834   2.473   4.392  12.290  0.2329  3.4616 -0.8268
 8459SOL     OW36835   3.198   0.373   7.765 -0.2756 -0.8222 -0.0692
 8459SOL    HW136836   3.240   0.357   7.680 -0.0541  1.5780 -0.4065
 8459SOL    HW236837   3.233   0.461   7.778  1.4404 -1.4872 -0.1811
 8460SOL     OW36838   1.291   3.188   3.288  0.0917 -0.2049  0.0620
 8460SOL    HW136839   1.205   3.191   3.246  1.8281  0.8353 -3.4305
 8460SOL    HW236840   1.283   3.109   3.341 -1.8805  0.5532  0.9006
 8461SOL     OW36841   3.415   2.790  15.572 -0.0196  0.3411 -0.1555
 8461SOL    HW136842   3.477   2.856  15.540  0.8945  0.5013  1.9562
 8461SOL    HW236843   3.432   2.713  15.517 -0.6616  0.6423 -0.7779
 8462SOL     OW36844   1.617   1.030  16.709 -0.0034 -0.1622  0.2870
 8462SOL    HW136845   1.584   1.007  16.622 -0.5797 -0.6133  0.6171
 8462SOL    HW236846   1.703   1.061  16.681 -0.3520 -0.3045 -0.9493
 8463SOL     OW36847   4.278   3.442   9.162  0.5872  0.4280 -0.5281
 8463SOL    HW136848   4.285   3.538   9.161 -1.4163  0.5816  0.5034
 8463SOL    HW236849   4.306   3.428   9.252 -1.8510 -1.9304 -0.1317
 8464SOL     OW36850   2.482   4.447   8.279 -0.1401 -0.0824  0.3165
 8464SOL    HW136851   2.565   4.468   8.238  0.7078 -0.6106  1.7538
 8464SOL    HW236852   2.489   4.485   8.367 -1.2035 -0.9100  0.7597
 8465SOL     OW36853   4.715   1.299   4.005  0.1244  0.7450 -0.1755
 8465SOL    HW136854   0.027   1.331   3.922 -0.6495  0.1749 -0.7424
 8465SOL    HW236855   0.037   1.357   4.065  0.1857 -0.0053  0.4989
 8466SOL     OW36856   3.858   0.438   5.383  0.0513 -0.6197 -0.0515
 8466SOL    HW136857   3.808   0.458   5.304 -1.9253 -2.3763  0.7306
 8466SOL    HW236858   3.788   0.414   5.445 -1.7078  1.2715 -1.2999
 8467SOL     OW36859   4.332   0.753  11.680  0.1597  0.0200 -0.2963
 8467SOL    HW136860   4.400   0.805  11.636  1.0665 -1.0452 -0.1413
 8467SOL    HW236861   4.364   0.773  11.768  0.1861 -0.3477 -0.2251
 8468SOL     OW36862   3.515   1.353   3.823 -0.1475 -0.3048  0.3098
 8468SOL    HW136863   3.452   1.423   3.840  0.8787  0.7314 -0.1161
 8468SOL    HW236864   3.454   1.292   3.782  0.0923 -0.1324 -0.2992
 8469SOL     OW36865   0.990   4.537   3.960 -0.0909 -0.0184 -0.1715
 8469SOL    HW136866   0.991   4.445   3.932 -0.0829  0.1096 -0.6013
 8469SOL    HW236867   0.896   4.551   3.977 -0.8907 -3.6706 -1.6353
 8470SOL     OW36868   3.678   2.105   5.959 -0.5831  0.1419  0.0600
 8470SOL    HW136869   3.761   2.089   5.914 -0.5009 -0.0026  0.2592
 8470SOL    HW236870   3.644   2.171   5.900 -2.1761  0.1737  1.0071
 8471SOL     OW36871   1.087   1.017   3.981  0.0696 -0.1155 -0.0044
 8471SOL    HW136872   1.061   1.048   4.068 -2.7451  1.2623 -1.3350
 8471SOL    HW236873   1.114   0.926   3.990 -1.2188 -0.6189 -1.3596
 8472SOL     OW36874   0.935   0.925   4.984  0.1015  0.0879 -0.6525
 8472SOL    HW136875   0.914   0.920   5.078 -0.0144 -0.6265 -0.7146
 8472SOL    HW236876   0.853   0.961   4.950  1.0383 -0.4377 -3.4165
 8473SOL     OW36877   3.623   0.467   3.080  0.4393  0.1834 -0.4662
 8473SOL    HW136878   3.684   0.510   3.141 -1.0394  0.4163  0.8590
 8473SOL    HW236879   3.541   0.464   3.130  0.7609  0.4847  0.0878
 8474SOL     OW36880   1.184   3.835   4.634 -0.3691  0.5342 -0.0039
 8474SOL    HW136881   1.237   3.772   4.585 -0.0383 -0.7423  2.0003
 8474SOL    HW236882   1.099   3.791   4.632 -0.2094  0.2761 -1.2759
 8475SOL     OW36883   1.827   3.608   8.000 -0.5751 -0.0103 -0.1457
 8475SOL    HW136884   1.904   3.639   7.953 -1.1218 -0.8125 -1.5772
 8475SOL    HW236885   1.859   3.518   8.006 -0.0560  0.1185 -1.1508
 8476SOL     OW36886   2.388   2.455   3.242 -0.0185 -0.2841  0.1760
 8476SOL    HW136887   2.447   2.413   3.303  1.4843 -1.0326 -1.7769
 8476SOL    HW236888   2.366   2.388   3.177  0.2075 -1.7033  1.5627
 8477SOL     OW36889   4.533   1.613  10.938  0.7057  0.1869  0.4302
 8477SOL    HW136890   4.628   1.627  10.947  0.7088  0.7458 -0.4495
 8477SOL    HW236891   4.522   1.637  10.846 -0.1625 -0.2661  0.4215
 8478SOL     OW36892   0.433   1.118   1.684  0.2596  0.3618  0.0439
 8478SOL    HW136893   0.365   1.182   1.705 -0.2459  0.1564 -1.0086
 8478SOL    HW236894   0.437   1.065   1.764  0.3873  0.6105  0.2029
 8479SOL     OW36895   2.134   1.511   5.861  0.3822 -0.3164 -0.3820
 8479SOL    HW136896   2.057   1.550   5.904  1.6454  1.7806  0.0041
 8479SOL    HW236897   2.125   1.426   5.903 -1.4042  0.5211  0.9230
 8480SOL     OW36898   0.310   1.275   3.605  0.0137  0.5787  0.0562
 8480SOL    HW136899   0.334   1.368   3.613 -1.0444  0.7932  0.6956
 8480SOL    HW236900   0.216   1.277   3.624 -0.0880  0.5425 -0.4387
 8481SOL     OW36901   4.193   2.953   5.785 -0.2839 -0.0402 -0.0693
 8481SOL    HW136902   4.151   3.036   5.761 -0.4563 -0.8950 -2.7671
 8481SOL    HW236903   4.225   2.977   5.872 -1.4785 -0.2079  0.4202
 8482SOL     OW36904   1.813   4.346  13.031  0.0638 -0.2568 -0.1245
 8482SOL    HW136905   1.885   4.332  13.092 -0.9960 -2.0797  0.7166
 8482SOL    HW236906   1.854   4.397  12.961 -0.3443  1.7350  1.0795
 8483SOL     OW36907   0.783   0.657   4.374 -0.0955 -0.1201  0.5362
 8483SOL    HW136908   0.857   0.659   4.435 -0.5012  2.7774  0.9464
 8483SOL    HW236909   0.767   0.750   4.359  1.2273  0.1210  0.5774
 8484SOL     OW36910   3.809   3.729   5.863 -0.0319 -0.0395  0.1394
 8484SOL    HW136911   3.758   3.744   5.783  0.4376 -2.5547 -0.6159
 8484SOL    HW236912   3.857   3.812   5.868  0.0404 -0.0759  0.0294
 8485SOL     OW36913   4.599   1.985  10.352  0.3552 -0.3649 -0.0179
 8485SOL    HW136914   4.638   1.910  10.309  0.6633  1.4989 -3.0127
 8485SOL    HW236915   4.673   2.045  10.341  0.5827 -0.8328 -1.0813
 8486SOL     OW36916   3.835   3.495   3.911  0.1856 -0.6274 -0.3798
 8486SOL    HW136917   3.879   3.411   3.918 -0.8319 -1.4509 -3.9938
 8486SOL    HW236918   3.765   3.484   3.976  1.2727 -0.6619  0.7832
 8487SOL     OW36919   0.475   1.024   7.203 -0.5423 -0.2975 -0.3465
 8487SOL    HW136920   0.456   0.937   7.168 -0.8530 -0.4310  0.1480
 8487SOL    HW236921   0.434   1.016   7.290  2.2354  2.0718  1.2014
 8488SOL     OW36922   3.354   4.633   7.250  0.7256 -0.2853 -0.1512
 8488SOL    HW136923   3.308   4.637   7.334  0.0491  0.2536 -0.5538
 8488SOL    HW236924   3.283   4.650   7.188  1.3124  4.4545  0.5332
 8489SOL     OW36925   4.041   2.543   8.801  0.2320  0.2037  0.4533
 8489SOL    HW136926   3.949   2.543   8.828 -0.7692 -0.8017 -2.9460
 8489SOL    HW236927   4.088   2.539   8.884 -0.9446 -1.4022  1.0413
 8490SOL     OW36928   2.342   1.920   1.292 -0.0557 -0.6091 -0.1546
 8490SOL    HW136929   2.333   1.938   1.385  3.2708  2.2163 -0.3737
 8490SOL    HW236930   2.433   1.947   1.278  0.1387 -0.7478  0.8556
 8491SOL     OW36931   4.298   3.515   9.423  0.1255  0.1341 -0.1444
 8491SOL    HW136932   4.289   3.559   9.508  1.0876 -2.3762  1.2587
 8491SOL    HW236933   4.387   3.542   9.403 -0.0345  1.0732  0.4299
 8492SOL     OW36934   2.975   0.169   8.368  0.6930 -0.5251 -0.2803
 8492SOL    HW136935   2.950   0.166   8.275 -0.5819 -1.7099  0.0864
 8492SOL    HW236936   3.059   0.123   8.363  0.6610 -0.6462  0.2650
 8493SOL     OW36937   4.530   3.632   4.490 -0.4029 -0.4369 -0.4618
 8493SOL    HW136938   4.450   3.632   4.543  0.7007  1.3376  1.1796
 8493SOL    HW236939   4.595   3.656   4.556 -1.0794  2.6890 -0.9163
 8494SOL     OW36940   2.058   1.015   4.636  0.5145  0.8212  0.2939
 8494SOL    HW136941   2.043   1.084   4.571 -0.0931 -0.5003 -0.9967
 8494SOL    HW236942   2.124   1.062   4.686  0.3176  0.6685  0.7013
 8495SOL     OW36943   2.342   0.281  11.600 -0.3017 -0.6881 -0.5543
 8495SOL    HW136944   2.266   0.337  11.618 -1.0961 -1.9689  0.1155
 8495SOL    HW236945   2.304   0.195  11.618 -0.3830 -0.8006 -1.2730
 8496SOL     OW36946   3.147   2.680   7.375 -0.3242  0.0931  0.1418
 8496SOL    HW136947   3.194   2.714   7.451  0.5298 -1.4065  0.2913
 8496SOL    HW236948   3.200   2.720   7.306  1.4727  3.9903  3.7540
 8497SOL     OW36949   3.637   4.486   1.651 -0.0827 -0.4395 -0.0565
 8497SOL    HW136950   3.726   4.498   1.684 -0.4675  0.3285  0.6869
 8497SOL    HW236951   3.654   4.458   1.561  1.2221  2.3722 -0.6746
 8498SOL     OW36952   2.408   1.348   6.045 -0.0097 -0.1335 -0.4783
 8498SOL    HW136953   2.387   1.265   6.002 -1.1577  0.3028 -0.7696
 8498SOL    HW236954   2.370   1.346   6.133  0.5194 -0.3826 -0.2597
 8499SOL     OW36955   2.994   4.398  16.130  0.1961  0.4254 -0.0073
 8499SOL    HW136956   2.965   4.341  16.202  1.4560 -1.7312 -1.1834
 8499SOL    HW236957   2.935   4.472  16.141 -1.6512 -0.8868 -1.1523
 8500SOL     OW36958   2.711   3.814   0.902  0.1180 -0.2980  0.2564
 8500SOL    HW136959   2.651   3.886   0.883  1.1640  1.2156  2.8102
 8500SOL    HW236960   2.783   3.845   0.846  1.3425 -0.3168  1.8277
 8501SOL     OW36961   2.816   0.715  11.390 -0.3486 -0.3986 -0.4572
 8501SOL    HW136962   2.897   0.724  11.340  1.7391 -0.6778  2.9012
 8501SOL    HW236963   2.846   0.709  11.481 -3.4653  1.3014  0.6793
 8502SOL     OW36964   3.072   3.750  13.528  0.3620  0.1929  0.8922
 8502SOL    HW136965   3.097   3.829  13.480 -0.1874 -1.2425 -1.7457
 8502SOL    HW236966   3.126   3.680  13.492  1.0393  1.3450 -0.3195
 8503SOL     OW36967   0.618   3.860   3.681  0.4389 -0.0052 -0.2601
 8503SOL    HW136968   0.632   3.939   3.630 -1.9010  1.2073  0.9616
 8503SOL    HW236969   0.697   3.861   3.735  1.2467  0.4387 -1.4562
 8504SOL     OW36970   2.849   3.807   6.893 -0.4975  0.2289  0.0341
 8504SOL    HW136971   2.875   3.721   6.923  1.2274  0.3089 -1.2244
 8504SOL    HW236972   2.780   3.787   6.830 -0.5411 -0.2721  0.2434
 8505SOL     OW36973   1.746   1.001   0.216  0.2817  0.0894 -0.5006
 8505SOL    HW136974   1.656   1.024   0.236  0.5821  1.3329 -0.5753
 8505SOL    HW236975   1.787   1.015   0.301  0.0241 -3.1053  0.1752
 8506SOL     OW36976   3.393   3.882   4.435  0.0406  0.2231 -0.1072
 8506SOL    HW136977   3.480   3.921   4.438  0.8525 -1.5415 -0.3210
 8506SOL    HW236978   3.347   3.963   4.412 -0.4373  1.0447  3.8363
 8507SOL     OW36979   4.422   2.526  16.566  0.2059  0.1313  0.5082
 8507SOL    HW136980   4.438   2.552  16.656  0.7874 -0.0135  0.4460
 8507SOL    HW236981   4.331   2.553  16.551 -0.3381 -2.7521 -1.4328
 8508SOL     OW36982   0.241   0.805   7.768 -0.2145  0.1689 -0.6559
 8508SOL    HW136983   0.157   0.766   7.793 -0.7053  1.8521  0.3161
 8508SOL    HW236984   0.247   0.841   7.856  0.4706  1.2239 -1.1376
 8509SOL     OW36985   4.385   4.282   7.052  0.3937  0.2671 -0.4454
 8509SOL    HW136986   4.369   4.376   7.045 -0.2629  0.1795 -0.2013
 8509SOL    HW236987   4.472   4.264   7.016  0.5757  1.1256 -0.4207
 8510SOL     OW36988   1.467   0.901   9.063 -0.6929 -0.3755 -0.4801
 8510SOL    HW136989   1.508   0.879   9.147  0.2526  1.1476 -0.5451
 8510SOL    HW236990   1.471   0.812   9.026 -1.2273  0.1482 -1.8152
 8511SOL     OW36991   0.965   0.292   2.893  0.2415 -0.4306  0.2947
 8511SOL    HW136992   0.940   0.338   2.973 -0.6373 -0.1269 -0.1555
 8511SOL    HW236993   1.059   0.301   2.875  0.0513  1.6448  0.3368
 8512SOL     OW36994   1.865   4.644   5.239  0.1128  0.0297 -0.2903
 8512SOL    HW136995   1.875   4.690   5.155 -0.1476 -0.3076 -0.5048
 8512SOL    HW236996   1.810   4.568   5.225 -2.0899  1.5306  0.2047
 8513SOL     OW36997   0.602   3.795   8.972  0.2833 -0.3734 -0.2477
 8513SOL    HW136998   0.679   3.851   8.984  1.3104 -1.8258 -0.0495
 8513SOL    HW236999   0.621   3.723   9.032  0.4349 -1.1439 -1.2150
 8514SOL     OW37000   4.656   1.514   6.577  0.0647 -0.2432 -0.2485
 8514SOL    HW137001   4.672   1.444   6.513  1.5374 -0.7934  0.7065
 8514SOL    HW237002   0.009   1.504   6.633 -1.1241  0.6714  1.5287
 8515SOL     OW37003   2.615   2.322  10.557  0.3913  0.2617  0.4368
 8515SOL    HW137004   2.546   2.290  10.615  0.7577 -1.3084  0.0090
 8515SOL    HW237005   2.584   2.412  10.547  1.6547  0.5076 -1.1980
 8516SOL     OW37006   2.528   0.829   7.018 -0.0679 -0.2262 -0.5531
 8516SOL    HW137007   2.492   0.756   6.967 -1.4030 -0.0701  0.1554
 8516SOL    HW237008   2.455   0.837   7.080  0.5512  0.9600  0.0356
 8517SOL     OW37009   0.225   4.686   1.348 -0.5355 -0.0338  0.2447
 8517SOL    HW137010   0.231   4.672   1.442  1.0895 -1.2519 -0.0509
 8517SOL    HW237011   0.184   0.048   1.341  0.9901  0.6006 -0.9239
 8518SOL     OW37012   0.341   0.555   7.681 -0.1321  0.2292 -0.1005
 8518SOL    HW137013   0.376   0.616   7.615  0.0859 -0.1384 -0.3269
 8518SOL    HW237014   0.271   0.606   7.721 -1.3800 -0.1699 -1.7784
 8519SOL     OW37015   1.192   2.268   8.522 -0.3961  0.5913  0.2280
 8519SOL    HW137016   1.115   2.242   8.471  1.0761  0.5455 -1.9530
 8519SOL    HW237017   1.161   2.305   8.605  0.7538 -1.8678  1.7476
 8520SOL     OW37018   1.259   1.885   3.203  0.1375 -0.0190  0.2562
 8520SOL    HW137019   1.194   1.863   3.137 -0.7111  0.2566  0.9869
 8520SOL    HW237020   1.203   1.915   3.275 -0.2978  1.6215 -0.7760
 8521SOL     OW37021   3.987   0.005   6.812 -0.0073 -0.1864  0.2729
 8521SOL    HW137022   4.040   0.078   6.781 -0.1265 -0.5287 -0.7641
 8521SOL    HW237023   4.019   0.012   6.902  0.0191  1.6178  0.1292
 8522SOL     OW37024   3.814   1.585   4.876 -0.0390  0.3062  0.1369
 8522SOL    HW137025   3.792   1.498   4.843 -0.5031  0.5359 -0.1378
 8522SOL    HW237026   3.832   1.633   4.796 -2.4924  1.6682  0.4148
 8523SOL     OW37027   3.186   1.027   3.096 -0.6769  0.2825  1.0580
 8523SOL    HW137028   3.215   1.021   3.005 -0.6123 -2.8772  1.2996
 8523SOL    HW237029   3.170   0.936   3.121 -0.9430  0.2750  0.8558
 8524SOL     OW37030   0.383   4.024   5.943  0.2971  0.1397 -0.1216
 8524SOL    HW137031   0.334   3.975   6.010 -0.1477  0.0500 -0.5163
 8524SOL    HW237032   0.464   4.036   5.993  1.1780 -2.8968 -0.8187
 8525SOL     OW37033   2.750   4.188   1.425  0.2803  0.3593 -0.0849
 8525SOL    HW137034   2.784   4.215   1.511 -1.1291  0.4058  0.4722
 8525SOL    HW237035   2.776   4.256   1.363  0.4911 -0.2802 -0.6932
 8526SOL     OW37036   3.540   0.255   5.045  0.4668 -0.1430 -0.4798
 8526SOL    HW137037   3.553   0.280   5.137 -0.4992 -0.8320 -0.1643
 8526SOL    HW237038   3.499   0.334   5.011  1.0178 -0.3169 -1.5372
 8527SOL     OW37039   4.588   0.470   2.758  0.0580 -0.3710  0.1660
 8527SOL    HW137040   4.598   0.409   2.831 -0.0302 -0.1303  0.3753
 8527SOL    HW237041   4.495   0.454   2.740 -0.0021 -1.7279  1.6801
 8528SOL     OW37042   1.167   1.613   1.626 -0.5452  0.7035  0.5520
 8528SOL    HW137043   1.151   1.604   1.532 -0.3967  0.0395  0.5900
 8528SOL    HW237044   1.260   1.634   1.616 -0.5866  1.1449  1.1181
 8529SOL     OW37045   1.566   0.874   7.857  0.3781 -0.3495  0.3759
 8529SOL    HW137046   1.635   0.818   7.821 -1.7445 -0.6079 -3.2810
 8529SOL    HW237047   1.583   0.876   7.952  1.7828 -3.2390  0.1745
 8530SOL     OW37048   0.152   1.016   4.876 -0.1933  0.4058 -0.5003
 8530SOL    HW137049   0.135   1.035   4.968 -0.3562  1.8505 -0.8331
 8530SOL    HW237050   0.182   0.926   4.887 -0.5070  0.2557 -0.8577
 8531SOL     OW37051   1.247   0.417   7.841  0.3479 -0.1337 -0.1651
 8531SOL    HW137052   1.330   0.458   7.866  0.1096  0.7518 -0.8378
 8531SOL    HW237053   1.193   0.440   7.916 -0.1439 -0.9655 -0.2602
 8532SOL     OW37054   3.101   2.396   4.269  0.2605  0.0106 -0.4860
 8532SOL    HW137055   3.066   2.452   4.200  0.4665  0.6360 -0.0861
 8532SOL    HW237056   3.185   2.436   4.295 -1.0362  0.9618  2.2447
 8533SOL     OW37057   1.845   4.194   8.138 -0.6988 -0.4738  0.2013
 8533SOL    HW137058   1.804   4.183   8.052  0.6130 -1.1679 -0.3246
 8533SOL    HW237059   1.875   4.284   8.124 -0.2645 -1.1870 -3.4959
 8534SOL     OW37060   1.038   2.866  14.125  0.1975 -0.3784  0.8305
 8534SOL    HW137061   1.104   2.804  14.096 -0.9853 -0.9113 -0.7391
 8534SOL    HW237062   0.966   2.803  14.136  1.9737 -2.4846  0.4353
 8535SOL     OW37063   1.246   3.740  16.252  0.0513  0.5048  0.3895
 8535SOL    HW137064   1.155   3.754  16.230 -0.5498 -0.2712  2.3287
 8535SOL    HW237065   1.258   3.650  16.221 -1.1787  1.5816 -3.2053
 8536SOL     OW37066   2.636   0.793  10.241  0.3422  0.2173  0.3745
 8536SOL    HW137067   2.719   0.762  10.277  0.4002  1.0021  0.9362
 8536SOL    HW237068   2.576   0.729  10.278 -0.0403  0.5788  0.3771
 8537SOL     OW37069   3.159   3.686   8.047 -0.2898  0.1617 -0.1579
 8537SOL    HW137070   3.195   3.767   8.082  1.1135 -0.5119 -0.0544
 8537SOL    HW237071   3.194   3.622   8.109  0.8973  0.6871 -0.2893
 8538SOL     OW37072   3.538   2.697   5.499 -0.1130 -0.1861  0.5757
 8538SOL    HW137073   3.622   2.668   5.536  0.7071  3.9789  1.9423
 8538SOL    HW237074   3.543   2.647   5.417  2.5317 -1.9065  1.7663
 8539SOL     OW37075   4.507   0.086  10.979 -0.0745  0.2791 -0.2003
 8539SOL    HW137076   4.495   4.720  10.950  1.7897  0.0783 -0.3337
 8539SOL    HW237077   4.585   0.111  10.930 -0.2176  1.6931  0.3153
 8540SOL     OW37078   2.222   1.204   4.776 -0.2975 -0.1920 -0.1696
 8540SOL    HW137079   2.286   1.137   4.800  2.1298  2.6088  1.1709
 8540SOL    HW237080   2.278   1.270   4.736 -1.6106  0.4427 -0.9853
 8541SOL     OW37081   2.178   3.569   2.780 -0.4472  0.3533  0.3149
 8541SOL    HW137082   2.198   3.477   2.792  0.8430  0.5568 -0.3188
 8541SOL    HW237083   2.206   3.599   2.867 -2.5528 -0.5769  1.3211
 8542SOL     OW37084   2.812   4.575   8.357  0.0014  0.0918 -0.3875
 8542SOL    HW137085   2.906   4.593   8.355  0.2286 -1.2882 -1.7925
 8542SOL    HW237086   2.798   4.569   8.452  1.2779 -2.6993 -0.3814
 8543SOL     OW37087   0.390   2.717   6.180  0.1101 -0.3876  0.2189
 8543SOL    HW137088   0.478   2.680   6.178  0.6079  0.7180  1.3363
 8543SOL    HW237089   0.359   2.696   6.092 -0.9344  1.7355  0.0752
 8544SOL     OW37090   1.732   1.658   4.845  0.0859 -0.2693  0.1372
 8544SOL    HW137091   1.802   1.688   4.788  0.9228  1.4722  2.0952
 8544SOL    HW237092   1.785   1.611   4.910 -0.3377  1.4696  1.7457
 8545SOL     OW37093   1.438   2.239   4.484  0.6195 -0.2503 -0.1916
 8545SOL    HW137094   1.491   2.261   4.408  0.5415  0.6888  0.0325
 8545SOL    HW237095   1.404   2.152   4.461 -0.5112  0.1784 -0.1504
 8546SOL     OW37096   3.963   0.006   9.427 -0.0944  0.2378  0.3458
 8546SOL    HW137097   3.908   4.691   9.359 -2.4443  0.0906  2.3209
 8546SOL    HW237098   4.046   4.684   9.434 -0.9237 -1.2853 -0.1469
 8547SOL     OW37099   4.368   1.397  10.661 -0.0578  0.1319  0.2845
 8547SOL    HW137100   4.298   1.457  10.636  2.3915  3.5146  1.3733
 8547SOL    HW237101   4.331   1.324  10.612  1.6410 -0.0513 -0.7537
 8548SOL     OW37102   3.713   4.708   2.807  0.2300 -0.6393  0.3538
 8548SOL    HW137103   3.640   4.646   2.806  0.4768 -0.8875 -2.0354
 8548SOL    HW237104   3.715   4.713   2.712  0.5740  1.9968  0.4902
 8549SOL     OW37105   3.080   0.850  14.082 -0.4615 -0.0476  0.1227
 8549SOL    HW137106   3.038   0.922  14.034 -2.4633 -0.5744  1.1019
 8549SOL    HW237107   3.174   0.868  14.075  0.0896 -2.5008  1.2066
 8550SOL     OW37108   4.577   4.378   5.016  0.2812  0.0824  0.1907
 8550SOL    HW137109   4.646   4.372   5.082 -0.6158  2.0864  1.3025
 8550SOL    HW237110   4.625   4.328   4.949  1.4136 -0.4596  1.3993
 8551SOL     OW37111   3.336   4.578  11.380 -0.5702 -0.1690  0.0736
 8551SOL    HW137112   3.274   4.528  11.327  1.6208 -0.2261 -2.4482
 8551SOL    HW237113   3.410   4.590  11.321 -1.6805  0.9564 -1.0602
 8552SOL     OW37114   4.215   0.203   1.338 -0.4285 -0.2036 -0.1278
 8552SOL    HW137115   4.297   0.159   1.360 -0.0561  0.4043 -0.2782
 8552SOL    HW237116   4.194   0.156   1.258 -1.9171 -2.1399  1.3883
 8553SOL     OW37117   4.378   0.166   2.330  0.6824 -0.3362  0.0352
 8553SOL    HW137118   4.299   0.139   2.284 -0.7370  2.4788  0.8703
 8553SOL    HW237119   4.431   0.087   2.315  1.2657  0.0725 -0.0314
 8554SOL     OW37120   4.533   3.879   7.603  0.1102  0.0255  0.0847
 8554SOL    HW137121   4.611   3.844   7.646 -0.3902 -0.0814  0.9215
 8554SOL    HW237122   4.495   3.913   7.685 -1.0321 -5.0258  1.6259
 8555SOL     OW37123   3.812   2.265   7.908 -0.1541  0.1268 -0.9452
 8555SOL    HW137124   3.893   2.257   7.857 -0.5311 -0.8511 -1.3940
 8555SOL    HW237125   3.848   2.272   7.996  0.0727  1.3771 -1.1414
 8556SOL     OW37126   4.563   4.580   9.739 -0.2773 -0.4970  0.2731
 8556SOL    HW137127   4.601   4.574   9.651  0.7464  0.9195  0.6097
 8556SOL    HW237128   4.501   4.652   9.730 -0.4378 -0.7731 -0.8423
 8557SOL     OW37129   3.295   1.337  12.193  0.2393  0.1416  0.0713
 8557SOL    HW137130   3.260   1.379  12.115 -1.6471  1.2845  1.5307
 8557SOL    HW237131   3.378   1.379  12.215  0.3776 -0.2995  0.3781
 8558SOL     OW37132   3.347   0.504   2.942 -0.2463  0.3574  0.3741
 8558SOL    HW137133   3.407   0.555   2.996 -0.7680  0.4391  0.8770
 8558SOL    HW237134   3.397   0.468   2.869  0.0851  1.8900 -0.1612
 8559SOL     OW37135   3.229   3.851   6.027  1.0716 -0.1896 -0.5341
 8559SOL    HW137136   3.162   3.912   5.999 -0.3116 -1.5640 -0.2256
 8559SOL    HW237137   3.211   3.768   5.982 -0.4809  0.2699 -0.7644
 8560SOL     OW37138   2.462   4.179   1.448 -0.3252  0.3684 -0.1778
 8560SOL    HW137139   2.460   4.266   1.409  1.2718  0.1510 -0.7322
 8560SOL    HW237140   2.551   4.173   1.484  0.6540  0.5960 -2.5781
 8561SOL     OW37141   0.399   2.883   7.418 -0.4954 -0.7574  0.0924
 8561SOL    HW137142   0.396   2.930   7.335 -0.4532 -0.8044  0.0643
 8561SOL    HW237143   0.440   2.948   7.475  1.2047 -0.3349 -1.6483
 8562SOL     OW37144   4.640   2.521  16.043 -0.3073 -0.3874 -0.0424
 8562SOL    HW137145   0.009   2.501  16.037 -0.4715 -0.6413 -2.0340
 8562SOL    HW237146   4.609   2.541  15.954 -0.8420 -2.6374 -0.3773
 8563SOL     OW37147   0.008   1.960   5.372  0.3346  0.5385 -0.4674
 8563SOL    HW137148   0.077   2.024   5.393  1.1148 -0.9130  1.4283
 8563SOL    HW237149   4.656   2.016   5.376 -0.3994 -0.7103  2.7807
 8564SOL     OW37150   1.499   0.893  16.475 -0.0210 -0.0920  0.5059
 8564SOL    HW137151   1.425   0.846  16.436 -1.0543  2.4755 -0.6855
 8564SOL    HW237152   1.572   0.836  16.450 -0.1068  0.7390 -1.6662
 8565SOL     OW37153   2.268   2.829   3.103  0.5955 -0.4353 -0.3230
 8565SOL    HW137154   2.324   2.846   3.028 -1.9819  0.3685 -2.0591
 8565SOL    HW237155   2.182   2.817   3.063  0.6653  0.5248 -0.7375
 8566SOL     OW37156   4.074   4.305   1.343  0.0306  0.1356 -0.0354
 8566SOL    HW137157   4.100   4.264   1.261  1.5470 -0.7721  0.8973
 8566SOL    HW237158   4.082   4.396   1.313 -2.3771  0.4991  0.4005
 8567SOL     OW37159   1.559   2.500   1.244  0.2767  0.5526 -0.4769
 8567SOL    HW137160   1.606   2.483   1.163  0.8373  1.8655 -0.4285
 8567SOL    HW237161   1.587   2.588   1.268  2.2064 -0.5437  1.2387
 8568SOL     OW37162   0.789   0.189   0.819 -0.3350 -0.3136 -0.4442
 8568SOL    HW137163   0.763   0.099   0.801 -3.0729  0.8441 -2.4321
 8568SOL    HW237164   0.863   0.185   0.880 -0.5185 -1.4574 -0.2924
 8569SOL     OW37165   0.274   2.811   5.863  0.5599  0.4844 -0.2757
 8569SOL    HW137166   0.302   2.722   5.881  0.7506  0.8901  1.4242
 8569SOL    HW237167   0.196   2.815   5.918  1.8155 -0.1862  1.5730
 8570SOL     OW37168   3.273   3.294   8.085 -0.1510 -0.5504 -0.0212
 8570SOL    HW137169   3.287   3.263   7.996  0.3886 -0.3363 -0.0084
 8570SOL    HW237170   3.333   3.240   8.136  1.6429 -0.6925 -2.2919
 8571SOL     OW37171   3.707   0.593   8.763  0.6045  0.3421  0.5500
 8571SOL    HW137172   3.756   0.521   8.725  0.4247  0.2218  0.5433
 8571SOL    HW237173   3.632   0.598   8.704  1.1644 -2.4579 -0.3966
 8572SOL     OW37174   4.175   2.555   5.461  0.2505  0.6052  0.5117
 8572SOL    HW137175   4.242   2.624   5.454  0.0574  0.5385 -1.9355
 8572SOL    HW237176   4.090   2.593   5.443  0.7828  1.6209  0.1302
 8573SOL     OW37177   1.289   2.699  14.012  0.5721 -0.1438 -0.2211
 8573SOL    HW137178   1.315   2.681  13.922  0.8152  1.2545 -0.4378
 8573SOL    HW237179   1.368   2.661  14.051  2.0398  1.3165 -1.7562
 8574SOL     OW37180   0.602   1.625   2.547  0.6313  0.6852  0.0638
 8574SOL    HW137181   0.514   1.590   2.530  0.3482  0.7702  1.3350
 8574SOL    HW237182   0.651   1.572   2.484  1.3404  0.6056  0.6752
 8575SOL     OW37183   4.193   2.789  16.308  0.2857 -0.3687 -0.4331
 8575SOL    HW137184   4.178   2.694  16.316  1.4109 -0.6768 -1.9473
 8575SOL    HW237185   4.246   2.795  16.386 -1.7893  0.8872  0.8894
 8576SOL     OW37186   2.250   4.580   9.425 -0.0808  0.4198  0.1636
 8576SOL    HW137187   2.206   4.614   9.503 -0.2995 -1.6431  0.9519
 8576SOL    HW237188   2.220   4.626   9.347 -1.3949 -0.8544 -0.0823
 8577SOL     OW37189   0.999   2.394   6.376  0.3975  0.3999 -0.1498
 8577SOL    HW137190   1.060   2.365   6.308  0.4993  1.9746 -0.7429
 8577SOL    HW237191   1.032   2.345   6.451  1.9211  0.3854 -0.8441
 8578SOL     OW37192   1.950   0.798  11.225 -0.0756 -0.2471 -0.1285
 8578SOL    HW137193   1.877   0.817  11.167  0.2408  1.3563  0.0069
 8578SOL    HW237194   1.919   0.841  11.304  2.7727 -0.3943  1.0838
 8579SOL     OW37195   2.206   0.127   6.654  0.3671  0.2488  0.0403
 8579SOL    HW137196   2.218   0.040   6.616 -0.5513  1.2248 -2.4790
 8579SOL    HW237197   2.116   0.146   6.630  1.0783  1.6090 -1.5248
 8580SOL     OW37198   3.817   2.523   8.948 -0.3059  0.5764 -0.7897
 8580SOL    HW137199   3.743   2.575   8.917 -1.0256 -0.6346 -1.0952
 8580SOL    HW237200   3.776   2.461   9.008  2.3486 -0.1528  0.2875
 8581SOL     OW37201   1.471   2.089   7.794  0.5201  0.0788  0.0424
 8581SOL    HW137202   1.510   2.021   7.738  2.8155  2.0509 -0.7434
 8581SOL    HW237203   1.399   2.038   7.833 -0.1665 -1.2633 -2.9617
 8582SOL     OW37204   2.421   1.433   2.209  0.2171  0.2845 -0.2283
 8582SOL    HW137205   2.341   1.474   2.174  1.0786  0.8184 -1.5796
 8582SOL    HW237206   2.408   1.450   2.302 -5.0916 -1.3138 -0.6676
 8583SOL     OW37207   2.722   3.266   3.037  0.3076  0.1401  0.4360
 8583SOL    HW137208   2.627   3.269   3.020  0.2083  0.6479  1.0565
 8583SOL    HW237209   2.750   3.356   3.021 -1.4968  0.5877 -0.2905
 8584SOL     OW37210   1.580   2.343   7.963 -0.0308 -0.0493  0.5167
 8584SOL    HW137211   1.540   2.258   7.947  0.4847  0.0612 -1.3715
 8584SOL    HW237212   1.670   2.324   7.938  0.1298  2.2620 -0.7359
 8585SOL     OW37213   1.470   0.666   1.652  0.1796  0.0895 -0.3978
 8585SOL    HW137214   1.495   0.630   1.738 -0.4024  1.8332  0.5026
 8585SOL    HW237215   1.420   0.737   1.691  2.0505  1.9564 -1.4302
 8586SOL     OW37216   4.626   0.968   7.254 -0.3564  0.2941 -0.5648
 8586SOL    HW137217   4.711   0.951   7.296 -0.7706  0.2922  0.2810
 8586SOL    HW237218   4.600   0.881   7.225  0.4577  0.1658 -0.9265
 8587SOL     OW37219   0.737   0.838   8.979 -0.2147 -0.2998 -0.2424
 8587SOL    HW137220   0.647   0.804   8.974 -1.7503  3.7262 -0.0903
 8587SOL    HW237221   0.721   0.924   8.939 -0.5522 -0.2815 -0.0691
 8588SOL     OW37222   1.312   1.102   5.522  0.2340 -0.2581 -0.3566
 8588SOL    HW137223   1.370   1.042   5.569  1.4726  0.1450 -1.3908
 8588SOL    HW237224   1.374   1.159   5.478 -0.9766  1.2780 -0.0802
 8589SOL     OW37225   2.391   2.637  15.855 -0.0287 -0.2228 -0.2379
 8589SOL    HW137226   2.445   2.558  15.853 -1.8308 -1.4374 -1.2065
 8589SOL    HW237227   2.423   2.692  15.927 -0.5316  0.8208 -0.8210
 8590SOL     OW37228   0.704   2.526   8.250  0.0873 -0.0352 -0.8862
 8590SOL    HW137229   0.638   2.595   8.252 -0.4214 -0.5687  0.8339
 8590SOL    HW237230   0.703   2.505   8.156  1.6758  1.9568 -1.3294
 8591SOL     OW37231   3.272   3.880  16.817 -0.0836 -0.3228  0.3072
 8591SOL    HW137232   3.268   3.837  16.903 -2.0749 -1.9221 -0.5915
 8591SOL    HW237233   3.301   3.969  16.837 -2.4022  0.0457  2.0476
 8592SOL     OW37234   4.033   0.272  10.672  0.3086 -0.4135 -0.5129
 8592SOL    HW137235   4.089   0.197  10.655  0.5241 -0.4498  0.4055
 8592SOL    HW237236   3.944   0.240  10.654  0.5927 -0.1219 -2.5404
 8593SOL     OW37237   1.860   2.321   7.931 -0.4722 -0.2152  0.4466
 8593SOL    HW137238   1.841   2.279   8.014 -0.3932 -0.5570  0.2918
 8593SOL    HW237239   1.901   2.403   7.960 -0.4874 -0.4719  1.1774
 8594SOL     OW37240   1.773   0.179   5.295  0.0827  0.4677  0.1996
 8594SOL    HW137241   1.731   0.209   5.215 -0.3230 -0.7938 -0.0648
 8594SOL    HW237242   1.823   0.104   5.262  0.0100  0.1769  0.7594
 8595SOL     OW37243   3.333   3.131   2.104  0.3942 -1.3839  0.3625
 8595SOL    HW137244   3.306   3.054   2.053 -0.9989 -0.6227 -0.0403
 8595SOL    HW237245   3.288   3.122   2.188 -0.1535 -2.1193 -0.0040
 8596SOL     OW37246   2.087   1.576  14.270 -0.0017 -0.3896  0.0894
 8596SOL    HW137247   2.018   1.547  14.210  0.5317  0.2111 -0.8070
 8596SOL    HW237248   2.081   1.670  14.251  1.6989 -0.1654  0.7120
 8597SOL     OW37249   3.254   0.166   3.639 -0.4084  0.0259  0.1086
 8597SOL    HW137250   3.183   0.114   3.601 -1.4834  1.9372 -0.4580
 8597SOL    HW237251   3.337   0.124   3.616 -1.5854 -1.9271 -0.5788
 8598SOL     OW37252   4.357   1.170   3.619 -0.1518 -0.0467 -0.3926
 8598SOL    HW137253   4.327   1.252   3.659  0.9937 -0.3421  1.0811
 8598SOL    HW237254   4.420   1.195   3.552 -0.0108  0.5533 -0.0435
 8599SOL     OW37255   3.590   3.805  11.529  0.5488 -0.0845 -0.6222
 8599SOL    HW137256   3.507   3.773  11.493 -0.2434  1.2594  0.0198
 8599SOL    HW237257   3.643   3.727  11.512  0.9992 -0.1210  0.9900
 8600SOL     OW37258   3.398   2.619  17.102  0.3439  0.0795 -0.3550
 8600SOL    HW137259   3.318   2.581  17.067 -1.7081  2.7077  1.4687
 8600SOL    HW237260   3.465   2.551  17.101  0.7554  0.5024 -1.6806
 8601SOL     OW37261   0.910   4.373   7.986  0.7084 -0.0300  0.6216
 8601SOL    HW137262   0.884   4.463   8.003 -0.0411 -0.4502  1.7404
 8601SOL    HW237263   0.964   4.349   8.062  2.1508 -2.4406 -1.1216
 8602SOL     OW37264   2.427   2.929  16.177  0.0710 -0.7563 -0.0553
 8602SOL    HW137265   2.371   2.927  16.099 -1.7063  0.1754  1.1994
 8602SOL    HW237266   2.442   3.023  16.188 -0.6523 -0.6778  0.2354
 8603SOL     OW37267   0.131   2.927   4.440  0.1111  0.1015  0.0453
 8603SOL    HW137268   0.199   2.859   4.446 -2.5591 -2.6292 -0.5401
 8603SOL    HW237269   0.125   2.936   4.345 -0.9979 -0.6054  0.0538
 8604SOL     OW37270   1.326   0.782   7.729  0.0155  0.0094 -0.5005
 8604SOL    HW137271   1.406   0.741   7.762 -0.6463  0.4957  1.7417
 8604SOL    HW237272   1.274   0.785   7.810 -1.3750  1.9904 -1.4609
 8605SOL     OW37273   2.451   1.437   9.938  0.2813 -0.3560 -0.5249
 8605SOL    HW137274   2.432   1.470   9.850  1.5414 -0.8650 -0.9854
 8605SOL    HW237275   2.547   1.436   9.932  0.0118 -1.1893 -4.3835
 8606SOL     OW37276   0.332   1.881   6.343 -0.2377  0.1089  0.0061
 8606SOL    HW137277   0.260   1.844   6.394  1.8190 -1.8981  1.4491
 8606SOL    HW237278   0.363   1.933   6.417  1.4999 -0.6118 -0.2280
 8607SOL     OW37279   1.085   2.581   6.055  0.1065  0.8056  0.2478
 8607SOL    HW137280   1.143   2.549   5.986 -1.0112 -0.9010  0.1048
 8607SOL    HW237281   1.152   2.613   6.115  0.4084 -1.0789  0.9121
 8608SOL     OW37282   2.105   1.278  12.555  0.0412  0.5683 -0.4826
 8608SOL    HW137283   2.108   1.313  12.644  1.3578 -0.8902  0.0532
 8608SOL    HW237284   2.141   1.190  12.563  1.7072  1.3019  0.0462
 8609SOL     OW37285   1.587   2.359  13.177 -0.2245  0.3598 -0.2663
 8609SOL    HW137286   1.561   2.343  13.087  0.0106 -0.4040 -0.2057
 8609SOL    HW237287   1.676   2.324  13.186 -0.5034 -0.3801 -0.4196
 8610SOL     OW37288   0.065   4.246  11.740 -0.1530  0.2577  0.1257
 8610SOL    HW137289   0.026   4.326  11.705 -0.6570 -0.8318 -1.7851
 8610SOL    HW237290   0.032   4.241  11.830  0.8962  1.3066  0.5728
 8611SOL     OW37291   1.310   2.309   6.895 -0.4699 -0.1390 -0.1377
 8611SOL    HW137292   1.393   2.356   6.893  0.0432 -1.1035 -1.1697
 8611SOL    HW237293   1.336   2.217   6.894  0.7969  0.2636 -2.2733
 8612SOL     OW37294   0.980   3.229   6.071 -0.1341  0.2631 -0.6893
 8612SOL    HW137295   1.050   3.287   6.100 -0.6218  0.6226 -0.2308
 8612SOL    HW237296   0.910   3.293   6.054 -0.5835  0.2377  1.0606
 8613SOL     OW37297   2.701   1.379   2.103  1.0207  0.2857  0.5887
 8613SOL    HW137298   2.609   1.404   2.095  1.1357  1.6314  3.4549
 8613SOL    HW237299   2.736   1.359   2.016  1.0840  0.0029  0.6820
 8614SOL     OW37300   1.818   4.625   1.093 -0.2579  0.0989  0.1829
 8614SOL    HW137301   1.772   4.672   1.163  0.5808  1.3796 -0.1237
 8614SOL    HW237302   1.800   4.690   1.025  0.6211  1.4432  1.2375
 8615SOL     OW37303   0.014   1.059   3.781 -0.2011  0.8452  0.3866
 8615SOL    HW137304   4.686   1.004   3.840 -0.5944  1.2275  0.3931
 8615SOL    HW237305   0.042   0.992   3.719  0.2395  0.9466  0.4792
 8616SOL     OW37306   1.576   4.304   9.848  0.2323  0.1430  0.0539
 8616SOL    HW137307   1.526   4.374   9.805  1.7859  0.4309 -1.2657
 8616SOL    HW237308   1.638   4.297   9.776 -0.3720 -1.1441 -0.3317
 8617SOL     OW37309   0.173   1.030   4.554 -0.5259  0.0853 -0.2495
 8617SOL    HW137310   0.108   0.983   4.501 -1.7686  0.4362  0.9396
 8617SOL    HW237311   0.117   1.088   4.606  2.2793  2.1848  0.3708
 8618SOL     OW37312   4.491   1.897   9.381 -0.5162 -0.2917 -0.3778
 8618SOL    HW137313   4.544   1.926   9.455  0.7377 -0.1183 -1.3431
 8618SOL    HW237314   4.442   1.835   9.435 -0.6390  0.2758  0.1637
 8619SOL     OW37315   0.488   2.425   7.612 -0.4589 -0.1119  0.0116
 8619SOL    HW137316   0.416   2.416   7.550  0.4551 -0.3434 -1.0230
 8619SOL    HW237317   0.488   2.519   7.625 -0.2873 -0.4908  2.8450
 8620SOL     OW37318   3.833   2.551   0.799 -0.1510 -0.2408  0.5216
 8620SOL    HW137319   3.808   2.462   0.823  1.0940 -0.8493 -0.4227
 8620SOL    HW237320   3.792   2.606   0.867 -0.4972  0.8272 -0.5487
 8621SOL     OW37321   3.579   1.987   7.311 -0.4822 -0.4284  0.9618
 8621SOL    HW137322   3.513   1.946   7.254  0.0919  0.9632 -0.7095
 8621SOL    HW237323   3.550   1.967   7.399  2.2635 -1.1549  1.6947
 8622SOL     OW37324   4.581   3.082   1.747 -0.4127 -0.1779 -0.0250
 8622SOL    HW137325   4.523   3.023   1.794 -1.4937 -0.8809 -2.2323
 8622SOL    HW237326   4.596   3.026   1.670  0.0423 -1.9962  1.3941
 8623SOL     OW37327   4.321   3.117   8.944  0.2788 -0.6465  0.3676
 8623SOL    HW137328   4.403   3.127   8.897 -1.0475  2.2943 -1.3409
 8623SOL    HW237329   4.345   3.055   9.013  2.6509 -0.6630 -0.4902
 8624SOL     OW37330   1.034   3.533   7.601 -0.2074  0.3125 -0.7198
 8624SOL    HW137331   1.030   3.628   7.590 -2.0545  0.3517  0.1688
 8624SOL    HW237332   1.027   3.531   7.697 -2.1493  3.1171 -0.7860
 8625SOL     OW37333   1.624   0.042  16.606 -0.1732 -0.6217 -0.2842
 8625SOL    HW137334   1.688   0.108  16.581  0.7093 -0.7804  1.5597
 8625SOL    HW237335   1.565   0.104  16.649  3.1480  2.0365  0.3832
 8626SOL     OW37336   4.180   3.802  14.219 -0.6013  0.5770 -0.0406
 8626SOL    HW137337   4.149   3.760  14.139  0.9110 -1.5401  0.4976
 8626SOL    HW237338   4.178   3.897  14.209 -0.4386  0.6476  0.5759
 8627SOL     OW37339   3.392   3.860   7.082 -0.1531  0.2146 -0.0220
 8627SOL    HW137340   3.473   3.848   7.032  1.1201 -1.0331  2.2979
 8627SOL    HW237341   3.414   3.935   7.137  0.9681 -0.1750  0.0662
 8628SOL     OW37342   1.775   1.687   6.465  0.0353 -0.4718  0.0370
 8628SOL    HW137343   1.720   1.661   6.539 -0.7817 -0.2606 -0.4927
 8628SOL    HW237344   1.840   1.737   6.515 -0.1979  1.1199 -1.2232
 8629SOL     OW37345   1.079   2.261   5.922 -0.3334  0.1254 -0.3955
 8629SOL    HW137346   1.152   2.242   5.864  0.6292  1.8490  0.2405
 8629SOL    HW237347   1.037   2.332   5.874 -1.8026  0.3724  1.2378
 8630SOL     OW37348   1.760   3.634  14.967 -0.1602  0.3252  0.0329
 8630SOL    HW137349   1.671   3.653  14.998 -0.2813 -0.5350  0.2203
 8630SOL    HW237350   1.804   3.716  14.990  0.1604  0.1496  0.0321
 8631SOL     OW37351   3.356   1.088   6.200 -0.0779 -0.0205  0.1948
 8631SOL    HW137352   3.295   1.071   6.272  2.4727  0.2974  2.4103
 8631SOL    HW237353   3.318   1.034   6.130 -0.5600 -1.9293  1.9187
 8632SOL     OW37354   0.211   1.037  12.905 -0.4041 -0.1915  0.4983
 8632SOL    HW137355   0.189   1.020  12.996  0.3057 -2.3458  0.2582
 8632SOL    HW237356   0.239   0.949  12.879  3.2400  1.6116 -1.7068
 8633SOL     OW37357   1.538   0.041   3.961  0.0069 -0.1244  0.6928
 8633SOL    HW137358   1.489   0.002   3.889 -0.3877  2.6289 -0.5158
 8633SOL    HW237359   1.614   4.708   3.956  0.3494  0.4565 -0.5970
 8634SOL     OW37360   3.454   1.259   1.684  0.2830 -0.6094  0.4860
 8634SOL    HW137361   3.486   1.252   1.774 -0.7514 -0.9782  0.8360
 8634SOL    HW237362   3.506   1.190   1.645 -1.0795 -0.7460 -1.0850
 8635SOL     OW37363   2.557   1.150  15.489 -0.0736  0.5360 -0.0096
 8635SOL    HW137364   2.643   1.172  15.452  0.7122  1.5931  2.4919
 8635SOL    HW237365   2.514   1.121  15.408 -0.5638 -0.0520  0.4598
 8636SOL     OW37366   1.984   1.902   5.224  0.5477 -0.0610 -0.5791
 8636SOL    HW137367   2.043   1.922   5.151  1.9623 -0.8737  0.3337
 8636SOL    HW237368   2.040   1.918   5.301 -1.5580  0.5776  0.8039
 8637SOL     OW37369   0.665   0.903  14.892 -0.1831 -0.5286  0.1331
 8637SOL    HW137370   0.603   0.887  14.821  1.4090  2.3473 -1.9170
 8637SOL    HW237371   0.620   0.914  14.976 -0.2690 -0.9506  0.1388
 8638SOL     OW37372   2.754   3.588   6.198 -0.1468 -0.3245 -0.2405
 8638SOL    HW137373   2.709   3.570   6.281  0.6433 -1.9116 -0.1598
 8638SOL    HW237374   2.687   3.559   6.136 -0.0824 -0.9150 -0.0340
 8639SOL     OW37375   2.700   3.844   3.039 -0.2571 -0.4842  0.6093
 8639SOL    HW137376   2.669   3.846   3.130  0.0322 -1.2004  0.7253
 8639SOL    HW237377   2.795   3.852   3.046 -0.4144  0.5594  1.4689
 8640SOL     OW37378   1.744   2.429   3.034  0.0094 -0.4506 -0.2426
 8640SOL    HW137379   1.805   2.391   2.970 -0.0120  1.6520 -1.5016
 8640SOL    HW237380   1.741   2.350   3.087  0.9587 -0.8503 -0.7782
 8641SOL     OW37381   2.434   3.104   4.760  0.5906 -0.0032 -0.3191
 8641SOL    HW137382   2.411   3.037   4.696  1.4132 -0.5240 -0.0721
 8641SOL    HW237383   2.491   3.168   4.718 -1.3570  1.7639 -0.2805
 8642SOL     OW37384   4.493   2.535   5.962  0.6547 -0.2819  0.4624
 8642SOL    HW137385   4.554   2.494   6.024 -0.6200  1.8633  3.1242
 8642SOL    HW237386   4.543   2.615   5.948 -1.1065  1.1611  2.3872
 8643SOL     OW37387   3.054   3.039   4.207 -0.2082 -0.0379  0.5394
 8643SOL    HW137388   3.120   3.091   4.255  2.0559 -1.4774 -1.0486
 8643SOL    HW237389   3.052   2.962   4.264 -1.4918  0.6661  1.4517
 8644SOL     OW37390   4.677   4.318   7.722 -0.0380  0.3147 -0.4756
 8644SOL    HW137391   4.680   4.252   7.791  0.6509  1.7998  0.9110
 8644SOL    HW237392   0.009   4.389   7.751  1.2086 -0.0888 -1.8960
 8645SOL     OW37393   2.216   0.048   6.948  0.0703 -0.7817  0.3167
 8645SOL    HW137394   2.260   0.118   6.997  1.3186 -1.2169 -0.1969
 8645SOL    HW237395   2.165   0.104   6.889 -0.5357 -2.7241 -0.9973
 8646SOL     OW37396   2.218   3.404   6.819 -0.1776  0.2329 -0.1562
 8646SOL    HW137397   2.231   3.340   6.889 -1.2893 -2.1447 -2.1162
 8646SOL    HW237398   2.305   3.442   6.808  0.3695 -0.4140  2.0051
 8647SOL     OW37399   3.959   2.885   6.289  0.3662 -0.6260  0.2016
 8647SOL    HW137400   3.919   2.972   6.288  2.4382  0.3099 -3.2537
 8647SOL    HW237401   3.960   2.859   6.381 -1.0167  1.0343  0.6937
 8648SOL     OW37402   3.847   4.222   6.337  0.0214  0.1799  0.4806
 8648SOL    HW137403   3.875   4.234   6.428 -4.7215 -0.7172  2.0366
 8648SOL    HW237404   3.791   4.299   6.326 -3.6098 -2.6579 -0.7901
 8649SOL     OW37405   2.077   4.180   9.257 -0.0381 -0.2162  0.4972
 8649SOL    HW137406   2.149   4.121   9.282  0.3503 -0.4546 -1.1792
 8649SOL    HW237407   2.058   4.147   9.169  0.6946 -1.5549  0.8376
 8650SOL     OW37408   4.280   4.346   9.166  0.3951  0.9604  0.1778
 8650SOL    HW137409   4.353   4.376   9.112 -0.0618  0.1336 -0.8873
 8650SOL    HW237410   4.225   4.306   9.099 -0.4050  0.0588  1.3732
 8651SOL     OW37411   2.560   4.439   1.025 -0.6042  0.1034 -0.0753
 8651SOL    HW137412   2.543   4.372   0.959  1.5314 -0.4251 -0.0798
 8651SOL    HW237413   2.639   4.479   0.987 -1.0719  3.0934  2.1125
 8652SOL     OW37414   1.907   4.007   0.507  0.5975  0.3053  0.4831
 8652SOL    HW137415   1.939   4.004   0.598  1.0494 -1.2377  0.2729
 8652SOL    HW237416   1.926   3.915   0.491  2.4687  0.5081  1.4452
 8653SOL     OW37417   0.082   4.217  17.332  0.0961  0.4198 -0.2690
 8653SOL    HW137418   0.174   4.234  17.349  0.1743 -0.2861  0.0256
 8653SOL    HW237419   0.083   4.237  17.238  1.5635  0.2899 -0.2750
 8654SOL     OW37420   1.261   1.199   3.385  0.0099  0.1305  0.4727
 8654SOL    HW137421   1.337   1.221   3.440  0.9264  0.2676 -0.8399
 8654SOL    HW237422   1.272   1.105   3.375  0.1095  0.5328 -3.1331
 8655SOL     OW37423   0.058   0.904   5.438  0.5447  0.1819  0.3609
 8655SOL    HW137424   0.020   0.988   5.463 -1.8657 -0.6565 -0.5172
 8655SOL    HW237425   0.128   0.895   5.503  0.2756  1.4124  0.8218
 8656SOL     OW37426   0.640   0.238   3.462  0.1688 -0.5657 -0.2906
 8656SOL    HW137427   0.717   0.275   3.418 -0.3255  0.4384 -0.3120
 8656SOL    HW237428   0.561   0.277   3.424  0.3381  1.9177  1.8896
 8657SOL     OW37429   3.533   2.977   7.261 -0.3741 -0.3955 -0.2619
 8657SOL    HW137430   3.553   2.901   7.317 -4.5969 -0.4473  1.1747
 8657SOL    HW237431   3.523   3.052   7.319 -0.2410  0.1710 -0.9757
 8658SOL     OW37432   4.368   2.525   7.797 -0.1767  0.2707 -0.2797
 8658SOL    HW137433   4.333   2.442   7.830 -0.9643  1.0174  0.8019
 8658SOL    HW237434   4.448   2.497   7.754  0.0773 -1.0273  1.0365
 8659SOL     OW37435   2.441   3.381   1.747 -0.2692 -0.2607  0.1889
 8659SOL    HW137436   2.464   3.466   1.785 -0.8078 -0.0371  0.0141
 8659SOL    HW237437   2.379   3.402   1.677 -0.2101 -1.6704 -0.2782
 8660SOL     OW37438   1.163   2.669   0.294  0.3195  0.2068  0.2998
 8660SOL    HW137439   1.236   2.725   0.319  1.5559 -1.2082 -0.1408
 8660SOL    HW237440   1.193   2.634   0.210 -1.4812 -1.4958  0.3474
 8661SOL     OW37441   2.605   1.107  10.680 -0.2993  0.4884 -0.4842
 8661SOL    HW137442   2.624   1.075  10.592  0.3684 -1.0047  0.2088
 8661SOL    HW237443   2.538   1.045  10.707  0.1586 -0.4603 -1.5406
 8662SOL     OW37444   2.813   3.332  10.007  0.6856  0.3600  0.1534
 8662SOL    HW137445   2.746   3.300  10.068 -0.4522 -0.1926 -1.3913
 8662SOL    HW237446   2.852   3.249   9.981 -0.2663 -0.0452  0.0174
 8663SOL     OW37447   4.235   3.828   8.062  0.1447 -0.2826 -0.1888
 8663SOL    HW137448   4.275   3.784   8.137 -2.7160  0.4105  1.7543
 8663SOL    HW237449   4.262   3.919   8.067  0.0567 -0.2934  0.3978
 8664SOL     OW37450   2.057   1.100   3.824  0.3556 -0.3487  0.2394
 8664SOL    HW137451   1.984   1.098   3.886  1.8440  2.0484  2.0616
 8664SOL    HW237452   2.074   1.194   3.821 -0.5270 -0.1639  0.9279
 8665SOL     OW37453   3.625   2.549   6.627 -0.3042 -0.0893  0.2418
 8665SOL    HW137454   3.597   2.458   6.616  1.0485 -0.4688  0.0064
 8665SOL    HW237455   3.613   2.550   6.721 -0.2449 -0.0003  0.2483
 8666SOL     OW37456   3.774   1.660   0.673  0.0285 -0.5380 -0.2288
 8666SOL    HW137457   3.853   1.619   0.708 -1.1864 -0.7609  2.2283
 8666SOL    HW237458   3.793   1.704   0.590  0.0374  0.6934  0.4204
 8667SOL     OW37459   1.130   0.161   1.249 -0.3146 -0.2300 -0.1351
 8667SOL    HW137460   1.088   0.086   1.291  1.2896 -1.8143 -1.3303
 8667SOL    HW237461   1.221   0.144   1.269 -0.5644 -0.1260  1.0629
 8668SOL     OW37462   3.349   0.336   0.365 -0.6266  0.2118  0.6909
 8668SOL    HW137463   3.405   0.276   0.315  0.8671  0.0831  2.4919
 8668SOL    HW237464   3.264   0.311   0.329  0.0353 -1.6424  0.4269
 8669SOL     OW37465   2.095   1.078   1.772  0.2004  0.2755  0.0734
 8669SOL    HW137466   2.126   1.163   1.801 -2.8270  0.7344  1.9731
 8669SOL    HW237467   2.015   1.101   1.723  1.1199  0.0461 -1.5538
 8670SOL     OW37468   4.366   3.427  15.859  0.5363  0.4704  0.1369
 8670SOL    HW137469   4.453   3.418  15.897  0.5149  2.2242  0.6093
 8670SOL    HW237470   4.377   3.475  15.777 -1.7039 -0.8001 -0.9285
 8671SOL     OW37471   2.206   1.573   5.539 -0.6141 -0.1125  0.1385
 8671SOL    HW137472   2.267   1.564   5.612  1.2216  0.8835 -1.2621
 8671SOL    HW237473   2.115   1.559   5.566 -0.2724 -2.0237  0.3111
 8672SOL     OW37474   2.493   0.129   5.475 -0.1025  0.0917  0.0990
 8672SOL    HW137475   2.427   0.167   5.533  0.2933 -2.0242  1.9153
 8672SOL    HW237476   2.561   0.113   5.540  2.1100  3.8433 -1.2577
 8673SOL     OW37477   4.676   3.919   2.699  0.0110 -0.1306  0.4557
 8673SOL    HW137478   4.718   3.833   2.702  0.7366  0.1346 -1.8795
 8673SOL    HW237479   0.021   3.971   2.659  0.1568 -0.4674  0.2744
 8674SOL     OW37480   2.620   1.159   1.228 -0.3327 -0.5972 -0.1791
 8674SOL    HW137481   2.594   1.110   1.306 -0.6946  1.3581  0.9142
 8674SOL    HW237482   2.684   1.222   1.261 -0.4585 -1.1967  1.2150
 8675SOL     OW37483   4.320   4.572   8.483 -0.4823 -0.1579 -0.2485
 8675SOL    HW137484   4.306   4.573   8.388 -2.4135 -0.0234  0.0354
 8675SOL    HW237485   4.411   4.542   8.488 -0.7497 -0.6025  2.1022
 8676SOL     OW37486   4.421   2.707   1.660 -0.3944 -0.2245  0.0242
 8676SOL    HW137487   4.505   2.696   1.616  0.1340 -0.5971  1.1297
 8676SOL    HW237488   4.443   2.785   1.711 -1.6783 -0.1160  0.4277
 8677SOL     OW37489   4.572   4.281   9.619  0.3291 -0.3095 -0.6635
 8677SOL    HW137490   4.532   4.298   9.534  0.5457 -1.0191 -0.9048
 8677SOL    HW237491   4.589   4.367   9.658  1.6299 -1.0026  0.3107
 8678SOL     OW37492   4.251   4.304  16.962 -0.3038 -0.1330  0.2536
 8678SOL    HW137493   4.324   4.308  17.024  0.1277  1.5423 -0.3333
 8678SOL    HW237494   4.294   4.265  16.886 -1.5881 -1.8306  0.3992
 8679SOL     OW37495   2.414   1.337   4.635 -0.2662  0.3902 -0.0643
 8679SOL    HW137496   2.471   1.409   4.608 -0.2373 -0.9517 -3.6486
 8679SOL    HW237497   2.385   1.292   4.555 -1.9568 -1.8234  1.7850
 8680SOL     OW37498   3.187   0.931   7.751 -0.6174 -0.0212 -0.1670
 8680SOL    HW137499   3.111   0.873   7.750 -0.0712 -0.7440  0.3155
 8680SOL    HW237500   3.137   1.008   7.724 -0.4757 -0.5231 -1.9070
 8681SOL     OW37501   4.598   2.115   8.561 -0.0250 -0.2651 -0.2224
 8681SOL    HW137502   4.640   2.195   8.529 -1.0031  0.6872  0.8563
 8681SOL    HW237503   4.672   2.085   8.613  0.1660 -2.2215 -1.6553
 8682SOL     OW37504   4.455   1.573   9.565  0.1207  0.5760  0.1132
 8682SOL    HW137505   4.455   1.501   9.503 -2.7765 -0.1958  0.9956
 8682SOL    HW237506   4.548   1.571   9.585 -0.2334  0.8837  1.7692
 8683SOL     OW37507   3.340   2.372   8.707  0.0699 -0.1376 -0.2473
 8683SOL    HW137508   3.332   2.346   8.799  0.5166  0.5742 -0.0054
 8683SOL    HW237509   3.250   2.379   8.676  0.0358 -0.6067 -0.2652
 8684SOL     OW37510   3.027   4.441   8.127  0.1004 -0.3092 -0.1296
 8684SOL    HW137511   2.964   4.384   8.171  0.2226 -0.5180 -0.2250
 8684SOL    HW237512   3.092   4.447   8.197  0.1134 -0.5840 -0.1173
 8685SOL     OW37513   2.382   0.484   4.495 -0.1963 -0.2011  0.5782
 8685SOL    HW137514   2.303   0.495   4.443 -0.5685 -0.7052  1.0423
 8685SOL    HW237515   2.444   0.456   4.428  0.5190 -0.8071  1.4760
 8686SOL     OW37516   2.540   1.001   6.352 -0.1992  0.0402 -0.4180
 8686SOL    HW137517   2.590   1.069   6.397  0.0764  0.3138 -1.1375
 8686SOL    HW237518   2.546   0.922   6.407 -2.6542 -1.4972 -2.3609
 8687SOL     OW37519   0.456   4.278   0.889  0.0625 -0.0295  0.5097
 8687SOL    HW137520   0.505   4.336   0.948  2.4925 -1.7840  0.2442
 8687SOL    HW237521   0.517   4.207   0.870 -1.3112 -1.9247  3.1085
 8688SOL     OW37522   0.590   2.964   2.164 -0.4251  0.1704 -0.2122
 8688SOL    HW137523   0.537   3.035   2.128 -0.7099  0.5543  0.9676
 8688SOL    HW237524   0.596   2.989   2.257  1.3460  0.4279 -0.3921
 8689SOL     OW37525   2.825   0.162   7.121 -0.2221  0.0545 -0.3471
 8689SOL    HW137526   2.740   0.207   7.119 -0.4878 -0.4644 -0.7929
 8689SOL    HW237527   2.873   0.218   7.061  0.0096 -0.4803 -0.6545
 8690SOL     OW37528   2.140   4.352   0.842  0.4357 -0.8175 -0.5504
 8690SOL    HW137529   2.158   4.424   0.782 -1.1037 -0.5972 -0.7466
 8690SOL    HW237530   2.062   4.381   0.888  2.0028 -0.1502  1.7040
 8691SOL     OW37531   0.159   0.581   2.777  0.0507  0.0949 -0.9554
 8691SOL    HW137532   0.135   0.578   2.870 -2.9075 -0.1484 -1.7484
 8691SOL    HW237533   0.255   0.576   2.779  0.0072 -0.2366  1.1380
 8692SOL     OW37534   1.865   1.901   3.885  0.0567  0.0904 -0.5319
 8692SOL    HW137535   1.862   1.940   3.972 -0.6335  0.6040 -0.7903
 8692SOL    HW237536   1.954   1.918   3.853  1.3220 -0.1136  2.8942
 8693SOL     OW37537   1.198   4.563  16.880  0.7695  0.2218 -0.5803
 8693SOL    HW137538   1.237   4.536  16.963  0.3652 -1.6690 -0.9931
 8693SOL    HW237539   1.151   4.641  16.909 -3.1580 -1.9336 -1.0958
 8694SOL     OW37540   4.454   4.592  13.344 -0.1957 -0.3098  0.3679
 8694SOL    HW137541   4.500   4.675  13.350  1.1000 -1.1095  1.7031
 8694SOL    HW237542   4.406   4.591  13.427 -0.0154 -0.2467  0.4736
 8695SOL     OW37543   2.437   1.157   3.366  0.0550 -0.4309  0.0013
 8695SOL    HW137544   2.472   1.226   3.422 -0.3836 -0.1060 -0.1248
 8695SOL    HW237545   2.498   1.150   3.293  0.3264  1.5176  0.0663
 8696SOL     OW37546   0.662   3.804   8.534 -0.1352 -0.4440 -0.1874
 8696SOL    HW137547   0.753   3.825   8.512 -0.8458 -0.2432 -2.9223
 8696SOL    HW237548   0.676   3.724   8.586  0.0619  0.3496  0.9862
 8697SOL     OW37549   4.090   4.625   2.185  0.3811  0.7406 -0.3300
 8697SOL    HW137550   4.068   4.678   2.262 -3.5352 -1.9235  0.3700
 8697SOL    HW237551   4.155   4.680   2.141 -0.2683  0.0593 -2.1175
 8698SOL     OW37552   3.348   3.492  14.255 -0.5870  0.0684  0.1185
 8698SOL    HW137553   3.334   3.398  14.251 -1.2880  0.2029 -0.4856
 8698SOL    HW237554   3.256   3.518  14.261  0.1115  2.2973  1.4665
 8699SOL     OW37555   0.157   3.872   7.320  0.1407 -0.4907  0.0267
 8699SOL    HW137556   0.092   3.810   7.286 -0.2435 -0.1782  0.2023
 8699SOL    HW237557   0.185   3.907   7.236  1.3698 -2.5598 -0.4291
 8700SOL     OW37558   3.175   4.456   9.298 -0.2562  0.1345 -0.3289
 8700SOL    HW137559   3.125   4.534   9.274 -2.6309 -1.5178 -0.7672
 8700SOL    HW237560   3.255   4.504   9.318  0.5829 -1.1055 -0.7318
 8701SOL     OW37561   0.193   3.161   8.112  0.3050  0.2468 -0.6689
 8701SOL    HW137562   0.223   3.135   8.025 -0.0276 -0.8026 -0.4754
 8701SOL    HW237563   0.206   3.076   8.155  1.8447  0.5238 -0.6044
 8702SOL     OW37564   1.076   1.504   3.070 -0.0862  0.1166 -0.2043
 8702SOL    HW137565   1.148   1.453   3.107  0.1923  0.6377 -0.0296
 8702SOL    HW237566   1.002   1.503   3.130  0.8630  0.1803  0.9662
 8703SOL     OW37567   3.086   2.144   1.521  0.0833  0.1159 -0.1730
 8703SOL    HW137568   3.048   2.207   1.582 -0.3174  1.0580 -1.3797
 8703SOL    HW237569   3.086   2.065   1.575  2.1183 -0.2319 -0.6823
 8704SOL     OW37570   0.286   3.220  16.390 -0.2149 -0.1159  0.2568
 8704SOL    HW137571   0.220   3.279  16.353 -1.1448 -0.4916  1.3047
 8704SOL    HW237572   0.348   3.291  16.407  1.2090 -0.9994 -1.2772
 8705SOL     OW37573   0.744   3.202   5.329 -0.2139  0.0112 -0.4049
 8705SOL    HW137574   0.718   3.110   5.321 -1.9904  0.3244  1.5574
 8705SOL    HW237575   0.781   3.212   5.241 -2.2762 -0.3007 -1.3091
 8706SOL     OW37576   3.828   0.381   8.661 -0.4478 -0.3421  0.2745
 8706SOL    HW137577   3.853   0.305   8.714 -0.2242  0.8745  1.8915
 8706SOL    HW237578   3.772   0.341   8.594 -0.4620 -0.1215  0.1563
 8707SOL     OW37579   1.076   4.319   7.695  0.6085  0.0502  0.3599
 8707SOL    HW137580   1.078   4.253   7.626 -1.6484  1.8547 -1.4317
 8707SOL    HW237581   1.007   4.295   7.757 -0.2694  0.9579 -0.2652
 8708SOL     OW37582   3.204   0.507  14.796 -0.1163 -0.2713  0.3655
 8708SOL    HW137583   3.139   0.573  14.820  0.6618  0.6360 -0.0161
 8708SOL    HW237584   3.175   0.506  14.705 -1.7432 -0.0692  0.8920
 8709SOL     OW37585   1.092   0.996   3.065  0.7422  0.1149  0.4275
 8709SOL    HW137586   1.044   1.077   3.050  0.7420 -0.0103 -0.2480
 8709SOL    HW237587   1.021   0.939   3.094 -1.8478  3.2846  0.2729
 8710SOL     OW37588   0.666   0.835   1.696  0.0030 -0.0621 -0.1471
 8710SOL    HW137589   0.628   0.759   1.652 -2.9961  1.3455 -0.0413
 8710SOL    HW237590   0.592   0.890   1.723 -0.4227  0.1492 -1.7158
 8711SOL     OW37591   4.051   3.529   2.952  0.4672  0.4878  0.7113
 8711SOL    HW137592   4.016   3.469   3.018  0.5250 -0.2838  0.0299
 8711SOL    HW237593   4.101   3.470   2.896 -2.1800  0.2630 -1.3913
 8712SOL     OW37594   0.189   1.757   6.563 -0.0670 -0.3144 -0.1903
 8712SOL    HW137595   0.101   1.763   6.601  0.2585 -0.3402  0.5741
 8712SOL    HW237596   0.232   1.791   6.642  0.7815  1.1880 -1.3104
 8713SOL     OW37597   0.303   3.173   9.630  0.7158  1.1774  0.5567
 8713SOL    HW137598   0.379   3.170   9.688  1.5578  1.1688 -0.5451
 8713SOL    HW237599   0.268   3.084   9.635  2.4501  0.4080 -1.0642
 8714SOL     OW37600   2.933   0.031   1.588 -0.2871  0.0474  0.0338
 8714SOL    HW137601   3.016   0.005   1.549  0.5480  1.3850  0.9361
 8714SOL    HW237602   2.960   0.108   1.638 -0.5318 -1.3220  2.3070
 8715SOL     OW37603   1.882   1.897  11.066 -0.1656 -0.0603  0.0890
 8715SOL    HW137604   1.830   1.863  10.993  1.8896 -2.3069 -0.3392
 8715SOL    HW237605   1.903   1.988  11.044 -1.9854  0.1075 -0.8976
 8716SOL     OW37606   0.021   1.632   3.215 -0.2655  0.0108 -0.4954
 8716SOL    HW137607   4.666   1.591   3.180 -0.9113  0.3411  0.5909
 8716SOL    HW237608   0.068   1.633   3.131 -0.1116  0.2385 -0.4061
 8717SOL     OW37609   1.311   3.388   1.694  0.1541 -0.2342  0.1838
 8717SOL    HW137610   1.323   3.293   1.690  0.4467 -0.3150  2.5260
 8717SOL    HW237611   1.245   3.405   1.761  1.5202  5.4796  0.0854
 8718SOL     OW37612   1.065   4.625   4.783  0.2341 -0.2647 -0.2988
 8718SOL    HW137613   1.091   4.625   4.691  1.5650 -0.7410  0.0723
 8718SOL    HW237614   1.147   4.637   4.831 -0.4115  2.0697  0.2013
 8719SOL     OW37615   1.269   3.496   2.647  0.3969  0.0415  0.3632
 8719SOL    HW137616   1.280   3.404   2.671  1.1363  0.3285  1.1357
 8719SOL    HW237617   1.195   3.474   2.590  0.1388 -0.9888  1.0936
 8720SOL     OW37618   2.145   0.515  17.275 -0.2740 -0.1299  0.7810
 8720SOL    HW137619   2.223   0.478  17.233  0.5757  2.0754  0.4611
 8720SOL    HW237620   2.126   0.577  17.205  1.0006  0.1978  0.7207
 8721SOL     OW37621   3.253   2.504   9.001  0.1467 -0.1373  0.0343
 8721SOL    HW137622   3.253   2.551   9.085  0.5165 -0.7128  0.3545
 8721SOL    HW237623   3.246   2.413   9.029  2.1214 -1.1230 -2.7080
 8722SOL     OW37624   2.342   3.057   5.899  0.1617 -0.6028  0.0010
 8722SOL    HW137625   2.412   2.992   5.890  1.7228  0.9706  0.7876
 8722SOL    HW237626   2.317   3.034   5.989 -1.6133  0.1241 -0.3086
 8723SOL     OW37627   3.712   4.585   2.341 -0.4463 -0.4751 -0.3413
 8723SOL    HW137628   3.720   4.506   2.287  0.0079 -0.7096  0.0793
 8723SOL    HW237629   3.674   4.633   2.267 -1.1218  0.7954  0.8191
 8724SOL     OW37630   1.021   3.692   5.032 -0.1794 -0.6537 -0.5621
 8724SOL    HW137631   1.057   3.715   5.118 -0.0601 -0.0677 -0.7670
 8724SOL    HW237632   0.927   3.676   5.045 -0.4364  0.8380 -0.4806
 8725SOL     OW37633   3.337   1.004   5.893  0.0348  0.4644 -0.0443
 8725SOL    HW137634   3.267   1.070   5.894  0.3786  0.8234  0.2604
 8725SOL    HW237635   3.293   0.934   5.844  2.2400 -1.9400  1.4089
 8726SOL     OW37636   0.403   2.421   5.753 -0.0763  0.4027 -0.1759
 8726SOL    HW137637   0.443   2.348   5.706 -0.5031 -0.0436  0.1663
 8726SOL    HW237638   0.446   2.488   5.700  0.9099  0.7186  1.0304
 8727SOL     OW37639   4.186   2.663  16.744  0.5220  0.0153 -0.0778
 8727SOL    HW137640   4.190   2.569  16.761 -0.4732 -0.0573 -0.2321
 8727SOL    HW237641   4.097   2.675  16.710 -0.5072  1.3500  3.1035
 8728SOL     OW37642   2.869   1.796   3.659  0.1819  0.3503 -0.3473
 8728SOL    HW137643   2.860   1.863   3.592 -0.4478  0.4286 -0.1823
 8728SOL    HW237644   2.963   1.782   3.650  0.3797  0.2334  1.8936
 8729SOL     OW37645   4.535   0.085   1.156 -0.1571  0.2748  0.1998
 8729SOL    HW137646   4.593   0.009   1.157 -2.2828 -1.4390 -2.6213
 8729SOL    HW237647   4.551   0.116   1.245 -1.4284  0.3747  0.3942
 8730SOL     OW37648   4.721   3.534   9.003  0.4726  0.7669  0.1892
 8730SOL    HW137649   4.638   3.487   9.010  0.1388  1.3867  0.3350
 8730SOL    HW237650   0.027   3.515   9.092 -0.5398  0.3647  0.4510
 8731SOL     OW37651   3.443   4.089   9.726  0.6436 -0.1266  0.7979
 8731SOL    HW137652   3.427   4.115   9.817  2.6429  2.3635  0.4328
 8731SOL    HW237653   3.354   4.084   9.691  2.4978  0.1093 -3.9933
 8732SOL     OW37654   3.226   2.146   4.211  0.5031 -1.0445 -0.4111
 8732SOL    HW137655   3.290   2.203   4.169 -0.6816 -0.8676 -1.9836
 8732SOL    HW237656   3.152   2.206   4.206  2.6630  1.5177 -1.3857
 8733SOL     OW37657   2.666   3.977  11.144  0.0955  0.0591  0.1407
 8733SOL    HW137658   2.672   4.065  11.179  1.0158 -0.7738  2.0789
 8733SOL    HW237659   2.743   3.935  11.181 -0.0200 -0.6844 -0.4529
 8734SOL     OW37660   1.393   0.620   6.281 -0.6936  0.1510  0.1075
 8734SOL    HW137661   1.481   0.582   6.288  0.1269  2.2279  1.2759
 8734SOL    HW237662   1.413   0.714   6.286  1.2200 -0.3255  1.4158
 8735SOL     OW37663   4.300   1.906   3.307 -0.1956 -0.3966  0.0176
 8735SOL    HW137664   4.235   1.928   3.240 -1.4681 -2.1595  0.6848
 8735SOL    HW237665   4.258   1.922   3.391 -0.2719 -1.0919  0.1099
 8736SOL     OW37666   3.053   4.465   4.639  0.4398  0.0312 -0.7942
 8736SOL    HW137667   3.069   4.414   4.718 -2.3337  0.5063  0.0962
 8736SOL    HW237668   3.055   4.398   4.570 -1.0750 -1.8169  0.9631
 8737SOL     OW37669   3.829   2.264   9.209 -1.0631  0.3491 -0.1043
 8737SOL    HW137670   3.849   2.342   9.262 -1.0792 -1.0679  2.0085
 8737SOL    HW237671   3.920   2.237   9.196 -1.2235  0.2285 -0.9542
 8738SOL     OW37672   3.690   2.108  17.174 -0.0219  0.0694  0.2404
 8738SOL    HW137673   3.637   2.085  17.250  0.2670 -2.3352 -0.2677
 8738SOL    HW237674   3.715   2.023  17.137 -0.9276  0.3342 -0.9792
 8739SOL     OW37675   1.263   2.461   9.585  0.0859  0.1419 -0.0047
 8739SOL    HW137676   1.263   2.490   9.676 -0.5936 -0.3748  0.1547
 8739SOL    HW237677   1.326   2.525   9.549 -0.3872  2.1332  2.6893
 8740SOL     OW37678   1.638   0.841  14.357  0.1434 -0.7965 -1.4368
 8740SOL    HW137679   1.617   0.849  14.450  1.0021 -0.4676 -1.2755
 8740SOL    HW237680   1.722   0.885  14.349 -0.2361  0.1101 -0.3480
 8741SOL     OW37681   2.754   3.464   8.052  0.2365  0.1364  0.4933
 8741SOL    HW137682   2.777   3.533   8.114 -2.5436  2.5053 -1.1491
 8741SOL    HW237683   2.821   3.479   7.985 -0.4028 -0.9735 -0.3973
 8742SOL     OW37684   2.034   3.928   5.916 -0.8846  0.1047 -0.4293
 8742SOL    HW137685   2.031   4.008   5.969 -0.1182 -0.1851  0.0440
 8742SOL    HW237686   2.113   3.942   5.865 -0.6369 -2.6151 -0.7815
 8743SOL     OW37687   2.110   0.582  10.924 -0.2038  0.0066 -0.6427
 8743SOL    HW137688   2.188   0.572  10.979 -1.3813  0.8105  1.1441
 8743SOL    HW237689   2.069   0.496  10.933  0.0376 -0.3068 -2.4693
 8744SOL     OW37690   4.711   3.720   6.613 -0.1089  0.4605  0.1956
 8744SOL    HW137691   4.720   3.647   6.552  0.8897  1.7117 -1.1548
 8744SOL    HW237692   4.692   3.785   6.545 -0.8642 -1.8568 -1.8255
 8745SOL     OW37693   3.811   3.254   7.167  0.2135  0.7173 -0.1069
 8745SOL    HW137694   3.788   3.289   7.253  0.9882  0.1732  0.3217
 8745SOL    HW237695   3.845   3.333   7.125 -1.1234  2.2927  1.7940
 8746SOL     OW37696   1.420   3.412  16.494  0.0331  0.2633 -0.6638
 8746SOL    HW137697   1.457   3.363  16.421 -1.2360 -0.0850 -1.0571
 8746SOL    HW237698   1.348   3.362  16.531  0.8813 -1.2256 -1.0193
 8747SOL     OW37699   3.083   1.274   3.213  0.0949  0.4216 -0.0326
 8747SOL    HW137700   3.020   1.264   3.284 -0.2009 -0.6064 -0.4366
 8747SOL    HW237701   3.103   1.187   3.178  0.5287 -0.8341  3.3891
 8748SOL     OW37702   2.892   3.199   0.131  0.2003 -0.0207 -0.2753
 8748SOL    HW137703   2.798   3.216   0.126  0.2900  0.2547 -0.9993
 8748SOL    HW237704   2.894   3.116   0.179 -0.0691 -0.3792 -0.8813
 8749SOL     OW37705   0.877   1.877   1.346  0.5794 -0.5491 -0.7090
 8749SOL    HW137706   0.884   1.969   1.372  1.9156 -0.3705 -1.7317
 8749SOL    HW237707   0.954   1.879   1.290 -1.5020 -0.6368 -3.6237
 8750SOL     OW37708   1.236   3.426   6.096 -0.2007 -0.3209 -0.5100
 8750SOL    HW137709   1.183   3.500   6.067 -0.1783 -0.6897 -1.5137
 8750SOL    HW237710   1.304   3.417   6.029 -1.2685 -2.4134 -1.3104
 8751SOL     OW37711   3.736   4.307   3.445  0.0330  0.2643 -0.8996
 8751SOL    HW137712   3.796   4.233   3.437 -0.2031  0.0989 -1.1500
 8751SOL    HW237713   3.787   4.387   3.435 -0.4206  0.6829  0.2240
 8752SOL     OW37714   3.692   1.567  14.912 -0.0807 -0.6498  0.1826
 8752SOL    HW137715   3.751   1.573  14.837 -0.5307  2.1281  0.0278
 8752SOL    HW237716   3.705   1.653  14.953 -1.2022 -0.0789 -0.6671
 8753SOL     OW37717   0.386   3.325  12.190 -0.8942 -0.2045 -0.3987
 8753SOL    HW137718   0.456   3.390  12.184 -0.2753 -0.7202  1.4671
 8753SOL    HW237719   0.340   3.349  12.270 -2.2776  2.2092 -1.9094
 8754SOL     OW37720   3.232   1.897  16.882  0.0666  0.6131  0.3949
 8754SOL    HW137721   3.216   1.907  16.788 -0.3260  2.2474  0.6325
 8754SOL    HW237722   3.149   1.864  16.918 -1.2223  0.7974 -2.4252
 8755SOL     OW37723   0.789   3.958   5.133  0.5255  0.5328  0.7078
 8755SOL    HW137724   0.806   4.035   5.189 -0.7497  1.3737 -0.0647
 8755SOL    HW237725   0.799   4.005   5.050 -0.2955  1.1486  0.9563
 8756SOL     OW37726   3.898   0.938   5.934 -0.2860  0.5395  0.0199
 8756SOL    HW137727   3.811   0.963   5.966 -0.5657  0.3638 -0.5950
 8756SOL    HW237728   3.888   0.930   5.839 -0.0907 -1.6085  0.1727
 8757SOL     OW37729   3.607   2.250   6.606 -0.0075 -0.5079 -0.5507
 8757SOL    HW137730   3.686   2.227   6.557  0.2305 -1.3369  0.2205
 8757SOL    HW237731   3.629   2.238   6.698 -1.5259 -0.2493 -0.1410
 8758SOL     OW37732   2.382   0.923   4.545 -0.5302 -0.1757 -0.3668
 8758SOL    HW137733   2.402   0.892   4.457  0.7602 -1.2858  0.3073
 8758SOL    HW237734   2.331   1.003   4.535  0.6991  0.7280  0.7021
 8759SOL     OW37735   1.111   0.405   3.256  0.1604  0.6089 -0.5580
 8759SOL    HW137736   1.178   0.345   3.291 -0.4859 -0.8256 -1.8248
 8759SOL    HW237737   1.165   0.456   3.195 -0.5751 -0.7292 -2.3218
 8760SOL     OW37738   0.886   1.649  13.906  0.1563 -0.0670  0.2010
 8760SOL    HW137739   0.815   1.624  13.847 -0.9314  1.9201  0.6748
 8760SOL    HW237740   0.948   1.701  13.856 -0.5402 -1.6717 -2.3566
 8761SOL     OW37741   1.944   1.321   8.812  0.2791 -0.1391 -0.3370
 8761SOL    HW137742   2.001   1.370   8.872 -2.1930  2.3902 -0.0556
 8761SOL    HW237743   1.856   1.344   8.842  0.2844  0.3801 -0.7159
 8762SOL     OW37744   2.989   3.517   7.910 -0.2922  0.0147  0.1184
 8762SOL    HW137745   3.033   3.585   7.961 -0.8753  0.0211  0.6113
 8762SOL    HW237746   3.031   3.533   7.825  0.9918 -0.1848  0.7244
 8763SOL     OW37747   2.383   0.922   2.066  0.3996 -0.0243  0.9223
 8763SOL    HW137748   2.440   0.941   2.141 -0.1646 -3.9331  2.3044
 8763SOL    HW237749   2.317   0.990   2.081  0.3299 -0.1214  1.0511
 8764SOL     OW37750   1.330   4.005   9.147 -0.1070  0.6307 -0.2254
 8764SOL    HW137751   1.242   3.971   9.162  0.3228 -0.2660  0.2485
 8764SOL    HW237752   1.368   3.953   9.076 -1.0251 -1.1492  0.5959
 8765SOL     OW37753   1.501   2.099  13.232  0.4419  0.0168 -0.7640
 8765SOL    HW137754   1.425   2.045  13.209 -0.3495  0.3000  1.1776
 8765SOL    HW237755   1.485   2.181  13.186 -2.2550 -0.1447 -0.0920
 8766SOL     OW37756   2.165   3.623   4.922 -0.2832  0.0865  0.1345
 8766SOL    HW137757   2.089   3.577   4.957  0.2227 -1.7531 -1.2047
 8766SOL    HW237758   2.234   3.622   4.989  0.6683  1.8887 -0.8238
 8767SOL     OW37759   3.397   0.077   7.530 -0.3916  0.2522 -0.3632
 8767SOL    HW137760   3.365   0.168   7.532 -0.5470  0.1580  1.7223
 8767SOL    HW237761   3.316   0.026   7.527 -0.4538  0.3086  0.2738
 8768SOL     OW37762   3.213   1.536  12.392  0.1392  0.2504  0.1881
 8768SOL    HW137763   3.247   1.463  12.342  1.8985  0.1315  1.5266
 8768SOL    HW237764   3.120   1.514  12.388  0.5540 -1.1578 -1.4504
 8769SOL     OW37765   0.802   1.794   5.714  0.0406  0.1826  0.2174
 8769SOL    HW137766   0.892   1.769   5.693 -0.4350 -2.2022  1.0744
 8769SOL    HW237767   0.784   1.758   5.801  0.7286 -0.3256  0.1447
 8770SOL     OW37768   3.733   3.430   0.982 -0.0563 -0.0274 -0.3350
 8770SOL    HW137769   3.704   3.410   0.893 -1.3362  1.1683 -0.1818
 8770SOL    HW237770   3.652   3.470   1.013  0.7041 -0.0372  1.6746
 8771SOL     OW37771   4.488   1.788   6.463 -0.1206 -0.4908  0.1194
 8771SOL    HW137772   4.401   1.758   6.490 -1.1896  0.8702 -1.8486
 8771SOL    HW237773   4.541   1.712   6.488 -0.6664 -0.7770  0.4176
 8772SOL     OW37774   1.683   2.959   8.334  0.1531 -0.0394  0.3886
 8772SOL    HW137775   1.598   2.977   8.375 -0.4486  1.8080 -1.7088
 8772SOL    HW237776   1.715   3.046   8.310 -0.2796 -0.0024 -0.0394
 8773SOL     OW37777   4.260   3.009  10.168  0.3189  0.7320 -0.9423
 8773SOL    HW137778   4.266   3.015  10.072 -0.6076 -0.4654 -1.0810
 8773SOL    HW237779   4.354   3.000  10.182  0.3982 -0.8828 -2.3860
 8774SOL     OW37780   2.851   0.776   3.072 -0.3750 -0.2472  0.2085
 8774SOL    HW137781   2.847   0.708   3.005 -3.3946  1.3399 -1.2183
 8774SOL    HW237782   2.927   0.828   3.045 -0.1510 -0.3998  0.5413
 8775SOL     OW37783   4.407   4.348   4.700 -0.0338 -0.0299  0.0575
 8775SOL    HW137784   4.444   4.413   4.641 -1.3865  1.7736  1.1973
 8775SOL    HW237785   4.377   4.400   4.775 -0.6513  1.1425 -1.0146
 8776SOL     OW37786   0.080   1.644   2.930 -0.7285 -0.0854 -0.4125
 8776SOL    HW137787   0.048   1.695   2.856 -1.9177 -1.4685 -0.8414
 8776SOL    HW237788   0.132   1.578   2.884 -1.3493 -1.2124  0.4961
 8777SOL     OW37789   2.992   2.865   8.668 -0.5803 -0.6230 -0.0799
 8777SOL    HW137790   3.024   2.916   8.593  0.3189  0.1264  0.8128
 8777SOL    HW237791   3.005   2.925   8.741  1.8388 -0.0467 -0.9789
 8778SOL     OW37792   4.142   0.016   5.766 -0.1511 -0.1702 -0.1072
 8778SOL    HW137793   4.211   0.065   5.722  0.3103  0.2583  1.1051
 8778SOL    HW237794   4.189   4.662   5.792 -0.0261  0.0587  0.3516
 8779SOL     OW37795   2.956   1.395   0.176  0.0490 -0.0729 -0.1776
 8779SOL    HW137796   2.985   1.317   0.129  1.3147  1.4342 -1.9100
 8779SOL    HW237797   3.044   1.424   0.200  1.1118 -1.4105 -2.4285
 8780SOL     OW37798   0.214   2.031   2.798 -0.4095  0.5424  0.1731
 8780SOL    HW137799   0.139   2.022   2.856  0.8130 -2.8117  1.2366
 8780SOL    HW237800   0.172   2.093   2.738 -0.9769  0.2032  0.2282
 8781SOL     OW37801   3.207   0.891   7.152 -0.0893 -0.1398  0.1585
 8781SOL    HW137802   3.166   0.968   7.114  1.2468  0.3749 -0.2614
 8781SOL    HW237803   3.153   0.824   7.110  0.0980 -1.0236  1.3403
 8782SOL     OW37804   1.483   0.651   5.149  0.1771  0.1359 -0.2119
 8782SOL    HW137805   1.394   0.658   5.183  0.1679  0.8494 -0.3819
 8782SOL    HW237806   1.492   0.718   5.081 -1.4756 -1.7650 -2.3045
 8783SOL     OW37807   3.404   1.836   7.178 -0.6124 -0.0391 -0.3698
 8783SOL    HW137808   3.311   1.850   7.195 -0.8579 -0.3707 -1.4059
 8783SOL    HW237809   3.410   1.742   7.189 -1.2475 -0.2683 -1.9252
 8784SOL     OW37810   2.788   1.589  14.831  0.2006 -0.0520 -0.2425
 8784SOL    HW137811   2.788   1.560  14.740  2.0543  1.8800 -0.8636
 8784SOL    HW237812   2.850   1.530  14.876  2.2649  0.1369 -2.8613
 8785SOL     OW37813   1.057   3.484  10.198  0.3903 -0.4868  0.1544
 8785SOL    HW137814   1.010   3.427  10.136  0.0324  1.2712 -1.2054
 8785SOL    HW237815   1.083   3.552  10.136  0.4934  1.4782  2.3896
 8786SOL     OW37816   0.983   4.362   4.283 -0.2413 -0.3884  0.2411
 8786SOL    HW137817   0.888   4.354   4.285 -0.3111  0.0210 -1.2989
 8786SOL    HW237818   0.988   4.450   4.319  1.6261  0.0145 -0.9872
 8787SOL     OW37819   1.830   4.410   4.774  0.0865 -0.2929 -0.2494
 8787SOL    HW137820   1.839   4.468   4.849  0.2912 -0.0204 -0.4846
 8787SOL    HW237821   1.778   4.455   4.708 -1.0085  1.3542  1.7364
 8788SOL     OW37822   1.550   0.212   3.686  0.0839 -0.3430 -0.3147
 8788SOL    HW137823   1.615   0.260   3.635  1.2368 -0.4983  1.0220
 8788SOL    HW237824   1.570   0.124   3.654  2.0027  0.0978 -0.2914
 8789SOL     OW37825   2.226   3.496   5.312 -0.2275  0.7510 -0.1209
 8789SOL    HW137826   2.269   3.545   5.242  0.0933 -0.2631 -0.6341
 8789SOL    HW237827   2.288   3.515   5.382  0.8882 -1.5693 -0.4674
 8790SOL     OW37828   3.120   1.914   1.667 -0.0334 -0.2709  0.0280
 8790SOL    HW137829   3.177   1.923   1.744  0.3748 -1.8753 -0.0902
 8790SOL    HW237830   3.116   1.819   1.655 -0.0723 -0.4490  1.5603
 8791SOL     OW37831   0.468   0.065   7.355 -0.3866  0.1405  0.4425
 8791SOL    HW137832   0.498   4.720   7.414 -0.9880  1.1849  1.9608
 8791SOL    HW237833   0.443   0.130   7.420  0.2621 -0.2622  1.0943
 8792SOL     OW37834   3.166   3.448   5.996  0.2628 -0.6275  0.1702
 8792SOL    HW137835   3.177   3.356   6.020 -1.8708 -1.0391 -0.4636
 8792SOL    HW237836   3.237   3.484   6.049 -0.2137  2.0406 -1.0199
 8793SOL     OW37837   3.455   2.266   6.340  0.3380 -0.3498  0.3852
 8793SOL    HW137838   3.384   2.228   6.391  0.6973 -1.7075 -0.1117
 8793SOL    HW237839   3.516   2.291   6.409 -0.7482  1.2006  0.7756
 8794SOL     OW37840   4.243   2.361  14.498  0.4155 -0.0680 -0.1263
 8794SOL    HW137841   4.177   2.394  14.436  0.6910 -0.7771 -0.8126
 8794SOL    HW237842   4.306   2.432  14.501 -0.0118  0.3958 -1.7279
 8795SOL     OW37843   4.401   3.576   3.266  0.3902 -0.7136 -0.4000
 8795SOL    HW137844   4.479   3.575   3.210 -0.3419  1.7832 -1.4250
 8795SOL    HW237845   4.346   3.647   3.234  0.8798  0.0022  0.3270
 8796SOL     OW37846   4.473   3.332   4.705 -0.1711 -0.6538 -0.0826
 8796SOL    HW137847   4.414   3.407   4.705  0.1093 -0.4351 -0.4839
 8796SOL    HW237848   4.417   3.272   4.755  1.8579 -2.8433 -0.4417
 8797SOL     OW37849   0.624   0.320   7.826  0.1246 -0.1377 -0.2946
 8797SOL    HW137850   0.587   0.381   7.762  1.0968  1.6169  0.8119
 8797SOL    HW237851   0.705   0.361   7.856  0.3037 -0.3759 -0.4577
 8798SOL     OW37852   3.648   1.712   1.227  0.5462 -0.4833 -0.7763
 8798SOL    HW137853   3.606   1.785   1.273  0.9880 -0.8106  0.1436
 8798SOL    HW237854   3.608   1.640   1.276  1.2971 -0.0260  0.4854
 8799SOL     OW37855   1.151   3.762   9.458 -0.2882  0.3293 -0.1506
 8799SOL    HW137856   1.112   3.791   9.376 -2.7622  0.6327  1.1458
 8799SOL    HW237857   1.242   3.792   9.456  0.1854 -1.1091 -0.5076
 8800SOL     OW37858   2.220   0.775   3.920 -0.1536 -0.3383  0.4172
 8800SOL    HW137859   2.218   0.679   3.920  1.8890 -0.3815 -0.5043
 8800SOL    HW237860   2.266   0.799   3.840  0.3840 -0.0883  0.8028
 8801SOL     OW37861   3.201   3.969   3.702 -0.3830 -0.1780 -0.1235
 8801SOL    HW137862   3.292   3.996   3.689  0.1239 -1.2975  1.1442
 8801SOL    HW237863   3.206   3.882   3.661  1.2341  0.6882 -1.7663
 8802SOL     OW37864   4.316   3.688   7.606 -0.4408  0.5313  0.9700
 8802SOL    HW137865   4.384   3.752   7.627  1.3439 -0.3796 -2.0272
 8802SOL    HW237866   4.318   3.640   7.689 -0.1446 -1.6056 -0.2772
 8803SOL     OW37867   2.238   3.628   4.512 -0.6810 -0.2811 -0.6093
 8803SOL    HW137868   2.176   3.610   4.582 -3.3421 -1.7277 -3.3223
 8803SOL    HW237869   2.279   3.542   4.502 -0.1812 -0.0889 -0.2011
 8804SOL     OW37870   0.033   2.020   3.014  0.2493  0.2653 -0.4462
 8804SOL    HW137871   4.691   1.973   3.064  0.2674 -0.1810 -0.8397
 8804SOL    HW237872   4.715   2.098   2.977  0.3613 -0.4788 -2.1753
 8805SOL     OW37873   0.968   4.553  15.898  0.3932  0.3895 -0.0993
 8805SOL    HW137874   0.876   4.575  15.913  0.1689  0.9315 -2.2629
 8805SOL    HW237875   0.958   4.480  15.837  0.1159  0.0295  0.3790
 8806SOL     OW37876   2.452   0.113  11.404  0.2694  0.4457  0.0050
 8806SOL    HW137877   2.372   0.093  11.355 -0.1394  0.4824  0.6539
 8806SOL    HW237878   2.446   0.208  11.396  3.7245  0.7057  0.4004
 8807SOL     OW37879   4.002   0.525  15.651 -0.1725 -0.7230 -0.2289
 8807SOL    HW137880   3.941   0.452  15.639  0.1534 -1.5349  2.8994
 8807SOL    HW237881   3.962   0.550  15.734 -1.0038 -1.5237 -0.3910
 8808SOL     OW37882   2.320   3.855   8.447  0.3641  0.4686  0.1114
 8808SOL    HW137883   2.346   3.933   8.397  1.9343 -1.3530 -1.8930
 8808SOL    HW237884   2.240   3.826   8.404 -0.0803  1.5653  0.1987
 8809SOL     OW37885   1.580   3.999   3.033 -0.5560  0.9514  0.3965
 8809SOL    HW137886   1.508   3.970   2.978  1.0820 -0.4743 -1.0188
 8809SOL    HW237887   1.555   3.945   3.107  3.0138  0.6238  1.3992
 8810SOL     OW37888   1.208   3.920   8.478  0.2051  0.3296 -0.3732
 8810SOL    HW137889   1.284   3.868   8.503 -0.9861 -0.9023  0.7078
 8810SOL    HW237890   1.225   3.955   8.391 -0.2136  0.9770 -0.1968
 8811SOL     OW37891   4.626   3.098   5.236  0.5505 -0.7563  0.3461
 8811SOL    HW137892   4.582   3.015   5.218  0.1174 -0.5623  0.5098
 8811SOL    HW237893   4.564   3.139   5.295 -0.2950 -2.8752  0.9405
 8812SOL     OW37894   3.919   1.319  11.816 -0.4815  0.2228  0.1565
 8812SOL    HW137895   3.849   1.300  11.878  0.1250  0.0268  0.7661
 8812SOL    HW237896   3.917   1.242  11.760  0.0285  0.4282 -0.1420
 8813SOL     OW37897   0.398   2.087   3.695  0.0862  0.2371 -0.0456
 8813SOL    HW137898   0.319   2.095   3.748  0.1120  1.7787 -0.2283
 8813SOL    HW237899   0.407   2.175   3.659  2.4686 -0.1186 -0.3415
 8814SOL     OW37900   2.298   0.681   6.298  0.0238 -0.1729  0.7395
 8814SOL    HW137901   2.279   0.635   6.380 -0.0630  1.9093  1.8721
 8814SOL    HW237902   2.336   0.604   6.256  0.4320 -0.2738  1.2955
 8815SOL     OW37903   1.646   2.529   2.426 -0.2186  0.4215  0.2820
 8815SOL    HW137904   1.660   2.619   2.397 -0.6329  0.3255 -0.2132
 8815SOL    HW237905   1.560   2.512   2.387  1.2201  0.4728 -2.9298
 8816SOL     OW37906   4.234   3.983  10.347  0.3228 -0.8046  0.3413
 8816SOL    HW137907   4.289   4.017  10.417 -0.8436  1.9111 -0.0552
 8816SOL    HW237908   4.256   3.890  10.349  0.6272 -0.6995  2.0615
 8817SOL     OW37909   4.125   3.443   4.613  0.3401  0.0326  0.4345
 8817SOL    HW137910   4.107   3.449   4.519  2.5466  0.3041  0.0306
 8817SOL    HW237911   4.042   3.405   4.640  0.2388  0.1140  0.2446
 8818SOL     OW37912   2.516   3.111   4.246 -0.0433  0.3259 -0.7539
 8818SOL    HW137913   2.559   3.099   4.331 -1.4298  0.3375 -0.0597
 8818SOL    HW237914   2.493   3.023   4.216 -0.7993  0.5351 -0.7814
 8819SOL     OW37915   1.850   3.688   8.448  0.0957 -0.0952  0.1021
 8819SOL    HW137916   1.858   3.778   8.481  0.9467 -0.5696  1.1826
 8819SOL    HW237917   1.820   3.709   8.360  0.4138 -1.3166 -0.2903
 8820SOL     OW37918   0.298   0.110  10.718  0.4707 -0.6668 -0.3103
 8820SOL    HW137919   0.272   0.190  10.674 -1.6169 -0.9953  0.3300
 8820SOL    HW237920   0.309   0.139  10.809 -2.7427  0.3184 -0.2563
 8821SOL     OW37921   2.648   3.765  17.533 -0.0728  0.7462  0.2331
 8821SOL    HW137922   2.715   3.731  17.592  2.1922  1.1395 -2.1456
 8821SOL    HW237923   2.692   3.752  17.449 -1.0507 -2.8450  0.2744
 8822SOL     OW37924   2.667   1.236   7.309 -0.1891 -0.2405 -0.3397
 8822SOL    HW137925   2.681   1.297   7.382  0.3971 -1.3492  0.4801
 8822SOL    HW237926   2.621   1.286   7.242 -1.6552  0.3194  1.0841
 8823SOL     OW37927   4.278   3.105   4.092 -0.0127  0.5483  0.1211
 8823SOL    HW137928   4.183   3.103   4.105 -0.3283 -0.7949 -2.4136
 8823SOL    HW237929   4.311   3.102   4.182 -0.9778 -0.8673  0.4333
 8824SOL     OW37930   0.960   3.370   8.613 -0.9799 -0.0400 -0.0474
 8824SOL    HW137931   1.034   3.427   8.633 -0.1082 -1.1250 -0.1961
 8824SOL    HW237932   1.004   3.304   8.560 -1.3918 -1.0047  0.8023
 8825SOL     OW37933   3.592   1.409   2.268  0.5746  0.6137 -0.5558
 8825SOL    HW137934   3.667   1.433   2.321 -0.4301  0.2564  1.0137
 8825SOL    HW237935   3.624   1.340   2.211 -0.9081 -1.5076  1.1947
 8826SOL     OW37936   2.560   0.106   4.463  0.1802 -0.4948 -0.1042
 8826SOL    HW137937   2.552   0.170   4.392  0.4670  1.5957  1.7797
 8826SOL    HW237938   2.608   0.034   4.422  2.5246 -0.2705  2.2945
 8827SOL     OW37939   0.481   0.868   2.424  0.0092  0.1525  0.3335
 8827SOL    HW137940   0.475   0.874   2.520  0.9190  2.2031  0.2713
 8827SOL    HW237941   0.446   0.782   2.402  0.1854 -0.5746  2.8316
 8828SOL     OW37942   3.477   1.899   8.681 -0.1403 -0.1513  0.2029
 8828SOL    HW137943   3.436   1.905   8.767 -0.0176 -2.1412  0.3946
 8828SOL    HW237944   3.570   1.913   8.698  0.7163 -4.1973 -1.1762
 8829SOL     OW37945   1.556   1.774   5.242 -0.3728  0.1068 -0.5296
 8829SOL    HW137946   1.472   1.815   5.223 -0.0190  0.1919 -1.8635
 8829SOL    HW237947   1.611   1.811   5.173 -1.0324 -1.8295 -2.1171
 8830SOL     OW37948   1.391   3.867   9.458  0.4037 -0.4085 -0.5416
 8830SOL    HW137949   1.442   3.930   9.509  2.6541 -1.5999 -1.2689
 8830SOL    HW237950   1.462   3.843   9.397 -1.0156  1.5858 -2.9469
 8831SOL     OW37951   2.281   0.116   2.864  0.4806 -0.1018 -0.5699
 8831SOL    HW137952   2.319   0.036   2.828 -1.7876 -2.0211  1.2742
 8831SOL    HW237953   2.358   0.158   2.902  1.3332 -1.2955 -0.9426
 8832SOL     OW37954   2.187   2.710   2.653 -0.2686 -0.0640  0.0489
 8832SOL    HW137955   2.222   2.780   2.599  0.4667 -0.0634  0.5206
 8832SOL    HW237956   2.204   2.745   2.740 -2.4586  1.6101 -0.1991
 8833SOL     OW37957   4.654   3.658   6.031 -0.1193  0.1919 -1.0470
 8833SOL    HW137958   4.695   3.713   6.098 -0.8258  1.1150 -1.3769
 8833SOL    HW237959   4.584   3.714   5.998 -0.9466 -1.3261 -1.8739
 8834SOL     OW37960   3.694   3.389  11.704 -0.1576  0.2591  0.4204
 8834SOL    HW137961   3.727   3.471  11.669 -2.2294  1.5207  1.4153
 8834SOL    HW237962   3.602   3.386  11.676  0.4062 -2.1978 -1.1586
 8835SOL     OW37963   1.509   1.307   4.523  0.3776  0.1807 -0.0150
 8835SOL    HW137964   1.588   1.276   4.568  1.2530  1.9295 -0.3422
 8835SOL    HW237965   1.539   1.289   4.434 -2.6350 -2.0778 -0.6122
 8836SOL     OW37966   1.785   0.197   2.793 -0.6845  0.3886  0.2775
 8836SOL    HW137967   1.878   0.220   2.804 -1.0543  1.7519  0.6645
 8836SOL    HW237968   1.776   0.106   2.768 -1.1478  0.6567 -0.5125
 8837SOL     OW37969   1.069   2.232   4.501  0.2997  0.0599  0.7246
 8837SOL    HW137970   1.083   2.206   4.410 -1.4510  1.9227 -0.0706
 8837SOL    HW237971   1.148   2.282   4.521  1.7302 -1.1333 -1.9131
 8838SOL     OW37972   4.164   3.597  15.593  0.6070 -0.2121 -0.1232
 8838SOL    HW137973   4.093   3.559  15.645 -0.6728 -1.8790 -3.0787
 8838SOL    HW237974   4.213   3.524  15.554  2.3707  0.5404  0.7006
 8839SOL     OW37975   3.872   1.782   3.691  0.3667 -0.3679  0.2710
 8839SOL    HW137976   3.884   1.749   3.602 -1.8316  1.8687 -0.8742
 8839SOL    HW237977   3.780   1.764   3.710  0.6402 -2.0677  0.0090
 8840SOL     OW37978   3.387   1.672  16.261  0.6051  0.3258 -0.0673
 8840SOL    HW137979   3.373   1.660  16.354 -0.8920  0.0050 -0.3420
 8840SOL    HW237980   3.483   1.679  16.257  0.6910  1.0679  3.7135
 8841SOL     OW37981   3.389   1.247  11.920 -0.8661 -0.4699  0.5920
 8841SOL    HW137982   3.408   1.322  11.864  0.8292 -2.0352 -0.9169
 8841SOL    HW237983   3.460   1.229  11.982 -0.2104 -3.7504 -1.0623
 8842SOL     OW37984   4.531   3.019   3.568  0.1772  0.4695 -0.1317
 8842SOL    HW137985   4.600   3.086   3.568 -1.1440  1.8065  1.4318
 8842SOL    HW237986   4.458   3.069   3.530  0.5691  0.7184 -0.5646
 8843SOL     OW37987   4.182   4.532   7.868 -0.7728  0.7694 -0.3147
 8843SOL    HW137988   4.192   4.605   7.929 -1.4176  2.9263 -2.7897
 8843SOL    HW237989   4.269   4.537   7.828 -1.1533  2.8040 -0.8791
 8844SOL     OW37990   2.905   0.416  16.300 -0.5176 -0.2026 -0.1120
 8844SOL    HW137991   2.921   0.481  16.232  0.5123 -0.3389  0.0020
 8844SOL    HW237992   2.965   0.346  16.273  1.0527  0.0884  2.5960
 8845SOL     OW37993   1.831   4.719  17.595 -0.7150  0.1081  0.3658
 8845SOL    HW137994   1.788   4.655  17.539  0.3559  0.7888 -1.2370
 8845SOL    HW237995   1.926   4.713  17.580 -0.5104  0.7358  1.3808
 8846SOL     OW37996   4.047   1.259   2.205  0.6113  0.3599 -0.0943
 8846SOL    HW137997   4.087   1.335   2.162  0.4678  0.2710 -0.3872
 8846SOL    HW237998   4.098   1.187   2.166 -0.7153 -0.9717  0.6033
 8847SOL     OW37999   1.619   1.119   3.915 -0.0271  0.0178 -0.1455
 8847SOL    HW138000   1.618   1.187   3.848  0.2238  1.2940  1.1517
 8847SOL    HW238001   1.709   1.130   3.945 -0.3115 -0.2622  0.8291
 8848SOL     OW38002   3.769   1.252   2.128  0.4916 -0.1144  0.2802
 8848SOL    HW138003   3.859   1.277   2.153  0.9609  0.6053 -2.1382
 8848SOL    HW238004   3.771   1.163   2.093  1.0184  1.0072 -2.5170
 8849SOL     OW38005   2.025   3.622   4.685  0.2807  0.3904 -0.0202
 8849SOL    HW138006   2.079   3.644   4.761  1.4381  0.6800 -0.9279
 8849SOL    HW238007   1.952   3.683   4.691  1.2961  1.5072  1.0115
 8850SOL     OW38008   3.266   1.197   7.502  0.0407  0.3227 -0.0932
 8850SOL    HW138009   3.218   1.201   7.585 -0.4169 -2.3446 -0.2288
 8850SOL    HW238010   3.233   1.118   7.460  0.5187  1.0555 -1.8545
 8851SOL     OW38011   3.021   1.371   7.912  0.0784  0.0561  0.4856
 8851SOL    HW138012   2.962   1.349   7.985 -0.0891 -0.0310  0.3224
 8851SOL    HW238013   3.089   1.402   7.971 -1.0505 -0.6388  2.1588
 8852SOL     OW38014   2.036   1.259   0.229  0.4082 -0.1328 -0.5636
 8852SOL    HW138015   2.129   1.264   0.249  0.8535  0.3632 -2.6848
 8852SOL    HW238016   2.023   1.179   0.280  1.5053 -1.0819 -1.7840
 8853SOL     OW38017   2.322   1.526  14.447  0.0007 -0.1561 -0.1068
 8853SOL    HW138018   2.248   1.543  14.390  1.0361  0.8207 -1.1533
 8853SOL    HW238019   2.396   1.554  14.394 -1.5521  1.5960 -1.3421
 8854SOL     OW38020   4.647   0.543  13.041 -0.2595  0.7138 -0.0516
 8854SOL    HW138021   4.705   0.619  13.033  0.7511 -0.0364  0.1620
 8854SOL    HW238022   4.701   0.480  13.088 -0.1288  1.1525  0.3874
 8855SOL     OW38023   2.909   2.032   3.507  0.4929 -0.0229 -0.5580
 8855SOL    HW138024   2.886   2.071   3.423  1.4692  0.7152 -0.4755
 8855SOL    HW238025   2.821   2.033   3.543  1.1216 -2.5977  1.0422
 8856SOL     OW38026   2.980   0.292   2.141  0.1443  0.1687  0.1676
 8856SOL    HW138027   3.007   0.316   2.052  0.7962 -0.4225  0.1979
 8856SOL    HW238028   2.887   0.272   2.133  0.6644 -2.8269  1.5258
 8857SOL     OW38029   3.757   2.839   0.153  0.4697  0.4000  0.1987
 8857SOL    HW138030   3.761   2.745   0.134 -1.6235  0.2727  0.3856
 8857SOL    HW238031   3.668   2.860   0.124  0.3366  1.2904  1.2451
 8858SOL     OW38032   3.323   3.929  12.949 -0.1690 -0.0829  0.3971
 8858SOL    HW138033   3.359   3.987  13.016 -1.1483  1.6037 -0.5500
 8858SOL    HW238034   3.274   3.984  12.889  0.4767 -0.0331 -0.0774
 8859SOL     OW38035   2.564   2.137   5.326 -0.4428  0.0851  0.3761
 8859SOL    HW138036   2.487   2.137   5.268 -0.2691 -2.5575  0.1202
 8859SOL    HW238037   2.515   2.118   5.406 -1.5243  0.6770 -0.1382
 8860SOL     OW38038   0.510   3.340   9.293  0.2189 -0.4681 -0.2551
 8860SOL    HW138039   0.589   3.301   9.331 -1.1846 -1.0727  2.1120
 8860SOL    HW238040   0.476   3.370   9.378 -1.7835  1.1639 -1.6476
 8861SOL     OW38041   0.062   2.675   5.474 -0.1817 -0.8501 -0.2738
 8861SOL    HW138042   4.698   2.672   5.511 -0.5941 -1.6879 -1.3263
 8861SOL    HW238043   0.088   2.735   5.543 -1.6559 -0.6096  0.0809
 8862SOL     OW38044   3.016   3.393  10.288 -0.0666  0.7735 -0.3576
 8862SOL    HW138045   3.006   3.444  10.208  1.3149  1.0566 -0.3502
 8862SOL    HW238046   3.106   3.361  10.288  0.5776  2.5929 -1.2176
 8863SOL     OW38047   0.810   3.860   3.299  0.4010 -0.4960 -0.7070
 8863SOL    HW138048   0.736   3.913   3.268  1.2870  0.0119 -1.9443
 8863SOL    HW238049   0.812   3.786   3.238  1.9219 -0.5048 -0.6317
 8864SOL     OW38050   2.104   1.532   6.601 -0.1182 -0.5991  0.0677
 8864SOL    HW138051   2.155   1.479   6.662 -1.1952  0.0101  1.4976
 8864SOL    HW238052   2.024   1.480   6.590 -0.7442  0.0211  1.6140
 8865SOL     OW38053   1.954   0.918  15.688  0.9380  0.2126  0.3330
 8865SOL    HW138054   2.012   0.912  15.765  0.2156  0.3348  0.8904
 8865SOL    HW238055   1.968   0.839  15.636 -1.0863  1.2401 -1.7368
 8866SOL     OW38056   3.403   4.572   8.642  0.0789  0.4471  0.3581
 8866SOL    HW138057   3.369   4.659   8.664 -0.7193  0.5307 -1.2246
 8866SOL    HW238058   3.449   4.591   8.561  0.5819  1.9566  0.9943
 8867SOL     OW38059   1.941   0.842   8.302 -0.4868 -0.0379 -0.2857
 8867SOL    HW138060   1.871   0.819   8.364 -0.8963  1.8436 -0.0731
 8867SOL    HW238061   2.005   0.776   8.330 -1.3723 -0.8944 -0.2763
 8868SOL     OW38062   3.756   3.382   3.653 -0.5391 -0.0188  0.3179
 8868SOL    HW138063   3.831   3.409   3.705 -0.8487 -1.0114  1.2847
 8868SOL    HW238064   3.705   3.462   3.666  1.4681  1.6355 -1.8433
 8869SOL     OW38065   3.627   0.847   8.167 -0.2089 -0.5589  0.3092
 8869SOL    HW138066   3.648   0.841   8.261  1.6318  2.2045  0.0712
 8869SOL    HW238067   3.599   0.938   8.164  0.5132 -0.3554 -0.3108
 8870SOL     OW38068   3.875   4.404   5.427 -0.2600  0.1934 -0.4566
 8870SOL    HW138069   3.913   4.465   5.363  2.2047 -0.8246  0.0706
 8870SOL    HW238070   3.896   4.443   5.512 -0.0616 -0.5585 -0.1597
 8871SOL     OW38071   0.671   2.763   1.995 -0.3750  0.5935 -0.2304
 8871SOL    HW138072   0.593   2.708   1.997 -0.7782  1.1457 -0.7806
 8871SOL    HW238073   0.659   2.813   2.075 -0.4953  0.9272 -0.4584
 8872SOL     OW38074   4.129   4.378  17.359  0.0406  0.3292  0.2082
 8872SOL    HW138075   4.129   4.322  17.437  0.7093  1.5776  1.1193
 8872SOL    HW238076   4.209   4.429  17.378  1.3269 -2.0555  1.2413
 8873SOL     OW38077   1.793   1.365  11.067  0.3185  0.0798 -0.6795
 8873SOL    HW138078   1.745   1.336  10.990  0.1845 -0.2531 -0.4694
 8873SOL    HW238079   1.860   1.298  11.076 -1.4081 -1.3513  1.5391
 8874SOL     OW38080   0.519   0.955   3.286  0.1009 -0.3034 -0.0658
 8874SOL    HW138081   0.458   0.886   3.261  1.2575 -0.9695 -1.0187
 8874SOL    HW238082   0.450   1.014   3.317 -1.1029 -1.2387 -1.0143
 8875SOL     OW38083   1.737   4.290  13.637  0.7573  0.5151 -0.1079
 8875SOL    HW138084   1.833   4.293  13.640  0.7347  0.9199  0.1877
 8875SOL    HW238085   1.715   4.262  13.549  1.1478 -1.7037  0.4895
 8876SOL     OW38086   0.411   3.837   9.887 -0.1543  0.5243 -0.3691
 8876SOL    HW138087   0.371   3.898   9.825  0.2439  1.1576 -0.0027
 8876SOL    HW238088   0.329   3.807   9.926  0.2683  0.7993  0.7161
 8877SOL     OW38089   4.335   3.192  15.154 -1.0174 -0.0686  0.3391
 8877SOL    HW138090   4.362   3.151  15.236 -0.3920 -0.3584 -0.0158
 8877SOL    HW238091   4.417   3.218  15.113 -1.2498  0.2787  0.0956
 8878SOL     OW38092   1.596   1.153   4.743 -0.3311 -0.0533 -0.2122
 8878SOL    HW138093   1.548   1.139   4.825 -1.6555  0.1452 -0.9496
 8878SOL    HW238094   1.669   1.092   4.751 -1.2353 -1.0312  0.6959
 8879SOL     OW38095   4.575   3.309   5.559  0.4844 -0.2910 -0.7587
 8879SOL    HW138096   4.606   3.383   5.612  0.1954 -1.7564  1.4800
 8879SOL    HW238097   4.659   3.265   5.544  0.5581 -0.0570 -1.0416
 8880SOL     OW38098   0.261   4.042   6.255  0.2015 -0.5388 -1.0712
 8880SOL    HW138099   0.333   4.020   6.314  0.1162  0.4913 -0.5932
 8880SOL    HW238100   0.273   4.136   6.261 -3.3745 -0.0808 -1.3667
 8881SOL     OW38101   1.310   1.524  12.929  0.5156 -0.9880  0.4637
 8881SOL    HW138102   1.247   1.453  12.939 -0.7596  0.3291  1.8029
 8881SOL    HW238103   1.362   1.496  12.854 -0.6487 -1.7593 -0.0498
 8882SOL     OW38104   3.826   2.571   6.993 -0.1614  0.2115  0.1182
 8882SOL    HW138105   3.879   2.651   6.985  0.3994 -0.3211 -1.4028
 8882SOL    HW238106   3.740   2.607   6.968 -0.2150  0.4491  0.6403
 8883SOL     OW38107   1.085   2.602   5.658 -0.4128  0.0566 -0.1046
 8883SOL    HW138108   1.077   2.689   5.696  0.3833  0.5323 -1.0282
 8883SOL    HW238109   1.053   2.542   5.725  1.3804 -0.4779  0.2702
 8884SOL     OW38110   3.211   2.469   6.738  0.2459 -0.2877 -0.4847
 8884SOL    HW138111   3.130   2.424   6.763  0.0932  0.1720 -0.1559
 8884SOL    HW238112   3.196   2.487   6.646 -0.8750  1.6286  0.0572
 8885SOL     OW38113   3.351   0.875   4.817  0.3246 -0.1472  0.5710
 8885SOL    HW138114   3.256   0.878   4.820  0.2362 -1.9926 -0.6711
 8885SOL    HW238115   3.352   0.787   4.782 -0.4811  0.0554  0.0646
 8886SOL     OW38116   3.543   0.314   5.307 -0.5444  0.3373 -0.1213
 8886SOL    HW138117   3.501   0.244   5.357  0.2531 -0.0046  0.0786
 8886SOL    HW238118   3.553   0.377   5.378 -0.8743 -2.1330  2.1303
 8887SOL     OW38119   1.943   1.741   4.195  0.1485  0.1740 -0.1351
 8887SOL    HW138120   1.970   1.711   4.108  0.2853 -0.9076  0.2762
 8887SOL    HW238121   1.941   1.836   4.184 -1.8271  0.2981  1.3494
 8888SOL     OW38122   1.380   3.783  16.886  0.3721  0.3385 -0.1264
 8888SOL    HW138123   1.328   3.749  16.959  0.0117  0.0765 -0.5054
 8888SOL    HW238124   1.334   3.747  16.811  1.3760 -0.6645 -0.2500
 8889SOL     OW38125   2.354   1.590  16.483  0.0773 -0.1600  0.2032
 8889SOL    HW138126   2.282   1.537  16.447  0.8702 -1.3250  0.3581
 8889SOL    HW238127   2.337   1.579  16.576 -2.5503  0.4924 -0.1869
 8890SOL     OW38128   3.941   2.366  11.157  0.2961  0.2752 -0.2956
 8890SOL    HW138129   3.946   2.460  11.176 -2.0572  0.1713  0.8802
 8890SOL    HW238130   4.029   2.346  11.126  0.4922  0.5809  0.0581
 8891SOL     OW38131   2.767   3.114   7.565 -0.0478  0.2840 -0.2644
 8891SOL    HW138132   2.797   3.142   7.478  3.1304 -0.9842  0.4338
 8891SOL    HW238133   2.849   3.071   7.589 -1.0547 -0.8338  1.1808
 8892SOL     OW38134   2.893   4.453   2.263 -0.0677  0.6391 -0.4179
 8892SOL    HW138135   2.952   4.380   2.246 -0.5035  0.0243  0.7374
 8892SOL    HW238136   2.943   4.512   2.320 -0.0484 -0.1107  0.3317
 8893SOL     OW38137   3.750   2.013   5.471 -0.0297 -0.3802 -0.3089
 8893SOL    HW138138   3.771   2.036   5.380  2.6310 -2.2382 -0.1784
 8893SOL    HW238139   3.655   2.011   5.480 -0.1546 -1.4335 -1.7819
 8894SOL     OW38140   2.094   2.049  15.004 -0.0050 -0.2884  0.3522
 8894SOL    HW138141   2.149   2.026  15.078  0.7329 -2.3123 -0.8451
 8894SOL    HW238142   2.073   1.962  14.970  0.5581 -0.7282  1.1410
 8895SOL     OW38143   1.250   3.025   5.289 -0.4797  0.0985 -0.7665
 8895SOL    HW138144   1.253   3.045   5.196  0.3317 -0.8643 -0.9505
 8895SOL    HW238145   1.198   2.946   5.277  1.0738 -0.9067 -0.9842
 8896SOL     OW38146   4.223   0.028   8.008  0.5610  0.2962 -0.3089
 8896SOL    HW138147   4.234   0.077   8.090  0.5683 -0.3354  0.0711
 8896SOL    HW238148   4.218   0.101   7.947  0.1386 -0.0936 -0.7393
 8897SOL     OW38149   1.105   3.874   8.736 -0.1189 -0.2385 -0.6266
 8897SOL    HW138150   1.135   3.866   8.645 -0.2471  1.0270 -0.7840
 8897SOL    HW238151   1.126   3.790   8.776  0.2125 -1.2880 -3.0274
 8898SOL     OW38152   1.538   4.245  10.648  0.0575  0.0366  0.3558
 8898SOL    HW138153   1.469   4.179  10.638 -0.6529  0.6407  1.3494
 8898SOL    HW238154   1.618   4.193  10.655  0.3354  0.4664  0.3944
 8899SOL     OW38155   2.774   3.010   0.931 -0.2678 -0.0956 -0.2903
 8899SOL    HW138156   2.793   3.047   1.017 -2.2617 -2.5609  1.2247
 8899SOL    HW238157   2.739   3.084   0.882 -0.9766 -0.6328 -0.6049
 8900SOL     OW38158   1.704   4.252   3.051  0.2241  0.1446 -0.2391
 8900SOL    HW138159   1.673   4.163   3.068  3.2425 -0.9900 -0.6808
 8900SOL    HW238160   1.788   4.230   3.012  0.1566  1.0742 -0.9142
 8901SOL     OW38161   1.243   0.674   5.444 -0.0305 -0.4599 -0.1412
 8901SOL    HW138162   1.329   0.693   5.483 -0.5598  0.5788  0.5086
 8901SOL    HW238163   1.197   0.662   5.527 -2.1172 -1.9881 -1.5227
 8902SOL     OW38164   3.204   3.688   1.541 -0.2464 -0.0920  0.2489
 8902SOL    HW138165   3.222   3.635   1.620  0.1865 -1.1864 -0.5860
 8902SOL    HW238166   3.245   3.773   1.559  1.1040 -0.6649 -0.1004
 8903SOL     OW38167   3.218   4.147   2.556  0.0482 -0.4564 -0.0495
 8903SOL    HW138168   3.277   4.130   2.483 -1.4964 -0.6424 -1.2655
 8903SOL    HW238169   3.170   4.065   2.569 -0.7325  0.1136  0.6717
 8904SOL     OW38170   0.403   2.686  14.642 -0.1755 -0.5019 -0.2477
 8904SOL    HW138171   0.391   2.669  14.735  0.0361 -2.6593 -0.5948
 8904SOL    HW238172   0.489   2.643  14.640  0.0608  0.0017 -1.1827
 8905SOL     OW38173   0.155   2.129   6.711 -0.1045  0.6115  0.5536
 8905SOL    HW138174   0.137   2.083   6.793 -1.0724  0.3295  0.1887
 8905SOL    HW238175   0.116   2.079   6.640 -0.1445  0.5680  0.6054
 8906SOL     OW38176   1.701   0.317  12.472  0.0808 -0.2828  0.2090
 8906SOL    HW138177   1.779   0.275  12.436  0.7033  0.2195  0.9794
 8906SOL    HW238178   1.738   0.393  12.518  2.2624 -2.2005  1.5798
 8907SOL     OW38179   0.572   4.043   5.702 -0.0737  0.4144 -0.0086
 8907SOL    HW138180   0.505   4.030   5.769 -1.6355  2.0353 -1.2820
 8907SOL    HW238181   0.543   4.119   5.653  1.0523 -0.7943 -2.5638
 8908SOL     OW38182   1.072   3.910   4.298 -0.6848  0.4410 -0.5461
 8908SOL    HW138183   1.041   3.832   4.253 -0.7253 -1.3558  2.5857
 8908SOL    HW238184   1.055   3.980   4.236  0.2308  2.4920  1.5097
 8909SOL     OW38185   0.139   2.562   3.106 -0.1289 -0.2254  0.5823
 8909SOL    HW138186   0.056   2.535   3.146 -0.3807 -1.1025 -0.4975
 8909SOL    HW238187   0.137   2.658   3.107 -2.3938 -0.2665  0.9647
 8910SOL     OW38188   0.455   3.303   7.884 -0.0730  0.5630  0.1106
 8910SOL    HW138189   0.380   3.244   7.890 -2.5019  3.4075 -2.4800
 8910SOL    HW238190   0.445   3.335   7.794 -1.3442 -2.7915 -0.9512
 8911SOL     OW38191   0.902   1.945   4.942  0.3588  0.6290 -0.1760
 8911SOL    HW138192   0.832   1.934   4.878  1.4809 -2.4815 -0.8679
 8911SOL    HW238193   0.932   1.854   4.941 -1.3974  0.0896 -2.7910
 8912SOL     OW38194   1.521   1.885   5.669 -0.0554 -0.1998  0.3763
 8912SOL    HW138195   1.563   1.812   5.624  1.1859  0.8003 -0.0784
 8912SOL    HW238196   1.532   1.951   5.601  0.0002 -1.1499 -0.5285
 8913SOL     OW38197   4.016   0.526   8.369  0.3926  0.2374  0.2101
 8913SOL    HW138198   3.988   0.468   8.298  1.3200 -1.9467  1.6150
 8913SOL    HW238199   4.005   0.599   8.309  0.3073 -0.5541 -0.7413
 8914SOL     OW38200   3.890   0.747  11.345 -0.2923 -0.1958 -0.1894
 8914SOL    HW138201   3.833   0.737  11.269 -1.0223 -0.6349  0.4134
 8914SOL    HW238202   3.939   0.827  11.328  0.1340 -0.5904 -0.8241
 8915SOL     OW38203   3.153   2.787   2.879  0.0101 -1.1384 -0.1056
 8915SOL    HW138204   3.188   2.749   2.798 -0.0769 -0.0947 -0.6253
 8915SOL    HW238205   3.196   2.728   2.942 -0.2064 -0.1441  0.9726
 8916SOL     OW38206   1.072   0.473   9.164 -0.0155 -0.3177 -0.1862
 8916SOL    HW138207   0.999   0.531   9.187  1.0110  0.8319  0.1553
 8916SOL    HW238208   1.097   0.513   9.081  1.1752 -0.6078  0.0319
 8917SOL     OW38209   4.542   1.024   6.236 -0.4311 -0.0345  0.2941
 8917SOL    HW138210   4.499   1.017   6.151 -0.5248  0.8193  0.2720
 8917SOL    HW238211   4.471   1.042   6.298 -1.8325 -2.3305 -0.6416
 8918SOL     OW38212   3.204   3.544   5.505  0.1316  0.6218 -0.2094
 8918SOL    HW138213   3.157   3.550   5.588 -0.2746  2.9089 -0.6013
 8918SOL    HW238214   3.213   3.638   5.492 -0.6751  0.5330 -1.3908
 8919SOL     OW38215   0.574   0.017   4.172 -0.3956  0.0905  0.3350
 8919SOL    HW138216   0.531   0.083   4.226 -2.3062 -0.1183 -0.9096
 8919SOL    HW238217   0.535   4.664   4.212 -0.6732 -0.1803 -0.4528
 8920SOL     OW38218   2.725   1.461   2.778 -0.2610 -0.1002 -0.0949
 8920SOL    HW138219   2.657   1.477   2.843  0.1339 -0.1427  0.3333
 8920SOL    HW238220   2.763   1.378   2.807 -0.1861  0.1280  0.4530
 8921SOL     OW38221   4.622   0.464   5.740 -0.5271  0.4179 -0.5781
 8921SOL    HW138222   4.615   0.449   5.646 -0.6874  3.5671 -1.0615
 8921SOL    HW238223   4.583   0.387   5.781 -0.1266  1.6788  2.1768
 8922SOL     OW38224   4.009   1.510   8.179 -0.4460 -0.1800  0.6609
 8922SOL    HW138225   3.992   1.420   8.153 -1.1249 -0.7442  3.0535
 8922SOL    HW238226   3.973   1.507   8.267  0.4251  1.1083  1.0628
 8923SOL     OW38227   1.662   3.509   2.473  0.2550 -0.2490  0.5200
 8923SOL    HW138228   1.602   3.510   2.398  1.1290 -1.3075 -0.2058
 8923SOL    HW238229   1.672   3.602   2.491  0.8558 -0.3351  0.6550
 8924SOL     OW38230   3.659   3.437   7.932  0.3603 -0.2396 -0.1363
 8924SOL    HW138231   3.730   3.437   7.996 -0.4593  0.1871  0.7764
 8924SOL    HW238232   3.713   3.479   7.866 -1.2574 -0.3802 -1.5559
 8925SOL     OW38233   4.033   3.689   3.903 -0.0397  0.5098 -0.0592
 8925SOL    HW138234   3.964   3.754   3.886 -0.5227 -0.2453 -0.9942
 8925SOL    HW238235   3.998   3.654   3.985  0.2920  1.7819  0.6171
 8926SOL     OW38236   1.370   1.738   2.396 -0.2754 -0.4895 -0.3482
 8926SOL    HW138237   1.303   1.795   2.433 -0.9187 -1.0804 -0.5959
 8926SOL    HW238238   1.356   1.754   2.302  0.7426  0.5281 -0.3194
 8927SOL     OW38239   0.753   1.440   6.043  0.2709  0.1594  0.4338
 8927SOL    HW138240   0.840   1.481   6.045  0.0707  0.5862  0.4355
 8927SOL    HW238241   0.773   1.349   6.062  0.1046 -0.0149 -0.2160
 8928SOL     OW38242   3.738   3.919   8.215  0.1295 -0.0166 -0.6291
 8928SOL    HW138243   3.771   3.840   8.171  1.1346  1.0783 -1.8568
 8928SOL    HW238244   3.774   3.993   8.166 -1.6755  0.0071 -1.9594
 8929SOL     OW38245   0.897   0.159   7.992 -0.0397 -0.9155 -0.0069
 8929SOL    HW138246   0.943   0.152   7.908  0.9852  1.5761  0.3519
 8929SOL    HW238247   0.874   0.252   7.985 -0.5605 -1.1642 -1.5395
 8930SOL     OW38248   1.020   2.607   0.005  0.3018 -0.1010  0.0382
 8930SOL    HW138249   0.940   2.648  17.673 -0.0993 -0.9415 -0.0387
 8930SOL    HW238250   0.994   2.554   0.080  1.6022 -1.9050 -0.7776
 8931SOL     OW38251   1.056   3.071   1.790 -0.0348  0.1310 -0.3617
 8931SOL    HW138252   0.974   3.115   1.817 -2.1443 -3.8304 -0.3558
 8931SOL    HW238253   1.052   2.988   1.837  0.8950  0.7938  0.9144
 8932SOL     OW38254   0.492   0.424  11.600  0.0995  0.0497  0.1997
 8932SOL    HW138255   0.576   0.402  11.641 -0.2044 -1.8878 -0.2058
 8932SOL    HW238256   0.481   0.519  11.601  3.2989  0.4525 -2.1382
 8933SOL     OW38257   3.892   3.439   8.075  0.0193 -0.2307 -0.1487
 8933SOL    HW138258   3.986   3.421   8.071 -0.4157 -2.3461 -0.4708
 8933SOL    HW238259   3.902   3.507   8.142 -3.8643 -1.5320  1.7541
 8934SOL     OW38260   2.315   3.758  10.041 -0.0632 -0.7476 -0.4575
 8934SOL    HW138261   2.222   3.772  10.026 -0.2361 -0.2096  1.0677
 8934SOL    HW238262   2.334   3.704   9.964  0.1815 -0.0653 -0.8808
 8935SOL     OW38263   1.991   3.501   6.716  0.5873  0.0866 -0.2856
 8935SOL    HW138264   2.074   3.462   6.742  0.4994  0.9468  1.2366
 8935SOL    HW238265   1.961   3.529   6.803  1.5457 -1.4018  0.5296
 8936SOL     OW38266   0.868   4.128   7.853  0.1858  0.0095 -0.1624
 8936SOL    HW138267   0.866   4.208   7.907  0.1313 -0.4255  0.4834
 8936SOL    HW238268   0.859   4.066   7.925 -2.6882 -0.1683 -0.7024
 8937SOL     OW38269   2.620   2.001   2.950 -0.0412  0.1933 -0.1954
 8937SOL    HW138270   2.710   1.971   2.936  1.0099  2.0122  2.7728
 8937SOL    HW238271   2.646   2.092   2.960  1.7754 -0.2361 -0.9134
 8938SOL     OW38272   2.781   0.635   6.106 -0.1387 -0.0506  0.2686
 8938SOL    HW138273   2.732   0.714   6.082 -1.3869 -0.9247 -0.0317
 8938SOL    HW238274   2.786   0.646   6.201  3.2723 -1.9638  0.2920
 8939SOL     OW38275   0.669   2.994   3.012 -0.4266  0.2065  0.5027
 8939SOL    HW138276   0.627   2.915   2.979  0.1607  0.2307 -0.3053
 8939SOL    HW238277   0.604   3.064   3.014 -1.3462 -0.7046  2.1201
 8940SOL     OW38278   1.381   3.635  16.633  0.4956  0.6242 -0.1109
 8940SOL    HW138279   1.398   3.563  16.572  2.1150  1.0429 -0.1646
 8940SOL    HW238280   1.438   3.614  16.708 -0.3655  1.4172  0.7649
 8941SOL     OW38281   1.979   3.908   7.880 -0.0975 -0.2372 -0.5608
 8941SOL    HW138282   2.009   3.985   7.831  0.7520 -0.9451 -1.1425
 8941SOL    HW238283   2.044   3.889   7.947  0.6086 -3.3577 -2.1560
 8942SOL     OW38284   4.346   2.606   2.315  0.8682  0.1823 -0.1194
 8942SOL    HW138285   4.425   2.617   2.262  0.7979 -0.2058 -0.3008
 8942SOL    HW238286   4.281   2.603   2.245  1.2837 -2.4142 -0.4069
 8943SOL     OW38287   2.495   0.529   5.515  0.0828  0.4595  0.6831
 8943SOL    HW138288   2.555   0.472   5.468 -1.3936 -2.4945  2.3794
 8943SOL    HW238289   2.546   0.514   5.594 -0.1729 -0.2727  0.7088
 8944SOL     OW38290   4.310   0.163   5.581 -0.0207 -0.5347  0.0248
 8944SOL    HW138291   4.243   0.190   5.518 -2.3328  0.6778  3.0310
 8944SOL    HW238292   4.387   0.202   5.539 -2.5643  2.5171 -1.8104
 8945SOL     OW38293   0.371   2.397  14.366 -0.6025  0.0277 -0.3229
 8945SOL    HW138294   0.384   2.303  14.361  1.1194  0.3220 -1.2932
 8945SOL    HW238295   0.327   2.415  14.450  0.0197 -1.4745  0.3152
 8946SOL     OW38296   3.309   0.994   2.840  0.0460  0.5676  0.1980
 8946SOL    HW138297   3.311   0.996   2.745 -0.5764  1.6170  0.2098
 8946SOL    HW238298   3.396   0.957   2.857 -0.4987 -0.2266  1.2680
 8947SOL     OW38299   2.544   0.769  14.882  0.5275  0.6301 -0.2777
 8947SOL    HW138300   2.610   0.776  14.951  2.3933  0.8581 -2.1118
 8947SOL    HW238301   2.599   0.763  14.804 -3.4397 -3.0526 -2.7879
 8948SOL     OW38302   4.161   3.804   5.249  0.1692  0.3481  0.1625
 8948SOL    HW138303   4.249   3.770   5.261 -0.3089 -0.8952  0.1092
 8948SOL    HW238304   4.125   3.816   5.337  1.0027  1.8912  0.2903
 8949SOL     OW38305   0.035   1.697   5.499 -0.6017 -0.5688 -0.3166
 8949SOL    HW138306   0.021   1.738   5.585  0.8486  1.9501 -1.2619
 8949SOL    HW238307   0.041   1.778   5.448 -0.9299 -0.1954  0.2392
 8950SOL     OW38308   3.519   2.548   8.846  0.0380  0.3873 -0.2002
 8950SOL    HW138309   3.458   2.567   8.917 -0.1577 -1.8427  0.2359
 8950SOL    HW238310   3.465   2.497   8.784  0.8595 -0.1342 -0.4844
 8951SOL     OW38311   2.839   4.258   5.208 -0.2893 -0.0618  0.7422
 8951SOL    HW138312   2.774   4.189   5.204 -1.2524  0.7213  3.1793
 8951SOL    HW238313   2.895   4.232   5.135  0.5062 -0.5951  1.5436
 8952SOL     OW38314   1.470   2.870   0.913 -0.0750 -0.7833  0.0778
 8952SOL    HW138315   1.447   2.784   0.948 -0.8209 -0.9571 -0.8759
 8952SOL    HW238316   1.404   2.925   0.954 -1.0760 -0.6409 -1.7335
 8953SOL     OW38317   2.577   4.392   1.806 -0.0131 -0.2521 -0.3367
 8953SOL    HW138318   2.602   4.394   1.714  0.5785 -0.4417 -0.1786
 8953SOL    HW238319   2.634   4.460   1.842  0.7716 -1.0693 -0.0154
 8954SOL     OW38320   0.311   0.239   3.090  0.1475 -0.2123  0.3502
 8954SOL    HW138321   0.287   0.157   3.133  0.9245 -0.4524  0.3072
 8954SOL    HW238322   0.253   0.306   3.128  0.8032  1.9808 -2.5339
 8955SOL     OW38323   2.920   4.155  11.736  0.2047  0.4901  0.3239
 8955SOL    HW138324   2.900   4.136  11.645 -1.1328  0.2590  0.6686
 8955SOL    HW238325   2.840   4.169  11.786  0.8643  2.6172  0.8115
 8956SOL     OW38326   3.808   0.993  10.114  0.0615  0.1855  0.7226
 8956SOL    HW138327   3.830   0.931  10.184  0.3408  0.1860  0.6312
 8956SOL    HW238328   3.723   1.028  10.142 -0.0526  0.3414  0.1714
 8957SOL     OW38329   1.514   1.093   0.281  0.3910  0.5786  0.2304
 8957SOL    HW138330   1.424   1.090   0.249  0.6313  0.0828 -0.4179
 8957SOL    HW238331   1.511   1.166   0.341 -0.8903  1.2067 -0.6050
 8958SOL     OW38332   3.166   4.521   7.854 -1.2500 -0.2892 -0.5102
 8958SOL    HW138333   3.165   4.610   7.890  1.9807 -0.4475  0.0078
 8958SOL    HW238334   3.159   4.464   7.930  0.8487 -0.4725 -0.4332
 8959SOL     OW38335   2.162   2.068  11.968 -0.2508  0.0421  0.3298
 8959SOL    HW138336   2.159   1.972  11.959  2.9045 -0.0625  0.2422
 8959SOL    HW238337   2.196   2.076  12.057 -2.8793  1.3509  1.1942
 8960SOL     OW38338   1.733   2.296   7.486 -0.1109  0.1769 -0.3922
 8960SOL    HW138339   1.794   2.368   7.499 -1.8524  1.5535  0.1063
 8960SOL    HW238340   1.697   2.308   7.398  1.3128  0.1983 -0.9614
 8961SOL     OW38341   4.451   4.023   0.681 -0.5519  0.4488 -0.2231
 8961SOL    HW138342   4.541   4.055   0.672 -0.6120  0.7484  0.2357
 8961SOL    HW238343   4.436   3.978   0.598 -1.1072  0.3317 -0.0604
 8962SOL     OW38344   4.309   1.023   4.058  0.4063  0.1590  0.0865
 8962SOL    HW138345   4.369   1.090   4.092  0.0102  1.3984 -1.6468
 8962SOL    HW238346   4.368   0.979   3.997  2.1377 -1.1430  2.6913
 8963SOL     OW38347   2.393   3.811   5.328  0.1880 -0.2031 -0.4991
 8963SOL    HW138348   2.447   3.889   5.339  0.3862 -0.6668  1.6735
 8963SOL    HW238349   2.309   3.845   5.297  0.8428  1.2959 -0.6319
 8964SOL     OW38350   3.074   1.735   7.588 -0.3261  0.3610 -0.3469
 8964SOL    HW138351   3.012   1.775   7.527 -2.4132 -0.4430  1.2301
 8964SOL    HW238352   3.022   1.659   7.616 -1.1996  0.6474 -1.1797
 8965SOL     OW38353   2.569   0.087   6.678  0.3784  0.2052 -0.2791
 8965SOL    HW138354   2.573   4.717   6.683 -0.4387  0.3986  3.9630
 8965SOL    HW238355   2.488   0.099   6.726 -0.6898  0.5658 -2.1849
 8966SOL     OW38356   3.533   2.291   4.756 -0.7536 -0.2997  0.5540
 8966SOL    HW138357   3.552   2.202   4.726  2.0758  0.0625  1.2252
 8966SOL    HW238358   3.444   2.315   4.731  0.3799  2.2727 -1.0781
 8967SOL     OW38359   4.028   1.850  14.834 -0.1259  0.3100 -0.7256
 8967SOL    HW138360   3.995   1.936  14.808 -2.0900 -0.4965 -0.9196
 8967SOL    HW238361   4.113   1.843  14.791  0.2420 -1.0882  0.2392
 8968SOL     OW38362   2.076   0.586  12.488 -0.1811 -0.0898 -0.0871
 8968SOL    HW138363   2.156   0.634  12.469 -0.0954 -0.9719 -2.0144
 8968SOL    HW238364   2.107   0.498  12.510 -0.1378 -0.3401 -1.1364
 8969SOL     OW38365   0.756   3.744   7.601  0.2932 -0.5609 -0.1731
 8969SOL    HW138366   0.683   3.763   7.659  0.6659  0.4817 -0.0487
 8969SOL    HW238367   0.731   3.793   7.523 -1.2064 -0.4550  0.3782
 8970SOL     OW38368   3.437   4.434   6.565 -0.1446  0.2855 -0.2823
 8970SOL    HW138369   3.354   4.427   6.613 -1.0358 -0.4352 -1.9096
 8970SOL    HW238370   3.442   4.529   6.567  0.6018  0.2863 -2.2483
 8971SOL     OW38371   1.301   1.968   8.013  0.3786 -0.1636  0.9865
 8971SOL    HW138372   1.315   1.876   8.033  0.3861 -0.4914 -0.5330
 8971SOL    HW238373   1.224   1.989   8.066 -1.0902 -0.2142 -1.0743
 8972SOL     OW38374   4.603   3.991   6.869  0.2426  0.2976 -0.3055
 8972SOL    HW138375   4.633   4.081   6.883 -0.1816  0.3507  0.2441
 8972SOL    HW238376   4.686   3.944   6.861  0.4480  0.7741 -1.0236
 8973SOL     OW38377   0.972   3.504   0.994 -0.3535 -0.6675 -0.0944
 8973SOL    HW138378   1.015   3.581   0.955  2.5287 -1.3114  1.8215
 8973SOL    HW238379   0.931   3.562   1.059 -0.6181  0.0085 -0.8639
 8974SOL     OW38380   4.523   3.274   8.339 -0.2283 -0.1644 -0.4962
 8974SOL    HW138381   4.593   3.220   8.376 -0.1987 -0.2676 -0.7010
 8974SOL    HW238382   4.560   3.280   8.251 -0.9577  1.7116 -0.6705
 8975SOL     OW38383   1.345   2.739   8.860 -0.3742 -0.0387 -0.3042
 8975SOL    HW138384   1.375   2.704   8.944 -3.1371 -1.3696  0.1040
 8975SOL    HW238385   1.384   2.675   8.801 -0.4721  1.3017 -1.8131
 8976SOL     OW38386   0.226   4.598   7.535  0.4096  0.2962  0.2289
 8976SOL    HW138387   0.283   4.567   7.605 -1.0916  0.5895  1.5668
 8976SOL    HW238388   0.212   4.511   7.496 -1.1547  0.1655  1.0926
 8977SOL     OW38389   0.546   1.074  13.769 -0.5614 -0.0881 -0.0483
 8977SOL    HW138390   0.485   1.017  13.816 -1.7224  0.0028 -1.4527
 8977SOL    HW238391   0.627   1.073  13.820 -0.8886 -1.1066  0.4504
 8978SOL     OW38392   2.134   1.058   0.528  0.2136 -0.1478  0.8555
 8978SOL    HW138393   2.097   1.144   0.549 -0.0757 -0.0024 -0.2086
 8978SOL    HW238394   2.142   1.016   0.613 -2.5292  1.4852  1.9318
 8979SOL     OW38395   0.057   4.678   7.097 -0.2178  0.3256  0.1664
 8979SOL    HW138396   0.077   4.616   7.027 -1.0860 -1.3099  1.3462
 8979SOL    HW238397   0.125   0.019   7.088 -0.3697  0.2939 -1.1584
 8980SOL     OW38398   1.762   3.181   3.254  0.1376  0.0700 -0.1485
 8980SOL    HW138399   1.692   3.178   3.320  0.9861 -1.3493  0.6951
 8980SOL    HW238400   1.715   3.226   3.184 -0.5743  0.0598  0.3183
 8981SOL     OW38401   3.309   3.970   9.049  0.1701 -0.3496 -0.5475
 8981SOL    HW138402   3.286   3.925   9.130 -2.1951 -0.5053 -1.3085
 8981SOL    HW238403   3.384   3.925   9.009 -0.8951 -1.2498 -1.5169
 8982SOL     OW38404   2.523   0.858   2.961  0.0897  0.2280 -0.2863
 8982SOL    HW138405   2.478   0.863   2.877 -1.2968 -1.7948  0.3488
 8982SOL    HW238406   2.600   0.805   2.939  0.3668  1.1326 -1.4892
 8983SOL     OW38407   3.503   0.197   0.578 -0.0011  0.3142 -0.0757
 8983SOL    HW138408   3.556   0.121   0.553  0.5351  1.1335 -1.4556
 8983SOL    HW238409   3.497   0.256   0.502  0.1745 -2.9605 -2.6445
 8984SOL     OW38410   1.131   3.962   4.904  0.6575 -0.1005  0.2264
 8984SOL    HW138411   1.054   3.911   4.877  0.3391  1.3818 -1.6938
 8984SOL    HW238412   1.181   3.975   4.824 -1.3200 -1.5016 -1.2493
 8985SOL     OW38413   2.568   4.214   4.597 -0.1147 -0.1430  0.2420
 8985SOL    HW138414   2.524   4.189   4.516  0.9150  1.3513 -0.7645
 8985SOL    HW238415   2.494   4.223   4.657 -0.1401 -2.7947  0.6090
 8986SOL     OW38416   1.324   2.921   4.598  0.4466  0.5961 -0.1791
 8986SOL    HW138417   1.390   2.957   4.539 -0.3962  0.8755 -0.9530
 8986SOL    HW238418   1.368   2.965   4.670 -0.9381  0.6252  0.6669
 8987SOL     OW38419   4.219   3.194  12.431 -0.4602 -0.4191  0.4052
 8987SOL    HW138420   4.300   3.232  12.397  0.6384  0.0081  3.5100
 8987SOL    HW238421   4.245   3.171  12.520 -0.9355  0.2048  0.7148
 8988SOL     OW38422   4.484   3.628   1.067  0.7376 -0.1435 -0.1084
 8988SOL    HW138423   4.415   3.649   1.004 -0.2998  0.8514  1.3583
 8988SOL    HW238424   4.455   3.547   1.108 -2.4099  0.4763 -1.1192
 8989SOL     OW38425   2.294   3.140   6.401  0.2148  0.0396  0.1478
 8989SOL    HW138426   2.320   3.116   6.490  2.6878 -0.3824 -0.6841
 8989SOL    HW238427   2.207   3.174   6.421  0.9257  1.7180  0.3796
 8990SOL     OW38428   3.066   2.630   8.503 -0.0773  0.4269  0.6048
 8990SOL    HW138429   3.086   2.664   8.590 -2.3303 -0.7062  1.5698
 8990SOL    HW238430   2.982   2.590   8.527  0.4395 -0.1775  1.4160
 8991SOL     OW38431   2.196   4.412   2.713 -0.0899 -0.0387  0.4264
 8991SOL    HW138432   2.245   4.389   2.635  0.4206 -0.4986  0.8918
 8991SOL    HW238433   2.104   4.413   2.685  1.0810 -1.8364 -3.4142
 8992SOL     OW38434   2.071   3.836   8.301 -0.0061  0.5757  0.0248
 8992SOL    HW138435   2.088   3.742   8.310  2.0665  0.9887  0.2094
 8992SOL    HW238436   1.986   3.825   8.256  0.8256  3.0773 -2.1502
 8993SOL     OW38437   4.147   0.531   2.258  0.2612  0.2053  0.1753
 8993SOL    HW138438   4.127   0.616   2.298  0.4714  0.2668  0.1462
 8993SOL    HW238439   4.242   0.521   2.255  0.5000  2.6431 -0.8006
 8994SOL     OW38440   1.578   2.295   4.236  0.4931  0.4834  0.3389
 8994SOL    HW138441   1.571   2.323   4.144 -1.1675  4.0297  1.5424
 8994SOL    HW238442   1.669   2.268   4.250  1.1849  2.0993 -1.0322
 8995SOL     OW38443   2.111   2.024  11.455  0.7043  0.1508  0.0819
 8995SOL    HW138444   2.056   2.070  11.519  1.1685  0.6565  0.1201
 8995SOL    HW238445   2.163   2.091  11.410  1.9896 -0.0583  1.2453
 8996SOL     OW38446   0.980   1.350   2.548 -0.1222 -0.4123  0.1082
 8996SOL    HW138447   0.951   1.316   2.633 -2.8575 -0.1903 -0.7391
 8996SOL    HW238448   1.068   1.388   2.554 -0.7133  1.1437 -1.0406
 8997SOL     OW38449   0.630   3.902   1.288 -0.4555  0.0841  0.0321
 8997SOL    HW138450   0.718   3.894   1.325 -0.8263 -1.2006  0.6460
 8997SOL    HW238451   0.596   3.820   1.325 -0.0232 -0.9048 -1.7546
 8998SOL     OW38452   0.400   1.559  16.658 -0.4733 -0.9289  0.7688
 8998SOL    HW138453   0.380   1.465  16.651 -0.0801 -0.7191 -3.2009
 8998SOL    HW238454   0.322   1.609  16.683  0.7327 -0.1551  3.0200
 8999SOL     OW38455   1.982   0.867   7.610 -0.0040 -0.3447 -0.4398
 8999SOL    HW138456   1.984   0.848   7.516  0.8837 -1.1978 -0.2519
 8999SOL    HW238457   2.040   0.802   7.649  0.9636  1.0466  0.4680
 9000SOL     OW38458   0.821   4.167   2.746  0.5014 -0.1693  0.0660
 9000SOL    HW138459   0.762   4.123   2.685  1.4088  2.4137 -2.6618
 9000SOL    HW238460   0.884   4.205   2.685  0.7306 -0.8524 -0.1288
 9001SOL     OW38461   1.161   4.551   5.709 -0.4091 -0.4070 -0.4783
 9001SOL    HW138462   1.223   4.540   5.781  1.1426  1.9809 -1.4521
 9001SOL    HW238463   1.191   4.635   5.673 -0.0605 -0.5029 -0.4114
 9002SOL     OW38464   4.466   0.503   1.156  1.1899  0.5803 -0.6770
 9002SOL    HW138465   4.401   0.541   1.216  2.1848  0.9133  0.1899
 9002SOL    HW238466   4.410   0.490   1.080  0.1351  1.5783 -0.0865
 9003SOL     OW38467   1.664   0.970   3.375 -0.8929  0.5471  0.4346
 9003SOL    HW138468   1.746   1.009   3.407 -0.8709 -0.5823  1.7350
 9003SOL    HW238469   1.619   0.981   3.459 -1.0369  0.7829  0.3264
 9004SOL     OW38470   1.072   3.317  15.857  0.2739  0.1542  1.0616
 9004SOL    HW138471   1.125   3.240  15.835  0.6173  0.6064  0.2973
 9004SOL    HW238472   1.141   3.380  15.878  2.3462 -1.5497 -0.6372
 9005SOL     OW38473   0.538   3.975  11.569  0.6763  0.1515 -0.3694
 9005SOL    HW138474   0.467   3.929  11.524  1.2978  1.4229 -2.6400
 9005SOL    HW238475   0.588   3.898  11.599 -2.0651 -1.2618  0.5818
 9006SOL     OW38476   3.415   4.641  11.628  0.4609  0.0057 -0.9226
 9006SOL    HW138477   3.403   4.599  11.543 -0.2667  0.0653 -0.8483
 9006SOL    HW238478   3.370   4.724  11.611  2.5512  1.0460 -1.2901
 9007SOL     OW38479   0.811   0.535  16.345 -0.3853 -0.4425 -0.2717
 9007SOL    HW138480   0.848   0.577  16.266 -0.8269  0.2095 -0.1344
 9007SOL    HW238481   0.814   0.447  16.309 -0.5660 -0.0295 -1.3149
 9008SOL     OW38482   3.784   3.804   6.599  0.1557 -0.0792  0.3041
 9008SOL    HW138483   3.878   3.794   6.589  0.3890 -0.2141  2.6102
 9008SOL    HW238484   3.784   3.827   6.692  0.5311 -1.2367  0.5857
 9009SOL     OW38485   1.220   4.639   0.330  0.1084 -0.1877 -0.6719
 9009SOL    HW138486   1.267   4.710   0.287 -0.2483 -0.1889 -1.0723
 9009SOL    HW238487   1.207   4.578   0.257  1.4699 -0.2176 -0.8925
 9010SOL     OW38488   2.224   1.610   5.136 -0.0267  0.2494  0.1142
 9010SOL    HW138489   2.268   1.555   5.200  0.0674  0.4872  0.2549
 9010SOL    HW238490   2.236   1.695   5.178 -2.7708  0.8682 -0.3029
 9011SOL     OW38491   4.474   0.752   6.213  0.0557 -0.2372 -0.2850
 9011SOL    HW138492   4.531   0.733   6.287  0.2219 -1.2507 -0.6736
 9011SOL    HW238493   4.534   0.798   6.154 -1.2620  3.8545  1.6081
 9012SOL     OW38494   3.353   2.959  13.968 -0.2368 -0.2439  0.5208
 9012SOL    HW138495   3.278   2.979  14.023 -2.0229 -1.8280 -1.3625
 9012SOL    HW238496   3.387   3.043  13.939  1.8277 -0.7220  1.5399
 9013SOL     OW38497   0.852   3.168  10.693 -0.2909 -0.1029 -0.1860
 9013SOL    HW138498   0.847   3.263  10.702  1.4112  0.1544 -1.9714
 9013SOL    HW238499   0.762   3.160  10.662 -0.7086 -1.4604  1.3908
 9014SOL     OW38500   0.728   1.643   1.355 -0.5288 -0.0632 -0.3700
 9014SOL    HW138501   0.757   1.733   1.368  0.0816 -0.3898  0.5739
 9014SOL    HW238502   0.783   1.619   1.281  0.0741  1.5357 -0.4242
 9015SOL     OW38503   3.823   3.564  15.355 -0.3563 -0.4920 -0.4586
 9015SOL    HW138504   3.912   3.530  15.363 -0.4485 -0.3119  1.4718
 9015SOL    HW238505   3.831   3.627  15.283  0.9406  1.5743  1.4807
 9016SOL     OW38506   2.002   4.453   5.008  0.5584 -0.3856 -0.2702
 9016SOL    HW138507   2.049   4.525   4.964 -0.1498 -1.4620 -2.7913
 9016SOL    HW238508   2.035   4.463   5.098 -1.4831  1.1053  0.3229
 9017SOL     OW38509   2.672   4.394   3.998  0.2350  0.3211  0.0776
 9017SOL    HW138510   2.650   4.336   4.071  0.6318 -0.8502 -0.7309
 9017SOL    HW238511   2.763   4.366   3.985  0.5458  1.3245  0.1441
 9018SOL     OW38512   2.144   4.524  11.608  0.2971  0.5804  0.1478
 9018SOL    HW138513   2.170   4.593  11.547  0.3738 -0.2262 -0.7362
 9018SOL    HW238514   2.136   4.458  11.539 -2.1670 -1.3546  2.2938
 9019SOL     OW38515   3.155   3.463   4.318 -0.4121  0.0598  0.4971
 9019SOL    HW138516   3.097   3.537   4.300 -1.4927 -0.1556  3.1010
 9019SOL    HW238517   3.191   3.490   4.402 -0.9287  0.7128  0.5065
 9020SOL     OW38518   1.187   4.483   3.536 -0.0925  0.0363  0.4866
 9020SOL    HW138519   1.135   4.421   3.486 -0.1140 -0.0107  0.5675
 9020SOL    HW238520   1.130   4.551   3.572  0.8638  0.0239  2.0392
 9021SOL     OW38521   1.017   1.585   8.644  0.0824  1.2744 -0.7348
 9021SOL    HW138522   0.973   1.664   8.677 -0.6704  1.8522 -3.1333
 9021SOL    HW238523   1.086   1.582   8.711 -0.5472  0.7130 -0.1072
 9022SOL     OW38524   3.401   2.126   7.569  0.5511  0.2706 -0.3652
 9022SOL    HW138525   3.479   2.122   7.625 -1.2827  3.4741  2.4054
 9022SOL    HW238526   3.359   2.200   7.613 -0.6574  0.1637 -1.3379
 9023SOL     OW38527   1.662   1.051   8.989  0.0818  0.1279 -0.0101
 9023SOL    HW138528   1.681   0.983   8.924  1.9249 -1.5140  2.2461
 9023SOL    HW238529   1.584   1.015   9.032  0.4231 -0.0390  0.4664
 9024SOL     OW38530   3.096   1.415  14.385 -0.0291  0.2292  0.1979
 9024SOL    HW138531   3.141   1.475  14.445 -2.0361  1.3174  0.6012
 9024SOL    HW238532   3.130   1.447  14.301 -1.7877  0.2571 -0.4945
 9025SOL     OW38533   4.477   4.584   5.901 -0.5615  0.1765  0.2390
 9025SOL    HW138534   4.422   4.637   5.959 -1.0275 -1.1317  1.0015
 9025SOL    HW238535   4.559   4.614   5.941  0.3668 -1.0198 -0.7279
 9026SOL     OW38536   2.465   3.611   2.697  0.0594  0.0878  0.6216
 9026SOL    HW138537   2.546   3.652   2.727 -0.2695 -0.8258  2.7472
 9026SOL    HW238538   2.402   3.675   2.729 -0.8259 -0.3963 -0.1279
 9027SOL     OW38539   3.326   3.883  11.244  0.8244  0.0789  0.8469
 9027SOL    HW138540   3.399   3.918  11.193 -0.0838  1.6186  0.6193
 9027SOL    HW238541   3.317   3.957  11.303 -0.1747  0.9142 -0.3617
 9028SOL     OW38542   1.975   0.233   5.471  0.2757  0.5081 -0.1527
 9028SOL    HW138543   1.908   0.246   5.404  0.6264  0.6873 -0.4684
 9028SOL    HW238544   2.053   0.224   5.417  0.6856 -0.9456  0.6635
 9029SOL     OW38545   1.519   1.167   0.568 -0.6096 -0.3415  0.1507
 9029SOL    HW138546   1.469   1.239   0.529  0.5842  0.2977 -0.1852
 9029SOL    HW238547   1.594   1.220   0.595 -1.0815  1.1020 -1.3461
 9030SOL     OW38548   0.015   3.105   4.999  0.2337 -0.0113  0.4994
 9030SOL    HW138549   0.024   3.190   4.955  0.6888  0.3600  1.3276
 9030SOL    HW238550   4.677   3.128   5.067 -0.1175 -2.0451  0.8707
 9031SOL     OW38551   1.808   3.704   7.370  0.7891  0.0502 -0.3908
 9031SOL    HW138552   1.819   3.788   7.415 -0.4354 -0.0168  0.0277
 9031SOL    HW238553   1.723   3.707   7.326  1.0104 -1.2705 -0.9208
 9032SOL     OW38554   0.950   1.076   5.847 -0.0114 -0.7127 -0.1447
 9032SOL    HW138555   0.918   1.110   5.931  0.7135  3.0339 -1.4016
 9032SOL    HW238556   0.873   1.021   5.837  0.5654 -1.0858 -2.4007
 9033SOL     OW38557   2.626   0.369   7.124 -0.3322 -0.5515  0.2391
 9033SOL    HW138558   2.612   0.396   7.215  0.9196  0.1085  0.2343
 9033SOL    HW238559   2.537   0.349   7.096 -0.6885  0.2042  0.8332
 9034SOL     OW38560   1.211   2.308   7.619  0.1663  0.1187 -0.0362
 9034SOL    HW138561   1.305   2.295   7.611  0.1432  0.1536 -0.3601
 9034SOL    HW238562   1.185   2.236   7.676 -0.7196 -0.3924 -1.0791
 9035SOL     OW38563   0.871   1.570  12.089  0.2222  0.7176 -0.0875
 9035SOL    HW138564   0.958   1.543  12.057  0.1579 -1.5221  1.6942
 9035SOL    HW238565   0.834   1.603  12.007 -1.4104  2.2162  1.2560
 9036SOL     OW38566   1.882   1.331  10.775 -0.3748 -0.3296  0.5907
 9036SOL    HW138567   1.946   1.260  10.768 -1.2983 -1.0772 -0.3146
 9036SOL    HW238568   1.835   1.309  10.695 -0.2325 -0.7804  0.6302
 9037SOL     OW38569   4.621   2.385  10.965 -0.1126  0.4402 -0.5240
 9037SOL    HW138570   4.636   2.430  11.048  0.2164 -0.5695 -0.0326
 9037SOL    HW238571   4.679   2.309  10.974 -0.8717  0.2595  3.0435
 9038SOL     OW38572   3.389   0.744   4.440  0.0366  0.3376  0.0996
 9038SOL    HW138573   3.465   0.692   4.416  0.8768  0.9902  1.3682
 9038SOL    HW238574   3.320   0.678   4.442  1.2241 -0.8547  1.0834
 9039SOL     OW38575   0.505   3.212   3.032 -0.0947  0.2720  0.1711
 9039SOL    HW138576   0.444   3.248   2.967  0.8120  0.1360 -0.7487
 9039SOL    HW238577   0.580   3.271   3.029 -0.6508  0.9313 -0.7841
 9040SOL     OW38578   0.687   4.661   1.287  0.5831 -0.4303  0.3997
 9040SOL    HW138579   0.599   4.648   1.250  0.3322 -0.9447  1.1818
 9040SOL    HW238580   0.705   4.569   1.306 -1.8128 -0.7063  1.3883
 9041SOL     OW38581   0.659   1.592  13.727 -0.4841 -0.6456  0.1229
 9041SOL    HW138582   0.580   1.605  13.674 -0.8318  0.7199  0.9766
 9041SOL    HW238583   0.722   1.545  13.673  1.4898  2.2627 -0.1222
 9042SOL     OW38584   2.572   0.118   1.883 -0.4065 -0.1181  0.6771
 9042SOL    HW138585   2.496   0.061   1.873  0.1300 -0.6157 -0.6675
 9042SOL    HW238586   2.535   0.206   1.884  0.1789  0.1635 -1.9215
 9043SOL     OW38587   3.974   2.894  15.316  0.1416 -0.1206 -0.6780
 9043SOL    HW138588   3.947   2.833  15.247  0.0111 -1.8861  0.9150
 9043SOL    HW238589   4.060   2.909  15.277  0.4993  0.1141  0.1883
 9044SOL     OW38590   4.163   0.376   3.714 -0.2229 -0.2691  0.4209
 9044SOL    HW138591   4.143   0.319   3.788 -0.4202 -2.6725 -1.5249
 9044SOL    HW238592   4.202   0.449   3.763 -0.6545 -1.2711  2.2873
 9045SOL     OW38593   2.395   2.853   4.604  0.3863 -0.2282 -0.4254
 9045SOL    HW138594   2.452   2.779   4.623 -0.7314 -0.6172  1.3881
 9045SOL    HW238595   2.362   2.837   4.516 -0.3755  1.3875 -0.4366
 9046SOL     OW38596   2.502   4.584  16.979 -0.2740 -0.1432  0.7930
 9046SOL    HW138597   2.526   4.609  17.069  1.3654  0.4243  0.2008
 9046SOL    HW238598   2.576   4.525  16.961  0.5270  1.5962 -1.5493
 9047SOL     OW38599   1.749   1.740   1.511 -0.4618 -0.8177  0.1089
 9047SOL    HW138600   1.700   1.745   1.429  0.7302  1.3233 -0.4808
 9047SOL    HW238601   1.711   1.794   1.581  1.1423  0.0465  0.3242
 9048SOL     OW38602   4.461   0.131  15.532  0.5008 -0.2270  0.9004
 9048SOL    HW138603   4.450   0.135  15.437  1.2148  0.0806  0.8328
 9048SOL    HW238604   4.466   0.035  15.538  1.7620 -0.3227 -1.2625
 9049SOL     OW38605   0.770   1.288   1.234 -0.1449  0.1952  0.3571
 9049SOL    HW138606   0.839   1.353   1.221 -2.5595  2.9538  1.0792
 9049SOL    HW238607   0.806   1.212   1.189 -0.3363  0.0202  0.4979
 9050SOL     OW38608   3.564   0.687   6.983  0.0057 -0.3942 -0.7556
 9050SOL    HW138609   3.563   0.722   6.894 -1.3549  0.7358 -0.2879
 9050SOL    HW238610   3.547   0.769   7.028 -2.2144 -0.6917 -1.0318
 9051SOL     OW38611   4.142   1.695   2.656 -0.4359  0.2351  0.4489
 9051SOL    HW138612   4.207   1.750   2.613 -0.3471 -0.2960 -0.0956
 9051SOL    HW238613   4.147   1.623   2.594 -0.2687 -0.4520  1.2647
 9052SOL     OW38614   4.297   4.020   9.305  0.7186  0.0155  0.0339
 9052SOL    HW138615   4.315   3.985   9.393 -0.0273  1.0285  0.6001
 9052SOL    HW238616   4.242   4.094   9.330 -0.1577 -0.1106 -1.5223
 9053SOL     OW38617   0.887   2.654   9.224 -0.0926 -0.5988  0.3050
 9053SOL    HW138618   0.870   2.718   9.155  2.1969 -0.5936 -0.2486
 9053SOL    HW238619   0.942   2.700   9.288  0.4534 -0.7091 -0.0837
 9054SOL     OW38620   1.858   1.141   4.026 -0.5056 -0.1551  0.4287
 9054SOL    HW138621   1.860   1.230   4.061  2.7746  0.2993 -0.9341
 9054SOL    HW238622   1.875   1.083   4.100  1.3809 -0.7181 -0.4629
 9055SOL     OW38623   0.546   1.845   7.157  0.8427 -0.1327 -0.0262
 9055SOL    HW138624   0.475   1.855   7.220  0.1152  0.7429 -0.9895
 9055SOL    HW238625   0.518   1.904   7.087  1.4163  0.6440  0.4018
 9056SOL     OW38626   3.878   0.442   8.150 -0.6970 -0.5460  0.1011
 9056SOL    HW138627   3.920   0.425   8.066  0.4509  1.2888  0.3090
 9056SOL    HW238628   3.821   0.516   8.129 -1.3850 -0.8735  0.7790
 9057SOL     OW38629   3.830   3.283   5.448  0.6186  0.1956  0.0963
 9057SOL    HW138630   3.852   3.364   5.401 -1.2305  0.9324  0.5262
 9057SOL    HW238631   3.805   3.316   5.535  2.1299  0.6889  0.3526
 9058SOL     OW38632   4.622   1.346   8.828 -0.4112  0.0347 -0.1576
 9058SOL    HW138633   4.528   1.326   8.835 -0.8298  1.3306 -2.1929
 9058SOL    HW238634   4.614   1.404   8.752  0.6883 -2.0228 -1.8544
 9059SOL     OW38635   1.001   0.712  10.200  0.0140  0.1677 -0.0606
 9059SOL    HW138636   1.082   0.661  10.203  0.1164  0.2544 -1.4411
 9059SOL    HW238637   1.009   0.734  10.107 -2.5428 -0.1597 -0.3716
 9060SOL     OW38638   0.593   2.265   3.422 -0.3013  0.9686  0.2606
 9060SOL    HW138639   0.688   2.277   3.430  0.0064 -1.3931  0.0183
 9060SOL    HW238640   0.557   2.256   3.511 -0.1315  0.6667  0.2987
 9061SOL     OW38641   1.880   0.237  15.343 -0.0016 -0.4702 -0.3135
 9061SOL    HW138642   1.811   0.253  15.280  1.9089  0.1838 -2.2340
 9061SOL    HW238643   1.896   0.331  15.353  1.8531 -0.6377 -1.7090
 9062SOL     OW38644   1.149   4.702   6.918 -0.0771  0.2110 -0.5516
 9062SOL    HW138645   1.231   4.655   6.903  0.6211  0.8191  1.3255
 9062SOL    HW238646   1.078   4.640   6.901 -1.0929  1.6223 -1.3860
 9063SOL     OW38647   1.819   2.223   3.983 -0.1690  0.0120  0.5989
 9063SOL    HW138648   1.747   2.213   3.922 -0.7707  2.2868  0.9198
 9063SOL    HW238649   1.775   2.252   4.063  0.2479  1.0668  0.4477
 9064SOL     OW38650   4.000   3.948   5.916  0.1562  0.0249 -0.7230
 9064SOL    HW138651   3.985   3.994   5.999 -0.8839  0.9111 -1.3941
 9064SOL    HW238652   3.935   3.983   5.855 -1.3664 -1.2194  0.1621
 9065SOL     OW38653   2.792   4.283   3.467  0.2992 -0.1866  0.3107
 9065SOL    HW138654   2.867   4.261   3.412  0.1935  0.4550 -0.0983
 9065SOL    HW238655   2.735   4.207   3.474 -0.6853  0.4418 -0.9694
 9066SOL     OW38656   0.865   0.425   7.888 -0.1658  1.0109 -0.5933
 9066SOL    HW138657   0.873   0.443   7.794  0.7190  1.8951 -0.3472
 9066SOL    HW238658   0.889   0.511   7.921 -0.9795  0.7616  0.6569
 9067SOL     OW38659   4.404   0.476   2.264  0.7182  0.5269 -0.5672
 9067SOL    HW138660   4.496   0.500   2.255  1.4639 -1.2741  2.3259
 9067SOL    HW238661   4.405   0.383   2.287 -1.3133  0.6114 -0.1630
 9068SOL     OW38662   3.455   0.159   8.713 -0.0602  0.4446 -0.0245
 9068SOL    HW138663   3.368   0.120   8.715  0.0963  0.1422  0.5897
 9068SOL    HW238664   3.452   0.192   8.802 -1.9885 -0.5055  0.2618
 9069SOL     OW38665   2.291   2.665   3.923  0.6235  0.1082  0.1996
 9069SOL    HW138666   2.347   2.700   3.854 -0.8379 -2.5622 -2.3105
 9069SOL    HW238667   2.201   2.675   3.892  1.0957  2.4806 -0.3934
 9070SOL     OW38668   0.401   1.558   4.165 -0.0202  0.7952  0.4095
 9070SOL    HW138669   0.487   1.598   4.181  1.0848 -1.4832  0.2302
 9070SOL    HW238670   0.366   1.539   4.252 -0.0600  0.4483  0.3169
 9071SOL     OW38671   1.753   0.349   3.540  0.3344  0.0811  0.6806
 9071SOL    HW138672   1.790   0.402   3.611 -1.7884 -0.4675  2.1904
 9071SOL    HW238673   1.817   0.333   3.470  0.0513  0.6595  0.2813
 9072SOL     OW38674   1.615   1.885   3.791 -0.1492 -0.1371 -0.2615
 9072SOL    HW138675   1.705   1.879   3.823  0.2848 -0.5722 -1.5692
 9072SOL    HW238676   1.630   1.947   3.720  0.4348 -1.3300 -1.1774
 9073SOL     OW38677   0.272   1.893   1.653  0.2704  0.5234 -0.2748
 9073SOL    HW138678   0.345   1.832   1.648 -0.6681 -0.4500 -2.3368
 9073SOL    HW238679   0.224   1.850   1.723  1.0254 -1.8272 -1.1918
 9074SOL     OW38680   4.005   0.679  11.638  0.0545 -0.2650 -0.6489
 9074SOL    HW138681   4.034   0.623  11.710  1.5105  1.5051  0.1408
 9074SOL    HW238682   4.083   0.719  11.598  0.0442  0.6057  0.2006
 9075SOL     OW38683   3.870   0.541   3.261 -0.2254 -0.5241  0.2486
 9075SOL    HW138684   3.827   0.503   3.338  2.8157 -1.9060  1.2683
 9075SOL    HW238685   3.959   0.513   3.280  0.7941  1.5349 -1.5149
 9076SOL     OW38686   3.648   1.400   8.139 -0.0978  0.2603 -0.2576
 9076SOL    HW138687   3.730   1.353   8.124  0.5683  1.4267 -0.2238
 9076SOL    HW238688   3.664   1.491   8.114  0.4800  0.4196  0.7079
 9077SOL     OW38689   4.189   3.569   7.295  0.3513 -0.1530  0.0525
 9077SOL    HW138690   4.128   3.582   7.223 -0.5467 -2.5052  0.3785
 9077SOL    HW238691   4.167   3.644   7.351  0.3584 -0.5796  0.6354
 9078SOL     OW38692   2.262   1.251   8.295 -0.0463  0.1711 -0.4767
 9078SOL    HW138693   2.201   1.207   8.236  1.3123  0.7934 -2.3759
 9078SOL    HW238694   2.229   1.217   8.378 -1.2127  2.4016 -0.0282
 9079SOL     OW38695   3.365   2.667  16.479  0.1408 -0.5133 -0.0942
 9079SOL    HW138696   3.348   2.703  16.392 -0.0190 -0.2121  0.0633
 9079SOL    HW238697   3.308   2.590  16.478 -1.4380  0.6667 -0.5164
 9080SOL     OW38698   3.908   2.816  11.669 -0.5034  0.1670 -1.1393
 9080SOL    HW138699   3.842   2.750  11.647  2.7229 -3.2138 -0.5873
 9080SOL    HW238700   3.974   2.760  11.708  1.1528  1.1270 -2.5786
 9081SOL     OW38701   4.231   2.541   8.388  0.2345  0.8198 -0.6974
 9081SOL    HW138702   4.219   2.563   8.296  0.0232  1.2548 -0.5673
 9081SOL    HW238703   4.153   2.578   8.429  1.1869  0.8904  1.0417
 9082SOL     OW38704   3.358   1.865  12.843  0.0697 -0.2191 -0.0749
 9082SOL    HW138705   3.405   1.785  12.868 -2.1809 -1.5629 -0.1498
 9082SOL    HW238706   3.300   1.849  12.769 -0.0596 -1.0357  0.2022
 9083SOL     OW38707   4.031   4.012   1.283 -0.1440  0.2139 -0.6536
 9083SOL    HW138708   4.016   3.919   1.299  3.0874  0.2955  2.7603
 9083SOL    HW238709   3.994   4.018   1.195  0.4550  0.4092 -0.8967
 9084SOL     OW38710   1.202   1.912   6.770  0.0607  0.1196 -0.3527
 9084SOL    HW138711   1.137   1.977   6.742 -0.4456 -0.1955  0.0897
 9084SOL    HW238712   1.280   1.966   6.785  0.8597 -0.9764 -0.6237
 9085SOL     OW38713   3.489   3.018   2.508  0.5484  0.2319  0.4526
 9085SOL    HW138714   3.507   3.105   2.543  0.9323 -0.1762  1.2783
 9085SOL    HW238715   3.527   3.026   2.421 -2.4650 -2.1822 -1.0975
 9086SOL     OW38716   0.698   4.456   4.286 -0.0813  0.0416  0.1798
 9086SOL    HW138717   0.685   4.535   4.234  2.8808  1.2708  1.3355
 9086SOL    HW238718   0.668   4.490   4.370 -2.2468  0.9329 -0.9371
 9087SOL     OW38719   3.149   4.262   6.134  0.3293 -0.6139  0.1583
 9087SOL    HW138720   3.229   4.279   6.184  0.8179 -0.5946 -0.6452
 9087SOL    HW238721   3.147   4.166   6.135 -1.2204 -0.5781  0.3349
 9088SOL     OW38722   0.904   3.557  16.008 -0.8561  0.1084  0.0888
 9088SOL    HW138723   0.963   3.513  15.947 -1.3287  0.2819 -0.4948
 9088SOL    HW238724   0.866   3.626  15.953 -2.2987 -0.5053  0.3281
 9089SOL     OW38725   2.475   3.354   2.660 -0.4069 -0.1293  0.2750
 9089SOL    HW138726   2.403   3.340   2.722  0.0836  1.1722  1.1380
 9089SOL    HW238727   2.493   3.447   2.674 -0.0234  0.0175 -1.1211
 9090SOL     OW38728   1.923   1.584   0.820  0.1042 -0.0697  1.0239
 9090SOL    HW138729   1.871   1.658   0.852  0.5126  0.2255  1.0097
 9090SOL    HW238730   1.876   1.522   0.875 -0.6946 -1.8255 -1.6647
 9091SOL     OW38731   2.927   4.397   6.782  0.1469  0.5869 -0.0656
 9091SOL    HW138732   2.914   4.402   6.877  2.2212  0.2384  0.2271
 9091SOL    HW238733   2.875   4.318   6.766  1.7861 -0.4807 -0.1685
 9092SOL     OW38734   1.525   3.437   7.821 -0.2620  0.0271 -0.0482
 9092SOL    HW138735   1.530   3.470   7.911 -1.2994 -1.4927  0.5704
 9092SOL    HW238736   1.502   3.344   7.827 -0.2341  0.0728  0.7996
 9093SOL     OW38737   3.229   2.983  12.996 -0.5340  0.2001  0.2139
 9093SOL    HW138738   3.256   3.058  13.047  0.3744 -0.3758  0.5876
 9093SOL    HW238739   3.156   3.027  12.952 -0.5927 -0.8028 -0.6902
 9094SOL     OW38740   1.459   2.325   4.748 -0.1903  0.3036  0.2496
 9094SOL    HW138741   1.534   2.269   4.771 -0.8528 -1.6203 -2.2800
 9094SOL    HW238742   1.450   2.302   4.656 -0.3442  4.0628 -0.6743
 9095SOL     OW38743   3.369   0.182   2.795  0.1574  0.2456 -0.2224
 9095SOL    HW138744   3.276   0.204   2.783  0.1413  0.7186  0.8263
 9095SOL    HW238745   3.384   0.111   2.733  2.4989  1.6002 -1.1943
 9096SOL     OW38746   3.634   4.221   0.869 -0.7791 -0.2857 -0.3178
 9096SOL    HW138747   3.671   4.195   0.785  0.7117 -0.0318  0.2474
 9096SOL    HW238748   3.687   4.298   0.893  0.0130 -0.5527 -1.1990
 9097SOL     OW38749   0.974   1.301   8.846 -0.2368  0.2713 -0.3378
 9097SOL    HW138750   0.913   1.370   8.870 -1.7744 -0.6907 -1.4266
 9097SOL    HW238751   1.048   1.309   8.906  1.2926 -0.2491 -2.1399
 9098SOL     OW38752   3.547   1.674   7.565  0.1668  0.0914 -0.8591
 9098SOL    HW138753   3.456   1.705   7.560  1.3407  3.6115 -0.6015
 9098SOL    HW238754   3.592   1.757   7.582  0.4640 -0.3672  0.6530
 9099SOL     OW38755   3.512   1.340  12.744  0.1171 -0.1329 -0.4090
 9099SOL    HW138756   3.601   1.308  12.757  0.2348 -0.2117 -1.3754
 9099SOL    HW238757   3.464   1.293  12.811 -1.0541 -1.1101 -1.9225
 9100SOL     OW38758   4.458   4.544   1.761 -0.2745 -0.6553  0.0009
 9100SOL    HW138759   4.523   4.559   1.830 -0.1343  0.1957 -0.3154
 9100SOL    HW238760   4.460   4.634   1.728 -1.5928 -1.1155 -1.3345
 9101SOL     OW38761   2.493   2.626   4.367 -0.0266  0.6729  0.3396
 9101SOL    HW138762   2.403   2.603   4.389 -0.1801  0.6183 -0.3352
 9101SOL    HW238763   2.535   2.605   4.450 -1.6510  1.5517  1.3908
 9102SOL     OW38764   1.810   1.860  14.412  0.3747 -0.5263  0.0821
 9102SOL    HW138765   1.843   1.859  14.502 -0.6383 -0.4152  0.4521
 9102SOL    HW238766   1.887   1.842  14.358  0.2687 -1.5252  0.2618
 9103SOL     OW38767   2.511   1.161   2.193 -0.0420  0.1425 -0.1298
 9103SOL    HW138768   2.499   1.255   2.175 -0.5696 -0.1576 -1.4054
 9103SOL    HW238769   2.463   1.150   2.275 -1.6035  1.0391 -0.9140
 9104SOL     OW38770   3.425   0.851   4.176  0.1505 -0.1024  0.3519
 9104SOL    HW138771   3.451   0.854   4.268  0.9832 -1.4713  0.1601
 9104SOL    HW238772   3.334   0.880   4.177  0.0875 -0.2630 -0.3161
 9105SOL     OW38773   0.168   2.679   2.647  0.2464 -0.0790 -0.8748
 9105SOL    HW138774   0.243   2.620   2.636  0.1642 -0.3624  0.0821
 9105SOL    HW238775   0.178   2.725   2.564 -1.4075  0.4532 -0.7674
 9106SOL     OW38776   3.961   3.932   9.562 -0.0085  0.9930 -0.3292
 9106SOL    HW138777   3.976   4.018   9.600 -1.3148  0.7543  0.7191
 9106SOL    HW238778   3.869   3.936   9.537 -0.2708 -0.2757  0.4265
 9107SOL     OW38779   1.487   1.318  16.017 -0.4425 -0.0448  0.5739
 9107SOL    HW138780   1.466   1.349  16.105  0.0307 -1.1312  1.0724
 9107SOL    HW238781   1.563   1.262  16.036 -1.1859 -1.0156  0.7078
 9108SOL     OW38782   4.442   1.434   6.197 -0.1958 -0.3284  0.3499
 9108SOL    HW138783   4.536   1.439   6.180  0.1394 -0.4198  2.1461
 9108SOL    HW238784   4.409   1.421   6.108  0.9373  2.2011 -0.4293
 9109SOL     OW38785   3.931   3.619   1.107  0.5546  1.2560 -0.3568
 9109SOL    HW138786   3.987   3.673   1.051  0.2229  0.3795 -1.5328
 9109SOL    HW238787   3.906   3.539   1.061  0.1124  2.1893 -1.7363
 9110SOL     OW38788   2.521   0.601  17.514 -0.1419 -0.5968 -0.3620
 9110SOL    HW138789   2.551   0.631  17.600  2.0227 -2.3318 -0.5129
 9110SOL    HW238790   2.466   0.674  17.485  0.8481  0.4227  0.3372
 9111SOL     OW38791   3.485   1.881   7.815 -0.4110 -0.4187 -1.1599
 9111SOL    HW138792   3.391   1.860   7.813 -0.8028  1.3432 -1.3183
 9111SOL    HW238793   3.494   1.914   7.904  1.6574 -2.3548 -0.6451
 9112SOL     OW38794   0.524   3.658  15.851 -0.6174  0.0038  0.2402
 9112SOL    HW138795   0.578   3.604  15.794  0.6692 -0.4610  1.9063
 9112SOL    HW238796   0.465   3.586  15.877  1.3867 -1.9991 -0.7763
 9113SOL     OW38797   4.485   1.678   5.400  0.1279  0.1017 -0.7209
 9113SOL    HW138798   4.453   1.734   5.470  2.2250  3.2136 -2.2822
 9113SOL    HW238799   4.573   1.710   5.383 -0.4426  1.2821 -1.4648
 9114SOL     OW38800   4.165   1.857   4.027 -0.5830  0.2654  0.1584
 9114SOL    HW138801   4.243   1.890   3.983 -1.3121 -1.6206 -2.5653
 9114SOL    HW238802   4.180   1.870   4.120  1.8995 -2.3660  0.1185
 9115SOL     OW38803   2.738   2.931   3.164  0.2411 -0.5678  0.3367
 9115SOL    HW138804   2.832   2.939   3.146 -0.2149  1.1281 -1.3350
 9115SOL    HW238805   2.717   2.997   3.229  1.1447 -1.7190  1.7868
 9116SOL     OW38806   1.737   0.753   3.819  0.1234 -0.0458  0.3272
 9116SOL    HW138807   1.781   0.669   3.828  0.7297  0.5102  2.4130
 9116SOL    HW238808   1.808   0.809   3.787 -0.0798  0.9553  1.6626
 9117SOL     OW38809   2.834   3.132   4.076  0.2317 -0.0174  0.6211
 9117SOL    HW138810   2.839   3.225   4.053 -0.1301 -0.0855  0.2738
 9117SOL    HW238811   2.918   3.124   4.121  1.3907 -1.6971 -1.8333
 9118SOL     OW38812   0.149   0.938   6.507  0.3928 -0.8370 -0.3600
 9118SOL    HW138813   0.147   0.875   6.434  1.4056 -1.3001 -0.0004
 9118SOL    HW238814   0.136   0.880   6.582  0.7264 -0.7421 -0.2290
 9119SOL     OW38815   3.868   0.340   2.683  0.0481 -0.7936 -0.1271
 9119SOL    HW138816   3.865   0.385   2.599 -1.2950 -0.0049  0.3513
 9119SOL    HW238817   3.955   0.300   2.676  1.3145  2.0626 -0.9001
 9120SOL     OW38818   0.550   2.805  14.103 -0.4930  0.0074 -0.0385
 9120SOL    HW138819   0.509   2.755  14.174 -3.4096  2.4416 -0.0288
 9120SOL    HW238820   0.640   2.772  14.103 -0.4211  0.2097 -1.0017
 9121SOL     OW38821   3.123   1.532  14.658  0.2230 -0.2781  0.9602
 9121SOL    HW138822   3.073   1.593  14.604  1.2220  0.8571  1.3434
 9121SOL    HW238823   3.125   1.575  14.743  1.1427 -0.7095  1.1555
 9122SOL     OW38824   2.196   4.191   2.269  0.2208  0.1068 -0.3526
 9122SOL    HW138825   2.276   4.140   2.262 -0.7369 -1.3227 -0.9974
 9122SOL    HW238826   2.224   4.280   2.247  3.0210 -0.4805  0.9220
 9123SOL     OW38827   0.507   3.350   5.433 -0.0464  0.5434  0.2022
 9123SOL    HW138828   0.457   3.352   5.351  1.2477  3.2093 -0.5385
 9123SOL    HW238829   0.587   3.310   5.399  1.2301  2.4045  1.0457
 9124SOL     OW38830   2.414   4.415  11.149  0.2693  0.6470 -0.4441
 9124SOL    HW138831   2.436   4.491  11.094  1.4548 -0.0981 -1.0010
 9124SOL    HW238832   2.337   4.377  11.106 -0.6714  0.8742  1.0252
 9125SOL     OW38833   1.043   4.378   5.948 -0.1287 -0.2293 -0.8284
 9125SOL    HW138834   1.085   4.333   6.020  1.1301 -0.1340 -1.5062
 9125SOL    HW238835   1.070   4.469   5.958 -0.5217 -0.0615 -1.3035
 9126SOL     OW38836   0.469   1.372   1.274 -0.0735  0.5601  0.3084
 9126SOL    HW138837   0.564   1.381   1.283 -0.0032  0.1950 -0.0966
 9126SOL    HW238838   0.443   1.362   1.366 -1.4984 -0.6459 -0.2235
 9127SOL     OW38839   1.670   1.179  13.368  0.6907 -0.4831 -0.4842
 9127SOL    HW138840   1.608   1.175  13.440  1.2056 -1.9877 -0.1235
 9127SOL    HW238841   1.602   1.160  13.303  0.2434 -2.1115  0.4767
 9128SOL     OW38842   1.724   4.163   3.551 -0.0843  0.2090  0.0547
 9128SOL    HW138843   1.758   4.098   3.613  0.2315  1.8633  1.5999
 9128SOL    HW238844   1.725   4.130   3.461  1.4148  1.2843 -0.3343
 9129SOL     OW38845   2.124   2.631  15.858  0.1591 -0.1197 -0.5064
 9129SOL    HW138846   2.219   2.635  15.848  0.2324  0.8852  0.7509
 9129SOL    HW238847   2.082   2.655  15.776 -2.4571  1.4337  1.3090
 9130SOL     OW38848   1.891   3.763   5.022  0.2818  0.4763  0.1542
 9130SOL    HW138849   1.828   3.750   5.092 -0.9056  1.9366 -0.6507
 9130SOL    HW238850   1.894   3.672   4.993  0.7011  0.2866  0.7650
 9131SOL     OW38851   0.300   2.464   0.693 -0.7805 -0.0926  0.7835
 9131SOL    HW138852   0.354   2.501   0.763  1.4585 -0.0666 -0.9532
 9131SOL    HW238853   0.217   2.463   0.740 -0.4612  1.5799  1.3458
 9132SOL     OW38854   4.359   3.109   1.215 -0.6290  0.7870 -0.2888
 9132SOL    HW138855   4.391   3.183   1.163 -0.2651  0.7878 -0.0588
 9132SOL    HW238856   4.271   3.139   1.239 -0.8227  1.3781 -1.6920
 9133SOL     OW38857   2.656   0.511   5.756 -0.2693 -0.2621  0.4061
 9133SOL    HW138858   2.734   0.543   5.802 -1.1730  2.4772  0.0438
 9133SOL    HW238859   2.602   0.502   5.835  0.4847 -1.0877  0.8186
 9134SOL     OW38860   4.444   2.505  11.683  0.0041 -0.0146 -0.2267
 9134SOL    HW138861   4.374   2.469  11.629  2.3071 -0.7525 -2.7359
 9134SOL    HW238862   4.430   2.599  11.673 -2.6405  0.0755  4.6270
 9135SOL     OW38863   4.224   0.466   3.025 -0.0080 -0.1788  0.0437
 9135SOL    HW138864   4.256   0.390   2.976  3.2422  0.2816  1.4883
 9135SOL    HW238865   4.221   0.539   2.964 -0.3088 -0.8703 -0.7625
 9136SOL     OW38866   3.843   0.816   5.369 -0.1234  0.0159 -0.3836
 9136SOL    HW138867   3.923   0.779   5.408  0.7626  2.1162 -0.2225
 9136SOL    HW238868   3.882   0.889   5.321  2.2042 -1.2204 -0.3732
 9137SOL     OW38869   1.483   4.651  12.400 -0.1727 -0.3016  0.5060
 9137SOL    HW138870   1.546   4.579  12.388 -0.5402 -0.1571 -2.2026
 9137SOL    HW238871   1.398   4.609  12.387  0.1290 -0.1219 -1.9956
 9138SOL     OW38872   1.095   2.295  17.613  0.3200  0.1737 -0.1572
 9138SOL    HW138873   1.045   2.250  17.545  0.4558  2.3535 -1.7131
 9138SOL    HW238874   1.082   2.389  17.600 -1.6612 -0.1215 -0.2726
 9139SOL     OW38875   2.941   0.947   6.076  0.0879 -0.2483  0.1243
 9139SOL    HW138876   2.945   1.042   6.075 -1.4743 -0.1671  2.2269
 9139SOL    HW238877   2.846   0.933   6.079 -0.3206  2.1661 -1.6058
 9140SOL     OW38878   1.986   3.711   9.275 -0.4553  0.4096  0.2953
 9140SOL    HW138879   2.076   3.696   9.246 -0.4048 -0.3492  0.8287
 9140SOL    HW238880   1.933   3.691   9.198  1.0491  0.6316 -0.7856
 9141SOL     OW38881   0.296   4.234   6.953  0.6264 -0.2225  0.1055
 9141SOL    HW138882   0.261   4.228   6.864 -1.4741  0.8790  0.8472
 9141SOL    HW238883   0.237   4.303   6.983  0.1152 -0.7766  0.3907
 9142SOL     OW38884   2.012   4.303  13.203  0.2154  0.2344 -0.3629
 9142SOL    HW138885   2.062   4.270  13.278  2.6444  1.5687 -1.3901
 9142SOL    HW238886   2.081   4.346  13.154  1.0778 -0.6781  0.0480
 9143SOL     OW38887   2.524   2.570  10.084 -0.2011  0.0196 -0.2511
 9143SOL    HW138888   2.573   2.568  10.167 -1.1631  1.4398  0.3542
 9143SOL    HW238889   2.596   2.602  10.030 -0.9064  1.7464 -0.1773
 9144SOL     OW38890   0.802   2.628  11.979 -0.2462 -0.1728  0.3417
 9144SOL    HW138891   0.813   2.575  12.057  0.9815 -2.0549 -1.1200
 9144SOL    HW238892   0.742   2.578  11.924  0.0063 -0.3421  0.2224
 9145SOL     OW38893   0.008   0.831   3.352  0.5980 -0.0974  0.2771
 9145SOL    HW138894   0.052   0.757   3.393  0.2584 -1.0465 -1.0823
 9145SOL    HW238895   4.667   0.834   3.422 -1.0870 -0.2990 -1.3042
 9146SOL     OW38896   0.198   3.811   7.968 -0.3291 -0.0263 -0.2088
 9146SOL    HW138897   0.232   3.727   7.937 -0.9469  0.6175 -2.6962
 9146SOL    HW238898   0.278   3.843   8.010 -0.0032 -0.8264 -0.2191
 9147SOL     OW38899   2.008   4.432   8.076 -0.5534  0.0156 -0.4219
 9147SOL    HW138900   1.951   4.458   8.004 -2.7290 -0.8535  0.9646
 9147SOL    HW238901   2.099   4.417   8.049  0.5600 -0.3334  3.5067
 9148SOL     OW38902   1.075   2.131  10.264 -0.0056  0.1433  0.1360
 9148SOL    HW138903   1.126   2.201  10.304 -0.9711 -0.2143  2.0028
 9148SOL    HW238904   1.004   2.180  10.221  0.0969  0.9108  0.8505
 9149SOL     OW38905   3.898   3.583   0.744  0.1843  0.3495 -0.1580
 9149SOL    HW138906   3.856   3.668   0.755  1.3680  0.8511  0.5425
 9149SOL    HW238907   3.825   3.526   0.722  0.2096 -0.4792  1.9472
 9150SOL     OW38908   0.896   2.594  12.933 -0.2203 -0.1470  0.1666
 9150SOL    HW138909   0.971   2.559  12.980 -0.4414 -1.8603 -0.7549
 9150SOL    HW238910   0.822   2.576  12.991  0.5093 -0.8468  0.8608
 9151SOL     OW38911   3.621   3.053   2.268  0.7441 -0.0643  0.0994
 9151SOL    HW138912   3.562   3.073   2.196  0.6168 -0.2286  0.1603
 9151SOL    HW238913   3.694   3.012   2.221 -1.4974 -1.3971 -2.2009
 9152SOL     OW38914   4.048   3.072   5.464  0.2383 -0.1526 -0.0037
 9152SOL    HW138915   3.973   3.118   5.425  1.6710  0.7427 -1.6807
 9152SOL    HW238916   4.051   3.100   5.556 -0.4248 -0.9264  0.2491
 9153SOL     OW38917   1.761   4.645  13.256  0.0183  0.8451 -0.2524
 9153SOL    HW138918   1.686   4.693  13.292  1.1709  1.3424  1.4438
 9153SOL    HW238919   1.819   4.657  13.330 -1.7887 -0.6875  1.4181
 9154SOL     OW38920   1.362   1.435   0.946  0.4658  0.2806 -0.2231
 9154SOL    HW138921   1.385   1.389   0.865  0.1871 -0.4672  0.1260
 9154SOL    HW238922   1.350   1.366   1.011  1.0033 -0.0918 -0.5092
 9155SOL     OW38923   3.017   1.649   4.475  0.2807 -0.1714  0.0972
 9155SOL    HW138924   2.967   1.664   4.554  0.4671 -0.3157  0.2441
 9155SOL    HW238925   3.100   1.689   4.503 -0.4544  0.1176  1.8442
 9156SOL     OW38926   2.764   1.098   6.674  0.4911  0.3144 -0.6965
 9156SOL    HW138927   2.699   1.034   6.703  2.8748 -0.9867  1.8201
 9156SOL    HW238928   2.707   1.144   6.612  1.2027 -0.3669 -1.8487
 9157SOL     OW38929   1.256   1.208  16.211 -0.1366  0.1988 -0.4509
 9157SOL    HW138930   1.264   1.208  16.306 -3.9036  2.4001 -0.1750
 9157SOL    HW238931   1.226   1.296  16.190  0.3948  0.6198  0.5619
 9158SOL     OW38932   2.283   1.828   3.292 -0.1978  0.4521  0.0208
 9158SOL    HW138933   2.368   1.851   3.254 -0.0232  1.0915  0.7998
 9158SOL    HW238934   2.309   1.744   3.329  1.9786  0.3108 -1.8129
 9159SOL     OW38935   0.821   4.394   7.278  0.2592  0.2733  0.2591
 9159SOL    HW138936   0.882   4.409   7.206 -1.7526 -0.2745 -1.5679
 9159SOL    HW238937   0.868   4.321   7.319 -1.6823 -1.1627 -0.0409
 9160SOL     OW38938   4.300   3.690   1.308 -0.1966  0.4618  0.4457
 9160SOL    HW138939   4.392   3.669   1.324  0.7885  2.3661 -2.6636
 9160SOL    HW238940   4.307   3.778   1.269  2.4428  0.5359  1.0788
 9161SOL     OW38941   3.628   1.894   6.935  0.9321 -0.1305 -0.1541
 9161SOL    HW138942   3.586   1.943   7.006  0.6337  1.1063 -1.1756
 9161SOL    HW238943   3.707   1.944   6.915  0.5933  0.8139  0.8745
 9162SOL     OW38944   4.710   1.835  11.730  0.0222  0.2214 -0.4522
 9162SOL    HW138945   0.079   1.816  11.739 -0.3787 -2.0236 -0.8600
 9162SOL    HW238946   4.696   1.835  11.635  2.1468  0.3715 -0.7687
 9163SOL     OW38947   2.708   2.529   1.752  0.0802 -0.2611  0.2170
 9163SOL    HW138948   2.718   2.610   1.803  0.0100 -0.3223  0.3270
 9163SOL    HW238949   2.800   2.504   1.740  0.1912  0.6970 -0.9321
 9164SOL     OW38950   0.681   1.099   7.358  0.3541 -0.3692 -0.3818
 9164SOL    HW138951   0.613   1.109   7.424 -0.5200 -0.0685 -1.3312
 9164SOL    HW238952   0.630   1.073   7.281 -0.4768  1.8934 -0.6009
 9165SOL     OW38953   4.181   4.166   0.771  0.3135 -0.0938  0.8629
 9165SOL    HW138954   4.122   4.241   0.762  1.7061  1.0528  1.3112
 9165SOL    HW238955   4.122   4.092   0.757  1.1884 -0.0947 -2.8863
 9166SOL     OW38956   0.734   1.018   2.434 -0.5845  0.1762 -0.1661
 9166SOL    HW138957   0.641   0.997   2.433 -0.9859  1.9636  1.2973
 9166SOL    HW238958   0.777   0.932   2.439 -2.0735 -0.5847 -0.4297
 9167SOL     OW38959   1.217   0.749   1.357 -0.1305  0.1336  0.6259
 9167SOL    HW138960   1.209   0.725   1.449 -1.1076 -3.4998 -0.4409
 9167SOL    HW238961   1.146   0.812   1.344 -0.4907 -0.8435 -2.0823
 9168SOL     OW38962   4.407   2.084  11.298 -0.0772 -0.1139 -0.2424
 9168SOL    HW138963   4.499   2.109  11.306 -0.4483  1.3009 -0.3153
 9168SOL    HW238964   4.385   2.115  11.210 -1.5522 -0.5354 -0.0200
 9169SOL     OW38965   4.511   0.431   4.021  0.0672 -0.1104 -0.8169
 9169SOL    HW138966   4.571   0.397   3.956  0.7978  0.9013 -0.6654
 9169SOL    HW238967   4.548   0.517   4.037  1.7604 -0.6865 -1.6657
 9170SOL     OW38968   1.249   3.455   7.155 -0.0609  0.5532 -0.1556
 9170SOL    HW138969   1.280   3.383   7.099 -1.1358 -1.7809  2.2405
 9170SOL    HW238970   1.313   3.461   7.225  0.0164 -4.1620  0.2021
 9171SOL     OW38971   4.603   4.549   8.323  0.2218 -0.5004 -0.0384
 9171SOL    HW138972   4.696   4.569   8.310  0.3455 -1.7507 -1.1823
 9171SOL    HW238973   4.622   4.462   8.358 -0.9281 -1.3110 -1.4097
 9172SOL     OW38974   3.881   1.897   3.219  0.3284 -0.0029 -0.1242
 9172SOL    HW138975   3.955   1.900   3.158  0.3636 -0.5673 -0.1112
 9172SOL    HW238976   3.921   1.840   3.285 -2.6694 -0.8854  0.9539
 9173SOL     OW38977   3.287   4.305   1.184 -0.1114  0.1946 -0.0639
 9173SOL    HW138978   3.325   4.248   1.251 -3.5177 -1.2626  0.6332
 9173SOL    HW238979   3.229   4.246   1.137 -0.4166  0.8281 -0.4796
 9174SOL     OW38980   3.969   2.124   1.990  0.7063 -0.1434  0.5079
 9174SOL    HW138981   3.991   2.106   1.898  0.6233  0.5280  0.3487
 9174SOL    HW238982   4.010   2.048   2.029  1.2001  0.0455  0.3606
 9175SOL     OW38983   0.196   0.145   6.460 -0.2817  0.3735 -0.0090
 9175SOL    HW138984   0.211   0.237   6.440  0.9195  0.1721  0.0057
 9175SOL    HW238985   0.164   0.147   6.551 -0.8243  2.1990 -0.2370
 9176SOL     OW38986   2.764   1.663   3.050  0.1334  0.0823  0.3432
 9176SOL    HW138987   2.761   1.569   3.031 -1.2881  0.5363 -1.7358
 9176SOL    HW238988   2.841   1.696   3.004 -0.2557 -0.1384 -0.4789
 9177SOL     OW38989   0.311   0.320  11.423  0.0442 -0.3186 -0.8132
 9177SOL    HW138990   0.307   0.330  11.328  0.6713  0.8611 -0.7180
 9177SOL    HW238991   0.395   0.353  11.454 -0.1591 -0.0318 -0.5663
 9178SOL     OW38992   0.828   1.054   3.862 -0.6222  0.5187 -0.2789
 9178SOL    HW138993   0.868   1.133   3.826 -2.7248  1.4678 -0.5391
 9178SOL    HW238994   0.901   1.018   3.913 -0.4968 -0.2066 -0.9656
 9179SOL     OW38995   0.896   0.906  15.856  0.4837 -0.2499 -0.0094
 9179SOL    HW138996   0.831   0.901  15.926  0.7110  1.7402  0.3363
 9179SOL    HW238997   0.916   0.999  15.870  0.9362  0.1792 -3.5678
 9180SOL     OW38998   1.704   4.300   9.583 -0.1240  0.1569  0.4083
 9180SOL    HW138999   1.647   4.367   9.544  1.7673  1.1447 -0.6535
 9180SOL    HW239000   1.777   4.294   9.521 -2.1666  1.2627 -2.1010
 9181SOL     OW39001   4.722   2.286   3.224  0.7828 -0.1039 -0.1207
 9181SOL    HW139002   4.651   2.256   3.168  0.3574 -2.0504  1.4973
 9181SOL    HW239003   4.702   2.377   3.246  2.2271  0.0807  0.4782
 9182SOL     OW39004   1.477   0.387   4.200 -0.0322 -0.0890  0.4633
 9182SOL    HW139005   1.457   0.297   4.226 -2.2081 -0.2321 -1.6536
 9182SOL    HW239006   1.526   0.369   4.119  1.2556 -0.8416  1.4096
 9183SOL     OW39007   3.434   1.452  11.756 -0.2403  0.3950  0.2422
 9183SOL    HW139008   3.460   1.456  11.664 -1.2955 -1.8578 -0.1373
 9183SOL    HW239009   3.419   1.544  11.777  0.0466  0.5780 -0.3508
 9184SOL     OW39010   4.609   2.245  11.747  0.5105 -0.4343  0.8071
 9184SOL    HW139011   4.575   2.334  11.757  0.1938 -0.6476  1.7008
 9184SOL    HW239012   4.668   2.254  11.673 -1.9033  1.0747 -0.9513
 9185SOL     OW39013   4.713   4.157  10.680  0.8110  0.4674  0.5717
 9185SOL    HW139014   4.629   4.178  10.720  0.2782  0.7181 -0.6808
 9185SOL    HW239015   0.046   4.229  10.704 -1.5498  2.5972 -0.1594
 9186SOL     OW39016   2.651   4.247  16.013  0.7745  1.0645  0.5182
 9186SOL    HW139017   2.717   4.234  15.945  0.1525 -0.5819  0.2267
 9186SOL    HW239018   2.595   4.314  15.975  0.4019 -0.6996 -2.0527
 9187SOL     OW39019   2.776   3.177   7.251  0.5578  0.0948 -0.0235
 9187SOL    HW139020   2.730   3.146   7.173  1.1757 -0.3323 -0.2202
 9187SOL    HW239021   2.859   3.144   7.217  0.8427  1.5558 -0.7674
 9188SOL     OW39022   1.660   4.445   6.527  0.4405 -0.1398 -0.0858
 9188SOL    HW139023   1.718   4.429   6.453 -0.1049 -0.1731 -0.5067
 9188SOL    HW239024   1.572   4.431   6.493  0.3942  4.4784 -1.8665
 9189SOL     OW39025   3.925   3.838   8.000  0.1852 -0.2919 -0.4765
 9189SOL    HW139026   3.953   3.782   7.928 -1.7698 -2.5210  0.4407
 9189SOL    HW239027   4.011   3.865   8.031 -0.2006  0.5356 -0.1220
 9190SOL     OW39028   1.653   3.840   1.925 -0.9983 -0.1066  0.3190
 9190SOL    HW139029   1.673   3.865   2.015 -1.1752 -0.0010  0.3294
 9190SOL    HW239030   1.667   3.746   1.916  1.2888  0.0642  2.1399
 9191SOL     OW39031   3.879   0.362   1.957  0.5783  0.5051  0.1793
 9191SOL    HW139032   3.829   0.288   1.922  0.7401  1.5126 -2.1922
 9191SOL    HW239033   3.868   0.418   1.880 -0.3956 -0.7093 -0.5842
 9192SOL     OW39034   3.186   1.506   5.240 -0.0890 -0.4615  0.0395
 9192SOL    HW139035   3.144   1.425   5.211  0.6781 -0.5815 -0.7245
 9192SOL    HW239036   3.270   1.473   5.272 -0.6082 -0.6744  1.2162
 9193SOL     OW39037   1.165   4.254   6.168 -0.4358  0.0426 -0.4362
 9193SOL    HW139038   1.131   4.298   6.246  0.7794 -0.6393  0.4819
 9193SOL    HW239039   1.118   4.171   6.165 -1.8676  0.9923 -3.9083
 9194SOL     OW39040   0.027   3.391   4.309 -0.0635 -0.4960  0.1198
 9194SOL    HW139041   4.721   3.466   4.259 -2.2609 -0.0518  2.0990
 9194SOL    HW239042   0.060   3.338   4.237 -0.1169 -0.0115 -0.2580
 9195SOL     OW39043   0.366   0.246   5.046 -0.6906 -0.2850  0.6278
 9195SOL    HW139044   0.456   0.240   5.078 -0.7954  1.3634  1.2444
 9195SOL    HW239045   0.335   0.337   5.046 -1.4951 -0.5457 -1.7426
 9196SOL     OW39046   2.549   2.520   0.402 -0.1287  0.0490  0.2284
 9196SOL    HW139047   2.642   2.531   0.423 -0.4383  0.7905  1.2145
 9196SOL    HW239048   2.567   2.477   0.318  0.4051  0.3146  0.2055
 9197SOL     OW39049   3.692   1.863   2.716 -0.3652  0.7516 -0.0214
 9197SOL    HW139050   3.758   1.876   2.648 -1.0614 -0.4173 -0.9190
 9197SOL    HW239051   3.638   1.939   2.694 -1.4042  0.2434  0.7793
 9198SOL     OW39052   0.200   3.399   6.017 -0.0301  0.4240  0.1318
 9198SOL    HW139053   0.141   3.427   6.088  0.4211  2.1627 -0.1657
 9198SOL    HW239054   0.191   3.460   5.944 -0.4591 -1.4071 -1.3088
 9199SOL     OW39055   3.073   0.022   6.437  0.3309  0.2707  0.2443
 9199SOL    HW139056   3.033   0.021   6.524 -0.6013 -0.1431 -0.1914
 9199SOL    HW239057   3.000   0.045   6.379 -0.8811  0.2244  1.7527
 9200SOL     OW39058   2.577   1.889   6.451 -0.0142 -0.1396  0.2786
 9200SOL    HW139059   2.626   1.950   6.396  2.1904 -1.4057  0.8451
 9200SOL    HW239060   2.558   1.813   6.396 -0.9180 -0.7688  1.4545
 9201SOL     OW39061   4.578   3.219  12.798 -0.0783  0.0848 -0.0659
 9201SOL    HW139062   4.580   3.196  12.891  1.6389 -0.0067 -0.1213
 9201SOL    HW239063   4.607   3.310  12.799  0.2579 -0.0356  1.6852
 9202SOL     OW39064   2.899   0.744  11.997 -0.2651  0.3973 -0.3290
 9202SOL    HW139065   2.805   0.732  12.011  0.0040 -0.6409  0.5661
 9202SOL    HW239066   2.927   0.764  12.086 -1.4494  1.8245 -0.2759
 9203SOL     OW39067   2.849   4.304   8.289 -0.4022 -0.3050  1.1820
 9203SOL    HW139068   2.811   4.386   8.321 -1.9470 -0.2659 -0.7737
 9203SOL    HW239069   2.842   4.241   8.361 -1.4572 -0.8630  0.5839
 9204SOL     OW39070   1.569   3.421   1.655  0.0146  0.1285  0.4067
 9204SOL    HW139071   1.474   3.424   1.657  0.0795  1.9246  0.3408
 9204SOL    HW239072   1.600   3.334   1.628  0.8032  1.5002 -3.1199
 9205SOL     OW39073   1.509   1.053   6.631  0.1817 -0.3272  0.0733
 9205SOL    HW139074   1.590   1.013   6.599  0.8769  2.6026 -1.7596
 9205SOL    HW239075   1.499   1.127   6.571  0.7652  1.8243  2.6349
 9206SOL     OW39076   4.367   0.540  12.714  0.1937  0.1200  0.1600
 9206SOL    HW139077   4.386   0.633  12.713  0.4619  0.0617 -0.5289
 9206SOL    HW239078   4.455   0.508  12.738 -1.6210 -4.4586  0.8370
 9207SOL     OW39079   3.443   4.033   4.711  0.5675  0.0661 -0.3473
 9207SOL    HW139080   3.406   4.039   4.799 -1.5325 -0.5052 -1.1942
 9207SOL    HW239081   3.377   4.073   4.655 -1.0713 -1.7241  0.3199
 9208SOL     OW39082   1.788   3.700   0.080 -0.1908 -0.6456 -0.0290
 9208SOL    HW139083   1.741   3.745   0.149  0.7203 -0.6229  0.5778
 9208SOL    HW239084   1.871   3.684   0.124 -1.5832 -1.2851  2.3208
 9209SOL     OW39085   0.449   4.192   9.549 -0.4273  0.7358 -0.7079
 9209SOL    HW139086   0.511   4.251   9.590 -1.5448  1.2546  0.2348
 9209SOL    HW239087   0.415   4.253   9.483  0.6430  1.0536 -0.9668
 9210SOL     OW39088   4.535   0.225   9.467  0.2079 -0.6215  0.4768
 9210SOL    HW139089   4.608   0.215   9.527 -0.0328 -2.1920  0.5138
 9210SOL    HW239090   4.503   0.138   9.490  0.2190  0.0298  2.9544
 9211SOL     OW39091   3.334   1.655   8.240  0.5185  0.0992 -0.9324
 9211SOL    HW139092   3.289   1.739   8.247 -0.9825 -0.9743  2.5036
 9211SOL    HW239093   3.362   1.638   8.330 -1.8168 -2.1931 -0.6174
 9212SOL     OW39094   3.310   2.803   6.653 -0.5507  0.6482  0.0915
 9212SOL    HW139095   3.357   2.826   6.733  0.0704  0.1729 -0.1336
 9212SOL    HW239096   3.221   2.795   6.688 -0.7916 -1.4500 -0.9851
 9213SOL     OW39097   0.626   3.888   4.211 -0.1389 -0.5815 -0.5114
 9213SOL    HW139098   0.572   3.966   4.197 -2.1690 -1.1114  4.4720
 9213SOL    HW239099   0.651   3.890   4.303 -1.9234  2.7517 -0.0675
 9214SOL     OW39100   3.127   3.996   2.854  0.1656  0.5679 -0.8290
 9214SOL    HW139101   3.105   4.087   2.832 -1.0318  0.3553 -0.5080
 9214SOL    HW239102   3.202   4.015   2.910  1.6230  1.6511 -3.1481
 9215SOL     OW39103   4.543   2.762   7.765  0.3079  0.6067  0.0754
 9215SOL    HW139104   4.537   2.699   7.836  2.5198 -1.3375 -1.4568
 9215SOL    HW239105   4.629   2.737   7.730  0.4181  2.5302 -1.0277
 9216SOL     OW39106   2.588   2.289   6.603  0.4114  0.0535  0.0425
 9216SOL    HW139107   2.513   2.230   6.591 -0.7378  1.2065  1.4880
 9216SOL    HW239108   2.554   2.356   6.663  0.4197  0.6515 -0.6125
 9217SOL     OW39109   3.864   4.146   5.521 -0.1846 -0.0036  0.3442
 9217SOL    HW139110   3.945   4.148   5.470 -0.1883 -0.2684  0.3281
 9217SOL    HW239111   3.850   4.237   5.493 -0.0004  0.0520  0.4289
 9218SOL     OW39112   1.900   2.794   9.123 -1.1826 -0.0734  0.8200
 9218SOL    HW139113   1.874   2.795   9.215 -0.7162 -1.9031  0.9608
 9218SOL    HW239114   1.984   2.748   9.131 -1.1272 -0.1650 -0.2257
 9219SOL     OW39115   3.243   4.319   1.638  0.0583  1.0266 -0.2728
 9219SOL    HW139116   3.315   4.377   1.665  1.1429 -0.9401  1.0532
 9219SOL    HW239117   3.202   4.372   1.570  1.1222  0.5213 -1.3133
 9220SOL     OW39118   0.122   0.514  15.375  0.0075 -0.2375  0.7733
 9220SOL    HW139119   0.066   0.438  15.389 -0.2755 -0.0119  0.8632
 9220SOL    HW239120   0.093   0.563  15.452  0.9702  3.0129 -0.9336
 9221SOL     OW39121   0.942   3.954  15.987 -0.2319  0.3272  0.3301
 9221SOL    HW139122   0.854   3.922  15.970 -0.0575  1.0454 -1.8451
 9221SOL    HW239123   0.930   4.049  15.993  2.9954  0.7288  0.2602
 9222SOL     OW39124   2.066   3.663   6.000 -0.1127  0.6083  0.0849
 9222SOL    HW139125   2.033   3.654   6.090  1.5799 -2.6533  0.3702
 9222SOL    HW239126   2.007   3.727   5.960  0.4566  0.8670 -0.3347
 9223SOL     OW39127   3.517   2.919   6.831 -0.3435  0.5761  0.3015
 9223SOL    HW139128   3.562   2.951   6.753  0.2266 -1.6667 -0.2974
 9223SOL    HW239129   3.494   3.004   6.869  3.2573  0.8386  1.9206
 9224SOL     OW39130   2.420   3.915   3.234 -0.1537  0.2798 -0.3951
 9224SOL    HW139131   2.470   3.948   3.160  2.6870  0.9052  1.8235
 9224SOL    HW239132   2.363   3.851   3.191  0.7378  0.0721 -1.2530
 9225SOL     OW39133   4.429   4.150   5.403  0.3738  0.3644  0.7223
 9225SOL    HW139134   4.471   4.072   5.439 -0.8786 -1.4343 -1.7126
 9225SOL    HW239135   4.452   4.137   5.311 -2.6238 -1.9272  0.3075
 9226SOL     OW39136   3.064   2.912  14.808  0.5439 -0.7940  0.9009
 9226SOL    HW139137   3.092   2.890  14.719 -0.1365  0.1521  0.4456
 9226SOL    HW239138   3.137   2.971  14.824  0.7530 -0.9447  0.5071
 9227SOL     OW39139   2.571   0.472   6.784 -0.1969  0.0847 -0.1411
 9227SOL    HW139140   2.506   0.402   6.788 -0.8910  0.7921  0.8190
 9227SOL    HW239141   2.514   0.547   6.770  1.0009  1.4924  2.6403
 9228SOL     OW39142   0.144   3.133   5.308  0.0886 -0.5194 -0.1814
 9228SOL    HW139143   0.129   3.151   5.401  1.3983 -2.0212  0.3247
 9228SOL    HW239144   0.053   3.126   5.279  1.1100 -1.5655 -3.1449
 9229SOL     OW39145   3.957   4.072  10.774 -0.3303  0.5417  0.0470
 9229SOL    HW139146   4.007   4.152  10.789  2.9339 -1.4014 -0.5199
 9229SOL    HW239147   3.967   4.058  10.679  0.4109 -1.1842  0.3798
 9230SOL     OW39148   3.297   4.043   3.057 -0.1915 -0.2330 -0.3755
 9230SOL    HW139149   3.327   4.107   3.122 -1.0711 -0.6515  0.4353
 9230SOL    HW239150   3.317   3.963   3.104  1.5640 -0.1521 -0.9707
 9231SOL     OW39151   3.070   1.107  13.388 -0.3672  0.5366  0.5510
 9231SOL    HW139152   3.108   1.095  13.475 -4.0481  0.8402  2.1771
 9231SOL    HW239153   3.139   1.158  13.346 -0.9444 -2.1583 -3.6542
 9232SOL     OW39154   1.202   1.484  13.593 -0.8079  0.5271 -0.0358
 9232SOL    HW139155   1.209   1.439  13.677  0.9414 -1.1891 -1.0930
 9232SOL    HW239156   1.262   1.554  13.616 -0.2531 -0.2290  0.8058
 9233SOL     OW39157   2.576   1.802  17.420 -0.1971  0.3273  0.1026
 9233SOL    HW139158   2.671   1.796  17.417 -0.2028  0.3646 -0.1190
 9233SOL    HW239159   2.563   1.707  17.412 -1.6078  0.5989 -0.8071
 9234SOL     OW39160   2.516   0.079   7.388 -0.0114  0.4157  0.0529
 9234SOL    HW139161   2.493   0.164   7.425  1.0546  0.0777  1.5030
 9234SOL    HW239162   2.458   0.023   7.440  2.3690 -1.4897  0.6723
 9235SOL     OW39163   2.171   1.196   3.387  0.0410  0.1561  0.3537
 9235SOL    HW139164   2.254   1.161   3.354  1.5851  2.0144  2.2257
 9235SOL    HW239165   2.153   1.267   3.325 -0.3063  0.2680  0.5837
 9236SOL     OW39166   0.268   0.778   4.974 -0.0011 -0.5230  0.3376
 9236SOL    HW139167   0.251   0.752   5.064 -2.2000  0.5052  0.2313
 9236SOL    HW239168   0.362   0.797   4.974 -0.5337  2.1468  0.1402
 9237SOL     OW39169   2.078   4.260   0.474  0.6302  0.1927  0.2301
 9237SOL    HW139170   2.082   4.291   0.384  1.9581 -1.2318 -0.1959
 9237SOL    HW239171   1.992   4.217   0.473  0.6172  0.2349 -0.4352
 9238SOL     OW39172   0.252   2.429  14.615 -0.6429  0.5912  0.1401
 9238SOL    HW139173   0.314   2.470  14.676 -0.0706  2.7358 -1.8962
 9238SOL    HW239174   0.218   2.353  14.663  1.6639 -0.3872  0.2202
 9239SOL     OW39175   4.212   4.313   4.944  0.0774  0.4456  0.6366
 9239SOL    HW139176   4.126   4.280   4.919 -1.1750  2.8002  1.7961
 9239SOL    HW239177   4.182   4.403   4.959  1.9608  1.0948  0.5494
 9240SOL     OW39178   4.063   1.875   7.761  0.2049  0.3436 -0.5699
 9240SOL    HW139179   4.147   1.872   7.807  0.0342  2.6343 -0.1350
 9240SOL    HW239180   4.006   1.802   7.787 -1.1080  1.5317 -0.1332
 9241SOL     OW39181   3.410   4.068   2.041 -0.5086  0.0685 -0.4468
 9241SOL    HW139182   3.372   4.136   2.095 -0.3454  1.4543 -2.0583
 9241SOL    HW239183   3.498   4.058   2.077  0.2710 -1.9797 -2.8807
 9242SOL     OW39184   0.540   1.234   3.933  0.2263 -0.3549  0.2470
 9242SOL    HW139185   0.567   1.170   3.867  1.8235 -1.6757  2.1712
 9242SOL    HW239186   0.449   1.210   3.954  0.0218  0.6147  0.4878
 9243SOL     OW39187   3.394   1.114  12.313 -0.6972 -0.1895 -0.0527
 9243SOL    HW139188   3.373   1.153  12.397  0.8026  0.8825 -0.1690
 9243SOL    HW239189   3.356   1.184  12.260  0.2558  0.0614 -0.4142
 9244SOL     OW39190   0.228   3.770   5.188 -0.0045  0.2345  0.2784
 9244SOL    HW139191   0.274   3.837   5.238 -1.1795 -0.4985  2.3558
 9244SOL    HW239192   0.227   3.816   5.104  0.9612 -1.3011 -0.5617
 9245SOL     OW39193   0.994   0.144   4.128 -0.0285 -0.1274  0.0840
 9245SOL    HW139194   0.925   0.179   4.184  0.0533 -0.7448  0.5781
 9245SOL    HW239195   1.044   0.103   4.199 -0.5179 -1.2182 -0.2017
 9246SOL     OW39196   0.301   1.316   9.239 -0.1822  0.3772 -0.0803
 9246SOL    HW139197   0.318   1.392   9.181  0.5107  0.0218 -0.3494
 9246SOL    HW239198   0.281   1.354   9.324 -1.3321  0.5929 -0.4502
 9247SOL     OW39199   0.864   3.974   6.456 -0.2083 -0.4341 -0.3460
 9247SOL    HW139200   0.954   4.002   6.474 -0.2350  0.0129 -0.9256
 9247SOL    HW239201   0.863   3.926   6.373 -2.5377 -1.8731  0.5086
 9248SOL     OW39202   1.305   1.919   4.810  0.5110 -0.0140 -0.4853
 9248SOL    HW139203   1.342   1.831   4.806 -1.7582 -0.9944 -0.0360
 9248SOL    HW239204   1.309   1.945   4.717  1.4477  0.1152 -0.4105
 9249SOL     OW39205   1.471   4.619  13.345 -0.3041 -0.0575 -0.3502
 9249SOL    HW139206   1.389   4.650  13.307 -0.3552  1.1259  0.7397
 9249SOL    HW239207   1.489   4.705  13.383  0.7592  0.5441 -2.1812
 9250SOL     OW39208   4.442   1.592   9.060 -0.0826 -0.4766  0.3077
 9250SOL    HW139209   4.499   1.627   8.993  0.8469  1.6728  2.1981
 9250SOL    HW239210   4.481   1.509   9.088  0.6588  0.9946  3.6285
 9251SOL     OW39211   0.364   3.001   9.283 -0.2929  0.1012 -0.2003
 9251SOL    HW139212   0.356   2.933   9.351 -0.9517 -0.0627 -0.4425
 9251SOL    HW239213   0.396   3.079   9.329 -0.5370 -0.4355  0.8853
 9252SOL     OW39214   2.079   4.631  14.691 -0.0899 -0.1120  0.0584
 9252SOL    HW139215   2.036   4.691  14.629 -1.7196 -0.1645  1.1381
 9252SOL    HW239216   2.044   4.549  14.655 -0.5839 -0.4302  1.2872
 9253SOL     OW39217   2.328   4.596  10.183 -0.2759 -0.0063  0.5728
 9253SOL    HW139218   2.343   4.690  10.190  3.1067 -0.4491 -0.9172
 9253SOL    HW239219   2.314   4.586  10.089 -2.5227 -0.3957  0.9383
 9254SOL     OW39220   2.324   3.472   2.422  0.0144 -0.2983 -0.4027
 9254SOL    HW139221   2.356   3.492   2.510  1.4784  2.0739 -1.4718
 9254SOL    HW239222   2.288   3.552   2.383  1.8179 -0.1352 -1.7118
 9255SOL     OW39223   2.808   2.510   8.564  0.4311 -0.9272  0.3349
 9255SOL    HW139224   2.806   2.454   8.642 -1.4540  0.1815  1.0737
 9255SOL    HW239225   2.786   2.443   8.499 -1.4206 -1.0223  1.0819
 9256SOL     OW39226   1.729   4.370   3.362 -0.6614  0.1911 -0.4211
 9256SOL    HW139227   1.733   4.321   3.444 -1.9583  1.3058  0.3026
 9256SOL    HW239228   1.691   4.308   3.299  1.9780 -0.9082 -0.9339
 9257SOL     OW39229   4.289   2.322   9.230  0.3004 -0.6343  0.5195
 9257SOL    HW139230   4.241   2.394   9.270 -1.6222 -2.7438  1.9988
 9257SOL    HW239231   4.297   2.264   9.306 -0.0722  0.2665  1.2456
 9258SOL     OW39232   2.755   2.001   1.595 -0.4638  0.3625 -0.1912
 9258SOL    HW139233   2.813   2.078   1.600 -1.8763  1.3222  1.3722
 9258SOL    HW239234   2.701   2.027   1.670 -1.4381  1.8691 -1.4368
 9259SOL     OW39235   2.904   3.594   4.234  0.3346 -0.5146  0.1971
 9259SOL    HW139236   2.857   3.675   4.253  0.0226 -0.5157 -0.5562
 9259SOL    HW239237   2.921   3.620   4.143  0.6764 -0.4991  0.2669
 9260SOL     OW39238   1.099   2.119   2.796 -0.0478 -0.3711 -0.1250
 9260SOL    HW139239   1.086   2.205   2.757  0.5301 -0.2722 -0.1060
 9260SOL    HW239240   1.088   2.134   2.890  3.2758 -0.2780  0.2585
 9261SOL     OW39241   1.447   4.127   3.648  0.2985  0.1481 -0.5777
 9261SOL    HW139242   1.382   4.103   3.581  0.2301  1.1745 -0.8802
 9261SOL    HW239243   1.515   4.140   3.582  0.1382 -0.3838 -0.8517
 9262SOL     OW39244   1.896   2.207   1.690 -0.1652 -0.4037  0.7181
 9262SOL    HW139245   1.978   2.223   1.643 -0.8481 -1.9976 -0.9776
 9262SOL    HW239246   1.924   2.186   1.779  1.6598 -1.3351 -0.0709
 9263SOL     OW39247   0.661   0.662   5.259 -0.3981 -0.1348 -0.4204
 9263SOL    HW139248   0.714   0.591   5.222 -0.9999 -0.4177 -0.7421
 9263SOL    HW239249   0.586   0.618   5.299  0.0121  1.4562  2.1026
 9264SOL     OW39250   0.503   1.352   3.089  0.0579 -0.0526  0.5500
 9264SOL    HW139251   0.501   1.402   3.008 -0.1324 -1.5091 -0.3410
 9264SOL    HW239252   0.428   1.391   3.133  1.3411  0.2268  2.5066
 9265SOL     OW39253   3.176   3.665  12.379  0.1980  0.0941 -0.0636
 9265SOL    HW139254   3.126   3.624  12.450 -0.6759  2.8244  0.8706
 9265SOL    HW239255   3.188   3.757  12.402 -3.0159  0.5790 -0.3586
 9266SOL     OW39256   2.314   0.186   8.032 -0.3699 -0.1675 -0.1663
 9266SOL    HW139257   2.392   0.174   8.087  0.2707 -0.0680 -1.0518
 9266SOL    HW239258   2.349   0.243   7.964  0.5650 -0.5663 -0.0228
 9267SOL     OW39259   0.313   3.220  14.902 -0.2237 -0.6388  0.2348
 9267SOL    HW139260   0.278   3.136  14.930 -0.2043 -0.9714 -0.7549
 9267SOL    HW239261   0.237   3.278  14.907  1.2006  1.3195 -0.7644
 9268SOL     OW39262   1.005   4.327  15.688  0.3281 -0.1161  0.7819
 9268SOL    HW139263   1.014   4.235  15.713  2.7741  0.5027  2.1466
 9268SOL    HW239264   1.028   4.320  15.595 -1.5324  0.6676  0.2540
 9269SOL     OW39265   2.092   3.190   2.143  0.0588 -0.2528 -0.4889
 9269SOL    HW139266   2.134   3.270   2.110  0.0193 -0.3119 -0.6827
 9269SOL    HW239267   2.000   3.215   2.141  0.5473  1.3245 -3.5277
 9270SOL     OW39268   3.422   0.426   3.875  0.5006  0.2031  0.0115
 9270SOL    HW139269   3.401   0.512   3.910  4.1592  1.0577  0.0280
 9270SOL    HW239270   3.352   0.371   3.910 -0.2935  1.2333  0.0538
 9271SOL     OW39271   2.901   1.833   8.192  0.0099 -0.6788 -0.5983
 9271SOL    HW139272   2.907   1.785   8.274  1.3213  0.5850  0.0459
 9271SOL    HW239273   2.971   1.790   8.143 -1.8439 -0.6892 -3.2688
 9272SOL     OW39274   4.142   0.449  13.509 -0.3802 -0.5337  0.3568
 9272SOL    HW139275   4.213   0.397  13.547 -1.2525 -3.0925 -1.4827
 9272SOL    HW239276   4.171   0.537  13.533 -0.6961 -0.3662  0.1226
 9273SOL     OW39277   4.547   3.552   7.499  0.1642  0.5695 -0.3528
 9273SOL    HW139278   4.452   3.561   7.511  0.5259  3.6095  0.3852
 9273SOL    HW239279   4.565   3.620   7.434  1.9943  1.4853  1.1265
 9274SOL     OW39280   4.350   4.130   8.387  1.0857 -0.5385 -0.0037
 9274SOL    HW139281   4.374   4.056   8.330  3.0808  1.5990 -1.9391
 9274SOL    HW239282   4.303   4.193   8.333  0.4188 -1.9485 -1.0826
 9275SOL     OW39283   3.048   1.901   6.676 -0.1416  0.5719  0.3855
 9275SOL    HW139284   3.136   1.901   6.638 -0.0209 -1.4891  0.6504
 9275SOL    HW239285   3.007   1.825   6.636  1.2014  0.7244 -1.2541
 9276SOL     OW39286   0.309   0.492   2.158 -0.2956 -0.1963  0.5387
 9276SOL    HW139287   0.384   0.462   2.106  0.4203  1.2726  0.7326
 9276SOL    HW239288   0.234   0.433   2.147 -2.4020  2.8276 -1.4115
 9277SOL     OW39289   3.268   1.170   8.239 -0.0141  0.5471  0.3889
 9277SOL    HW139290   3.175   1.188   8.229  0.0298 -1.0103 -2.7354
 9277SOL    HW239291   3.289   1.203   8.326  1.6482 -0.0811  0.2399
 9278SOL     OW39292   3.553   3.726   9.798  0.7487  0.1295  0.3499
 9278SOL    HW139293   3.616   3.654   9.800  1.5326  0.8123  0.1833
 9278SOL    HW239294   3.527   3.740   9.707 -2.1575  0.0136  1.1674
 9279SOL     OW39295   3.352   0.017  15.103  0.2857 -0.2973 -0.2461
 9279SOL    HW139296   3.322   0.108  15.108  0.0007 -0.3103 -1.7009
 9279SOL    HW239297   3.377   0.015  15.011 -1.0372  0.0506 -0.6107
 9280SOL     OW39298   2.329   0.148   0.317 -0.0239  0.1205  0.1301
 9280SOL    HW139299   2.280   0.102   0.249 -0.1663 -0.2133  0.4576
 9280SOL    HW239300   2.350   0.231   0.274 -0.7884  0.0349 -0.4104
 9281SOL     OW39301   4.170   0.751   6.756  0.0089 -0.2371  0.5643
 9281SOL    HW139302   4.220   0.799   6.822  0.0752  0.9115 -0.3118
 9281SOL    HW239303   4.115   0.690   6.805  0.1101 -0.8571 -0.0885
 9282SOL     OW39304   1.411   0.107   7.849  0.0397 -0.0758  0.3902
 9282SOL    HW139305   1.438   0.189   7.890 -1.0742  1.1633 -1.3672
 9282SOL    HW239306   1.363   0.054   7.912  1.1310 -0.3894  0.9617
 9283SOL     OW39307   1.364   3.173   9.095 -0.9971  0.3347 -0.0014
 9283SOL    HW139308   1.427   3.106   9.119  1.7060  2.8414 -0.0897
 9283SOL    HW239309   1.304   3.165   9.170  0.4132 -2.1655  0.8437
 9284SOL     OW39310   0.870   4.398  16.832  0.1736 -0.5094  0.0213
 9284SOL    HW139311   0.776   4.398  16.851 -0.2618 -1.5967 -2.2531
 9284SOL    HW239312   0.896   4.446  16.911 -1.2304 -0.0645  0.2049
 9285SOL     OW39313   3.506   0.697   8.524 -0.1532  0.0797 -0.0726
 9285SOL    HW139314   3.460   0.661   8.449 -1.1466  0.8089  0.1927
 9285SOL    HW239315   3.440   0.754   8.562  1.8631  1.1969  1.7924
 9286SOL     OW39316   4.581   0.852  12.461  0.2495 -0.6969  0.0089
 9286SOL    HW139317   4.588   0.858  12.556 -0.9187 -1.1609  0.1233
 9286SOL    HW239318   4.517   0.920  12.440 -0.4728 -0.9433  1.4448
 9287SOL     OW39319   4.117   2.999   7.099 -0.0858 -0.3741 -0.8171
 9287SOL    HW139320   4.090   3.052   7.024 -0.5086  1.8781  0.9210
 9287SOL    HW239321   4.211   3.017   7.100 -0.2804  0.5153  1.1658
 9288SOL     OW39322   4.083   2.823  13.646 -0.4331  0.0427 -0.1353
 9288SOL    HW139323   4.004   2.782  13.612 -1.0178 -0.3250  1.6564
 9288SOL    HW239324   4.050   2.892  13.703  3.1960  1.5356  0.1723
 9289SOL     OW39325   2.401   4.180   4.863  0.0377 -0.6035 -0.1069
 9289SOL    HW139326   2.367   4.231   4.937 -1.8666 -1.3717 -0.4602
 9289SOL    HW239327   2.371   4.234   4.790 -1.8085 -2.8203 -0.9810
 9290SOL     OW39328   4.566   1.744   8.845 -0.2601  0.3647 -0.0851
 9290SOL    HW139329   4.615   1.769   8.767  3.4136 -3.4152  1.0474
 9290SOL    HW239330   4.637   1.764   8.906  0.5807 -0.4598 -0.7915
 9291SOL     OW39331   0.504   3.519   6.790  0.0715 -0.1675  0.1336
 9291SOL    HW139332   0.457   3.440   6.764  0.3096 -1.2551  3.0608
 9291SOL    HW239333   0.592   3.494   6.764  0.1212 -0.0887  0.2271
 9292SOL     OW39334   3.480   0.068   5.584 -0.8054 -0.0163 -0.1768
 9292SOL    HW139335   3.545   0.139   5.586  0.0135 -0.7818  0.6924
 9292SOL    HW239336   3.504   0.011   5.658  0.3629 -1.5418 -1.7325
 9293SOL     OW39337   1.557   1.242   0.842 -0.1797 -0.0379  0.0193
 9293SOL    HW139338   1.630   1.258   0.782 -0.1229  0.9856  0.3527
 9293SOL    HW239339   1.611   1.247   0.921 -0.2506 -0.1148  0.0725
 9294SOL     OW39340   1.170   4.513   7.856  0.0261  0.1565  0.1835
 9294SOL    HW139341   1.168   4.441   7.793 -1.8681 -0.1677  0.5997
 9294SOL    HW239342   1.078   4.540   7.861  0.1672  0.3749  1.5730
 9295SOL     OW39343   0.146   0.197   2.445  0.1675  0.4096 -0.2857
 9295SOL    HW139344   0.204   0.136   2.491  1.9242  2.2878 -0.0008
 9295SOL    HW239345   0.121   0.262   2.510  1.3148 -0.4269  0.9950
 9296SOL     OW39346   4.091   1.992  11.964  0.2450 -0.2361  0.1878
 9296SOL    HW139347   4.023   2.058  11.956 -0.7846 -1.1541  1.3225
 9296SOL    HW239348   4.042   1.913  11.941  1.2362 -1.0494  0.8429
 9297SOL     OW39349   1.672   3.168   1.517 -0.8339  0.4249  0.0692
 9297SOL    HW139350   1.672   3.123   1.432  1.6629  2.3093 -0.9415
 9297SOL    HW239351   1.762   3.149   1.543 -0.9204 -0.2206 -0.1023
 9298SOL     OW39352   1.916   3.346   5.678  0.2607 -0.2088 -0.6351
 9298SOL    HW139353   1.979   3.410   5.712 -0.1316  1.3012 -2.7434
 9298SOL    HW239354   1.835   3.371   5.722 -0.8943 -2.3477 -1.5502
 9299SOL     OW39355   1.334   4.035   8.841 -0.2423 -0.2680  0.4440
 9299SOL    HW139356   1.367   3.974   8.774  0.1806 -0.3298  0.7044
 9299SOL    HW239357   1.239   4.028   8.839 -0.2568  0.3971 -1.5702
 9300SOL     OW39358   2.309   4.662   4.554  0.1586 -0.0589 -0.5024
 9300SOL    HW139359   2.222   4.621   4.550  1.3385 -2.7556  1.8213
 9300SOL    HW239360   2.346   4.622   4.476  2.7746 -2.4180  1.9667
 9301SOL     OW39361   4.332   4.086  10.083  0.0359  0.1138  0.5714
 9301SOL    HW139362   4.411   4.104  10.135 -1.1810  2.3479  1.6421
 9301SOL    HW239363   4.275   4.047  10.149 -0.2382  1.2677  1.0276
 9302SOL     OW39364   3.980   3.166   7.973 -0.1266  0.3731 -0.3929
 9302SOL    HW139365   3.971   3.235   8.038 -1.4848  0.7801 -1.0035
 9302SOL    HW239366   4.006   3.098   8.034  1.4850 -0.3793 -1.9315
 9303SOL     OW39367   0.544   1.679  10.311 -0.1722 -0.0309 -0.1156
 9303SOL    HW139368   0.486   1.606  10.334  0.9614  0.0745  3.0548
 9303SOL    HW239369   0.627   1.636  10.327 -0.3707 -0.5105 -0.3552
 9304SOL     OW39370   3.573   1.444   6.220  0.2531  0.5033  0.1458
 9304SOL    HW139371   3.494   1.498   6.217  0.4756  0.8364  0.3062
 9304SOL    HW239372   3.635   1.515   6.237  0.2983  0.9861 -2.0386
 9305SOL     OW39373   2.370   4.084  17.350 -0.5955  0.0767 -0.4582
 9305SOL    HW139374   2.364   4.042  17.436  0.9518 -0.7058 -0.7362
 9305SOL    HW239375   2.347   4.173  17.375 -1.5846  0.5447 -3.1122
 9306SOL     OW39376   2.030   2.458   8.080 -0.3043  0.5186  0.8262
 9306SOL    HW139377   2.080   2.500   8.150  1.1831  1.0649 -0.5640
 9306SOL    HW239378   2.098   2.458   8.013  0.3603 -0.6318  1.4972
 9307SOL     OW39379   4.527   0.835  16.808  0.0393  0.1564  0.6096
 9307SOL    HW139380   4.550   0.926  16.790  0.2690  0.4687  2.5708
 9307SOL    HW239381   4.586   0.786  16.751 -0.5524 -0.0176  0.1497
 9308SOL     OW39382   3.859   1.685   0.116 -0.2712  0.0672 -0.5644
 9308SOL    HW139383   3.781   1.704   0.168  0.2353 -0.6958  0.4545
 9308SOL    HW239384   3.820   1.718   0.035 -1.4017 -1.3019 -0.5819
 9309SOL     OW39385   3.435   1.285   6.766  0.0826 -0.1301 -0.1196
 9309SOL    HW139386   3.343   1.274   6.791  0.8345  0.7178  2.9654
 9309SOL    HW239387   3.438   1.232   6.686  1.1831  0.2842 -0.3546
 9310SOL     OW39388   0.358   0.840   9.098  0.0489  0.3020  0.3646
 9310SOL    HW139389   0.401   0.867   9.180  0.1746 -2.8533  1.3406
 9310SOL    HW239390   0.314   0.921   9.075  0.1208  0.0847 -0.5192
 9311SOL     OW39391   3.063   3.366   4.657  0.1482 -0.0064  0.1794
 9311SOL    HW139392   3.120   3.439   4.683 -1.7090  0.4816  2.9213
 9311SOL    HW239393   3.007   3.362   4.735 -1.0165 -0.4231 -0.6835
 9312SOL     OW39394   3.259   0.919   7.418 -0.0813 -0.2158  0.1173
 9312SOL    HW139395   3.240   0.899   7.326  2.3952 -0.6118 -0.3032
 9312SOL    HW239396   3.187   0.872   7.460  1.1809 -1.2594  1.1253
 9313SOL     OW39397   2.549   1.750   5.779 -0.0146  0.2013  0.1505
 9313SOL    HW139398   2.579   1.833   5.743 -1.5108  0.1673 -1.1848
 9313SOL    HW239399   2.455   1.768   5.782  0.3894  2.3830  0.2264
 9314SOL     OW39400   3.977   3.610  12.046 -0.7111 -0.2965  0.3242
 9314SOL    HW139401   4.070   3.632  12.050 -0.5567 -0.7609 -0.6938
 9314SOL    HW239402   3.969   3.540  12.110 -1.6572  0.1707  0.7136
 9315SOL     OW39403   0.320   4.697  12.421 -0.2188  0.2641  0.1980
 9315SOL    HW139404   0.263   0.015  12.357 -0.7001  1.7458  1.6207
 9315SOL    HW239405   0.290   0.016  12.501 -1.6931 -0.4227  0.0142
 9316SOL     OW39406   3.551   4.628   5.789 -0.4467 -0.7313 -0.2290
 9316SOL    HW139407   3.556   4.662   5.878  1.4080 -1.1293 -0.1787
 9316SOL    HW239408   3.597   4.545   5.801 -0.2061 -0.6872 -0.8453
 9317SOL     OW39409   0.252   4.559   5.344 -0.2863 -0.1160  0.2811
 9317SOL    HW139410   0.214   4.480   5.382  2.3391 -1.6756 -0.3206
 9317SOL    HW239411   0.205   4.633   5.383  2.2772  1.6932 -0.0157
 9318SOL     OW39412   0.005   2.111   4.019  0.2005  0.4604 -0.0892
 9318SOL    HW139413   4.664   2.181   4.019 -1.1665 -0.8169  2.2016
 9318SOL    HW239414   4.679   2.040   3.979 -1.8598  2.4704 -1.0893
 9319SOL     OW39415   4.126   4.525   9.553 -0.2842 -0.2777 -0.3107
 9319SOL    HW139416   4.186   4.452   9.565  0.9936  1.0254  1.2883
 9319SOL    HW239417   4.097   4.507   9.464 -3.1222  1.0337  0.3544
 9320SOL     OW39418   0.112   4.329   0.446  0.0581 -0.3012  0.1498
 9320SOL    HW139419   0.072   4.323   0.533  1.8461  0.1513  0.9918
 9320SOL    HW239420   0.144   4.239   0.447 -1.8658 -0.9637  2.1848
 9321SOL     OW39421   3.353   3.455   3.992 -0.1952 -0.1325  0.5452
 9321SOL    HW139422   3.396   3.370   3.988 -0.0966 -0.0581 -0.0353
 9321SOL    HW239423   3.287   3.443   4.060 -0.1653  0.7428  0.7385
 9322SOL     OW39424   1.728   2.358   5.448 -0.1959  0.1351  0.1356
 9322SOL    HW139425   1.754   2.438   5.492 -0.3001  0.1492  0.1731
 9322SOL    HW239426   1.662   2.400   5.393  2.0967  0.7225 -2.1740
 9323SOL     OW39427   3.648   4.418   4.210 -0.1426  0.1338  0.0105
 9323SOL    HW139428   3.716   4.351   4.220 -0.8669 -0.7021 -0.6726
 9323SOL    HW239429   3.576   4.368   4.171 -0.0852  0.6184 -0.7347
 9324SOL     OW39430   0.388   3.416   3.250 -0.0900 -0.2930 -0.3426
 9324SOL    HW139431   0.451   3.426   3.321  2.1737 -4.0469 -1.8165
 9324SOL    HW239432   0.438   3.471   3.190  1.2408 -2.6637 -1.4467
 9325SOL     OW39433   4.617   3.307  15.929  0.6348  0.0047  0.3827
 9325SOL    HW139434   4.692   3.364  15.912  1.2505 -0.7036  0.6910
 9325SOL    HW239435   4.621   3.248  15.853 -0.3025  1.2188 -0.6092
 9326SOL     OW39436   0.168   2.808   9.115 -0.7315 -0.1314  0.6040
 9326SOL    HW139437   0.166   2.904   9.108 -0.1558 -0.0881  1.0501
 9326SOL    HW239438   0.152   2.801   9.209 -0.1079  1.0885  0.8070
 9327SOL     OW39439   2.481   3.695   4.663  0.6068  0.3196 -0.0138
 9327SOL    HW139440   2.392   3.684   4.629  1.9044 -2.9058 -2.3000
 9327SOL    HW239441   2.540   3.674   4.591  0.4555  2.5039 -0.7527
 9328SOL     OW39442   2.611   0.871   4.959  0.3368  0.0396  0.1981
 9328SOL    HW139443   2.654   0.929   5.022  1.4644 -2.3679  1.7027
 9328SOL    HW239444   2.535   0.850   5.013 -0.0691  3.1945  0.8441
 9329SOL     OW39445   1.891   2.520  15.939 -0.4708 -0.7804  0.5427
 9329SOL    HW139446   1.855   2.609  15.937  1.0516 -0.1343  2.1230
 9329SOL    HW239447   1.971   2.541  15.892  0.1007  3.2667  3.2516
 9330SOL     OW39448   4.237   3.454   4.886 -0.5319  0.6624 -0.1833
 9330SOL    HW139449   4.162   3.448   4.827 -1.0316  0.0782  0.5217
 9330SOL    HW239450   4.213   3.532   4.936 -2.1354  0.3599 -0.4973
 9331SOL     OW39451   2.885   1.209   6.088  0.6567  0.7674  0.5826
 9331SOL    HW139452   2.810   1.262   6.060 -0.6173 -1.8586 -0.9507
 9331SOL    HW239453   2.916   1.264   6.160  1.5196  1.3960 -0.2708
 9332SOL     OW39454   4.583   0.761   7.081 -0.1422 -0.0392 -0.0951
 9332SOL    HW139455   4.615   0.700   7.015 -0.5519 -0.7430  0.3611
 9332SOL    HW239456   4.642   0.833   7.060  1.2513 -1.2359 -0.2748
 9333SOL     OW39457   3.674   0.578   6.507  0.3725 -0.1957  0.6354
 9333SOL    HW139458   3.727   0.651   6.474  0.7105 -0.7710 -0.0950
 9333SOL    HW239459   3.631   0.562   6.423 -0.4462 -1.8604  1.3842
 9334SOL     OW39460   0.961   0.317   3.533  0.4756 -0.7367  0.0253
 9334SOL    HW139461   0.993   0.394   3.486 -0.6611  0.4762  1.2352
 9334SOL    HW239462   1.044   0.285   3.569  0.4699 -0.6787  0.0891
 9335SOL     OW39463   3.713   4.408   9.721 -0.6362  0.0148 -0.0019
 9335SOL    HW139464   3.798   4.442   9.751 -0.4241 -0.8999  0.4118
 9335SOL    HW239465   3.664   4.450   9.791 -3.6710  0.1939 -2.2226
 9336SOL     OW39466   3.922   2.877  14.956  0.3982 -0.1915  0.0820
 9336SOL    HW139467   4.011   2.908  14.971  0.7124 -0.7398 -0.6354
 9336SOL    HW239468   3.906   2.807  15.019  0.0948 -1.3252 -1.2489
 9337SOL     OW39469   4.460   4.064   5.150 -0.0917  0.2538 -0.2397
 9337SOL    HW139470   4.500   4.120   5.084  1.6131  0.0822  0.6563
 9337SOL    HW239471   4.509   3.982   5.143  1.2944  1.1038 -0.5153
 9338SOL     OW39472   4.263   4.449  14.240  0.0881 -0.5410  0.6165
 9338SOL    HW139473   4.359   4.454  14.248  0.0104  1.8155  0.1677
 9338SOL    HW239474   4.228   4.522  14.291  0.7305  0.7352 -0.7869
 9339SOL     OW39475   1.396   0.172   2.484 -0.2527 -0.2323  0.3096
 9339SOL    HW139476   1.344   0.243   2.519  0.7429  0.8604 -0.4268
 9339SOL    HW239477   1.479   0.216   2.464 -0.6029  0.7952  1.1379
 9340SOL     OW39478   0.150   4.051   3.657 -0.4407  0.4146 -0.4623
 9340SOL    HW139479   0.222   4.056   3.594  0.6646  1.2247  0.8715
 9340SOL    HW239480   0.115   4.140   3.650  1.2548  1.1463  0.3188
 9341SOL     OW39481   2.316   1.713   1.607  0.3892 -0.1970  0.1257
 9341SOL    HW139482   2.327   1.664   1.526  0.1317  2.2926 -1.4141
 9341SOL    HW239483   2.244   1.667   1.652  0.5683  0.1998  0.8114
 9342SOL     OW39484   0.716   4.722   8.891  0.2465 -0.2520 -0.1053
 9342SOL    HW139485   0.787   0.053   8.924  1.3552 -1.5251 -0.3200
 9342SOL    HW239486   0.683   4.677   8.969 -0.5291 -0.3478 -0.4940
 9343SOL     OW39487   2.058   4.375   4.622 -0.6191  0.3149  0.3385
 9343SOL    HW139488   2.024   4.446   4.568  0.9907  1.6082  0.9971
 9343SOL    HW239489   1.979   4.367   4.676 -0.4997  2.4035  0.8297
 9344SOL     OW39490   2.633   2.589   6.131  0.3816  0.0577  0.2303
 9344SOL    HW139491   2.594   2.511   6.170 -2.1730  1.0610 -0.3240
 9344SOL    HW239492   2.567   2.652   6.102 -2.0844 -1.9752  1.4980
 9345SOL     OW39493   1.771   2.232  16.951  0.2821  0.1896  0.0816
 9345SOL    HW139494   1.847   2.174  16.952  0.6762  0.6760 -1.1240
 9345SOL    HW239495   1.782   2.271  17.039  1.0470  1.5239 -0.5949
 9346SOL     OW39496   4.402   3.017   6.347  0.1938  0.2081 -0.3203
 9346SOL    HW139497   4.458   2.965   6.404 -0.7140 -2.8492 -2.2168
 9346SOL    HW239498   4.352   2.956   6.293  0.0001 -0.2544  0.3895
 9347SOL     OW39499   3.115   0.534  17.013  0.5445  0.1720 -0.0863
 9347SOL    HW139500   3.029   0.525  16.972  1.4808 -0.6893 -1.8717
 9347SOL    HW239501   3.111   0.625  17.043  1.3713 -0.2679  1.3913
 9348SOL     OW39502   3.267   4.722   2.247 -0.2316  0.2052  0.0554
 9348SOL    HW139503   3.285   0.090   2.261 -3.5305  0.6662  1.3761
 9348SOL    HW239504   3.176   4.713   2.278 -0.1824 -0.7369 -0.0729
 9349SOL     OW39505   3.279   0.238  14.819  0.4772 -0.1907 -0.2811
 9349SOL    HW139506   3.250   0.328  14.805  0.5938 -0.2534 -0.9120
 9349SOL    HW239507   3.218   0.221  14.891 -0.3778  0.9527 -0.7448
 9350SOL     OW39508   1.136   0.604   2.520 -0.3079  0.1906 -0.1349
 9350SOL    HW139509   1.114   0.661   2.594 -1.2685 -0.4725  0.0921
 9350SOL    HW239510   1.214   0.643   2.481  0.2943 -0.5362  0.3377
 9351SOL     OW39511   0.968   4.402   2.459 -0.0950  0.3851  0.1789
 9351SOL    HW139512   1.063   4.408   2.451 -0.4365  1.2653 -3.1232
 9351SOL    HW239513   0.951   4.308   2.468  2.4375 -0.1546 -0.6306
 9352SOL     OW39514   2.939   0.688  16.121  0.0241  0.6690 -0.0981
 9352SOL    HW139515   2.975   0.743  16.051  0.3269  2.1050  1.1821
 9352SOL    HW239516   2.845   0.686  16.107 -0.0629 -2.0003  0.8549
 9353SOL     OW39517   0.077   1.269  13.426 -0.3430  0.1152  0.4077
 9353SOL    HW139518   0.088   1.299  13.517  1.3644  0.4382  0.0965
 9353SOL    HW239519   0.126   1.337  13.380  1.2636 -0.5954  1.0371
 9354SOL     OW39520   0.818   0.978   4.597  0.1922  0.6049  0.1745
 9354SOL    HW139521   0.898   0.965   4.649  1.2961 -0.7237 -1.8527
 9354SOL    HW239522   0.850   0.947   4.512  1.1871  1.0148  0.3927
 9355SOL     OW39523   1.247   0.021   3.792  0.0514 -0.1257  0.1709
 9355SOL    HW139524   1.299   4.666   3.800 -0.2239  0.0151  3.4227
 9355SOL    HW239525   1.205   0.020   3.878 -2.7657 -0.6533 -1.2211
 9356SOL     OW39526   4.484   2.484   5.192 -0.7662 -0.8580  0.2239
 9356SOL    HW139527   4.417   2.416   5.199 -0.7400 -0.8886  0.1727
 9356SOL    HW239528   4.431   2.562   5.207  1.5040  0.4530  1.4616
 9357SOL     OW39529   1.796   0.479   6.075  0.3534 -0.2779 -0.3803
 9357SOL    HW139530   1.833   0.504   6.160  0.4647 -0.8401 -0.2627
 9357SOL    HW239531   1.842   0.397   6.055  2.1635  0.8019 -0.6405
 9358SOL     OW39532   4.223   3.476  12.848 -0.1646 -1.0128  0.9833
 9358SOL    HW139533   4.184   3.539  12.788  3.1713 -0.9920 -1.1299
 9358SOL    HW239534   4.142   3.462  12.897 -0.8377 -2.9904 -0.6659
 9359SOL     OW39535   4.107   0.674  16.317 -0.3058 -0.3584  0.2213
 9359SOL    HW139536   4.033   0.729  16.290  0.4393 -0.0322 -1.1130
 9359SOL    HW239537   4.159   0.683  16.238  0.6744 -1.4973  0.7407
 9360SOL     OW39538   2.085   0.754   5.728 -0.2366  0.0802  0.1994
 9360SOL    HW139539   2.098   0.848   5.735  1.3318 -0.0818 -0.4683
 9360SOL    HW239540   2.171   0.719   5.750 -0.3049  0.7472  1.4860
 9361SOL     OW39541   1.649   3.872   6.405  0.5014  0.3828 -0.0908
 9361SOL    HW139542   1.641   3.796   6.347 -0.2482  1.5068 -1.4765
 9361SOL    HW239543   1.566   3.909   6.373 -1.4871 -3.7036  0.2558
 9362SOL     OW39544   2.802   2.940   3.570 -0.0419 -0.2255 -0.0897
 9362SOL    HW139545   2.777   2.849   3.552  2.1715 -0.8306 -0.0348
 9362SOL    HW239546   2.813   2.928   3.664  1.7478 -0.0203 -0.2749
 9363SOL     OW39547   4.680   3.965   4.057 -0.6936  0.0507 -0.0006
 9363SOL    HW139548   0.038   3.924   4.083 -1.6919  0.5165  3.8747
 9363SOL    HW239549   4.623   3.902   4.101  1.7108 -1.3583  1.0787
 9364SOL     OW39550   3.101   1.681   7.252 -0.2405  0.3565 -0.1691
 9364SOL    HW139551   3.057   1.670   7.336 -0.0407  5.1016  0.5314
 9364SOL    HW239552   3.111   1.776   7.246  4.8622 -0.0564  1.2895
 9365SOL     OW39553   0.676   4.456  11.484 -0.1338  0.1556  0.2239
 9365SOL    HW139554   0.696   4.384  11.425  1.0261  0.7471 -0.0892
 9365SOL    HW239555   0.587   4.483  11.463  0.3574  0.7040 -1.1163
 9366SOL     OW39556   3.214   1.035  15.725 -0.0313  0.1321  0.0261
 9366SOL    HW139557   3.278   1.100  15.753  0.5712 -1.6383  2.7068
 9366SOL    HW239558   3.147   1.061  15.788  0.0396 -0.1887  0.2334
 9367SOL     OW39559   4.454   0.587   7.238  0.2896  0.2914  0.4310
 9367SOL    HW139560   4.420   0.524   7.173  1.5507 -0.0625  0.1087
 9367SOL    HW239561   4.521   0.631   7.185 -1.8692  3.4072  0.2860
 9368SOL     OW39562   2.551   2.917   9.040  0.2228 -0.0035 -0.4608
 9368SOL    HW139563   2.583   2.830   9.014  0.2179  1.1757 -4.4921
 9368SOL    HW239564   2.552   2.959   8.954  0.6517  1.9535  0.5006
 9369SOL     OW39565   2.092   0.951   3.034  0.2853  0.2008 -0.6985
 9369SOL    HW139566   2.169   0.931   3.087 -1.7789 -1.5259  1.6339
 9369SOL    HW239567   2.028   0.965   3.104  0.1612  1.9689 -1.1533
 9370SOL     OW39568   1.199   4.639   4.114  0.3787 -0.0303 -0.0127
 9370SOL    HW139569   1.128   4.596   4.067 -0.3847  2.4786 -1.1226
 9370SOL    HW239570   1.260   4.567   4.129 -1.1629 -1.0649  1.3590
 9371SOL     OW39571   3.235   4.332  10.164 -0.2240 -0.1425  0.3016
 9371SOL    HW139572   3.224   4.303  10.255  2.5474  0.0485  0.6896
 9371SOL    HW239573   3.172   4.403  10.160 -0.1618  0.0273  2.4509
 9372SOL     OW39574   4.198   3.488   8.105  0.2490 -0.2833  0.0145
 9372SOL    HW139575   4.233   3.435   8.177 -0.1402 -1.0329 -0.3487
 9372SOL    HW239576   4.137   3.542   8.155  1.0354  0.7335 -0.1297
 9373SOL     OW39577   3.393   3.293   5.789 -0.2240  0.3191  0.0157
 9373SOL    HW139578   3.453   3.361   5.820  1.9584 -0.9790 -1.3651
 9373SOL    HW239579   3.326   3.298   5.857  1.1276  0.1824  1.3443
 9374SOL     OW39580   4.676   0.483  14.289 -0.0244 -1.0125 -0.6820
 9374SOL    HW139581   4.706   0.449  14.373  2.3065 -0.5314 -1.3239
 9374SOL    HW239582   0.018   0.442  14.233  2.3548  2.3920 -0.3184
 9375SOL     OW39583   3.686   2.170   2.440  0.5713 -0.0391  0.5670
 9375SOL    HW139584   3.605   2.220   2.438  0.8698  0.5251  2.4786
 9375SOL    HW239585   3.671   2.112   2.366 -0.4108 -0.5071  1.1428
 9376SOL     OW39586   1.754   0.401   2.217  0.3354  0.4168 -0.1710
 9376SOL    HW139587   1.814   0.471   2.192 -0.6977  1.9088  1.5104
 9376SOL    HW239588   1.790   0.325   2.172  0.0467  0.5097 -0.5584
 9377SOL     OW39589   4.578   4.328   2.507 -0.0779  0.1091 -0.0371
 9377SOL    HW139590   4.598   4.413   2.469 -0.0750 -0.4213 -1.2177
 9377SOL    HW239591   4.529   4.358   2.585  1.0888  1.3472  0.2161
 9378SOL     OW39592   2.034   4.359  10.612 -0.0005  0.4912  0.0129
 9378SOL    HW139593   2.017   4.447  10.580 -0.6612 -0.1573 -1.4485
 9378SOL    HW239594   2.053   4.314  10.529  1.0047 -0.0479  0.5305
 9379SOL     OW39595   2.896   4.178   6.001  0.0531 -0.2147  0.0786
 9379SOL    HW139596   2.941   4.098   5.973 -1.1318 -1.4594  1.7300
 9379SOL    HW239597   2.940   4.187   6.085  2.4057  0.3721 -1.2288
 9380SOL     OW39598   4.187   0.140  17.579 -0.9212  0.0528 -0.3346
 9380SOL    HW139599   4.212   0.232  17.585  1.3671 -0.4461 -2.0972
 9380SOL    HW239600   4.226   0.109  17.498  2.7214 -1.7563  2.0895
 9381SOL     OW39601   1.121   4.253  10.438 -0.1740 -0.2765  0.0955
 9381SOL    HW139602   1.050   4.200  10.401  0.6699 -0.1436 -1.7147
 9381SOL    HW239603   1.089   4.342  10.420  0.1669 -0.5901 -2.0587
 9382SOL     OW39604   1.484   3.897   8.605 -0.1199  0.4944  0.2843
 9382SOL    HW139605   1.481   3.832   8.536  1.3954 -0.9090  1.5332
 9382SOL    HW239606   1.558   3.857   8.651  0.8072  0.9367 -0.8270
 9383SOL     OW39607   4.177   0.799   7.260 -0.4572  0.1414 -0.0216
 9383SOL    HW139608   4.130   0.876   7.230 -0.0166  0.1218 -0.7438
 9383SOL    HW239609   4.238   0.829   7.328  0.0510 -4.0137  1.3639
 9384SOL     OW39610   0.468   3.243  17.165  0.2446  0.0621 -0.0150
 9384SOL    HW139611   0.449   3.198  17.082  0.0169 -3.5962  2.0304
 9384SOL    HW239612   0.382   3.239  17.206  0.8834  1.8601  1.5022
 9385SOL     OW39613   0.754   0.852  10.278 -0.1048  0.3016 -0.6061
 9385SOL    HW139614   0.828   0.792  10.261  0.0930 -0.6224  3.6847
 9385SOL    HW239615   0.783   0.933  10.236  0.9998 -0.7727 -1.9203
 9386SOL     OW39616   3.223   3.824   5.668  0.1570 -0.5035 -0.5178
 9386SOL    HW139617   3.201   3.743   5.714 -2.2417  0.1191 -0.5597
 9386SOL    HW239618   3.301   3.803   5.618  0.3056 -0.6389 -0.2327
 9387SOL     OW39619   0.452   4.111   5.186  1.1581 -0.3339 -1.1384
 9387SOL    HW139620   0.542   4.100   5.157  0.5743 -1.7878 -2.4137
 9387SOL    HW239621   0.410   4.136   5.103  0.9069  0.4528 -0.7649
 9388SOL     OW39622   3.257   2.570  10.826 -0.0097  0.1991 -0.0756
 9388SOL    HW139623   3.194   2.557  10.754  1.5185  0.4921 -1.4723
 9388SOL    HW239624   3.340   2.565  10.779  0.3795  0.3848  0.6025
 9389SOL     OW39625   2.328   0.697   5.329 -0.1866 -0.0426 -0.4953
 9389SOL    HW139626   2.248   0.654   5.298 -0.5773  0.1233  0.2876
 9389SOL    HW239627   2.358   0.628   5.388 -0.8316  2.4282  2.6867
 9390SOL     OW39628   0.906   2.902   2.805  0.7177 -0.2434 -0.1073
 9390SOL    HW139629   0.858   2.869   2.729  0.6247 -0.3343 -0.0077
 9390SOL    HW239630   0.913   2.822   2.857 -2.3815 -1.3080 -1.3266
 9391SOL     OW39631   1.640   1.596   6.249 -0.1947  0.2184  0.3020
 9391SOL    HW139632   1.681   1.640   6.324 -0.4848  1.3370 -0.1904
 9391SOL    HW239633   1.556   1.642   6.255 -0.0680  0.5770 -0.7399
 9392SOL     OW39634   3.623   1.328   8.420  0.0609 -0.3938 -0.1830
 9392SOL    HW139635   3.661   1.357   8.337 -1.1213  0.7839 -0.3140
 9392SOL    HW239636   3.663   1.241   8.419 -1.2269 -1.0168  4.3660
 9393SOL     OW39637   0.020   3.620   3.349 -0.2576  0.2225  0.4492
 9393SOL    HW139638   0.097   3.669   3.378  0.3454  0.1633 -1.0144
 9393SOL    HW239639   0.050   3.557   3.284  0.4063  0.6107  0.3732
 9394SOL     OW39640   3.279   1.133   3.382  0.4421  0.1908  0.3926
 9394SOL    HW139641   3.205   1.130   3.443  0.9075 -0.0887  0.9450
 9394SOL    HW239642   3.240   1.191   3.316  2.5317  2.5284  1.1996
 9395SOL     OW39643   4.266   0.212  16.660  0.1251 -0.0766  0.9318
 9395SOL    HW139644   4.327   0.235  16.590  0.4722  0.0018  1.2556
 9395SOL    HW239645   4.233   0.301  16.673  1.1914  0.6146 -1.1388
 9396SOL     OW39646   3.629   2.797   7.440 -0.3821  0.6155 -0.0384
 9396SOL    HW139647   3.634   2.702   7.443  2.8544  0.7494 -1.2019
 9396SOL    HW239648   3.723   2.814   7.444  0.2118 -2.7621  0.2035
 9397SOL     OW39649   3.752   1.869   0.469 -0.1769  0.1145  0.0902
 9397SOL    HW139650   3.710   1.856   0.384 -0.1650 -1.5792  0.3282
 9397SOL    HW239651   3.841   1.898   0.449 -0.6037  0.0235 -1.9045
 9398SOL     OW39652   3.877   1.630  14.721 -0.6002 -0.1338 -0.5499
 9398SOL    HW139653   3.957   1.674  14.750 -2.0204  2.1683 -0.1167
 9398SOL    HW239654   3.840   1.700  14.667 -0.5852  0.2477 -0.0667
 9399SOL     OW39655   4.467   4.009  11.742 -0.5034 -0.3322  0.6340
 9399SOL    HW139656   4.557   4.036  11.724 -1.2652  0.3804 -2.0446
 9399SOL    HW239657   4.432   4.025  11.655  0.7968  0.2047  0.2085
 9400SOL     OW39658   2.467   0.803   1.249 -0.0294  0.0578 -0.4019
 9400SOL    HW139659   2.494   0.838   1.334 -1.7370 -1.4540  0.7472
 9400SOL    HW239660   2.545   0.833   1.200  1.0738  0.2494  1.4769
 9401SOL     OW39661   4.402   1.587   5.145 -0.0084  0.0868  0.2191
 9401SOL    HW139662   4.435   1.574   5.233 -0.5223  0.9656  0.5416
 9401SOL    HW239663   4.350   1.663   5.172  0.2116  0.3461 -0.0886
 9402SOL     OW39664   3.769   4.007   3.881  0.5928  0.4307  0.2005
 9402SOL    HW139665   3.772   3.920   3.842  1.2313 -0.1597  1.5722
 9402SOL    HW239666   3.761   3.990   3.975  2.3926  0.5143  0.3713
 9403SOL     OW39667   4.652   2.934   8.164  0.1263 -0.4761 -0.1414
 9403SOL    HW139668   4.630   2.855   8.212  0.8973  0.2130  1.3649
 9403SOL    HW239669   0.011   2.960   8.204  0.3818 -0.7694 -0.4873
 9404SOL     OW39670   0.199   1.989   5.672  0.5971 -0.3346  0.3118
 9404SOL    HW139671   0.253   1.941   5.609  2.5486  3.3669 -0.8155
 9404SOL    HW239672   0.262   2.038   5.724 -0.0314  0.0643  0.6895
 9405SOL     OW39673   2.274   1.511  16.744  0.0915  0.3566 -0.1661
 9405SOL    HW139674   2.203   1.466  16.789  0.0821  0.1784 -0.3596
 9405SOL    HW239675   2.334   1.536  16.815 -1.5801  2.1379  0.6412
 9406SOL     OW39676   0.047   4.497  10.984  0.4310 -0.7805 -0.2789
 9406SOL    HW139677   4.722   4.416  10.969 -3.3613  1.3299  1.0241
 9406SOL    HW239678   0.028   4.527  11.073 -2.7028  1.1521 -1.6362
 9407SOL     OW39679   0.837   2.679   6.446 -0.3875 -0.5575  0.5014
 9407SOL    HW139680   0.897   2.605   6.436  0.3787 -0.0104  1.0878
 9407SOL    HW239681   0.874   2.749   6.392 -1.9528 -0.4262 -0.4136
 9408SOL     OW39682   1.194   2.142   7.366  0.3803  0.7354  0.3916
 9408SOL    HW139683   1.101   2.129   7.348  0.5389  1.8780 -1.2176
 9408SOL    HW239684   1.191   2.192   7.447 -0.2304  0.7013  0.3869
 9409SOL     OW39685   2.977   0.112  11.024  0.3646  0.2651 -0.2273
 9409SOL    HW139686   2.964   0.203  11.001  1.6524  0.1961 -1.2199
 9409SOL    HW239687   3.056   0.115  11.079 -0.6175 -1.0478  1.2768
 9410SOL     OW39688   1.245   4.278  11.004 -0.1241 -0.2641  0.4898
 9410SOL    HW139689   1.309   4.332  10.958 -0.8679 -1.1307 -1.5720
 9410SOL    HW239690   1.182   4.270  10.932  2.2423 -1.3163 -1.4632
 9411SOL     OW39691   3.949   3.443   3.281 -0.2530 -0.0715 -0.4671
 9411SOL    HW139692   4.038   3.437   3.317  0.2496  0.1085 -1.6672
 9411SOL    HW239693   3.908   3.365   3.318 -0.6668  1.0575  1.4700
 9412SOL     OW39694   1.713   2.452   4.717  0.6298  0.2143  0.3297
 9412SOL    HW139695   1.618   2.452   4.713  0.5247 -0.4195  2.9352
 9412SOL    HW239696   1.721   2.447   4.812 -2.1685 -1.4424  0.4760
 9413SOL     OW39697   1.129   4.221   1.237  0.0448  0.2348 -0.3282
 9413SOL    HW139698   1.077   4.201   1.315  0.9095 -0.3468  0.0991
 9413SOL    HW239699   1.180   4.140   1.230 -1.3623 -0.5217 -1.7458
 9414SOL     OW39700   0.818   1.976   9.187 -0.3403  0.8115 -0.0747
 9414SOL    HW139701   0.760   2.034   9.237 -0.1045  0.3437  0.7292
 9414SOL    HW239702   0.810   2.000   9.094  4.3136 -1.6450 -1.0839
 9415SOL     OW39703   0.738   2.052   2.499 -0.0794  0.1777 -0.4838
 9415SOL    HW139704   0.713   1.962   2.519 -1.7426  0.5233 -0.9863
 9415SOL    HW239705   0.702   2.101   2.573 -2.5550 -1.8987 -0.3113
 9416SOL     OW39706   3.711   2.509   7.462 -0.3378 -0.4443 -0.5479
 9416SOL    HW139707   3.796   2.502   7.419  1.0219  0.6464  1.9650
 9416SOL    HW239708   3.737   2.443   7.526 -1.8334 -1.0088 -0.5230
 9417SOL     OW39709   1.905   0.930  14.403 -0.9338 -0.4145 -0.7463
 9417SOL    HW139710   1.965   0.856  14.401 -1.7564 -1.1262  0.6625
 9417SOL    HW239711   1.917   0.956  14.495  0.0672  0.0235 -1.0044
 9418SOL     OW39712   3.328   3.613   4.468 -0.8419  0.1279 -0.1545
 9418SOL    HW139713   3.324   3.708   4.477 -1.0336 -0.1560  2.7054
 9418SOL    HW239714   3.306   3.585   4.557  0.4822  1.5662  0.6352
 9419SOL     OW39715   0.031   2.911  17.257 -0.2291  0.6267  0.2862
 9419SOL    HW139716   0.080   2.838  17.294 -0.1986 -0.0748 -1.1649
 9419SOL    HW239717   0.010   2.970  17.330 -1.0633 -0.9869  1.3609
 9420SOL     OW39718   4.504   1.333   6.946 -0.1874 -0.6157 -0.1781
 9420SOL    HW139719   4.447   1.348   6.871  0.7528  0.7140 -0.6389
 9420SOL    HW239720   4.484   1.414   6.993  1.5938 -0.3067  0.0535
 9421SOL     OW39721   2.125   1.320   0.928  0.2839  0.4694  0.6175
 9421SOL    HW139722   2.051   1.265   0.952  0.4304  0.0773  0.1609
 9421SOL    HW239723   2.135   1.353   1.017  3.0339  0.8376  0.1509
 9422SOL     OW39724   0.166   0.705  15.557  0.3038 -0.0424  0.4476
 9422SOL    HW139725   0.212   0.788  15.543 -1.3078  1.3030  3.1974
 9422SOL    HW239726   0.218   0.665  15.627  2.9406 -0.0809 -1.5234
 9423SOL     OW39727   0.415   1.717   3.886  0.4027  0.8531  0.0612
 9423SOL    HW139728   0.337   1.704   3.940  0.2165 -0.8312 -0.6061
 9423SOL    HW239729   0.473   1.655   3.930 -0.0523  1.0520  0.9471
 9424SOL     OW39730   1.489   0.507   3.316  0.1500 -0.4967 -0.4409
 9424SOL    HW139731   1.422   0.531   3.251 -0.5530  0.1522  0.5321
 9424SOL    HW239732   1.504   0.414   3.302  0.2999 -0.4175 -0.8137
 9425SOL     OW39733   4.322   3.600   7.859  0.7698  0.1096  0.0591
 9425SOL    HW139734   4.392   3.536   7.866 -0.0260 -0.6075  1.4180
 9425SOL    HW239735   4.283   3.587   7.946 -2.4485  1.8060 -1.1602
 9426SOL     OW39736   2.062   4.479  17.673  0.1901 -0.2304  0.3821
 9426SOL    HW139737   2.067   4.565  17.630  0.3642 -0.5626 -0.2616
 9426SOL    HW239738   2.145   4.445  17.640  0.1792  0.2213 -0.1219
 9427SOL     OW39739   4.350   3.862   4.465  0.3001  0.4489  0.2456
 9427SOL    HW139740   4.347   3.892   4.374 -3.4828 -0.3166  0.0858
 9427SOL    HW239741   4.424   3.802   4.456  0.6631  1.0711 -0.8673
 9428SOL     OW39742   1.799   1.081   5.070 -0.1569 -0.2317  0.2662
 9428SOL    HW139743   1.799   1.109   4.978  2.3488 -0.3389  0.2433
 9428SOL    HW239744   1.738   1.007   5.073  1.0887 -1.1488  2.2092
 9429SOL     OW39745   4.582   1.879   3.981 -0.1282  0.2442  0.1550
 9429SOL    HW139746   4.511   1.844   3.927  1.8851  0.6574 -2.7520
 9429SOL    HW239747   4.534   1.898   4.062 -3.0380  0.8397 -1.7019
 9430SOL     OW39748   0.418   2.115  10.927  0.5719 -0.0619  0.3872
 9430SOL    HW139749   0.366   2.160  10.994 -0.2400  0.5682 -0.6748
 9430SOL    HW239750   0.464   2.182  10.877 -2.8931  2.0091  0.0051
 9431SOL     OW39751   2.170   4.000   0.283 -0.3473  0.4089  0.4126
 9431SOL    HW139752   2.119   4.046   0.349 -0.3214  1.3535 -0.2316
 9431SOL    HW239753   2.214   3.927   0.328 -0.7077 -0.2788 -0.3420
 9432SOL     OW39754   0.671   4.336   2.301 -0.0097  0.3853  0.1544
 9432SOL    HW139755   0.682   4.422   2.262  0.4150  0.2871  0.0533
 9432SOL    HW239756   0.759   4.329   2.338  0.0142 -1.2281 -0.2099
 9433SOL     OW39757   0.856   3.549   3.217  0.6744 -0.3531  0.0643
 9433SOL    HW139758   0.909   3.604   3.159 -1.0232  1.8958  0.6321
 9433SOL    HW239759   0.922   3.513   3.275 -0.5069 -0.8551  1.1067
 9434SOL     OW39760   2.950   3.726   8.500  0.0723 -0.0991 -0.4006
 9434SOL    HW139761   3.042   3.755   8.502  0.1918 -0.4909 -0.2107
 9434SOL    HW239762   2.915   3.793   8.559  0.8866  0.9306 -1.0666
 9435SOL     OW39763   0.176   1.055   8.450 -0.3539 -0.2823 -0.5425
 9435SOL    HW139764   0.232   0.979   8.438  0.0490  0.2668 -2.1368
 9435SOL    HW239765   0.155   1.046   8.543  1.6742 -0.9136 -0.1555
 9436SOL     OW39766   1.337   1.322   8.330  0.0450  0.5372  0.4093
 9436SOL    HW139767   1.265   1.259   8.338  1.4280 -1.0197  0.6239
 9436SOL    HW239768   1.314   1.370   8.409 -1.2048 -0.3738  0.6019
 9437SOL     OW39769   3.235   0.607   6.247 -0.3936  0.1320  0.6223
 9437SOL    HW139770   3.230   0.670   6.175 -0.1903 -1.5138 -0.8107
 9437SOL    HW239771   3.190   0.531   6.211 -1.0846  1.0629 -0.4686
 9438SOL     OW39772   3.462   4.086   7.192  0.3927 -0.1638  0.2677
 9438SOL    HW139773   3.498   4.126   7.271  0.9768 -1.2968  0.5776
 9438SOL    HW239774   3.433   4.164   7.146  3.0578  0.0403 -1.0807
 9439SOL     OW39775   4.143   1.228   4.684  0.4854 -0.1473 -0.1356
 9439SOL    HW139776   4.139   1.133   4.697  1.7309 -0.2111 -0.2670
 9439SOL    HW239777   4.237   1.245   4.690  0.5750 -0.9606  0.9246
 9440SOL     OW39778   2.484   1.714   2.600  0.4722  0.0018  0.3946
 9440SOL    HW139779   2.562   1.768   2.586  1.0393 -1.1402 -0.8625
 9440SOL    HW239780   2.456   1.753   2.683 -2.6823 -1.9010  0.2065
 9441SOL     OW39781   1.753   4.598  13.591  0.5070  0.0788  0.4461
 9441SOL    HW139782   1.755   4.612  13.686  2.1725 -0.4700  0.4910
 9441SOL    HW239783   1.715   4.511  13.583 -2.2821  1.6418 -2.9647
 9442SOL     OW39784   0.889   1.516   4.297  0.1550 -0.1243  0.1387
 9442SOL    HW139785   0.944   1.489   4.223  0.5505  0.0958  0.3525
 9442SOL    HW239786   0.933   1.592   4.335  0.8017 -0.0105 -0.8317
 9443SOL     OW39787   4.175   0.352   8.858  0.0243 -0.4645 -0.5253
 9443SOL    HW139788   4.193   0.328   8.767 -3.0325  0.2286 -1.3075
 9443SOL    HW239789   4.080   0.356   8.864 -0.0217 -2.3621  0.0056
 9444SOL     OW39790   0.478   3.422   7.271  0.3709 -0.2868 -0.4481
 9444SOL    HW139791   0.549   3.422   7.334 -0.1293  1.7904  0.1204
 9444SOL    HW239792   0.430   3.499   7.303  0.2597  0.5423 -2.5948
 9445SOL     OW39793   1.635   0.587  10.826 -0.3264 -0.3021 -0.0737
 9445SOL    HW139794   1.575   0.621  10.892  0.5404 -0.9954  1.0664
 9445SOL    HW239795   1.611   0.494  10.826  2.3916 -1.0104 -2.6299
 9446SOL     OW39796   0.435   3.153   2.067  0.1687 -0.4679  0.0460
 9446SOL    HW139797   0.370   3.212   2.028  2.5604  2.0501 -0.2044
 9446SOL    HW239798   0.390   3.141   2.151 -0.2178  1.5756  0.1368
 9447SOL     OW39799   1.713   3.103  10.689 -0.2966 -0.1674  0.5632
 9447SOL    HW139800   1.639   3.143  10.734  1.6403 -0.9522  4.4201
 9447SOL    HW239801   1.744   3.190  10.663  1.0306 -0.3132  1.6515
 9448SOL     OW39802   1.971   3.004   6.326  0.4967 -0.0361 -0.4150
 9448SOL    HW139803   1.978   3.100   6.324  2.4075 -0.2287 -2.2301
 9448SOL    HW239804   1.979   2.987   6.233  2.1705  1.9486 -0.6221
 9449SOL     OW39805   0.101   0.507   7.177  0.3044  0.6974 -0.6546
 9449SOL    HW139806   0.040   0.443   7.215  1.8870  0.0469  0.7738
 9449SOL    HW239807   0.078   0.510   7.084 -2.5160  1.0938  0.0490
 9450SOL     OW39808   3.553   0.063   3.587 -0.2513  0.6190  0.3008
 9450SOL    HW139809   3.641   0.046   3.553 -0.8092 -0.6454 -0.5323
 9450SOL    HW239810   3.585   0.090   3.673 -0.2786  0.8759  0.2296
 9451SOL     OW39811   3.922   0.434   2.414  0.3247  0.0617 -0.3091
 9451SOL    HW139812   3.970   0.505   2.372 -0.8503  0.8386 -0.3181
 9451SOL    HW239813   3.998   0.376   2.424 -0.0827 -0.4200  0.0075
 9452SOL     OW39814   0.547   3.136   9.813  0.0128 -0.0224  0.1258
 9452SOL    HW139815   0.552   3.230   9.798  0.8946 -0.0187  0.4404
 9452SOL    HW239816   0.596   3.119   9.894 -1.3739 -0.8777  0.7902
 9453SOL     OW39817   4.199   2.004   8.373  0.1191 -0.4442 -0.2788
 9453SOL    HW139818   4.120   2.045   8.409  0.3096  0.8191 -1.2831
 9453SOL    HW239819   4.166   1.974   8.288  0.4991 -1.0013 -0.2349
 9454SOL     OW39820   1.844   0.704   5.909 -0.3749 -0.1289 -0.2218
 9454SOL    HW139821   1.926   0.746   5.881 -0.3719  0.8383  1.2438
 9454SOL    HW239822   1.866   0.615   5.939 -1.0074 -0.3731 -0.4910
 9455SOL     OW39823   1.733   3.212   8.277  0.4326 -0.0700  0.2203
 9455SOL    HW139824   1.776   3.286   8.320  2.1419 -1.5864  1.1234
 9455SOL    HW239825   1.754   3.239   8.188 -0.5111  0.4459  0.1643
 9456SOL     OW39826   0.830   2.513   2.347  0.2678  0.3362 -0.8272
 9456SOL    HW139827   0.756   2.558   2.389  1.7581  0.5134  1.5891
 9456SOL    HW239828   0.783   2.434   2.321 -1.8399  0.8271  1.4119
 9457SOL     OW39829   4.430   4.590   4.921  0.6445 -0.1906  0.0690
 9457SOL    HW139830   4.501   4.644   4.886  1.2309 -0.7405  0.4109
 9457SOL    HW239831   4.486   4.524   4.963  1.3832  0.5197  0.1871
 9458SOL     OW39832   1.481   2.333   6.365  0.5055  0.1174 -0.6775
 9458SOL    HW139833   1.471   2.393   6.292  2.0513  0.8886 -0.2516
 9458SOL    HW239834   1.571   2.306   6.350  0.6614  0.2672 -0.0260
 9459SOL     OW39835   4.348   4.499  10.713 -0.2247 -0.0858 -0.4151
 9459SOL    HW139836   4.256   4.501  10.737 -0.4038 -0.1804 -1.0846
 9459SOL    HW239837   4.348   4.570  10.648 -1.4006 -0.6283 -1.0066
 9460SOL     OW39838   0.943   1.240   9.396  0.1675  0.2297 -0.2276
 9460SOL    HW139839   1.016   1.287   9.436 -0.8902  0.0824  1.8343
 9460SOL    HW239840   0.865   1.285   9.430  0.0930 -0.6905  0.7755
 9461SOL     OW39841   0.271   4.025   9.714 -0.1485  0.5640  0.5005
 9461SOL    HW139842   0.312   4.084   9.651 -1.0707 -0.7718 -1.3475
 9461SOL    HW239843   0.238   4.092   9.773  0.0810  0.5302  0.6643
 9462SOL     OW39844   2.111   4.603  15.642 -0.7193  0.3962 -0.1297
 9462SOL    HW139845   2.094   4.633  15.732  1.8737 -0.0221  0.4752
 9462SOL    HW239846   2.028   4.565  15.614 -1.6368 -0.0002  3.0484
 9463SOL     OW39847   2.800   0.877   5.821 -0.6321  0.0185  0.3710
 9463SOL    HW139848   2.842   0.962   5.803 -0.6438  0.1645  1.0452
 9463SOL    HW239849   2.856   0.847   5.892 -3.1432 -0.9798  1.9282
 9464SOL     OW39850   4.649   3.210  11.330 -0.1549  0.7236  0.2020
 9464SOL    HW139851   4.681   3.127  11.292 -0.0223  1.1684 -0.6616
 9464SOL    HW239852   4.573   3.217  11.272  0.8160 -1.3067 -1.3347
 9465SOL     OW39853   0.259   2.859   8.832  0.0733  0.5256 -0.4367
 9465SOL    HW139854   0.294   2.797   8.897  1.0384 -0.2086 -1.6424
 9465SOL    HW239855   0.194   2.905   8.884 -0.4036  1.5853 -1.9804
 9466SOL     OW39856   0.318   2.812   7.814 -0.2515  0.1490  0.0708
 9466SOL    HW139857   0.257   2.740   7.827 -0.3342  0.5784  2.0817
 9466SOL    HW239858   0.376   2.805   7.889  0.9458 -0.1684 -0.8795
 9467SOL     OW39859   1.151   0.340   4.410  0.5457 -0.1988  0.1147
 9467SOL    HW139860   1.158   0.247   4.388 -0.7133 -0.0355 -1.0002
 9467SOL    HW239861   1.235   0.357   4.451  1.4742  0.3781 -2.0357
 9468SOL     OW39862   3.761   1.427  10.994 -0.1624  0.0980 -0.2176
 9468SOL    HW139863   3.788   1.485  11.066 -0.6504  1.9212 -1.5178
 9468SOL    HW239864   3.745   1.490  10.924 -1.2662 -0.1802 -0.2248
 9469SOL     OW39865   2.384   0.171  10.181 -0.4761 -0.1761  0.2425
 9469SOL    HW139866   2.316   0.238  10.171  2.1094  2.1166 -2.1997
 9469SOL    HW239867   2.463   0.225  10.193 -1.1911  1.0404 -0.5502
 9470SOL     OW39868   4.625   1.348   9.119  0.0826 -0.0107 -0.4090
 9470SOL    HW139869   4.687   1.420   9.132 -0.7941  0.8069 -0.7674
 9470SOL    HW239870   4.610   1.356   9.025 -0.6077  1.3471 -0.1906
 9471SOL     OW39871   3.420   0.614   3.545  0.2584 -0.0324  0.4475
 9471SOL    HW139872   3.447   0.705   3.528 -0.8085 -0.2912 -2.6701
 9471SOL    HW239873   3.488   0.588   3.608  0.9035 -0.1447 -0.2901
 9472SOL     OW39874   3.072   0.811   3.958  0.1630  0.1399 -0.5935
 9472SOL    HW139875   3.160   0.838   3.931 -0.1240 -0.1517 -1.8248
 9472SOL    HW239876   3.066   0.730   3.909 -0.6195 -0.1147 -0.0695
 9473SOL     OW39877   3.134   4.328   8.613  0.4445  0.5128  0.5396
 9473SOL    HW139878   3.217   4.337   8.661  0.2734 -1.7589  1.2741
 9473SOL    HW239879   3.068   4.340   8.681 -0.5730  1.3782 -0.5984
 9474SOL     OW39880   2.336   1.626   0.610 -0.2678 -0.4167 -0.6853
 9474SOL    HW139881   2.407   1.690   0.605 -1.5056  1.1359  1.7073
 9474SOL    HW239882   2.349   1.587   0.696 -0.2290  1.5724  0.2162
 9475SOL     OW39883   4.080   4.005   6.784 -0.0123 -0.1369 -0.9884
 9475SOL    HW139884   4.135   4.078   6.757 -0.6567  1.0711  0.9614
 9475SOL    HW239885   4.117   3.938   6.727 -1.1797 -1.2400 -0.4606
 9476SOL     OW39886   1.278   3.423  14.011 -0.5219  0.1579  0.1899
 9476SOL    HW139887   1.272   3.459  13.923 -0.1333 -0.2680 -0.0132
 9476SOL    HW239888   1.185   3.407  14.028  0.0196 -1.9864  1.1955
 9477SOL     OW39889   4.329   3.062   4.370 -0.2940 -0.0908 -0.0052
 9477SOL    HW139890   4.264   3.104   4.426  0.3826 -0.8935  1.3738
 9477SOL    HW239891   4.312   2.967   4.371 -1.3114  0.0660 -1.7305
 9478SOL     OW39892   0.603   3.917   9.298  0.1358  0.1552 -0.1767
 9478SOL    HW139893   0.586   3.824   9.284  1.9331 -0.4563  1.6825
 9478SOL    HW239894   0.646   3.942   9.217  1.0935 -1.9598 -0.3222
 9479SOL     OW39895   0.508   2.311  12.869  0.1610 -0.2190  0.6460
 9479SOL    HW139896   0.461   2.275  12.945  0.6004  1.0413  1.5122
 9479SOL    HW239897   0.594   2.269  12.876 -0.3728 -0.9360  2.9205
 9480SOL     OW39898   0.824   2.916   8.842  0.1295 -0.3785  0.0035
 9480SOL    HW139899   0.761   2.985   8.819 -2.0887 -2.0283  1.1133
 9480SOL    HW239900   0.855   2.957   8.922 -2.0773 -2.0267  1.6768
 9481SOL     OW39901   1.605   4.367  15.670 -0.2295 -0.0358 -0.2952
 9481SOL    HW139902   1.563   4.303  15.728 -0.8596  0.2240 -0.4560
 9481SOL    HW239903   1.567   4.361  15.582  0.8232  0.3971 -0.7796
 9482SOL     OW39904   2.289   4.215   0.649  0.0961 -0.7441  0.0789
 9482SOL    HW139905   2.273   4.253   0.736  1.9338 -0.7799  0.4428
 9482SOL    HW239906   2.204   4.218   0.605  0.7001  1.4353 -0.9456
 9483SOL     OW39907   2.524   3.882   5.913  0.2356 -0.0221 -0.0999
 9483SOL    HW139908   2.521   3.929   5.996 -2.2613  0.1008 -0.2804
 9483SOL    HW239909   2.603   3.831   5.932  1.2134  0.7914 -1.9056
 9484SOL     OW39910   3.876   1.669  10.478 -0.3599 -0.2583  0.4727
 9484SOL    HW139911   3.845   1.713  10.399  2.0836  0.7975  0.1069
 9484SOL    HW239912   3.890   1.743  10.536 -0.6391 -0.3117  0.6084
 9485SOL     OW39913   3.795   1.256   2.574 -0.6494 -0.5461 -0.4457
 9485SOL    HW139914   3.841   1.200   2.512 -1.0010 -0.4102 -0.8242
 9485SOL    HW239915   3.776   1.191   2.642 -1.1615 -0.2274 -0.2848
 9486SOL     OW39916   1.253   1.567   9.252  0.0257  0.0406  0.2012
 9486SOL    HW139917   1.199   1.639   9.219 -1.9704 -2.9237 -2.9267
 9486SOL    HW239918   1.334   1.615   9.271  1.1160 -1.7114  0.0438
 9487SOL     OW39919   3.863   3.524   6.649 -0.5302  0.1031  0.3744
 9487SOL    HW139920   3.903   3.514   6.563 -0.4769 -2.1655  0.6731
 9487SOL    HW239921   3.790   3.584   6.632  0.1346  1.0960  1.0121
 9488SOL     OW39922   2.560   4.326   7.976 -0.1882 -0.4765 -0.4373
 9488SOL    HW139923   2.646   4.288   7.960  0.9164  1.9361 -0.2506
 9488SOL    HW239924   2.556   4.393   7.907 -3.6290  0.2635  0.4772
 9489SOL     OW39925   1.507   0.407   6.043 -0.1450  0.0005  0.0316
 9489SOL    HW139926   1.602   0.407   6.030 -0.0506  1.0766  0.7362
 9489SOL    HW239927   1.502   0.328   6.097  3.4925 -0.3290 -0.1229
 9490SOL     OW39928   0.142   0.332   0.321  0.0661  0.3168 -0.1001
 9490SOL    HW139929   0.154   0.421   0.354  0.4310  1.0639 -2.2451
 9490SOL    HW239930   0.087   0.356   0.246 -0.5916  2.2883  1.0126
 9491SOL     OW39931   1.309   3.651  14.695  0.3489  0.3833 -0.0409
 9491SOL    HW139932   1.242   3.711  14.663  1.0551  0.6399 -1.0074
 9491SOL    HW239933   1.252   3.602  14.755  0.9019 -0.6482 -0.3679
 9492SOL     OW39934   4.396   0.333   9.708  0.2225 -0.1133 -0.2962
 9492SOL    HW139935   4.491   0.340   9.701  0.1074 -0.4311 -2.2381
 9492SOL    HW239936   4.384   0.238   9.706 -1.2218  0.0547  1.5943
 9493SOL     OW39937   2.714   1.439   9.601  0.2835  0.0932  0.5801
 9493SOL    HW139938   2.732   1.447   9.507  0.6630  1.1234  0.7467
 9493SOL    HW239939   2.800   1.459   9.638 -0.7934 -1.1847  3.8008
 9494SOL     OW39940   2.080   4.052   7.093  0.5212 -0.4079  0.0852
 9494SOL    HW139941   2.056   4.133   7.140 -1.7627 -0.3156 -1.2296
 9494SOL    HW239942   2.161   4.022   7.133  1.4783 -0.2319 -1.7664
 9495SOL     OW39943   0.555   4.074   8.525 -0.4968 -0.0523  0.0634
 9495SOL    HW139944   0.593   3.990   8.500 -0.0150  0.8495 -2.3129
 9495SOL    HW239945   0.520   4.048   8.610  0.3701  0.1262  0.4791
 9496SOL     OW39946   4.475   2.079  13.263 -0.4285  0.3688 -0.3085
 9496SOL    HW139947   4.445   2.164  13.232  2.7798  1.7725  0.3867
 9496SOL    HW239948   4.530   2.045  13.191 -0.2849  0.1003 -0.0727
 9497SOL     OW39949   2.619   4.027   9.053 -0.8813  0.5348 -0.2907
 9497SOL    HW139950   2.686   4.034   9.121 -0.5040 -0.0676 -0.6037
 9497SOL    HW239951   2.633   3.939   9.017  1.5471  1.6614 -2.1490
 9498SOL     OW39952   2.616   3.449  13.973 -0.6089 -0.4825 -0.1909
 9498SOL    HW139953   2.522   3.467  13.964 -0.7536 -1.0217  0.2716
 9498SOL    HW239954   2.647   3.432  13.884  1.2638 -3.4529  1.0259
 9499SOL     OW39955   2.139   0.465  10.617 -0.0008  0.1876 -0.2198
 9499SOL    HW139956   2.084   0.386  10.614  0.8224 -0.3420 -1.0322
 9499SOL    HW239957   2.196   0.450  10.693 -0.3276 -0.0745 -0.0199
 9500SOL     OW39958   3.143   0.682  11.895  0.4794  0.0433 -0.2495
 9500SOL    HW139959   3.163   0.736  11.818 -2.4124 -0.4203 -1.3376
 9500SOL    HW239960   3.049   0.696  11.905  0.8835  2.1367  0.4703
 9501SOL     OW39961   2.830   1.577  11.921 -0.5141 -0.4127 -0.1250
 9501SOL    HW139962   2.809   1.543  12.008  0.7063  0.7757  0.6425
 9501SOL    HW239963   2.813   1.505  11.861 -1.2565 -0.4792  0.1651
 9502SOL     OW39964   0.495   0.189   0.596  0.4942 -0.2619  0.6162
 9502SOL    HW139965   0.412   0.188   0.644 -0.7513 -1.4363 -1.5720
 9502SOL    HW239966   0.529   0.101   0.611  1.7199 -0.2091 -1.8637
 9503SOL     OW39967   2.063   0.221   2.282 -0.1648 -0.1340  0.2904
 9503SOL    HW139968   2.146   0.189   2.318 -0.8245 -1.0853  0.9706
 9503SOL    HW239969   2.056   0.310   2.319 -1.6088  0.3027 -1.0406
 9504SOL     OW39970   2.052   3.299   5.190 -0.2845 -0.3451 -0.3723
 9504SOL    HW139971   2.108   3.377   5.200 -0.6989  0.0542 -1.1135
 9504SOL    HW239972   2.047   3.268   5.280 -0.0184 -0.2279 -0.3162
 9505SOL     OW39973   2.508   3.980   2.215 -0.2402  0.0805 -0.0514
 9505SOL    HW139974   2.448   3.937   2.155 -1.0613 -2.3946  2.5447
 9505SOL    HW239975   2.590   3.961   2.169  0.1992 -0.4025  0.9366
 9506SOL     OW39976   0.354   3.591  15.519  0.5740  0.1747  0.3323
 9506SOL    HW139977   0.429   3.531  15.513  0.2258 -0.2610  0.3684
 9506SOL    HW239978   0.388   3.672  15.557 -0.7253  0.8138  0.1273
 9507SOL     OW39979   2.100   0.919  10.997  0.0710  0.0376  0.0645
 9507SOL    HW139980   2.028   0.926  11.061  1.4499 -1.1967  1.7341
 9507SOL    HW239981   2.112   1.014  10.996 -0.7114  0.1298 -0.8366
 9508SOL     OW39982   0.662   1.183   6.766  0.5326  0.3659  0.3117
 9508SOL    HW139983   0.661   1.128   6.845  1.7870 -1.2124 -0.7579
 9508SOL    HW239984   0.581   1.233   6.774 -1.8510 -3.4366 -0.1063
 9509SOL     OW39985   2.433   2.025   9.411  0.1229 -0.2593  0.2356
 9509SOL    HW139986   2.390   2.108   9.432  0.2243 -0.2523  0.4224
 9509SOL    HW239987   2.477   2.007   9.495 -2.4587 -1.3357  1.3643
 9510SOL     OW39988   2.011   2.205   3.581  0.0983 -0.3957 -0.0627
 9510SOL    HW139989   1.941   2.250   3.534  0.6859 -0.4706 -1.0101
 9510SOL    HW239990   2.074   2.272   3.609  0.2976 -0.4442 -0.3992
 9511SOL     OW39991   3.202   2.335   8.357  0.0872  0.0466  0.2196
 9511SOL    HW139992   3.265   2.401   8.328 -0.8001  0.9780  0.4244
 9511SOL    HW239993   3.168   2.382   8.433 -0.5850 -0.6885  0.3716
 9512SOL     OW39994   0.583   0.935   9.271 -0.2051 -0.1980 -0.0414
 9512SOL    HW139995   0.661   0.902   9.315  0.2476 -0.5742 -1.1280
 9512SOL    HW239996   0.576   1.020   9.316 -0.6480  0.5828 -1.5892
 9513SOL     OW39997   4.438   0.956   4.455  0.0576 -0.0770 -0.0314
 9513SOL    HW139998   4.422   1.011   4.378  0.4615 -2.1085 -1.5392
 9513SOL    HW239999   4.362   0.898   4.453  0.7079 -0.9433  0.3422
 9514SOL     OW40000   1.895   3.385   8.392  0.0406 -0.0998  0.1166
 9514SOL    HW140001   1.895   3.322   8.464  3.4140  2.7713  2.6193
 9514SOL    HW240002   1.955   3.453   8.424  1.2601 -0.1796 -2.0565
 9515SOL     OW40003   3.721   2.925  13.089 -1.0203  0.4055  0.3840
 9515SOL    HW140004   3.682   2.981  13.021 -1.9022 -1.5952 -0.7526
 9515SOL    HW240005   3.659   2.853  13.082 -1.0228  0.3698  0.7531
 9516SOL     OW40006   1.617   2.124   1.809  0.2364 -0.5970  0.1539
 9516SOL    HW140007   1.696   2.175   1.794  0.4708 -0.4954  1.7753
 9516SOL    HW240008   1.559   2.180   1.860 -0.4144  0.4279 -1.6858
 9517SOL     OW40009   4.525   4.658   2.271  0.2888 -0.3559  0.4167
 9517SOL    HW140010   4.597   4.614   2.316  1.7917  0.2080 -1.4543
 9517SOL    HW240011   4.468   4.582   2.270 -0.8139  0.4607  1.0899
 9518SOL     OW40012   2.757   4.644   1.395  0.0276  0.3272 -0.1969
 9518SOL    HW140013   2.819   4.711   1.423  0.8259 -0.9610  1.0869
 9518SOL    HW240014   2.769   4.643   1.300  1.7629 -0.5654  0.0452
 9519SOL     OW40015   4.057   3.755   6.622 -0.1959 -0.1196 -0.2735
 9519SOL    HW140016   4.101   3.708   6.551 -0.9453  0.2845 -1.0058
 9519SOL    HW240017   4.067   3.698   6.698  2.2972 -0.2907 -0.7110
 9520SOL     OW40018   1.703   4.714  12.547  0.4487  0.1358  0.3457
 9520SOL    HW140019   1.709   0.031  12.633  0.6799 -0.1687  0.4753
 9520SOL    HW240020   1.612   4.708  12.519  0.2029 -1.8330  1.5798
 9521SOL     OW40021   1.713   1.228  14.058  0.0412 -0.4993  0.7871
 9521SOL    HW140022   1.762   1.236  14.140  1.9898  2.4384 -0.6689
 9521SOL    HW240023   1.690   1.135  14.053 -0.4728 -0.2297 -1.8539
 9522SOL     OW40024   3.926   3.266  16.262  0.5076 -0.3644  0.2872
 9522SOL    HW140025   3.965   3.181  16.241  1.7072  0.4682 -0.8192
 9522SOL    HW240026   3.834   3.252  16.239 -0.0106  0.9214  1.5833
 9523SOL     OW40027   3.624   1.906   9.189 -0.0578  0.1214  0.4239
 9523SOL    HW140028   3.627   1.997   9.158  0.5313  0.1559  0.5829
 9523SOL    HW240029   3.566   1.911   9.265 -3.6617 -2.2581 -2.1751
 9524SOL     OW40030   0.708   0.316   7.479  0.1504 -0.1350 -0.1842
 9524SOL    HW140031   0.721   0.368   7.399  0.7076  0.7819  0.4987
 9524SOL    HW240032   0.614   0.308   7.493  0.1761  0.6925  0.4535
 9525SOL     OW40033   1.823   2.874   1.436  0.6297 -0.0081 -0.5217
 9525SOL    HW140034   1.741   2.825   1.432  0.3188  0.5937 -1.6299
 9525SOL    HW240035   1.869   2.826   1.504 -2.8230 -1.3750  0.8587
 9526SOL     OW40036   3.473   3.278   7.785  0.2502 -0.3171  0.3682
 9526SOL    HW140037   3.522   3.310   7.709 -0.2308 -3.0191 -1.0578
 9526SOL    HW240038   3.508   3.330   7.858  1.1834  1.5876 -1.4138
 9527SOL     OW40039   2.695   1.501   9.858 -0.0845  0.5865  0.1048
 9527SOL    HW140040   2.708   1.478   9.766  1.8351 -1.3853  0.8741
 9527SOL    HW240041   2.787   1.512   9.883  0.1980 -0.5753 -0.4362
 9528SOL     OW40042   4.200   4.332  11.439 -0.2991  0.2908  0.2574
 9528SOL    HW140043   4.118   4.292  11.412  0.3332 -0.2960 -0.7972
 9528SOL    HW240044   4.176   4.351  11.529  1.5394  0.0335  0.8164
 9529SOL     OW40045   0.959   3.527  12.005 -0.1880  0.2239  0.8240
 9529SOL    HW140046   0.892   3.581  11.964 -1.1188 -0.4397  1.4698
 9529SOL    HW240047   0.998   3.588  12.067  1.1069 -0.5939  0.8113
 9530SOL     OW40048   3.713   3.216   6.853 -0.0022 -0.1289  0.2644
 9530SOL    HW140049   3.752   3.159   6.919  0.2228 -0.7326 -0.3984
 9530SOL    HW240050   3.783   3.218   6.788  0.4354 -0.3843  0.7356
 9531SOL     OW40051   1.618   4.057  16.633 -0.1239  0.2796  0.5103
 9531SOL    HW140052   1.622   3.998  16.707  1.3838  0.7942  0.8262
 9531SOL    HW240053   1.608   4.138  16.684 -2.6871 -1.0136  2.0659
 9532SOL     OW40054   1.069   0.393   5.141  0.1231 -0.0973  0.3882
 9532SOL    HW140055   1.081   0.341   5.221  3.5065 -1.3955 -0.9783
 9532SOL    HW240056   1.114   0.474   5.164  0.9385 -0.0889 -1.2702
 9533SOL     OW40057   2.803   3.593  17.101  0.0538  0.1281  0.3346
 9533SOL    HW140058   2.839   3.504  17.108 -4.3732 -1.7167  0.2185
 9533SOL    HW240059   2.792   3.608  17.008 -0.5409  0.2637  0.4233
 9534SOL     OW40060   3.633   1.456   3.598  0.2633  0.5415  0.1076
 9534SOL    HW140061   3.606   1.390   3.661  1.6994 -0.4813 -0.3437
 9534SOL    HW240062   3.584   1.432   3.519  1.6201  0.3766 -0.6845
 9535SOL     OW40063   0.847   2.317   3.489  0.0719 -0.0783  0.5314
 9535SOL    HW140064   0.890   2.399   3.512 -0.4127 -0.4271  2.7024
 9535SOL    HW240065   0.836   2.273   3.574 -3.0633  0.8190  0.5596
 9536SOL     OW40066   1.189   4.318  11.299  0.4583  0.2627 -0.1336
 9536SOL    HW140067   1.271   4.361  11.321 -0.8984  1.3835  2.6632
 9536SOL    HW240068   1.187   4.318  11.203 -1.3884  0.1248 -0.1060
 9537SOL     OW40069   4.264   1.215  10.467  0.0283 -0.0195 -0.0102
 9537SOL    HW140070   4.294   1.240  10.380  3.5501 -3.1172  0.3048
 9537SOL    HW240071   4.170   1.199  10.461 -0.0549  0.5936 -0.3166
 9538SOL     OW40072   4.306   2.788  12.730 -0.3266  0.3559 -0.4998
 9538SOL    HW140073   4.324   2.778  12.824  2.1395  1.4483 -0.8564
 9538SOL    HW240074   4.375   2.745  12.681  2.9897  1.0275  3.5710
 9539SOL     OW40075   0.877   4.050  11.580  0.3852 -0.2951  0.4683
 9539SOL    HW140076   0.818   3.975  11.589 -0.1858  0.1724  0.6301
 9539SOL    HW240077   0.830   4.121  11.623  0.8029  0.0038  0.4297
 9540SOL     OW40078   0.740   3.885   4.458 -0.1329 -0.5100 -0.2155
 9540SOL    HW140079   0.719   3.844   4.542  2.6616 -0.6130  0.4440
 9540SOL    HW240080   0.746   3.974   4.492  0.3900 -1.1085  1.2972
 9541SOL     OW40081   2.233   1.864   8.710 -0.0560 -0.0188  0.1027
 9541SOL    HW140082   2.222   1.936   8.772  0.9039  0.4325 -0.2559
 9541SOL    HW240083   2.142   1.869   8.681 -0.3021 -0.7091  0.7706
 9542SOL     OW40084   2.938   2.295  11.531 -0.3040 -0.3921 -0.4309
 9542SOL    HW140085   2.935   2.296  11.627  1.3738 -0.5406 -0.3877
 9542SOL    HW240086   3.031   2.295  11.511 -0.6232  2.8365 -2.0277
 9543SOL     OW40087   4.683   1.787   6.720 -0.3187  0.4462 -0.2345
 9543SOL    HW140088   4.684   1.696   6.751  1.9006  1.5561  3.0283
 9543SOL    HW240089   4.643   1.836   6.792  0.5868  0.5519  0.2089
 9544SOL     OW40090   0.441   3.921   8.031 -0.1066  0.6388  0.0714
 9544SOL    HW140091   0.443   4.016   8.021 -1.7114  0.8217  1.4165
 9544SOL    HW240092   0.523   3.918   8.079 -1.3969 -2.6655  2.0988
 9545SOL     OW40093   1.791   1.025  10.593  0.2544  0.0258 -0.0971
 9545SOL    HW140094   1.741   1.049  10.515 -0.0828  3.5691  1.1725
 9545SOL    HW240095   1.759   0.935  10.599  0.9544 -0.2486 -0.5108
 9546SOL     OW40096   1.043   3.091   8.712  0.4263 -0.4663 -0.2728
 9546SOL    HW140097   0.954   3.126   8.720 -0.3230 -2.0651 -1.5473
 9546SOL    HW240098   1.048   3.060   8.803 -0.0668 -1.7842 -0.6923
 9547SOL     OW40099   3.718   0.149  16.055  0.2160  0.2230  0.0021
 9547SOL    HW140100   3.652   0.127  15.989 -0.9925 -0.2942  1.4024
 9547SOL    HW240101   3.794   0.094  16.036 -0.8362 -1.0714 -0.4504
 9548SOL     OW40102   1.509   3.856   8.016 -0.3799  0.1465  0.6311
 9548SOL    HW140103   1.509   3.951   8.031 -0.8015  0.1396  0.6666
 9548SOL    HW240104   1.514   3.860   7.920 -0.5605 -2.3751  0.5090
 9549SOL     OW40105   3.586   4.516   1.970 -0.4777 -0.6657 -0.5834
 9549SOL    HW140106   3.595   4.453   2.042  1.1708 -0.1053 -0.3167
 9549SOL    HW240107   3.642   4.588   2.000 -0.8867 -0.8243  0.5797
 9550SOL     OW40108   1.297   1.455   6.966 -0.0084  0.4646 -0.5750
 9550SOL    HW140109   1.329   1.442   7.055 -1.1983 -0.9574 -0.3648
 9550SOL    HW240110   1.364   1.508   6.922 -1.3348  0.1722 -2.9426
 9551SOL     OW40111   2.149   0.667   2.081  0.1284  0.0086 -0.0868
 9551SOL    HW140112   2.153   0.707   1.995 -3.0282 -0.1871 -0.3318
 9551SOL    HW240113   2.236   0.688   2.115 -0.2736 -0.7015  1.4210
 9552SOL     OW40114   4.083   0.445   4.330 -0.5552  0.0702  0.0182
 9552SOL    HW140115   3.999   0.405   4.307 -0.8809 -0.0732  1.4063
 9552SOL    HW240116   4.142   0.372   4.309 -1.0395 -0.3121 -0.0326
 9553SOL     OW40117   0.766   1.750   6.868 -0.3700 -0.4479  0.1728
 9553SOL    HW140118   0.781   1.680   6.805  1.7740 -0.6343  0.8782
 9553SOL    HW240119   0.682   1.737   6.912  0.4613 -4.7284  0.4635
 9554SOL     OW40120   0.192   2.653  16.189 -0.0092  0.0958  0.1193
 9554SOL    HW140121   0.205   2.558  16.187 -0.3890 -0.0242  2.5152
 9554SOL    HW240122   0.147   2.682  16.110  0.1421  1.5146  0.5526
 9555SOL     OW40123   2.113   1.523   0.508 -0.1899  0.6334  0.0036
 9555SOL    HW140124   2.093   1.564   0.424  1.8856 -1.8835 -1.7052
 9555SOL    HW240125   2.200   1.561   0.520 -0.4489  0.9107  1.0593
 9556SOL     OW40126   2.301   3.519  12.347 -0.5903 -0.1130  0.4771
 9556SOL    HW140127   2.384   3.522  12.395 -0.1681  0.1677 -0.2712
 9556SOL    HW240128   2.268   3.608  12.338  0.5660  0.1828 -0.6860
 9557SOL     OW40129   2.835   3.498   5.852  0.3140 -0.3614 -0.2727
 9557SOL    HW140130   2.749   3.475   5.888  0.7964 -1.0960  0.4090
 9557SOL    HW240131   2.868   3.408   5.857 -0.5905 -0.7415 -1.2465
 9558SOL     OW40132   3.675   0.191   2.942  0.0583  0.2317 -0.5084
 9558SOL    HW140133   3.672   0.102   2.908 -2.8544  0.3940 -0.6429
 9558SOL    HW240134   3.585   0.200   2.974  0.5753  0.8482  0.8228
 9559SOL     OW40135   1.135   2.315   9.296 -0.2167 -0.3922  0.2230
 9559SOL    HW140136   1.074   2.320   9.369 -1.7525  0.0319 -1.0754
 9559SOL    HW240137   1.154   2.221   9.292  1.8027 -0.0080  1.1377
 9560SOL     OW40138   2.371   2.009   9.011  0.3206 -0.6522 -0.0219
 9560SOL    HW140139   2.360   2.104   9.014  0.2883 -0.6095 -1.8311
 9560SOL    HW240140   2.465   2.000   9.030  0.1459 -3.0157 -0.3511
 9561SOL     OW40141   1.021   1.810   7.084 -0.5709  0.0395  0.0183
 9561SOL    HW140142   0.968   1.834   7.007 -0.4356 -0.7710 -0.3234
 9561SOL    HW240143   1.000   1.717   7.092 -2.3742  0.2317 -2.4090
 9562SOL     OW40144   0.671   1.656   4.425 -0.0783 -0.5714 -0.7048
 9562SOL    HW140145   0.694   1.656   4.332 -0.3505 -0.5105 -0.7712
 9562SOL    HW240146   0.612   1.731   4.428  2.1468  1.1371  0.2833
 9563SOL     OW40147   3.997   2.470  14.157  0.2741  0.3315 -0.0154
 9563SOL    HW140148   3.977   2.562  14.143 -0.1010  0.0311 -1.4362
 9563SOL    HW240149   3.909   2.431  14.153  0.5539 -0.3972  0.8071
 9564SOL     OW40150   2.622   3.878   2.644 -0.2608  0.7254  0.6643
 9564SOL    HW140151   2.588   3.937   2.576  0.8882  0.2764 -0.3045
 9564SOL    HW240152   2.661   3.813   2.586 -0.2845 -0.4842  1.9901
 9565SOL     OW40153   2.511   3.970   8.090  0.1219 -0.4631  0.0926
 9565SOL    HW140154   2.605   3.965   8.073  0.8163  2.9660  2.9223
 9565SOL    HW240155   2.505   4.039   8.157  0.4430  1.2854 -1.6946
   4.72471   4.72471  17.70032
