Membrane in water
40155
    1TCq1    O1    1   1.683   4.678  11.712  0.2579 -0.4164 -0.4463
    1TCq1    C1    2   1.767   4.694  11.602 -0.1720 -0.3044 -0.6062
    1TCq1    O2    3   1.781   0.069  11.530 -0.4366  0.6610 -0.3675
    1TCq1    C2    4   1.829   4.571  11.554  0.2550 -0.1734  0.3397
    1TCq1    C3    5   1.915   4.583  11.448 -0.6559  0.4279  0.4091
    1TCq1    C4    6   1.980   4.473  11.408  0.1526  0.1763 -0.4437
    1TCq1    C5    7   1.954   4.351  11.460  0.6053  0.1368 -0.3412
    1TCq1    C6    8   1.859   4.340  11.555 -0.3528 -0.4885  0.2483
    1TCq1    C7    9   1.782   4.447  11.594 -0.2117  0.1110  0.1298
    1TCq1    C8   10   1.789   4.216  11.567  0.0494  0.2479  0.2918
    1TCq1    O4   11   1.686   4.207  11.630  0.3186 -0.2619  1.2930
    1TCq1    C9   12   2.050   4.471  11.289 -0.6034 -0.1989 -0.3156
    1TCq1    O5   13   2.072   4.580  11.233  0.0443 -0.3601  0.3710
    1TCq1    O6   14   2.064   4.361  11.230 -0.3239  0.1203  1.1805
    1TCq1    H1   15   1.704   4.604  11.773 -2.8641  0.5911  1.8597
    1TCq1    H2   16   1.922   4.671  11.386 -0.7745 -0.7941 -1.3301
    1TCq1    H3   17   2.006   4.262  11.424 -3.2970 -2.2543 -0.0764
    1TCq1    H4   18   1.701   4.432  11.665  0.0123  0.2287  0.4080
    2MPD2     C   19   1.634   3.772  11.334 -0.3514  0.3864 -0.4366
    2MPD2    C1   20   1.567   3.862  11.414 -0.1555 -0.0370  0.1221
    2MPD2    C2   21   1.624   3.978  11.454  1.3157  0.3627  0.2269
    2MPD2    C3   22   1.756   4.010  11.425 -0.4575 -0.7812 -0.4226
    2MPD2    C4   23   1.822   3.919  11.353  0.2487 -0.2763 -0.0438
    2MPD2    C5   24   1.766   3.798  11.301 -0.0513 -0.1904 -0.0322
    2MPD2     H   25   1.563   4.043  11.516 -1.0513 -1.4056 -0.2701
    2MPD2    H1   26   1.929   3.929  11.336  0.1645 -1.1665 -1.0682
    2MPD2    H2   27   1.584   3.685  11.294 -0.6120 -0.1330  1.0048
    2MPD2    H3   28   1.828   3.729  11.245  0.3490 -1.4786  1.9941
    2MPD2     N   29   1.827   4.129  11.467  0.5068 -0.1508  0.0627
    2MPD2    H5   30   1.923   4.139  11.436 -0.1641  0.3641 -1.8285
    2MPD2    N1   31   1.431   3.844  11.447  0.1903  0.2414 -0.0615
    2MPD2    H7   32   1.383   3.929  11.475 -1.9558 -1.0741  0.2444
    3TCq1    O1   33   1.034   4.303  11.317 -0.2590 -0.0254  0.0900
    3TCq1    C1   34   1.000   4.267  11.193 -0.0496  0.0763 -0.3514
    3TCq1    O2   35   1.071   4.207  11.116  0.6972 -0.2156 -0.0708
    3TCq1    C2   36   0.919   4.375  11.154  0.1570  0.0767 -0.0947
    3TCq1    C3   37   0.948   4.446  11.045 -0.3873  0.1386 -0.2483
    3TCq1    C4   38   0.891   4.565  11.021  0.4056 -0.6444 -0.7538
    3TCq1    C5   39   0.779   4.602  11.094  0.5478 -0.4645  0.0079
    3TCq1    C6   40   0.745   4.525  11.201 -0.1568  0.3096  0.4489
    3TCq1    C7   41   0.818   4.410  11.234  0.2875 -1.2160  0.0084
    3TCq1    C8   42   0.649   4.575  11.305  0.2448  0.1075 -0.5442
    3TCq1    O4   43   0.649   4.505  11.402 -0.2768  0.2776  0.2866
    3TCq1    C9   44   0.917   4.626  10.891  0.2551 -1.0314 -0.2928
    3TCq1    O5   45   0.992   4.579  10.802  0.0619  0.0175  0.3206
    3TCq1    O6   46   0.845   0.004  10.865  0.0405 -0.1664 -0.0338
    3TCq1    H1   47   0.993   4.387  11.347 -3.0243 -1.5720  0.5611
    3TCq1    H2   48   1.016   4.399  10.974 -0.9904  1.2737 -1.5780
    3TCq1    H3   49   0.723   4.685  11.053  1.2049  1.3585  2.8091
    3TCq1    H4   50   0.777   4.337  11.303 -2.5884  0.9657  0.5558
    4MPD2     C   51   0.316   0.194  11.475  0.4659 -0.1664  0.1048
    4MPD2    C1   52   0.377   0.254  11.366 -0.1572 -0.3164  0.1818
    4MPD2    C2   53   0.478   0.188  11.300 -0.2272  1.1011  0.0859
    4MPD2    C3   54   0.508   0.057  11.341  0.0303 -0.4291 -0.0939
    4MPD2    C4   55   0.444   4.718  11.449  0.0396 -0.3614  0.5821
    4MPD2    C5   56   0.352   0.068  11.518  0.1664 -0.6761  0.2662
    4MPD2     H   57   0.516   0.235  11.210 -1.5755 -0.4949 -1.3240
    4MPD2    H1   58   0.464   4.616  11.479  1.7118  0.2982  1.6877
    4MPD2    H2   59   0.237   0.244  11.531 -0.8575  0.2361 -2.1534
    4MPD2    H3   60   0.307   0.026  11.607  0.5269  1.7099  1.5486
    4MPD2     N   61   0.592   4.699  11.262  0.6488 -0.4370  0.4406
    4MPD2    H5   62   0.619   0.029  11.180 -0.6735  0.6419  0.7122
    4MPD2    N1   63   0.331   0.381  11.316 -0.4923 -0.1390 -0.6441
    4MPD2    H7   64   0.381   0.419  11.236 -0.5058  1.8637  0.3002
    5TCq1    O1   65   0.149   1.255  10.138 -0.0669 -0.1457 -0.9876
    5TCq1    C1   66   0.208   1.196  10.033  0.6460 -0.2653 -0.2319
    5TCq1    O2   67   0.143   1.172   9.931  0.7580 -0.7461  0.1041
    5TCq1    C2   68   0.336   1.261  10.019 -0.1019  0.3963  0.1678
    5TCq1    C3   69   0.345   1.352   9.917 -0.3258  0.4218 -0.5499
    5TCq1    C4   70   0.466   1.426   9.904 -0.0767  0.7430 -0.6214
    5TCq1    C5   71   0.566   1.410   9.992  0.4140 -0.3984  1.1654
    5TCq1    C6   72   0.551   1.319  10.095 -0.0588  0.2310 -0.1375
    5TCq1    C7   73   0.442   1.240  10.101 -0.1904 -0.3475  0.1795
    5TCq1    C8   74   0.631   1.326  10.214  0.1863  0.7195 -0.3858
    5TCq1    O4   75   0.619   1.228  10.286 -0.9234 -0.1055  0.2108
    5TCq1    C9   76   0.475   1.525   9.797 -0.3044  0.6622  0.2642
    5TCq1    O5   77   0.562   1.615   9.803  0.4273  0.5634  0.1029
    5TCq1    O6   78   0.391   1.508   9.704 -0.1191 -0.6168  0.3884
    5TCq1    H1   79   0.216   1.252  10.210  1.4355  0.3277 -2.3613
    5TCq1    H2   80   0.259   1.384   9.861 -2.1898  0.4252  2.3316
    5TCq1    H3   81   0.650   1.479   9.988  0.3337 -0.5191 -2.7352
    5TCq1    H4   82   0.431   1.152  10.163 -0.9256  0.2226  0.8534
    6MPD2     C   83   0.863   1.596  10.331  0.4242  0.1799 -0.2850
    6MPD2    C1   84   0.806   1.471  10.320 -0.2814  0.4862  0.2988
    6MPD2    C2   85   0.854   1.372  10.406 -0.3465 -0.3986  0.0021
    6MPD2    C3   86   0.949   1.403  10.503  0.4127 -0.3095  0.1209
    6MPD2    C4   87   0.992   1.535  10.520  0.5074  0.3654  0.2626
    6MPD2    C5   88   0.958   1.621  10.427  0.0100  1.1488 -0.3301
    6MPD2     H   89   0.820   1.272  10.382  1.7444 -1.1189  0.0653
    6MPD2    H1   90   1.066   1.570  10.590  1.3262 -0.2182 -0.3154
    6MPD2    H2   91   0.842   1.670  10.255 -0.6329  1.4289  1.2240
    6MPD2    H3   92   1.015   1.713  10.424 -1.7124  2.2603  0.8315
    6MPD2     N   93   1.004   1.295  10.583  0.0650 -0.1758  0.3355
    6MPD2    H5   94   0.996   1.199  10.550 -1.4871  0.2636 -0.5422
    6MPD2    N1   95   0.706   1.443  10.228  0.0316  0.2001  0.0319
    6MPD2    H7   96   0.689   1.516  10.160 -3.9572  0.0456  0.8782
    7TCq1    O1   97   3.418   1.563  13.055 -0.1975 -0.4095  0.0399
    7TCq1    C1   98   3.466   1.506  12.943 -0.5321 -0.7731  0.6125
    7TCq1    O2   99   3.567   1.553  12.884  0.3969 -0.2913 -0.2980
    7TCq1    C2  100   3.426   1.369  12.952  0.6866 -0.1222  0.3902
    7TCq1    C3  101   3.350   1.329  12.846 -0.3146  0.5789  0.0664
    7TCq1    C4  102   3.327   1.198  12.832  0.1051  0.1132  0.6722
    7TCq1    C5  103   3.405   1.109  12.905  0.0698 -0.8174  0.4153
    7TCq1    C6  104   3.481   1.159  13.010  0.1575 -0.5552  0.1423
    7TCq1    C7  105   3.492   1.291  13.031  0.4588  0.0732 -0.3809
    7TCq1    C8  106   3.558   1.053  13.083 -0.2444  0.3996 -0.0381
    7TCq1    O4  107   3.539   0.940  13.047 -0.8575 -0.1867  0.3556
    7TCq1    C9  108   3.248   1.145  12.717 -0.1703 -0.1668 -0.0286
    7TCq1    O5  109   3.187   1.230  12.643 -0.2816  0.4309 -0.1882
    7TCq1    O6  110   3.249   1.017  12.702 -0.6430  0.1948 -0.1198
    7TCq1    H1  111   3.362   1.496  13.099 -0.6960 -0.2535 -0.3708
    7TCq1    H2  112   3.294   1.399  12.785 -1.2071  0.6179  0.9290
    7TCq1    H3  113   3.389   1.004  12.884 -0.4099 -0.8660  1.0305
    7TCq1    H4  114   3.550   1.333  13.112  1.1525 -0.0533 -0.8140
    8MPD2     C  115   3.777   0.936  13.537  0.7519 -0.0550  0.2215
    8MPD2    C1  116   3.717   0.853  13.448 -0.3915 -0.3927  0.5703
    8MPD2    C2  117   3.668   0.905  13.320  0.6523  0.2450  0.7111
    8MPD2    C3  118   3.681   1.039  13.297  0.2790 -0.1768  0.1119
    8MPD2    C4  119   3.746   1.119  13.392 -0.7857 -0.1530 -0.2629
    8MPD2    C5  120   3.793   1.068  13.509  0.3308 -0.3028  0.5380
    8MPD2     H  121   3.614   0.841  13.251 -0.6374 -0.4701  2.3817
    8MPD2    H1  122   3.757   1.226  13.380 -1.6954  0.2418  2.5086
    8MPD2    H2  123   3.819   0.896  13.629  0.4759 -0.8933 -0.0103
    8MPD2    H3  124   3.825   1.141  13.582  1.3372  2.5314 -2.6969
    8MPD2     N  125   3.626   1.110  13.187 -0.2244 -0.1168 -0.0029
    8MPD2    H5  126   3.630   1.211  13.189  0.3608 -0.1046 -1.6228
    8MPD2    N1  127   3.702   0.718  13.493  0.0498  0.1332  0.5677
    8MPD2    H7  128   3.725   0.704  13.591 -0.1961  1.5910  0.8464
    9TCq1    O1  129   1.958   4.178  11.083  0.4539 -0.4482 -0.1269
    9TCq1    C1  130   1.827   4.146  11.048 -0.0678  0.9918  0.0357
    9TCq1    O2  131   1.805   4.057  10.966 -0.1273  0.1770 -0.0077
    9TCq1    C2  132   1.725   4.207  11.136  0.0757  0.5593  0.3249
    9TCq1    C3  133   1.617   4.131  11.157 -0.3188  0.2734 -0.6692
    9TCq1    C4  134   1.506   4.172  11.217 -0.6767 -0.3359 -0.6888
    9TCq1    C5  135   1.513   4.300  11.265  0.6033  0.0088 -0.1031
    9TCq1    C6  136   1.623   4.379  11.245  0.3076  1.0415  0.4236
    9TCq1    C7  137   1.732   4.337  11.171  0.2496 -0.0138  0.4993
    9TCq1    C8  138   1.609   4.517  11.263 -1.0606  0.0986 -0.6787
    9TCq1    O4  139   1.687   4.586  11.204 -0.0018  0.8523  0.2430
    9TCq1    C9  140   1.381   4.094  11.221  1.0196  0.1541  0.1486
    9TCq1    O5  141   1.304   4.107  11.324  0.6069  0.3457  0.0565
    9TCq1    O6  142   1.347   4.003  11.140 -0.3023 -0.4342 -0.5441
    9TCq1    H1  143   1.967   4.238  11.160 -2.5489 -0.9003  0.5881
    9TCq1    H2  144   1.632   4.027  11.132  2.8381  1.0944 -2.1975
    9TCq1    H3  145   1.418   4.333  11.307  1.4402 -0.5772  2.2658
    9TCq1    H4  146   1.813   4.406  11.150 -0.2412  0.6740  0.8744
   10MPD2     C  147   1.513   0.077  11.322  0.2596  0.0842  0.1162
   10MPD2    C1  148   1.469   4.691  11.387  0.7542  0.5762 -0.1197
   10MPD2    C2  149   1.387   4.702  11.500  0.3537  0.3529  0.1847
   10MPD2    C3  150   1.352   0.106  11.539 -0.7791 -0.2560 -0.5244
   10MPD2    C4  151   1.405   0.218  11.473  0.4488  0.3839  0.1160
   10MPD2    C5  152   1.483   0.204  11.365  0.1415  0.2073  0.1640
   10MPD2     H  153   1.338   4.616  11.546  0.8891 -0.4453 -0.7497
   10MPD2    H1  154   1.378   0.315  11.512 -1.8495  0.3445 -1.4370
   10MPD2    H2  155   1.591   0.062  11.248 -0.4675  2.6683 -1.1897
   10MPD2    H3  156   1.518   0.286  11.303  1.0677  0.7152  1.3704
   10MPD2     N  157   1.264   0.125  11.654 -0.2226  0.3706 -0.6993
   10MPD2    H5  158   1.235   0.222  11.667  0.2793  0.4097  0.1071
   10MPD2    N1  159   1.501   4.558  11.340  0.1402 -0.1330 -0.7020
   10MPD2    H7  160   1.450   4.484  11.387  0.7726 -0.6415 -0.8109
   11TCq1    O1  161   2.244   0.674  13.779  0.0641 -0.3994 -0.0164
   11TCq1    C1  162   2.226   0.569  13.857  0.6082 -0.5989 -0.3243
   11TCq1    O2  163   2.311   0.525  13.934  0.2799  0.0260  0.3265
   11TCq1    C2  164   2.154   0.481  13.764  0.0215 -0.3942 -0.2179
   11TCq1    C3  165   2.206   0.367  13.711 -0.0934  0.4413  0.7847
   11TCq1    C4  166   2.140   0.277  13.632  0.0323 -0.2670 -0.2371
   11TCq1    C5  167   2.011   0.301  13.613  0.6052 -0.2978 -0.1131
   11TCq1    C6  168   1.947   0.407  13.684 -0.2837  0.0227  0.5691
   11TCq1    C7  169   2.021   0.496  13.753 -0.4393  0.0880 -0.7529
   11TCq1    C8  170   1.801   0.422  13.681  0.4735  0.4010 -0.5452
   11TCq1    O4  171   1.753   0.536  13.688 -0.4779 -0.4836  0.2676
   11TCq1    C9  172   2.201   0.157  13.575 -0.2834  0.3194  0.0501
   11TCq1    O5  173   2.128   0.084  13.502  0.2915  0.1819 -0.6297
   11TCq1    O6  174   2.325   0.141  13.598  0.1327  0.2627 -0.5487
   11TCq1    H1  175   2.176   0.672  13.708 -1.4326 -1.1470  1.4443
   11TCq1    H2  176   2.313   0.360  13.731 -0.5509 -2.9951  2.0994
   11TCq1    H3  177   1.953   0.238  13.546 -0.5450  0.0039  0.5887
   11TCq1    H4  178   1.966   0.575  13.803  0.6954 -0.1215  0.8184
   12MPD2     C  179   1.515   0.373  13.589  0.0901  0.7071  0.0425
   12MPD2    C1  180   1.607   0.275  13.611  0.0222 -0.0719  0.7619
   12MPD2    C2  181   1.563   0.145  13.577 -0.3035  0.0220 -0.0981
   12MPD2    C3  182   1.445   0.107  13.522  0.6041 -0.1986 -0.1360
   12MPD2    C4  183   1.359   0.214  13.502 -0.0008 -0.1532 -0.5306
   12MPD2    C5  184   1.388   0.343  13.532  0.4837 -0.0415  0.5323
   12MPD2     H  185   1.637   0.068  13.596  1.0389  1.3703  0.1269
   12MPD2    H1  186   1.259   0.198  13.464 -0.6868 -1.4233  1.7682
   12MPD2    H2  187   1.548   0.474  13.609  1.7894  0.0005  0.7996
   12MPD2    H3  188   1.319   0.427  13.527 -1.0795 -1.5363 -2.8818
   12MPD2     N  189   1.397   4.707  13.486 -0.0679 -0.3112  0.0133
   12MPD2    H5  190   1.304   4.697  13.446  0.8970 -3.1534 -1.5663
   12MPD2    N1  191   1.743   0.300  13.657 -0.0657 -0.1272  0.0298
   12MPD2    H7  192   1.805   0.219  13.658 -0.4368 -0.4240 -1.5062
   13TCq1    O1  193   0.617   4.181  10.559 -0.1167 -0.0262  0.2310
   13TCq1    C1  194   0.682   4.067  10.575  0.0865 -0.3272 -0.1865
   13TCq1    O2  195   0.704   3.980  10.492 -0.0918  0.0976  0.1376
   13TCq1    C2  196   0.736   4.074  10.709 -0.5774 -0.2699  0.0634
   13TCq1    C3  197   0.862   4.013  10.729 -0.4926 -0.7092  0.2696
   13TCq1    C4  198   0.912   4.005  10.853 -0.1352  0.1517  0.2577
   13TCq1    C5  199   0.835   4.044  10.958 -0.3399  1.0336  0.3856
   13TCq1    C6  200   0.707   4.095  10.932 -0.3167  0.1871  0.0177
   13TCq1    C7  201   0.652   4.120  10.810  0.2680  0.0685 -0.3065
   13TCq1    C8  202   0.630   4.139  11.053  0.5473  0.6791  0.5732
   13TCq1    O4  203   0.670   4.123  11.166 -0.8387  0.0454  0.3076
   13TCq1    C9  204   1.041   3.950  10.871  0.0809  0.2014  0.5923
   13TCq1    O5  205   1.076   3.927  10.992 -0.7745 -0.4066  1.1246
   13TCq1    O6  206   1.127   3.972  10.775 -0.4682 -0.5418  0.5235
   13TCq1    H1  207   0.635   4.244  10.631  1.8055  0.0354 -0.2957
   13TCq1    H2  208   0.917   3.970  10.646 -0.9798 -1.6165  0.4073
   13TCq1    H3  209   0.872   4.020  11.057  0.7483 -1.4151 -0.6188
   13TCq1    H4  210   0.555   4.167  10.797 -0.5896 -1.7121 -0.3519
   14MPD2     C  211   0.302   4.302  11.084  0.3568 -0.4716 -0.3347
   14MPD2    C1  212   0.419   4.248  11.124 -0.8411 -0.4520  0.1968
   14MPD2    C2  213   0.444   4.257  11.261 -0.2179 -0.0998  0.9430
   14MPD2    C3  214   0.350   4.287  11.355  0.5632 -0.2156 -0.2407
   14MPD2    C4  215   0.232   4.338  11.310 -0.0895 -0.4138  0.3184
   14MPD2    C5  216   0.209   4.343  11.175  0.3223 -0.0050  0.3448
   14MPD2     H  217   0.547   4.236  11.288  0.5758  1.7205 -0.6987
   14MPD2    H1  218   0.169   4.397  11.376 -0.5138 -1.8408  1.1688
   14MPD2    H2  219   0.264   4.298  10.983  1.5612  4.1534 -0.9859
   14MPD2    H3  220   0.128   4.405  11.138 -1.1765 -1.0060  1.8965
   14MPD2     N  221   0.396   4.283  11.489 -0.2938 -0.6389 -0.3749
   14MPD2    H5  222   0.490   4.249  11.507 -0.2051 -0.2110 -0.0151
   14MPD2    N1  223   0.510   4.204  11.027 -0.6757 -0.0489 -0.1011
   14MPD2    H7  224   0.481   4.220  10.931 -2.1242 -0.0125  0.3352
   15TCq1    O1  225   4.426   3.241   1.322 -0.3682 -0.0750 -0.4579
   15TCq1    C1  226   4.475   3.306   1.429 -0.3211  0.1591 -0.0453
   15TCq1    O2  227   4.501   3.261   1.541 -0.0400  0.3025 -0.3853
   15TCq1    C2  228   4.454   3.453   1.403  0.1508  0.5103 -0.1745
   15TCq1    C3  229   4.395   3.493   1.289 -0.0184 -0.0427  0.2895
   15TCq1    C4  230   4.390   3.627   1.258 -0.1060  0.2025 -0.2530
   15TCq1    C5  231   4.437   3.718   1.350 -0.0355  0.1961  0.6568
   15TCq1    C6  232   4.499   3.673   1.461  0.2038  0.0246  0.0993
   15TCq1    C7  233   4.505   3.539   1.491  0.2519  0.3842 -0.1077
   15TCq1    C8  234   4.561   3.766   1.555 -0.6082  0.0377 -0.4857
   15TCq1    O4  235   4.654   3.726   1.624 -0.6443 -0.2199  0.1763
   15TCq1    C9  236   4.309   3.672   1.142  0.0880  0.2912  0.4248
   15TCq1    O5  237   4.284   3.581   1.062 -0.1892  0.0368  0.0025
   15TCq1    O6  238   4.294   3.798   1.126 -0.4581 -0.3419  0.6754
   15TCq1    H1  239   4.426   3.302   1.245 -0.9687  0.3955 -0.0800
   15TCq1    H2  240   4.347   3.431   1.213 -0.0744  0.2610  0.0783
   15TCq1    H3  241   4.433   3.825   1.332  1.8415 -0.0459 -1.1630
   15TCq1    H4  242   4.568   3.500   1.570 -0.4663 -2.3697 -0.9132
   16MPD2     C  243   4.485   4.127   1.586  0.2498  0.3924  0.6691
   16MPD2    C1  244   4.557   4.013   1.602  0.0289  0.4052 -0.1455
   16MPD2    C2  245   4.679   4.023   1.665  0.4014  0.1862  1.0224
   16MPD2    C3  246   0.002   4.136   1.721 -0.0790 -0.4411 -0.5120
   16MPD2    C4  247   4.640   4.248   1.722  0.0132 -0.0073  0.5248
   16MPD2    C5  248   4.518   4.240   1.652  0.4449 -0.1014 -0.3082
   16MPD2     H  249   0.019   3.936   1.682  3.1879  1.5470 -2.2681
   16MPD2    H1  250   4.658   4.349   1.757  0.2622 -0.2994  1.2289
   16MPD2    H2  251   4.390   4.139   1.535  0.5338 -2.6474 -0.5921
   16MPD2    H3  252   4.450   4.325   1.645  1.3925  0.7095  0.2713
   16MPD2     N  253   0.123   4.137   1.790  0.4223  0.3487 -0.3004
   16MPD2    H5  254   0.171   4.048   1.783 -0.5582 -0.1409 -0.8866
   16MPD2    N1  255   4.513   3.897   1.543  0.1371 -0.1203 -0.5502
   16MPD2    H7  256   4.435   3.906   1.478  0.1895 -1.0821 -0.7534
   17TCq1    O1  257   0.583   3.722  11.662 -0.2764 -0.0840 -0.2635
   17TCq1    C1  258   0.613   3.630  11.568  1.5522 -0.3640  0.7340
   17TCq1    O2  259   0.633   3.512  11.581  0.2954 -0.4854 -1.1810
   17TCq1    C2  260   0.680   3.705  11.470  0.2953 -0.4326 -0.1013
   17TCq1    C3  261   0.756   3.815  11.492 -0.9299 -0.2383 -0.3378
   17TCq1    C4  262   0.838   3.860  11.397 -0.1389  0.8229  0.3005
   17TCq1    C5  263   0.848   3.801  11.276 -0.1176  0.4515 -0.0809
   17TCq1    C6  264   0.773   3.689  11.252 -0.9919  0.4390 -0.1989
   17TCq1    C7  265   0.677   3.644  11.349 -0.1324 -0.4048  0.4391
   17TCq1    C8  266   0.800   3.602  11.138 -0.0203 -0.0031  0.8672
   17TCq1    O4  267   0.719   3.509  11.135 -0.3090  0.9591  0.3186
   17TCq1    C9  268   0.930   3.968  11.424  0.5413 -0.4467  0.1025
   17TCq1    O5  269   0.892   4.046  11.519 -0.1849  0.4010 -0.1539
   17TCq1    O6  270   1.044   3.971  11.367  0.1052  0.1921  0.1129
   17TCq1    H1  271   0.582   3.811  11.621 -3.3614  0.3164  0.6636
   17TCq1    H2  272   0.771   3.862  11.589 -2.7160 -1.4940  0.5559
   17TCq1    H3  273   0.913   3.841  11.199  4.3534 -2.8743  1.9769
   17TCq1    H4  274   0.623   3.550  11.349 -0.1244 -0.4095  0.3772
   18MPD2     C  275   0.907   3.448  10.910 -0.0801 -0.3051 -0.1613
   18MPD2    C1  276   0.964   3.566  10.955  0.1844 -0.1711 -0.1903
   18MPD2    C2  277   1.084   3.607  10.901 -0.1200 -0.4458 -0.2162
   18MPD2    C3  278   1.151   3.530  10.806 -0.2013  0.3669  0.6203
   18MPD2    C4  279   1.093   3.413  10.764 -0.1632 -0.4499 -0.5693
   18MPD2    C5  280   0.972   3.380  10.808  0.9771 -0.2352 -0.3302
   18MPD2     H  281   1.134   3.694  10.939 -0.1763 -0.7075  0.4586
   18MPD2    H1  282   1.131   3.352  10.683  2.9665  0.5901  0.1285
   18MPD2    H2  283   0.809   3.409  10.936  0.9375 -1.3565  2.0638
   18MPD2    H3  284   0.934   3.286  10.771  0.5394  0.2776 -1.1711
   18MPD2     N  285   1.284   3.555  10.757  0.1303 -0.3198 -0.2501
   18MPD2    H5  286   1.319   3.484  10.694 -0.4371 -2.6260  2.0112
   18MPD2    N1  287   0.914   3.636  11.069  0.3983  0.0766 -0.4202
   18MPD2    H7  288   0.975   3.712  11.096 -0.7491  1.4802 -1.8575
   19TMC2    C1  289   2.614   4.645  13.901  0.0066 -0.0675  0.0963
   19TMC2    C2  290   2.501   4.712  13.880  0.2586 -0.0767 -0.5360
   19TMC2    C3  291   2.383   4.640  13.852  0.4781 -0.0615  0.1172
   19TMC2    C4  292   2.628   4.507  13.878 -0.9116 -0.3846  0.3046
   19TMC2    C5  293   2.507   4.434  13.856  0.3903 -0.1714 -0.5897
   19TMC2    C6  294   2.389   4.502  13.842 -0.3252 -0.5899 -0.2065
   19TMC2     C  295   2.718   4.715  13.982  0.1399 -0.1553 -0.7130
   19TMC2     O  296   2.717   0.112  13.993  0.4435  0.2851 -0.3999
   19TMC2     H  297   2.499   0.097  13.884  0.7957  0.0216 -2.5925
   19TMC2    H1  298   2.723   4.456  13.874 -0.8999 -0.4025  0.8129
   19TMC2    H2  299   2.301   4.449  13.807  0.0141 -1.1079 -0.2674
   19TMC2    C7  300   2.505   4.294  13.813  0.1070  0.5287  0.6188
   19TMC2    C8  301   2.256   4.682  13.906 -0.1355  0.4419 -0.3934
   19TMC2    O1  302   2.404   4.257  13.754  0.3701 -0.4166 -0.2743
   19TMC2    O2  303   2.149   4.627  13.878 -0.3169 -0.1920 -0.3892
   19TMC2    O5  304   2.267   0.084  13.945  0.2347 -0.1188 -0.8438
   19TMC2    H5  305   2.356   0.118  13.969 -0.5866  0.6320  1.0817
   20MPD2     C  306   2.983   0.060  14.081 -0.5997  0.0853 -0.4198
   20MPD2    C1  307   2.916   4.666  14.106  0.8473 -0.0913  0.2328
   20MPD2    C2  308   2.971   4.588  14.207 -0.3615  0.0276  0.0473
   20MPD2    C3  309   3.077   4.622  14.288 -0.1297 -0.2789 -0.5422
   20MPD2    C4  310   3.139   0.015  14.258  0.6552 -0.3860  0.3684
   20MPD2    C5  311   3.084   0.098  14.163 -0.3884 -0.3508  0.1987
   20MPD2     H  312   2.920   4.496  14.233  2.1531 -2.2692 -3.0969
   20MPD2    H1  313   3.223   0.052  14.316  0.4132  1.1366 -0.2576
   20MPD2    H2  314   2.943   0.129  14.008  1.8244  1.0450 -0.8200
   20MPD2    H3  315   3.130   0.196  14.158  0.1189 -0.5784  0.4591
   20MPD2     N  316   3.108   4.557  14.409 -0.1753  0.2143 -0.9125
   20MPD2    H5  317   3.170   4.605  14.473 -0.0396 -0.9248 -0.1888
   20MPD2    N1  318   2.794   4.624  14.047  0.3425  0.7463  0.3736
   20MPD2    H7  319   2.774   4.525  14.059  1.9093  0.3716 -0.1673
   21MPD2     C  320   0.555   0.081  14.064 -0.4287  1.0703  0.6622
   21MPD2    C1  321   0.630   4.717  14.139  0.8190 -0.3380  0.9831
   21MPD2    C2  322   0.561   4.635  14.227  0.2915  0.4233  0.0968
   21MPD2    C3  323   0.428   4.632  14.239  0.9341  0.9581  0.0129
   21MPD2    C4  324   0.353   0.002  14.156  0.5749 -0.1795 -0.6847
   21MPD2    C5  325   0.419   0.083  14.071 -0.2060  0.4523  0.5165
   21MPD2     H  326   0.618   4.565  14.287 -2.1625 -2.4571 -0.9387
   21MPD2    H1  327   0.244   0.002  14.156  0.5801  0.6790  2.0598
   21MPD2    H2  328   0.608   0.158  14.009  1.7390 -0.7526  0.2132
   21MPD2    H3  329   0.362   0.142  14.000 -0.0184 -0.8485 -0.7064
   21MPD2     N  330   0.354   4.560  14.333 -0.0811 -0.2957  0.2900
   21MPD2    H5  331   0.257   4.581  14.356 -0.4917 -3.5977  1.5262
   21MPD2    N1  332   0.765   4.722  14.148  0.3368  0.4963  0.5643
   21MPD2    H7  333   0.809   4.660  14.216 -0.6014  1.5310  2.0883
   22TCq2    C1  334   0.408   4.452  14.400  0.2116  0.6411  0.0339
   22TCq2    O2  335   0.509   4.391  14.375 -0.7057  0.0379 -0.0788
   22TCq2    C2  336   0.337   4.411  14.526  0.2161 -0.2179  0.4408
   22TCq2    C3  337   0.405   4.325  14.607 -0.5840  0.1988  0.1284
   22TCq2    C4  338   0.357   4.303  14.730 -0.1937 -0.9634 -0.5627
   22TCq2    C5  339   0.244   4.362  14.776  0.4796  0.3285  0.3444
   22TCq2    C6  340   0.191   4.460  14.697  0.6210 -0.2428 -0.6770
   22TCq2    C7  341   0.239   4.486  14.573 -0.3024 -0.1933  0.3640
   22TCq2    C8  342   0.048   4.489  14.717 -0.0097  0.2415  0.3802
   22TCq2    O4  343   0.003   4.447  14.821  0.5497 -0.3379 -0.3833
   22TCq2    C9  344   0.410   4.207  14.810 -0.3140 -0.8436  0.3446
   22TCq2    O5  345   0.501   4.131  14.758 -0.4244  0.1273  0.1101
   22TCq2    O6  346   0.353   4.167  14.911 -0.1022  0.0968  0.2864
   22TCq2    H2  347   0.491   4.269  14.569 -0.4743 -0.1927  0.9610
   22TCq2    H3  348   0.193   4.329  14.866 -0.2796  2.0254  0.5239
   22TCq2    H4  349   0.187   4.542  14.496  1.0700  1.6843  0.8035
   23MPD2     C  350   2.107   0.781  14.761  0.6131 -0.4215 -0.3088
   23MPD2    C1  351   1.988   0.733  14.804  0.8236  0.1875 -0.0511
   23MPD2    C2  352   1.882   0.728  14.711 -0.0182  0.2562  0.0898
   23MPD2    C3  353   1.896   0.783  14.589  0.1752 -0.1211 -0.1822
   23MPD2    C4  354   2.012   0.849  14.551  0.5129  0.3755 -0.8855
   23MPD2    C5  355   2.118   0.837  14.635  0.7367  0.1399  0.2031
   23MPD2     H  356   1.784   0.690  14.740  0.2694 -0.6481 -0.1442
   23MPD2    H1  357   2.025   0.895  14.454 -0.8735  0.9493 -0.7885
   23MPD2    H2  358   2.187   0.796  14.833  0.8506 -0.1640 -0.6270
   23MPD2    H3  359   2.210   0.891  14.616 -0.1936  1.5265 -0.3517
   23MPD2     N  360   1.784   0.782  14.503  0.2246 -0.4832 -0.0789
   23MPD2    H5  361   1.792   0.842  14.422 -0.6954 -1.9217 -1.2256
   23MPD2    N1  362   1.966   0.684  14.937  0.3134 -0.2066  0.5146
   23MPD2    H7  363   1.872   0.680  14.974  0.0709 -0.2347 -0.1004
   24TCq2    C1  364   1.665   0.704  14.515 -0.1235 -0.6271  0.1050
   24TCq2    O2  365   1.661   0.600  14.575  0.0147  0.2752  0.5127
   24TCq2    C2  366   1.575   0.734  14.407 -0.0426 -0.2547  0.0815
   24TCq2    C3  367   1.553   0.863  14.367 -0.4532 -0.0854  1.0453
   24TCq2    C4  368   1.462   0.875  14.262  0.4978  0.2636 -0.0677
   24TCq2    C5  369   1.409   0.771  14.190 -1.0173 -0.0823 -0.2761
   24TCq2    C6  370   1.436   0.640  14.236 -0.6756  0.5928  0.5921
   24TCq2    C7  371   1.516   0.626  14.346 -0.2049 -0.3584 -0.4520
   24TCq2    C8  372   1.316   0.566  14.239 -0.4092  0.1018  0.4871
   24TCq2    O4  373   1.324   0.443  14.244 -0.1809  0.2924 -0.0343
   24TCq2    C9  374   1.430   1.012  14.213  0.1338 -0.7234  1.2827
   24TCq2    O5  375   1.347   1.017  14.120  0.2826  0.0522  0.7552
   24TCq2    O6  376   1.482   1.112  14.272 -0.2226  0.5244 -0.2229
   24TCq2    H2  377   1.595   0.947  14.421 -1.8451 -0.4192  2.6466
   24TCq2    H3  378   1.352   0.786  14.099  1.3742  1.4530 -1.5350
   24TCq2    H4  379   1.529   0.525  14.384  0.4760 -0.5172 -1.1018
   25TMC2    C1  380   0.494   3.269  10.951  0.1800  0.4666 -0.0473
   25TMC2    C2  381   0.447   3.369  10.868  0.2381 -0.3869 -0.6288
   25TMC2    C3  382   0.384   3.473  10.934 -0.3094 -0.1662  0.9240
   25TMC2    C4  383   0.492   3.273  11.085 -0.3606  0.1658 -0.2890
   25TMC2    C5  384   0.447   3.391  11.143 -0.2764 -0.1745  0.2499
   25TMC2    C6  385   0.385   3.488  11.070  0.1876  0.1277 -0.8778
   25TMC2     C  386   0.576   3.173  10.889 -0.2025  0.3934 -0.2067
   25TMC2     O  387   0.634   3.206  10.786 -0.6970  0.4580 -0.2475
   25TMC2     H  388   0.450   3.352  10.761 -0.5893 -0.7108 -0.6021
   25TMC2    H1  389   0.541   3.195  11.143 -0.9624 -1.4851 -2.0048
   25TMC2    H2  390   0.340   3.578  11.109 -1.5149 -1.0505 -0.1209
   25TMC2    C7  391   0.429   3.391  11.283 -0.0431  0.2613 -0.4573
   25TMC2    C8  392   0.267   3.534  10.880  0.0341  1.1727  0.2998
   25TMC2    O1  393   0.478   3.293  11.339  0.5826  0.2636  0.0666
   25TMC2    O2  394   0.165   3.545  10.945  0.3940 -0.2400 -0.1383
   25TMC2    O5  395   0.275   3.527  10.746  0.0652  0.0846  0.0388
   25TMC2    H5  396   0.364   3.505  10.712  0.1956  0.2082  0.2995
   26MPD2     C  397   0.826   2.735  10.866 -0.2483  0.8033 -0.1406
   26MPD2    C1  398   0.719   2.716  10.950  0.0170  0.3805  0.1186
   26MPD2    C2  399   0.631   2.818  10.964  0.3190 -0.3549  0.1329
   26MPD2    C3  400   0.661   2.945  10.919  0.3057 -0.4073  0.2641
   26MPD2    C4  401   0.774   2.963  10.846 -0.2833  0.6924  0.0542
   26MPD2    C5  402   0.849   2.860  10.818 -0.3188  0.1321 -0.0240
   26MPD2     H  403   0.535   2.803  11.014 -0.1215  1.7143 -0.1081
   26MPD2    H1  404   0.801   3.057  10.799  0.7369 -0.7727 -2.3122
   26MPD2    H2  405   0.889   2.656  10.825 -0.4760  0.7261 -0.3394
   26MPD2    H3  406   0.926   2.867  10.742 -0.4847 -0.7387 -0.2729
   26MPD2     N  407   0.570   3.048  10.948  0.1224 -0.0211 -0.2206
   26MPD2    H5  408   0.501   3.032  11.021 -0.6979  0.2082 -0.9464
   26MPD2    N1  409   0.685   2.584  10.984 -0.2658 -0.3616 -0.3288
   26MPD2    H7  410   0.754   2.513  10.965 -1.7363 -1.7448 -0.4640
   27TMC2    C1  411   3.837   4.691  11.839  0.1698  0.4531  0.0150
   27TMC2    C2  412   3.774   4.645  11.727 -0.1497  0.6893  0.1704
   27TMC2    C3  413   3.741   0.013  11.633 -0.4213  0.5370  0.4378
   27TMC2    C4  414   3.857   0.096  11.872 -0.0076 -0.2119  0.0861
   27TMC2    C5  415   3.803   0.185  11.782 -0.1463 -0.8223  0.1497
   27TMC2    C6  416   3.745   0.142  11.662 -0.4066  0.7220  0.4893
   27TMC2     C  417   3.860   4.590  11.940  1.0065  0.1131 -0.9147
   27TMC2     O  418   3.885   4.475  11.907  0.0483 -0.0235 -0.1686
   27TMC2     H  419   3.760   4.538  11.717  0.7118  0.6099 -0.1539
   27TMC2    H1  420   3.928   0.132  11.946  0.7007  0.6419 -1.0073
   27TMC2    H2  421   3.687   0.210  11.601 -0.0354  1.1548  0.6206
   27TMC2    C7  422   3.813   0.328  11.821 -1.0537 -0.4546  0.7295
   27TMC2    C8  423   3.654   4.700  11.526  0.3834  0.4654 -0.0547
   27TMC2    O1  424   3.895   0.353  11.913 -0.1857  0.1160  0.5836
   27TMC2    O2  425   3.587   0.052  11.462 -0.0999  0.0295  0.8901
   27TMC2    O5  426   3.685   4.577  11.489  0.0249  0.5748  0.4913
   27TMC2    H5  427   3.761   4.531  11.530  1.4413 -0.4590 -3.2382
   28MPD2     C  428   3.892   4.477  12.440 -0.1635 -0.3321  0.2104
   28MPD2    C1  429   3.828   4.606  12.423 -0.0953  0.1698  0.3805
   28MPD2    C2  430   3.812   4.659  12.296  0.5864  0.3385 -0.3108
   28MPD2    C3  431   3.858   4.593  12.184  0.0274 -0.5849  0.4586
   28MPD2    C4  432   3.910   4.461  12.202 -0.0931 -0.0135  0.3918
   28MPD2    C5  433   3.926   4.408  12.326  0.9402 -0.0646 -0.4872
   28MPD2     H  434   3.754   0.026  12.279  0.0521  0.1678  0.5883
   28MPD2    H1  435   3.961   4.414  12.118 -2.0355  0.0015 -0.8112
   28MPD2    H2  436   3.904   4.433  12.538 -0.2453  1.9424  1.2286
   28MPD2    H3  437   3.974   4.311  12.337 -1.6159 -1.1782  0.7337
   28MPD2     N  438   3.838   4.646  12.058  0.3957 -0.2322  0.3508
   28MPD2    H5  439   3.782   0.008  12.054 -0.0606 -0.5911 -0.8499
   28MPD2    N1  440   3.775   4.667  12.543 -0.5956  0.3732 -0.8635
   28MPD2    H7  441   3.776   4.611  12.628 -3.6428  1.1214 -0.3359
   29MPD2     C  442   4.086   2.763  14.338  0.0322  0.3109 -0.3731
   29MPD2    C1  443   4.187   2.712  14.259  0.3016  0.3140 -0.8678
   29MPD2    C2  444   4.279   2.799  14.195 -0.1796 -0.1970  0.2329
   29MPD2    C3  445   4.263   2.936  14.216  0.3005  0.1412  0.3229
   29MPD2    C4  446   4.160   2.980  14.280  0.1398  0.7794 -0.0222
   29MPD2    C5  447   4.072   2.900  14.348  0.5256 -0.7174 -0.3959
   29MPD2     H  448   4.365   2.769  14.137 -0.6179 -0.0547 -0.4830
   29MPD2    H1  449   4.151   3.088  14.291 -1.6852  0.6275 -0.0161
   29MPD2    H2  450   4.023   2.698  14.398  1.0661  2.4213  2.9732
   29MPD2    H3  451   3.981   2.935  14.394 -0.1685  0.3589 -2.6189
   29MPD2     N  452   4.348   3.033  14.158  0.2602 -0.0925 -0.0304
   29MPD2    H5  453   4.326   3.131  14.173  0.8261  0.2743 -1.6423
   29MPD2    N1  454   4.208   2.575  14.244  0.4821 -0.2667  0.1841
   29MPD2    H7  455   4.293   2.549  14.194 -0.4754  1.5897 -2.4317
   30TCq2    C1  456   4.458   3.014  14.073 -0.2978  0.7059 -0.3669
   30TCq2    O2  457   4.531   2.912  14.056  0.2316 -0.2914  0.0951
   30TCq2    C2  458   4.499   3.145  14.034 -0.6432 -0.5320 -0.1074
   30TCq2    C3  459   4.411   3.253  14.028 -0.4526 -0.9204 -0.0034
   30TCq2    C4  460   4.455   3.373  13.996 -0.0686 -0.2234  0.2242
   30TCq2    C5  461   4.584   3.403  13.958  0.1396  0.0815 -0.6655
   30TCq2    C6  462   4.666   3.291  13.942 -1.3949 -0.2459 -0.2133
   30TCq2    C7  463   4.622   3.163  13.976 -0.1150  0.4753  0.2104
   30TCq2    C8  464   0.083   3.304  13.922 -0.6589  0.4556  0.3826
   30TCq2    O4  465   0.150   3.201  13.931 -0.2297 -0.4341  0.3343
   30TCq2    C9  466   4.365   3.489  13.979  0.2054  0.7212  0.1009
   30TCq2    O5  467   4.406   3.570  13.898 -0.1591  0.0371 -0.0762
   30TCq2    O6  468   4.247   3.467  14.006 -0.8670  0.1131  1.1174
   30TCq2    H2  469   4.306   3.238  14.050 -0.6512  0.9559  0.3262
   30TCq2    H3  470   4.621   3.504  13.941  2.2064  0.0855  3.7648
   30TCq2    H4  471   4.691   3.080  13.989  0.8714  1.0359 -1.4938
   31MPD2     C  472   1.789   1.674  14.952  0.0649 -0.7379  0.6318
   31MPD2    C1  473   1.693   1.766  14.938  0.6455  0.1367 -0.2858
   31MPD2    C2  474   1.610   1.786  15.043  0.3235  0.1477 -1.2838
   31MPD2    C3  475   1.625   1.719  15.164  0.0267 -0.2507  0.7589
   31MPD2    C4  476   1.726   1.634  15.176  0.3095 -0.3400 -1.0033
   31MPD2    C5  477   1.810   1.609  15.066 -0.4150 -0.2284 -0.2645
   31MPD2     H  478   1.531   1.859  15.032  2.8962  3.0341 -0.4648
   31MPD2    H1  479   1.750   1.571  15.261  3.0402  0.5272 -1.1332
   31MPD2    H2  480   1.848   1.636  14.869 -0.2078 -0.3774  0.2719
   31MPD2    H3  481   1.895   1.542  15.060  0.8910  1.3771  0.1139
   31MPD2     N  482   1.549   1.735  15.283 -0.9686  0.3769  0.1520
   31MPD2    H5  483   1.580   1.692  15.370  1.5359 -0.9239 -1.4021
   31MPD2    N1  484   1.695   1.839  14.816  0.0360  0.0511 -0.4900
   31MPD2    H7  485   1.783   1.831  14.765  0.8371  0.5126  0.8270
   32TCq2    C1  486   1.446   1.818  15.292 -1.0500  0.1427  0.9356
   32TCq2    O2  487   1.373   1.851  15.200 -0.0098  0.3899  0.0145
   32TCq2    C2  488   1.404   1.821  15.426  0.3784 -0.9202 -0.1418
   32TCq2    C3  489   1.275   1.833  15.453  0.1746  0.5854  0.1227
   32TCq2    C4  490   1.232   1.828  15.580 -0.0555 -0.9203  0.3656
   32TCq2    C5  491   1.320   1.824  15.682  0.4869 -0.2131 -0.1202
   32TCq2    C6  492   1.452   1.805  15.655 -0.3928 -0.5196 -0.4847
   32TCq2    C7  493   1.500   1.799  15.525 -0.6799  0.8719 -0.6873
   32TCq2    C8  494   1.533   1.791  15.776  0.0090 -0.2279  0.1003
   32TCq2    O4  495   1.494   1.712  15.860  0.0556 -0.6090 -0.6922
   32TCq2    C9  496   1.095   1.826  15.608  0.3517  0.6027 -0.3865
   32TCq2    O5  497   1.061   1.826  15.727  0.1262  0.1986  0.2736
   32TCq2    O6  498   1.016   1.818  15.513 -0.4575 -0.4829  0.1984
   32TCq2    H2  499   1.204   1.839  15.372  1.2943 -0.4763 -0.9278
   32TCq2    H3  500   1.285   1.820  15.785  3.9035 -0.4096  1.0319
   32TCq2    H4  501   1.607   1.793  15.509 -0.7682 -2.5935  0.1411
   33MPD2     C  502   1.906   3.961  10.250 -1.3657 -0.1164 -0.4215
   33MPD2    C1  503   1.774   3.961  10.280 -0.4340  0.1334 -0.2120
   33MPD2    C2  504   1.679   4.004  10.189  0.7017 -0.5205 -0.0796
   33MPD2    C3  505   1.714   4.070  10.072  0.0559 -0.0370  0.3411
   33MPD2    C4  506   1.849   4.073  10.043 -0.1795 -0.1560 -0.2606
   33MPD2    C5  507   1.936   4.017  10.127  0.4066 -0.1914  0.1337
   33MPD2     H  508   1.576   3.978  10.213  0.0138  2.5710  0.3319
   33MPD2    H1  509   1.892   4.121   9.956  1.2214 -0.5607  0.2192
   33MPD2    H2  510   1.982   3.922  10.316 -1.0892  1.5033  0.2190
   33MPD2    H3  511   2.042   4.020  10.105 -0.0261  0.7325 -1.8797
   33MPD2     N  512   1.630   4.116   9.972 -0.3969 -0.9382  0.2574
   33MPD2    H5  513   1.665   4.185   9.905 -0.4782  0.7501  1.9507
   33MPD2    N1  514   1.738   3.906  10.404 -0.2010  0.4548  0.3631
   33MPD2    H7  515   1.812   3.876  10.467  0.5476  1.9670  0.2080
   34TCq2    C1  516   1.500   4.068   9.961 -0.7049  0.5046  0.1318
   34TCq2    O2  517   1.458   3.967  10.014  0.0934 -0.6442  0.3052
   34TCq2    C2  518   1.416   4.144   9.869  0.5293  0.3064 -0.5334
   34TCq2    C3  519   1.301   4.077   9.832 -0.4721 -0.3998  0.0456
   34TCq2    C4  520   1.228   4.131   9.726  0.6687 -0.2738  0.3773
   34TCq2    C5  521   1.268   4.243   9.669  0.2477 -0.0887  0.2899
   34TCq2    C6  522   1.381   4.308   9.710  0.1559 -0.2912  0.0282
   34TCq2    C7  523   1.450   4.258   9.812  0.0628  0.2860 -0.2204
   34TCq2    C8  524   1.407   4.445   9.661  0.0101  0.7038  0.1196
   34TCq2    O4  525   1.523   4.482   9.661  0.0103 -0.2252 -0.0321
   34TCq2    C9  526   1.106   4.062   9.680  0.5607  0.4272  0.2559
   34TCq2    O5  527   1.005   4.130   9.650  0.1984  0.6696  0.1523
   34TCq2    O6  528   1.104   3.934   9.682 -0.5929  0.2147 -0.1638
   34TCq2    H2  529   1.263   3.981   9.865  0.9073 -1.0541 -0.2656
   34TCq2    H3  530   1.206   4.268   9.583 -0.2457  1.1770  1.0232
   34TCq2    H4  531   1.536   4.313   9.847 -0.0218  0.1021  0.2698
   35MPD2     C  532   3.338   1.027  11.883 -0.3092 -0.7094 -0.6647
   35MPD2    C1  533   3.303   0.893  11.888 -0.1367 -0.1028  0.2044
   35MPD2    C2  534   3.282   0.814  11.782  0.4552 -0.8405  0.6352
   35MPD2    C3  535   3.282   0.872  11.654 -0.2970  0.0502 -0.4132
   35MPD2    C4  536   3.309   1.010  11.653  0.0277  0.8612 -0.1701
   35MPD2    C5  537   3.360   1.076  11.761 -0.1472 -0.0434 -0.3002
   35MPD2     H  538   3.244   0.713  11.788 -1.3373 -0.0665  2.2041
   35MPD2    H1  539   3.317   1.062  11.559 -0.7061 -0.0198 -0.7183
   35MPD2    H2  540   3.353   1.090  11.970  0.6345 -1.4336 -0.3050
   35MPD2    H3  541   3.399   1.177  11.752 -0.7782  0.2484  0.2008
   35MPD2     N  542   3.227   0.817  11.542 -0.4327  0.2774 -0.0643
   35MPD2    H5  543   3.196   0.720  11.552 -0.7247  0.2144 -1.5992
   35MPD2    N1  544   3.287   0.845  12.019  0.1467  0.2683 -0.1460
   35MPD2    H7  545   3.279   0.912  12.094  1.3193  0.5358 -0.2535
   36TCq2    C1  546   3.201   0.877  11.419  0.3307 -0.2681 -0.6290
   36TCq2    O2  547   3.239   0.987  11.382 -0.3165  0.7366  0.3592
   36TCq2    C2  548   3.124   0.796  11.325  0.0486  0.2036 -0.1630
   36TCq2    C3  549   3.142   0.824  11.186  0.2919  0.4472  0.2488
   36TCq2    C4  550   3.085   0.743  11.092 -0.3525 -0.5205  0.1355
   36TCq2    C5  551   2.991   0.643  11.129 -0.2993  0.4794  0.0330
   36TCq2    C6  552   2.995   0.605  11.261 -0.1398  0.0236 -0.0850
   36TCq2    C7  553   3.049   0.684  11.365 -0.0133 -0.0155 -0.6809
   36TCq2    C8  554   2.920   0.489  11.303  0.2318  0.5376 -0.5793
   36TCq2    O4  555   2.915   0.396  11.224  0.0082  0.4897 -0.5513
   36TCq2    C9  556   3.092   0.785  10.955 -0.1054  0.1071 -0.3066
   36TCq2    O5  557   3.119   0.904  10.941 -0.1302 -0.4500 -0.1212
   36TCq2    O6  558   3.112   0.696  10.865  0.2370  0.7777 -0.1709
   36TCq2    H2  559   3.201   0.909  11.155  1.5718 -1.0048 -1.2461
   36TCq2    H3  560   2.942   0.584  11.052 -0.1889 -0.0847  0.4014
   36TCq2    H4  561   3.052   0.640  11.464  0.7851 -1.2194 -1.2424
   37TMC2    C1  562   0.664   0.956  11.625 -0.2262 -0.6421  0.6882
   37TMC2    C2  563   0.680   0.985  11.493 -0.6845  1.2880  0.4834
   37TMC2    C3  564   0.803   1.028  11.447  0.4928  0.4500 -0.4895
   37TMC2    C4  565   0.778   0.958  11.705  1.1515 -0.2159  0.0034
   37TMC2    C5  566   0.898   1.003  11.663  0.1623  0.8827 -0.0497
   37TMC2    C6  567   0.908   1.039  11.532  0.9768 -0.2503  1.1234
   37TMC2     C  568   0.536   0.904  11.684 -0.1698 -0.3122  0.1645
   37TMC2     O  569   0.450   0.881  11.603 -0.4320  0.2039  0.2192
   37TMC2     H  570   0.596   0.979  11.425  0.5894 -2.1401 -0.7786
   37TMC2    H1  571   0.771   0.929  11.809  2.7544 -0.6024  0.0002
   37TMC2    H2  572   1.004   1.062  11.488 -0.0428  1.8788 -0.0289
   37TMC2    C7  573   0.994   1.058  11.751 -0.2760  0.8513  0.4312
   37TMC2    C8  574   0.836   1.046  11.305 -0.6447  0.1720 -0.5060
   37TMC2    O1  575   0.955   1.092  11.858  0.5060 -0.8363  0.3792
   37TMC2    O2  576   0.921   1.127  11.273  0.3647 -0.0799  0.4314
   37TMC2    O5  577   0.725   1.017  11.231 -0.3697 -0.5517 -0.0043
   37TMC2    H5  578   0.677   0.946  11.278  0.0256 -1.5628 -1.1213
   38MPD2     C  579   0.238   0.785  12.091  0.2042  0.1966  0.3966
   38MPD2    C1  580   0.339   0.872  12.129 -0.2372 -0.2472 -0.1937
   38MPD2    C2  581   0.424   0.917  12.036  0.1543 -0.1781  0.4644
   38MPD2    C3  582   0.428   0.876  11.904 -0.8253 -0.3338 -0.3583
   38MPD2    C4  583   0.334   0.780  11.873 -0.2754  0.5545  0.7833
   38MPD2    C5  584   0.240   0.737  11.964  0.4757  0.1362  0.1529
   38MPD2     H  585   0.487   1.000  12.068  0.5547 -0.2161 -0.2258
   38MPD2    H1  586   0.321   0.728  11.779  0.0150  0.7109  0.6561
   38MPD2    H2  587   0.175   0.743  12.168  0.7168 -3.9620 -1.4192
   38MPD2    H3  588   0.162   0.667  11.938  2.2039 -2.2022  1.2743
   38MPD2     N  589   0.521   0.935  11.815 -0.1760 -0.5711 -0.1711
   38MPD2    H5  590   0.591   0.997  11.856  0.7719 -1.0511 -1.0424
   38MPD2    N1  591   0.346   0.911  12.264 -0.5053 -0.0852 -0.9027
   38MPD2    H7  592   0.436   0.947  12.293 -0.1202 -1.2637 -0.6216
   39MPD2     C  593   4.317   3.411   1.834 -0.0449 -0.1640  0.1842
   39MPD2    C1  594   4.277   3.520   1.763 -0.0086 -0.1304 -0.2363
   39MPD2    C2  595   4.198   3.503   1.648 -0.0692 -0.5999 -0.7152
   39MPD2    C3  596   4.176   3.367   1.608  0.4818 -0.1748  0.4884
   39MPD2    C4  597   4.207   3.258   1.692 -0.0342 -0.2321  0.3832
   39MPD2    C5  598   4.288   3.284   1.798 -0.0223  0.6719  0.6898
   39MPD2     H  599   4.170   3.585   1.582 -0.1879 -0.9680 -1.1230
   39MPD2    H1  600   4.182   3.158   1.659 -0.9449  0.8381 -2.2365
   39MPD2    H2  601   4.379   3.429   1.921 -3.0397  1.9284  1.8675
   39MPD2    H3  602   4.321   3.195   1.852  0.1622  0.3556  0.0602
   39MPD2     N  603   4.113   3.346   1.480 -0.2465  0.0708  0.4390
   39MPD2    H5  604   4.086   3.432   1.432  0.0203 -0.4492 -0.6382
   39MPD2    N1  605   4.321   3.652   1.812 -0.1842 -0.0618 -0.1215
   39MPD2    H7  606   4.375   3.650   1.898 -1.0702  2.7538  0.4909
   40TCq2    C1  607   4.289   3.773   1.759  0.1113  0.0518  0.5132
   40TCq2    O2  608   4.209   3.801   1.667  0.0265  0.1426 -0.8893
   40TCq2    C2  609   4.343   3.888   1.836  0.0360 -0.3889 -0.0389
   40TCq2    C3  610   4.275   4.002   1.848  0.5416 -0.9018 -0.4407
   40TCq2    C4  611   4.327   4.100   1.928  0.1302  0.7163 -0.2198
   40TCq2    C5  612   4.442   4.074   2.002  0.4464  0.3298 -0.4964
   40TCq2    C6  613   4.505   3.955   1.983  0.0944 -0.2263  0.7030
   40TCq2    C7  614   4.460   3.863   1.897 -0.0965  0.7144  0.3451
   40TCq2    C8  615   4.637   3.916   2.026  0.0383  0.3619 -0.2710
   40TCq2    O4  616   4.679   3.802   2.021 -0.3833 -0.6519 -0.7770
   40TCq2    C9  617   4.259   4.231   1.940 -0.3213 -0.3464  0.5793
   40TCq2    O5  618   4.159   4.251   1.863  0.0399 -0.0757 -0.5088
   40TCq2    O6  619   4.334   4.328   1.987  0.0835  0.1321  0.3846
   40TCq2    H2  620   4.181   4.013   1.795 -0.6993  2.2281  2.4197
   40TCq2    H3  621   4.486   4.162   2.048  1.4988 -0.0405 -0.8130
   40TCq2    H4  622   4.509   3.768   1.877 -0.7730  0.4678 -0.1325
   41TMC2    C1  623   2.656   0.637  13.912  0.6271  0.4117 -0.0755
   41TMC2    C2  624   2.724   0.760  13.916  0.3246  0.0973 -0.0168
   41TMC2    C3  625   2.714   0.847  13.814  0.6043 -0.0827  0.2657
   41TMC2    C4  626   2.586   0.595  13.806  0.4249 -0.0683  0.0741
   41TMC2    C5  627   2.586   0.686  13.701  0.1022 -0.0884 -0.2782
   41TMC2    C6  628   2.639   0.809  13.706  0.2184  0.1308 -0.3973
   41TMC2     C  629   2.689   0.535  14.005 -0.6583  0.4757  0.5082
   41TMC2     O  630   2.676   0.421  13.959  0.0880  0.6227 -0.1496
   41TMC2     H  631   2.801   0.764  13.993 -0.0015  0.3617  0.2958
   41TMC2    H1  632   2.540   0.497  13.799 -0.1764  0.3354 -1.7379
   41TMC2    H2  633   2.632   0.887  13.632 -0.8845 -0.5850 -1.0418
   41TMC2    C7  634   2.509   0.651  13.579 -0.3844  0.4292  0.0442
   41TMC2    C8  635   2.743   0.990  13.825  0.0118 -0.7955  0.3213
   41TMC2    O1  636   2.447   0.543  13.573  0.3900  0.1566  0.2829
   41TMC2    O2  637   2.784   1.065  13.739  0.1499 -0.1088 -0.3219
   41TMC2    O5  638   2.758   1.012  13.958 -0.0235 -0.0295  0.1571
   41TMC2    H5  639   2.704   0.954  14.016 -0.9458  0.5852 -0.0917
   42MPD2     C  640   2.695   0.350  14.239  0.3402  0.6612  0.4953
   42MPD2    C1  641   2.716   0.486  14.246 -1.0629 -0.8429 -0.2968
   42MPD2    C2  642   2.743   0.547  14.371  0.8864 -0.1517  0.2537
   42MPD2    C3  643   2.733   0.466  14.486 -0.1825  0.3575 -0.2236
   42MPD2    C4  644   2.697   0.334  14.479 -0.2135 -0.1950 -0.6422
   42MPD2    C5  645   2.679   0.273  14.357 -0.6038 -0.6618  0.2554
   42MPD2     H  646   2.756   0.655  14.370  1.8402 -0.2556  1.6313
   42MPD2    H1  647   2.689   0.264  14.562  1.6842 -0.9447 -1.0998
   42MPD2    H2  648   2.694   0.291  14.147  0.0639  1.5869 -0.0902
   42MPD2    H3  649   2.659   0.167  14.347  1.9476 -1.1658  0.5078
   42MPD2     N  650   2.750   0.515  14.618 -0.1043  0.1460 -0.4767
   42MPD2    H5  651   2.725   0.454  14.695 -0.3285  0.1737 -0.5261
   42MPD2    N1  652   2.704   0.573  14.134  0.0776  0.1822  0.3458
   42MPD2    H7  653   2.696   0.671  14.159 -0.7095  0.1515  0.2039
   43MPD2     C  654   4.561   4.653   0.237 -0.8427  0.3147 -0.4616
   43MPD2    C1  655   4.535   4.533   0.298 -0.8615  0.6579  0.2902
   43MPD2    C2  656   4.470   4.534   0.415 -0.1660 -0.4537  0.4828
   43MPD2    C3  657   4.411   4.646   0.473  0.0814 -0.1420 -0.0194
   43MPD2    C4  658   4.426   0.038   0.403  0.3371 -0.1863 -0.0076
   43MPD2    C5  659   4.504   0.043   0.290 -0.4105 -0.2923 -0.4676
   43MPD2     H  660   4.460   4.438   0.464 -0.3527  0.1897  1.6944
   43MPD2    H1  661   4.392   0.130   0.449 -0.4593 -0.2642 -0.4413
   43MPD2    H2  662   4.623   4.669   0.149  1.9646  0.3188  1.5178
   43MPD2    H3  663   4.518   0.141   0.248 -4.2176  1.6335  2.7773
   43MPD2     N  664   4.320   4.642   0.579 -0.4915 -0.0517  0.4710
   43MPD2    H5  665   4.277   0.007   0.604 -0.1725 -0.4976  2.6430
   43MPD2    N1  666   4.596   4.408   0.260  0.0676  0.1921 -0.3906
   43MPD2    H7  667   4.607   4.335   0.329  2.3778 -0.6091 -1.6003
   44TCq2    C1  668   3.900   0.031   0.831  0.9383  0.2378  0.4651
   44TCq2    O2  669   3.863   0.045   0.713  0.8781 -0.3391 -0.3024
   44TCq2    C2  670   4.040   4.699   0.848  0.0553  0.0136 -0.4860
   44TCq2    C3  671   4.079   4.658   0.972  0.3967 -0.4274 -0.4751
   44TCq2    C4  672   4.174   4.558   0.985 -0.2367  0.0971  0.2850
   44TCq2    C5  673   4.236   4.510   0.878  0.3304  1.0016  0.3626
   44TCq2    C6  674   4.197   4.561   0.758 -0.0454  0.2948 -0.0890
   44TCq2    C7  675   4.103   4.664   0.734 -0.1360  0.6823  1.1200
   44TCq2    C8  676   4.290   4.528   0.657  0.5554  0.7343  0.1612
   44TCq2    O4  677   4.339   4.415   0.654 -0.3232  0.4717  0.2155
   44TCq2    C9  678   4.198   4.502   1.116 -0.1754 -0.7528  0.2832
   44TCq2    O5  679   4.127   4.549   1.213 -0.1366 -1.0393  0.5047
   44TCq2    O6  680   4.265   4.397   1.123 -0.2761  0.0846 -0.0649
   44TCq2    H2  681   4.031   4.691   1.063  1.0933  0.3683 -0.4007
   44TCq2    H3  682   4.306   4.428   0.887  0.8286  1.5272  1.2829
   44TCq2    H4  683   4.077   4.694   0.633  1.3024 -0.7486  0.3208
   45TMC2    C1  684   3.887   1.541   9.484 -0.5217 -0.2384  0.3623
   45TMC2    C2  685   3.885   1.427   9.556  0.1304  0.2919  0.6863
   45TMC2    C3  686   4.007   1.373   9.596  0.0394 -0.0343  0.5417
   45TMC2    C4  687   4.010   1.600   9.452 -0.4639  0.2623  0.3644
   45TMC2    C5  688   4.125   1.536   9.478  0.6233  0.5601  0.0037
   45TMC2    C6  689   4.126   1.424   9.553 -0.0392  0.1382  0.0304
   45TMC2     C  690   3.774   1.600   9.434 -0.3941  0.5424 -0.5961
   45TMC2     O  691   3.779   1.717   9.416 -0.6955 -0.3506  0.0682
   45TMC2     H  692   3.793   1.382   9.591 -1.4307  2.2925 -0.8342
   45TMC2    H1  693   4.016   1.692   9.394 -2.7838  0.2205  0.0533
   45TMC2    H2  694   4.223   1.385   9.584 -0.5350  0.0690  1.5051
   45TMC2    C7  695   4.250   1.606   9.465 -0.0547 -0.1190  0.6337
   45TMC2    C8  696   3.998   1.264   9.693  0.1131  0.4543 -0.2775
   45TMC2    O1  697   4.257   1.698   9.383  0.0674  0.3899 -0.4098
   45TMC2    O2  698   3.918   1.173   9.688 -0.3486  0.1368  0.2360
   45TMC2    O5  699   4.099   1.283   9.782 -0.0938 -0.3862 -0.3360
   45TMC2    H5  700   4.130   1.376   9.787 -2.1107  0.2525  0.3615
   46MPD2     C  701   3.504   1.684   9.329 -0.3472  0.4639  0.2275
   46MPD2    C1  702   3.551   1.556   9.348  0.3850 -0.5845  0.1630
   46MPD2    C2  703   3.471   1.450   9.305 -0.2671 -0.2765  0.2430
   46MPD2    C3  704   3.344   1.468   9.258 -0.4018  0.3512  0.2605
   46MPD2    C4  705   3.293   1.596   9.237 -0.1851  0.1037  0.1905
   46MPD2    C5  706   3.376   1.702   9.275  0.2452  0.5104 -0.2857
   46MPD2     H  707   3.518   1.353   9.309  0.2722 -0.0199  0.1103
   46MPD2    H1  708   3.196   1.612   9.191  0.9307 -0.1963 -2.3136
   46MPD2    H2  709   3.554   1.770   9.371 -0.5531 -0.7755  3.0099
   46MPD2    H3  710   3.339   1.804   9.275 -2.0369 -0.3148  3.8570
   46MPD2     N  711   3.268   1.349   9.258  0.1556  0.5075 -0.1003
   46MPD2    H5  712   3.317   1.262   9.273  1.2429  0.9590 -1.0319
   46MPD2    N1  713   3.670   1.518   9.405 -0.2239 -0.1439 -0.1892
   46MPD2    H7  714   3.680   1.419   9.425 -0.7080 -0.2485 -0.4646
   47TMC2    C1  715   1.764   1.170   9.511 -0.0665  0.4787  0.2988
   47TMC2    C2  716   1.757   1.031   9.477 -0.4565  0.0255 -0.0861
   47TMC2    C3  717   1.643   0.982   9.416 -0.4133  0.0740 -0.0513
   47TMC2    C4  718   1.654   1.249   9.495 -0.2766  0.1574 -0.1181
   47TMC2    C5  719   1.547   1.204   9.419 -0.1825  0.3573 -0.0151
   47TMC2    C6  720   1.541   1.065   9.379 -0.2760 -0.2251 -0.5818
   47TMC2     C  721   1.895   1.234   9.528 -0.2995 -0.1026  0.1639
   47TMC2     O  722   1.902   1.355   9.542 -0.3096  0.0936  0.5833
   47TMC2     H  723   1.848   0.971   9.471 -0.3392 -0.1054  2.7139
   47TMC2    H1  724   1.672   1.350   9.530 -1.9013  0.6597 -0.7136
   47TMC2    H2  725   1.458   1.016   9.329 -0.7401  1.1008 -1.0927
   47TMC2    C7  726   1.428   1.281   9.416 -0.0963 -0.5241 -0.1689
   47TMC2    C8  727   1.619   0.840   9.391 -0.6697  0.4462 -0.5876
   47TMC2    O1  728   1.328   1.225   9.375  0.2560  0.0010 -0.5210
   47TMC2    O2  729   1.518   0.792   9.333 -0.5758  0.2392 -0.0038
   47TMC2    O5  730   1.683   0.778   9.499  0.2774  0.3439 -0.2187
   47TMC2    H5  731   1.773   0.812   9.517  1.1353 -2.2264  0.1855
   48MPD2     C  732   2.188   1.283   9.559  0.3729  0.5906  0.9224
   48MPD2    C1  733   2.123   1.170   9.590 -0.3492 -0.2183 -0.1100
   48MPD2    C2  734   2.188   1.065   9.647 -0.3537 -0.0030 -0.1627
   48MPD2    C3  735   2.322   1.073   9.686 -0.3644  0.4474  0.3348
   48MPD2    C4  736   2.388   1.190   9.657 -0.0926 -0.5797  0.1556
   48MPD2    C5  737   2.325   1.295   9.593 -0.3794 -0.1399 -0.7047
   48MPD2     H  738   2.145   0.969   9.674 -3.0504  1.1789 -0.2922
   48MPD2    H1  739   2.495   1.198   9.674 -0.4077  2.9332  0.5211
   48MPD2    H2  740   2.155   1.365   9.496 -2.2743 -0.6050  0.7867
   48MPD2    H3  741   2.379   1.388   9.581  0.9466 -1.0536 -1.9966
   48MPD2     N  742   2.374   0.958   9.758 -0.0780  0.4836 -0.4723
   48MPD2    H5  743   2.314   0.881   9.785  1.1812  0.5423  2.5007
   48MPD2    N1  744   1.985   1.146   9.573 -0.4804  0.1299  0.6297
   48MPD2    H7  745   1.953   1.051   9.588 -1.7135  0.6080  1.0460
   49MPD2     C  746   4.575   3.775   9.603 -0.5500 -0.4914 -0.8111
   49MPD2    C1  747   4.566   3.697   9.714 -0.1091  0.0369 -0.2596
   49MPD2    C2  748   4.655   3.708   9.817  0.0578 -0.2247 -0.6968
   49MPD2    C3  749   0.043   3.786   9.804  0.5773  0.8434  0.9314
   49MPD2    C4  750   0.065   3.847   9.688  0.0489  0.1154  0.2298
   49MPD2    C5  751   4.691   3.845   9.590 -0.6309 -0.3992 -0.2286
   49MPD2     H  752   4.649   3.641   9.903  0.0897  2.8204  1.6746
   49MPD2    H1  753   0.142   3.923   9.678 -1.4612  1.4902 -0.9562
   49MPD2    H2  754   4.516   3.770   9.512 -1.1022 -3.1225 -0.3186
   49MPD2    H3  755   4.709   3.904   9.501  0.2084  0.2936  0.3898
   49MPD2     N  756   0.139   3.799   9.909 -0.3049 -0.3057 -0.0891
   49MPD2    H5  757   0.213   3.868   9.906  0.7017 -1.3382  0.6910
   49MPD2    N1  758   4.457   3.616   9.746  0.4898 -0.2682  0.0547
   49MPD2    H7  759   4.469   3.559   9.829  1.7148 -2.4613 -1.6450
   50TCq2    C1  760   4.347   3.603   9.662 -0.3978 -0.6942 -0.1035
   50TCq2    O2  761   4.311   3.677   9.569 -0.4846 -0.2230 -0.1720
   50TCq2    C2  762   4.252   3.506   9.712 -0.0226 -0.3971 -0.2885
   50TCq2    C3  763   4.138   3.508   9.645 -0.0164 -0.3922  0.3931
   50TCq2    C4  764   4.037   3.418   9.680 -0.5284 -0.5123 -0.4963
   50TCq2    C5  765   4.057   3.319   9.771 -0.0173  0.7825  0.1774
   50TCq2    C6  766   4.177   3.324   9.836 -0.5841  0.2333  0.4807
   50TCq2    C7  767   4.275   3.415   9.809 -0.7834 -0.4876 -0.4833
   50TCq2    C8  768   4.196   3.218   9.944 -0.1352 -0.9889  0.0910
   50TCq2    O4  769   4.105   3.144   9.977 -0.0239 -0.1809 -0.1247
   50TCq2    C9  770   3.913   3.423   9.605  0.1718  0.0079 -0.6041
   50TCq2    O5  771   3.819   3.344   9.629 -0.7692  0.4763  0.3927
   50TCq2    O6  772   3.915   3.507   9.511  0.3004  0.8313 -0.1519
   50TCq2    H2  773   4.122   3.581   9.566  2.3835  1.2340  1.4049
   50TCq2    H3  774   3.975   3.253   9.792 -1.3661  2.3462 -0.1550
   50TCq2    H4  775   4.376   3.402   9.845 -0.3600  0.9010 -1.1492
   51MPD2     C  776   0.905   3.113   0.801  0.5316 -0.6426  0.0965
   51MPD2    C1  777   0.990   3.036   0.879  0.0271 -0.0531  0.0115
   51MPD2    C2  778   1.080   3.092   0.973 -0.4967  0.0857  0.5532
   51MPD2    C3  779   1.069   3.222   1.001  0.1200 -0.4104  0.1687
   51MPD2    C4  780   0.976   3.300   0.930 -0.2258  0.2863 -0.4429
   51MPD2    C5  781   0.890   3.242   0.844  0.4602 -0.6945  0.7885
   51MPD2     H  782   1.150   3.025   1.023  1.7160  1.9398 -0.0632
   51MPD2    H1  783   0.949   3.402   0.955 -2.3261 -0.7344  1.5508
   51MPD2    H2  784   0.829   3.070   0.737  0.1111  1.4827 -0.8339
   51MPD2    H3  785   0.819   3.306   0.793 -0.4455 -1.3992  1.1537
   51MPD2     N  786   1.147   3.290   1.100  0.0765  0.2466 -0.6324
   51MPD2    H5  787   1.137   3.391   1.107 -3.0327  0.0649 -2.3889
   51MPD2    N1  788   1.003   2.895   0.863  0.1982 -0.3189  0.3449
   51MPD2    H7  789   1.058   2.847   0.933  0.3888  1.4203  1.3767
   52TCq2    C1  790   1.232   3.237   1.195  0.2561  0.4902  0.0657
   52TCq2    O2  791   1.250   3.118   1.215  0.0662  0.2929  0.3753
   52TCq2    C2  792   1.294   3.328   1.280 -0.7086 -0.1072 -0.3248
   52TCq2    C3  793   1.249   3.461   1.295  0.0478  0.3424 -0.3477
   52TCq2    C4  794   1.331   3.550   1.352  0.3425 -0.8113 -0.0653
   52TCq2    C5  795   1.452   3.513   1.405 -0.3965 -0.0971 -0.3367
   52TCq2    C6  796   1.484   3.380   1.410  0.5278  0.2207  0.3122
   52TCq2    C7  797   1.404   3.287   1.346  0.3284 -0.3221 -0.7637
   52TCq2    C8  798   1.615   3.344   1.464 -0.2455  0.6469 -0.0071
   52TCq2    O4  799   1.676   3.247   1.424 -0.5903  0.3084  0.7059
   52TCq2    C9  800   1.285   3.693   1.350 -0.0128 -0.5154 -0.0916
   52TCq2    O5  801   1.195   3.725   1.273  0.4867 -0.0743 -0.1739
   52TCq2    O6  802   1.357   3.770   1.415 -0.5311 -0.1116  0.4973
   52TCq2    H2  803   1.168   3.506   1.238 -1.0055  0.3120  1.1418
   52TCq2    H3  804   1.504   3.598   1.449 -1.5502  0.9694 -1.0498
   52TCq2    H4  805   1.428   3.182   1.350 -0.0345 -0.4191 -1.0738
   53TMC2    C1  806   1.308   1.363  12.271  0.4562 -0.6348 -0.1076
   53TMC2    C2  807   1.345   1.476  12.338 -0.1153  0.4603 -0.2908
   53TMC2    C3  808   1.277   1.516  12.448 -0.0835 -0.1085 -0.3206
   53TMC2    C4  809   1.206   1.289  12.318  0.4217 -0.0425 -1.0666
   53TMC2    C5  810   1.130   1.343  12.415  0.0956 -0.4020 -0.4192
   53TMC2    C6  811   1.174   1.446  12.501 -0.3259 -0.3671  0.0594
   53TMC2     C  812   1.395   1.314  12.167  0.0690  0.5876  0.1456
   53TMC2     O  813   1.521   1.317  12.174 -0.1278  0.2422 -0.5478
   53TMC2     H  814   1.422   1.540  12.297  0.9700 -1.4813 -1.2934
   53TMC2    H1  815   1.178   1.194  12.275 -0.2511  0.1891 -1.1405
   53TMC2    H2  816   1.107   1.478  12.580 -1.5289  0.7703 -1.4130
   53TMC2    C7  817   0.990   1.318  12.398 -0.1753 -0.3172  0.1326
   53TMC2    C8  818   1.329   1.635  12.514 -0.3188  0.4923 -0.9520
   53TMC2    O1  819   0.965   1.277  12.287  0.2482  0.1774  0.0447
   53TMC2    O2  820   1.450   1.665  12.504  0.4081 -0.2665 -0.1416
   53TMC2    O5  821   1.261   1.652  12.626 -0.0766  0.1176  0.2226
   53TMC2    H5  822   1.166   1.627  12.627  0.0216 -0.3040 -1.4682
   54MPD2     C  823   1.464   1.168  11.907  0.4742  0.1053 -0.4852
   54MPD2    C1  824   1.342   1.202  11.954  0.4125  0.3358 -0.5231
   54MPD2    C2  825   1.222   1.170  11.885  0.3142  0.5134  0.1946
   54MPD2    C3  826   1.229   1.100  11.767 -0.2177 -0.0473  0.5833
   54MPD2    C4  827   1.355   1.063  11.726  0.1625 -0.1322 -0.4511
   54MPD2    C5  828   1.471   1.099  11.792  0.0663  0.8741  0.1732
   54MPD2     H  829   1.128   1.193  11.933 -0.1332  1.1521 -0.9843
   54MPD2    H1  830   1.366   1.007  11.634 -1.0745 -0.3711 -0.4520
   54MPD2    H2  831   1.553   1.194  11.964  0.3806  0.0421 -0.3097
   54MPD2    H3  832   1.561   1.059  11.747 -1.4611 -1.6427 -0.6577
   54MPD2     N  833   1.120   1.057  11.696 -0.1061 -0.9231  0.3324
   54MPD2    H5  834   1.144   0.995  11.619 -0.9874  1.6681 -2.0323
   54MPD2    N1  835   1.311   1.257  12.077  0.4894  0.7038 -0.0543
   54MPD2    H7  836   1.212   1.279  12.090  0.3628 -0.0112  0.2418
   55MPD2     C  837   2.185   3.637   0.723  0.7208  1.3073 -0.0511
   55MPD2    C1  838   2.102   3.531   0.693  0.0008  0.2254  0.0954
   55MPD2    C2  839   1.976   3.557   0.656 -0.0650 -0.0863 -0.6010
   55MPD2    C3  840   1.924   3.686   0.648 -0.4883 -0.0478 -1.0265
   55MPD2    C4  841   2.008   3.791   0.679  0.0318  0.2330  0.4778
   55MPD2    C5  842   2.137   3.769   0.719 -0.1989  0.2737  0.0460
   55MPD2     H  843   1.915   3.468   0.645 -2.0773  0.9524  2.2473
   55MPD2    H1  844   1.974   3.894   0.668  0.9503  0.4543 -0.3247
   55MPD2    H2  845   2.287   3.619   0.753 -0.4250 -2.7079  1.4876
   55MPD2    H3  846   2.201   3.850   0.752 -0.7224  0.6192  0.2161
   55MPD2     N  847   1.786   3.693   0.624 -0.5017  0.1357  0.4271
   55MPD2    H5  848   1.747   3.603   0.597  0.9624 -0.8696  1.7060
   55MPD2    N1  849   2.152   3.405   0.684  0.2749 -0.3802  0.0208
   55MPD2    H7  850   2.246   3.387   0.717  0.1125 -1.1365  0.0803
   56TCq2    C1  851   2.094   3.293   0.631  0.2163 -0.4088  0.2940
   56TCq2    O2  852   1.984   3.273   0.577 -0.6132  0.0747 -0.4467
   56TCq2    C2  853   2.176   3.175   0.646 -0.1272 -0.8879  0.4476
   56TCq2    C3  854   2.262   3.166   0.750  0.0237 -0.0195 -0.3651
   56TCq2    C4  855   2.338   3.048   0.754  0.0399 -0.3480  0.1762
   56TCq2    C5  856   2.317   2.943   0.661 -0.0682 -0.1319  0.6880
   56TCq2    C6  857   2.214   2.952   0.576  0.5666  0.2312 -0.2898
   56TCq2    C7  858   2.141   3.067   0.575 -0.3203 -0.2291 -0.5807
   56TCq2    C8  859   2.168   2.827   0.506 -0.0862  0.3652  0.2169
   56TCq2    O4  860   2.251   2.745   0.470 -0.0261  0.1421  0.8344
   56TCq2    C9  861   2.421   3.017   0.866 -0.8449 -0.4363  0.1116
   56TCq2    O5  862   2.395   3.092   0.961  0.7448 -0.2743  0.7573
   56TCq2    O6  863   2.488   2.910   0.868  0.5231  0.0021 -0.5845
   56TCq2    H2  864   2.276   3.233   0.834  3.1728  0.8671 -1.6072
   56TCq2    H3  865   2.371   2.851   0.678  2.2741  0.7742 -1.8910
   56TCq2    H4  866   2.052   3.058   0.513  0.3271  1.7106 -1.7634
   57TMC2    C1  867   0.903   0.133  13.214 -1.0028  0.3363  0.0676
   57TMC2    C2  868   0.834   0.037  13.138  0.4803  0.5606  0.9298
   57TMC2    C3  869   0.913   4.679  13.065 -0.2399 -0.0727 -0.5539
   57TMC2    C4  870   1.040   0.141  13.218  0.4244  0.1883 -0.7133
   57TMC2    C5  871   1.112   0.054  13.140 -0.0024 -0.6879  0.1201
   57TMC2    C6  872   1.049   4.688  13.063  0.0586  0.2322 -0.7967
   57TMC2     C  873   0.834   0.220  13.310 -0.0605 -0.1153  1.1709
   57TMC2     O  874   0.720   0.245  13.273 -0.0645 -0.1667  0.0206
   57TMC2     H  875   0.725   0.042  13.137  0.4384 -0.8159 -1.3597
   57TMC2    H1  876   1.094   0.220  13.268  0.7081 -0.9023  0.6893
   57TMC2    H2  877   1.105   4.624  12.995  2.4077  2.0776 -0.5814
   57TMC2    C7  878   1.255   0.061  13.134 -0.3333 -0.4216  0.1396
   57TMC2    C8  879   0.874   4.543  13.024  0.3635 -0.2157 -0.4493
   57TMC2    O1  880   1.302   0.161  13.191  0.2721 -0.1188 -0.1416
   57TMC2    O2  881   0.955   4.451  13.001 -0.6615  0.0232 -0.4399
   57TMC2    O5  882   0.742   4.559  13.002  0.0154  0.0324 -0.2109
   57TMC2    H5  883   0.726   4.655  12.987 -0.5516  0.1919  1.3328
   58MPD2     C  884   0.828   0.419  13.786 -0.0206  0.5095  0.6380
   58MPD2    C1  885   0.739   0.435  13.682  0.1404 -0.0624 -0.4177
   58MPD2    C2  886   0.762   0.375  13.559 -0.0591 -0.8739  0.0504
   58MPD2    C3  887   0.877   0.297  13.545 -0.0723  0.4808  0.2808
   58MPD2    C4  888   0.963   0.281  13.649  0.1529  0.1819  0.2431
   58MPD2    C5  889   0.939   0.339  13.767 -0.2405 -0.5736  1.1612
   58MPD2     H  890   0.692   0.386  13.477  0.5092  1.9244 -0.0523
   58MPD2    H1  891   1.056   0.228  13.629  0.6853  0.4101  2.1168
   58MPD2    H2  892   0.823   0.495  13.863  2.7107  0.8649  0.4770
   58MPD2    H3  893   1.019   0.348  13.841  1.1503 -0.0015 -0.4010
   58MPD2     N  894   0.911   0.231  13.430 -0.3660  0.2825  0.0771
   58MPD2    H5  895   0.992   0.173  13.446 -2.1321 -1.5197  2.6384
   58MPD2    N1  896   0.630   0.533  13.697 -0.2560  0.4109 -0.4032
   58MPD2    H7  897   0.572   0.543  13.614 -0.3258  0.2283 -0.3770
   59MPD2     C  898   3.380   4.407  13.370  0.0848  1.2050  0.1375
   59MPD2    C1  899   3.428   4.470  13.257  0.6214  0.4816  0.0176
   59MPD2    C2  900   3.536   4.554  13.268  0.6506 -0.4833 -0.5442
   59MPD2    C3  901   3.614   4.569  13.380 -0.5373  0.0813 -0.0063
   59MPD2    C4  902   3.568   4.505  13.489  0.3815  0.4628 -0.1589
   59MPD2    C5  903   3.447   4.431  13.488  0.3050 -0.4408  0.1914
   59MPD2     H  904   3.571   4.590  13.172 -3.7354 -0.1115 -2.0189
   59MPD2    H1  905   3.626   4.513  13.580  0.8323 -1.9279 -0.2240
   59MPD2    H2  906   3.289   4.349  13.371  1.8741 -1.5172  2.6576
   59MPD2    H3  907   3.408   4.402  13.585  1.3460  1.5592  1.1956
   59MPD2     N  908   3.733   4.646  13.395 -0.2482 -0.2837  0.4322
   59MPD2    H5  909   3.779   4.652  13.485  0.7477 -1.1877 -0.0205
   59MPD2    N1  910   3.357   4.468  13.133 -0.4973 -0.1399 -0.0368
   59MPD2    H7  911   3.383   4.531  13.057  0.0930  0.8982  1.0206
   60TCq2    C1  912   3.234   4.414  13.108 -0.3550  0.2632  0.6006
   60TCq2    O2  913   3.165   4.353  13.187  0.4298 -0.8870  0.1202
   60TCq2    C2  914   3.181   4.460  12.978  0.1139 -0.4801 -0.0080
   60TCq2    C3  915   3.053   4.488  12.973 -0.6654  0.5996 -0.1193
   60TCq2    C4  916   3.001   4.539  12.854 -0.1851 -0.5415 -0.3102
   60TCq2    C5  917   3.082   4.560  12.746 -0.0564  0.0781 -0.0407
   60TCq2    C6  918   3.209   4.511  12.753  0.1628 -0.1956  0.3599
   60TCq2    C7  919   3.264   4.458  12.871  0.3962 -0.0522  0.1391
   60TCq2    C8  920   3.299   4.564  12.656  0.9117 -0.0961  0.3365
   60TCq2    O4  921   3.400   4.503  12.628 -0.0898 -0.0745 -0.0785
   60TCq2    C9  922   2.862   4.567  12.854  0.4332 -0.8274 -0.0552
   60TCq2    O5  923   2.791   4.501  12.929  0.6306  0.5073 -0.2875
   60TCq2    O6  924   2.822   4.663  12.782 -0.8666  0.3258  0.2459
   60TCq2    H2  925   2.986   4.475  13.057 -0.3244  1.2821  0.2580
   60TCq2    H3  926   3.034   4.606  12.660 -0.9134  1.6463  1.2670
   60TCq2    H4  927   3.371   4.437  12.877  0.4129  0.1079  0.3987
   61MPD2     C  928   3.155   1.190  14.876 -0.7511 -0.3158 -1.0679
   61MPD2    C1  929   3.159   1.319  14.901 -0.3974  0.5831 -0.2098
   61MPD2    C2  930   3.108   1.409  14.808  0.3935  0.1619 -1.4139
   61MPD2    C3  931   3.042   1.359  14.686 -0.0378  0.2731  0.7180
   61MPD2    C4  932   3.027   1.226  14.674 -0.2209  0.5128 -0.2669
   61MPD2    C5  933   3.088   1.138  14.765 -0.1517 -0.6044 -0.1962
   61MPD2     H  934   3.121   1.514  14.834 -0.3117  0.2508 -1.4158
   61MPD2    H1  935   2.961   1.184  14.600 -0.2402 -0.3070  0.2240
   61MPD2    H2  936   3.190   1.120  14.951 -0.7759 -0.0958 -0.8508
   61MPD2    H3  937   3.087   1.032  14.746  1.6661 -0.6718  0.1290
   61MPD2     N  938   2.981   1.447  14.592 -0.1397 -0.2632  0.4393
   61MPD2    H5  939   2.890   1.411  14.563 -0.0741 -0.3610  0.3542
   61MPD2    N1  940   3.217   1.382  15.018 -0.3388  0.0309  0.3069
   61MPD2    H7  941   3.202   1.481  15.031 -3.9722 -0.3842 -0.5365
   62TCq2    C1  942   3.274   1.317  15.120 -0.5737  0.4626 -0.3276
   62TCq2    O2  943   3.274   1.197  15.141  0.3523  0.3601 -0.3827
   62TCq2    C2  944   3.317   1.393  15.235 -0.3659 -0.4633 -0.2531
   62TCq2    C3  945   3.265   1.333  15.347  0.5418 -0.6183 -0.4715
   62TCq2    C4  946   3.206   1.412  15.444  0.3815  0.3606 -0.1598
   62TCq2    C5  947   3.235   1.545  15.456  1.1732  0.3726  0.5165
   62TCq2    C6  948   3.304   1.604  15.348  0.0311  0.2555 -0.4583
   62TCq2    C7  949   3.331   1.529  15.234 -0.2086 -0.4804 -1.1472
   62TCq2    C8  950   3.271   1.741  15.310 -0.1843  0.1593  0.2185
   62TCq2    O4  951   3.352   1.809  15.245 -0.2323 -0.4287 -0.8467
   62TCq2    C9  952   3.122   1.355  15.548 -0.1573  0.1773 -0.2079
   62TCq2    O5  953   3.074   1.421  15.638  0.1683  0.1229 -0.9639
   62TCq2    O6  954   3.098   1.233  15.533  0.1152 -0.5296 -0.4607
   62TCq2    H2  955   3.239   1.230  15.369  2.5726 -1.1987 -0.8285
   62TCq2    H3  956   3.212   1.606  15.542  1.4862  2.5169 -0.9209
   62TCq2    H4  957   3.375   1.583  15.151 -0.3855  0.8861 -0.3433
   63TMC2    C1  958   2.416   1.102  10.934 -0.4620 -0.1802  0.6866
   63TMC2    C2  959   2.521   1.168  10.989  0.1367  0.3144  0.0032
   63TMC2    C3  960   2.582   1.256  10.909 -0.2269 -0.2428 -0.6839
   63TMC2    C4  961   2.389   1.099  10.796  0.4955  0.3672 -0.3251
   63TMC2    C5  962   2.461   1.197  10.721  0.3474 -0.2063 -0.1714
   63TMC2    C6  963   2.553   1.277  10.779  0.1022 -0.0022  0.1819
   63TMC2     C  964   2.366   1.008  11.026  0.5268  0.5270 -0.5678
   63TMC2     O  965   2.384   1.025  11.146  0.3047 -0.5930 -0.5033
   63TMC2     H  966   2.562   1.140  11.086 -0.4020 -0.9363 -0.1320
   63TMC2    H1  967   2.319   1.032  10.747  2.0389 -1.3839 -0.1346
   63TMC2    H2  968   2.618   1.336  10.715  1.2056 -0.7807  0.5905
   63TMC2    C7  969   2.378   1.240  10.617 -0.6728 -0.8444  0.1759
   63TMC2    C8  970   2.690   1.329  10.967  0.7120  0.4940  0.5973
   63TMC2    O1  971   2.275   1.179  10.588  0.7947 -0.1750 -0.3723
   63TMC2    O2  972   2.735   1.308  11.079  0.3413  0.3753  0.3721
   63TMC2    O5  973   2.711   1.447  10.901  0.0051 -0.3153  0.9090
   63TMC2    H5  974   2.652   1.453  10.823  0.7329 -3.7698  0.0874
   64MPD2     C  975   2.200   0.544  11.136 -0.2839  0.8407  0.3978
   64MPD2    C1  976   2.238   0.551  11.004  0.1242 -0.0171  0.6292
   64MPD2    C2  977   2.276   0.670  10.945  0.0998 -0.3481  0.8350
   64MPD2    C3  978   2.269   0.780  11.028  0.3965  0.0947  0.2388
   64MPD2    C4  979   2.230   0.780  11.162 -0.3681 -0.2052 -0.0675
   64MPD2    C5  980   2.186   0.657  11.215  0.0487 -0.0027 -0.1609
   64MPD2     H  981   2.326   0.668  10.849  1.9849 -0.6164  1.8215
   64MPD2    H1  982   2.216   0.873  11.216 -2.7048 -0.0791 -0.8895
   64MPD2    H2  983   2.159   0.456  11.185 -1.5010  0.1578 -1.8580
   64MPD2    H3  984   2.150   0.640  11.316  0.0704  0.4119 -0.0809
   64MPD2     N  985   2.319   0.895  10.967 -0.2470  0.5009 -0.1424
   64MPD2    H5  986   2.316   0.891  10.865 -0.6369  0.4093 -0.1254
   64MPD2    N1  987   2.242   0.436  10.933  0.0624 -0.5368 -0.1263
   64MPD2    H7  988   2.258   0.453  10.834 -0.1643 -0.3576 -0.1333
   65MPD2     C  989   3.347   0.901  15.746 -0.8715  0.5822  0.0689
   65MPD2    C1  990   3.380   0.906  15.605 -0.4722  0.4470 -0.0481
   65MPD2    C2  991   3.310   0.831  15.503  0.0203  0.1811  0.0709
   65MPD2    C3  992   3.205   0.748  15.553 -0.0768 -0.8011  0.1671
   65MPD2    C4  993   3.189   0.732  15.687 -0.1425 -0.6003 -0.0785
   65MPD2    C5  994   3.259   0.803  15.781 -0.3146  0.0496  0.0108
   65MPD2     H  995   3.329   0.860  15.401 -3.7609  0.2754 -0.5914
   65MPD2    H1  996   3.120   0.660  15.729  0.0716 -1.1584 -0.6851
   65MPD2    H2  997   3.380   0.968  15.824  0.1832 -0.8271  0.8353
   65MPD2    H3  998   3.232   0.777  15.882 -2.2994 -0.1868 -0.5826
   65MPD2     N  999   3.122   0.675  15.462 -0.4272 -0.1221 -0.1683
   65MPD2    H5 1000   3.046   0.622  15.503 -1.2122 -0.7039 -2.3977
   65MPD2    N1 1001   3.456   1.019  15.555 -0.5828  0.0836 -0.0546
   65MPD2    H7 1002   3.488   1.022  15.459 -0.0122  3.0010  0.2196
   66TCq2    C1 1003   3.494   1.130  15.629  0.3000  0.2127  0.5778
   66TCq2    O2 1004   3.447   1.179  15.732  0.1059 -0.2654 -0.2972
   66TCq2    C2 1005   3.579   1.217  15.551 -0.3912 -0.7395  0.7183
   66TCq2    C3 1006   3.657   1.150  15.455  0.0321  0.0821 -1.1339
   66TCq2    C4 1007   3.737   1.237  15.379  0.3464  0.2779  0.7142
   66TCq2    C5 1008   3.737   1.372  15.394 -0.7401  0.6625  0.2431
   66TCq2    C6 1009   3.642   1.430  15.470  0.0149  0.1831 -0.1853
   66TCq2    C7 1010   3.561   1.355  15.556 -0.2705 -0.0640  0.9765
   66TCq2    C8 1011   3.631   1.574  15.463 -0.0943 -0.2047  0.2672
   66TCq2    O4 1012   3.677   1.627  15.363  0.2791 -0.2998  0.1534
   66TCq2    C9 1013   3.813   1.187  15.257  0.6331 -0.6932  0.1374
   66TCq2    O5 1014   3.844   1.066  15.251 -0.5124  0.1324  0.3124
   66TCq2    O6 1015   3.867   1.272  15.179  0.1408  0.1820  0.3738
   66TCq2    H2 1016   3.661   1.042  15.444 -2.1195  0.0553 -1.5684
   66TCq2    H3 1017   3.796   1.436  15.329 -0.7975  0.8007  0.3254
   66TCq2    H4 1018   3.467   1.393  15.593  0.0244  0.8976  0.7485
   67MPD2     C 1019   3.388   0.429  13.947 -0.1127  0.1602 -0.1243
   67MPD2    C1 1020   3.454   0.550  13.979  0.2456 -0.1202  0.5212
   67MPD2    C2 1021   3.461   0.641  13.873  0.6834 -0.2140 -0.2712
   67MPD2    C3 1022   3.403   0.625  13.751 -0.0549  0.1787  0.3758
   67MPD2    C4 1023   3.348   0.504  13.724 -0.9539 -0.6239 -0.1778
   67MPD2    C5 1024   3.331   0.410  13.821 -0.0264 -0.2075  0.2715
   67MPD2     H 1025   3.505   0.739  13.887 -0.4761  0.3809 -0.8267
   67MPD2    H1 1026   3.293   0.489  13.631 -0.5861 -1.4522 -0.2614
   67MPD2    H2 1027   3.388   0.341  14.011 -3.1549 -0.3900 -0.8783
   67MPD2    H3 1028   3.268   0.323  13.809 -1.1867  0.5160  1.0212
   67MPD2     N 1029   3.402   0.727  13.653  0.3111 -0.4513  0.0067
   67MPD2    H5 1030   3.348   0.710  13.569  0.7524 -2.6772  0.1683
   67MPD2    N1 1031   3.501   0.587  14.106 -0.0567  0.1444 -0.4599
   67MPD2    H7 1032   3.547   0.677  14.115  1.4369 -0.9126  2.3916
   68TCq2    C1 1033   3.480   0.514  14.219  0.1101 -0.0528 -0.0563
   68TCq2    O2 1034   3.431   0.404  14.238  0.1098 -0.0781 -0.5289
   68TCq2    C2 1035   3.532   0.579  14.344  0.2630 -0.4498 -0.6092
   68TCq2    C3 1036   3.547   0.716  14.348  0.0086 -0.8809  0.0016
   68TCq2    C4 1037   3.607   0.774  14.455  0.5268  0.3352 -0.0717
   68TCq2    C5 1038   3.659   0.695  14.553 -1.1309  0.4452 -0.1172
   68TCq2    C6 1039   3.638   0.559  14.549 -0.0330  0.5654  0.1569
   68TCq2    C7 1040   3.582   0.498  14.439  0.0629  0.5930  0.0402
   68TCq2    C8 1041   3.709   0.469  14.638 -0.1497  0.0828 -0.1747
   68TCq2    O4 1042   3.740   0.363  14.592  0.5534  0.0246 -0.1039
   68TCq2    C9 1043   3.628   0.921  14.453  0.3369 -0.2463 -0.0851
   68TCq2    O5 1044   3.574   0.985  14.361 -0.0482  0.2040 -0.2308
   68TCq2    O6 1045   3.654   0.962  14.571 -0.2415 -0.1900  0.0722
   68TCq2    H2 1046   3.510   0.784  14.272  1.6119 -0.9052 -0.7886
   68TCq2    H3 1047   3.726   0.742  14.625 -0.1523 -0.5413 -0.3748
   68TCq2    H4 1048   3.569   0.390  14.437  1.2733  0.4311  0.6272
   69TMC2    C1 1049   0.056   1.549  12.314  0.5740 -0.2649  0.4814
   69TMC2    C2 1050   4.667   1.478  12.277  0.2776 -0.1821 -0.9944
   69TMC2    C3 1051   4.643   1.458  12.143 -0.5549  0.4075 -0.3693
   69TMC2    C4 1052   0.134   1.618  12.220 -0.1188  0.2619  0.0135
   69TMC2    C5 1053   0.111   1.592  12.083  1.0585 -0.3792 -0.2843
   69TMC2    C6 1054   0.006   1.505  12.051  0.7833  0.1209  0.3538
   69TMC2     C 1055   0.113   1.526  12.437 -0.8116 -0.4028 -0.0225
   69TMC2     O 1056   0.059   1.449  12.514  0.0627  0.3693  0.3853
   69TMC2     H 1057   4.601   1.441  12.355  0.0538  1.3873 -0.4316
   69TMC2    H1 1058   0.219   1.683  12.242  1.7676 -2.2484  0.1106
   69TMC2    H2 1059   4.699   1.492  11.947 -1.5774  1.1324  0.9038
   69TMC2    C7 1060   0.220   1.602  11.988  0.4503  0.6260  0.5601
   69TMC2    C8 1061   4.514   1.418  12.094 -0.0663 -0.7759  0.0224
   69TMC2    O1 1062   0.328   1.612  12.040 -0.6383  0.3390 -0.5057
   69TMC2    O2 1063   4.475   1.447  11.982 -0.4680 -0.3097 -0.0754
   69TMC2    O5 1064   4.464   1.337  12.179  0.4270  0.1247 -0.6766
   69TMC2    H5 1065   4.537   1.296  12.230 -0.8926 -0.7672  0.4868
   70MPD2     C 1066   0.437   1.649  12.558 -0.3257  0.0220  0.0015
   70MPD2    C1 1067   0.316   1.583  12.564  0.0079  0.2024  0.0062
   70MPD2    C2 1068   0.278   1.518  12.684  0.2659 -0.1547  0.6149
   70MPD2    C3 1069   0.373   1.526  12.787  0.5644  0.3273  0.1162
   70MPD2    C4 1070   0.488   1.607  12.781  0.3349 -0.9197  0.0403
   70MPD2    C5 1071   0.523   1.664  12.660  0.5022 -0.7955  0.5119
   70MPD2     H 1072   0.184   1.470  12.708  1.6739 -2.4576  1.5438
   70MPD2    H1 1073   0.548   1.620  12.870 -0.7072 -0.5594  0.6980
   70MPD2    H2 1074   0.470   1.691  12.464 -0.0696  2.6413  1.2884
   70MPD2    H3 1075   0.611   1.726  12.651  0.0863 -0.5721 -1.9406
   70MPD2     N 1076   0.356   1.464  12.916  0.3096  0.1930  0.2456
   70MPD2    H5 1077   0.439   1.467  12.973  0.6987  3.1947 -0.4960
   70MPD2    N1 1078   0.235   1.589  12.450  0.3195  0.3001 -0.6742
   70MPD2    H7 1079   0.274   1.638  12.370  0.8010  0.2520 -0.4627
   71TMC2    C1 1080   0.359   2.381   1.120  0.1339  0.5250  0.3997
   71TMC2    C2 1081   0.263   2.387   1.025 -0.8607 -0.4074 -1.0751
   71TMC2    C3 1082   0.186   2.274   0.998 -0.2416  0.2490 -0.2235
   71TMC2    C4 1083   0.356   2.281   1.215 -0.2394  0.1334  0.2963
   71TMC2    C5 1084   0.273   2.175   1.196  0.1190 -0.1865 -0.0460
   71TMC2    C6 1085   0.195   2.171   1.086  0.0310 -0.4168  0.6059
   71TMC2     C 1086   0.388   2.514   1.171  0.0419 -0.2564 -0.6508
   71TMC2     O 1087   0.339   2.610   1.114  0.1985 -0.4494  0.1539
   71TMC2     H 1088   0.265   2.472   0.959 -2.9787  0.8027  0.4335
   71TMC2    H1 1089   0.411   2.285   1.308 -2.8573  0.6310  1.8256
   71TMC2    H2 1090   0.132   2.084   1.068 -0.4693  0.2052 -0.6786
   71TMC2    C7 1091   0.254   2.083   1.305  0.5643 -0.9022  0.6424
   71TMC2    C8 1092   0.076   2.274   0.902 -0.4061  0.9669  1.0400
   71TMC2    O1 1093   0.349   2.016   1.346  0.0773 -0.5315 -0.5115
   71TMC2    O2 1094   4.701   2.204   0.903  0.0204 -0.8873  0.0063
   71TMC2    O5 1095   0.108   2.358   0.804 -0.2530 -0.0586  0.0764
   71TMC2    H5 1096   0.202   2.375   0.785  0.4731  0.9547  4.5678
   72MPD2     C 1097   0.664   2.802   1.504  0.8538  0.4267  0.0176
   72MPD2    C1 1098   0.568   2.845   1.403 -0.4810  0.0810  0.2584
   72MPD2    C2 1099   0.512   2.749   1.328  0.1578  0.0876 -0.1317
   72MPD2    C3 1100   0.545   2.618   1.340 -0.0208  0.1673 -0.2078
   72MPD2    C4 1101   0.637   2.578   1.434  0.6848  0.4081 -0.3893
   72MPD2    C5 1102   0.697   2.671   1.517  0.1004 -0.5652  1.2835
   72MPD2     H 1103   0.444   2.782   1.250 -0.8476  3.9717  2.3919
   72MPD2    H1 1104   0.645   2.475   1.465  1.2634  1.4009  2.7400
   72MPD2    H2 1105   0.707   2.865   1.580 -1.2317  0.2877  1.3160
   72MPD2    H3 1106   0.757   2.642   1.602 -1.7129 -0.7019  2.5299
   72MPD2     N 1107   0.490   2.505   1.266  0.3312 -0.1200 -0.0996
   72MPD2    H5 1108   0.535   2.415   1.281  0.9141  0.1354 -0.3005
   72MPD2    N1 1109   0.520   2.976   1.396  0.3589 -0.3566 -0.3025
   72MPD2    H7 1110   0.460   3.002   1.318 -1.5205 -0.8871  0.9618
   73TMC2    C1 1111   3.523   3.695  14.515  0.0338 -0.4665  0.1371
   73TMC2    C2 1112   3.433   3.613  14.452  0.7112 -0.2726 -0.4985
   73TMC2    C3 1113   3.481   3.499  14.399  0.9401 -0.6483  0.5275
   73TMC2    C4 1114   3.650   3.654  14.543  0.2873  0.1003  0.4926
   73TMC2    C5 1115   3.696   3.544  14.480  0.0405 -0.0854 -0.0172
   73TMC2    C6 1116   3.614   3.458  14.412 -0.2662  0.0954  0.1443
   73TMC2     C 1117   3.510   3.836  14.493  0.6173  0.7365  0.2112
   73TMC2     O 1118   3.620   3.888  14.494  0.4755 -0.4276  0.2291
   73TMC2     H 1119   3.329   3.636  14.430  0.5392  0.9746  1.6201
   73TMC2    H1 1120   3.717   3.714  14.603 -1.4732  1.5431  1.0192
   73TMC2    H2 1121   3.659   3.371  14.365 -0.5851 -0.9234  1.6930
   73TMC2    C7 1122   3.826   3.566  14.412 -0.6696 -0.8570  0.3822
   73TMC2    C8 1123   3.400   3.443  14.298  0.2911 -0.8564  0.1384
   73TMC2    O1 1124   3.873   3.473  14.352 -0.2560  0.0464 -0.2590
   73TMC2    O2 1125   3.275   3.426  14.300 -0.1714  0.2133 -0.0983
   73TMC2    O5 1126   3.476   3.370  14.219  0.0525 -0.1272 -0.5953
   73TMC2    H5 1127   3.557   3.415  14.188 -0.0776  0.8641  0.5210
   74MPD2     C 1128   3.335   4.242  14.254 -0.0965 -0.5090  0.4884
   74MPD2    C1 1129   3.463   4.211  14.278  0.1104  0.4539  0.0372
   74MPD2    C2 1130   3.479   4.083  14.337 -0.1557 -0.7415 -0.7671
   74MPD2    C3 1131   3.370   4.002  14.374  0.5064 -0.0452 -0.7148
   74MPD2    C4 1132   3.244   4.041  14.348 -0.2463  0.3287  0.0818
   74MPD2    C5 1133   3.226   4.150  14.277  0.0881  0.2940 -0.0131
   74MPD2     H 1134   3.580   4.047  14.350  0.1523  0.4251  0.1091
   74MPD2    H1 1135   3.159   3.975  14.362  1.8703 -2.3142  0.4818
   74MPD2    H2 1136   3.318   4.335  14.202  0.7937 -0.8375 -0.3659
   74MPD2    H3 1137   3.129   4.183  14.242 -1.1377 -0.4825  2.6426
   74MPD2     N 1138   3.390   3.873  14.436  0.4696 -0.2182 -0.2446
   74MPD2    H5 1139   3.304   3.823  14.456  0.1329  1.2599  2.0062
   74MPD2    N1 1140   3.570   4.289  14.224 -0.1665  0.2871 -0.0922
   74MPD2    H7 1141   3.549   4.359  14.153  0.6733  1.6873  1.0320
   75TCq2    C1 1142   3.460   0.855  13.671 -0.3355  0.1503 -0.0171
   75TCq2    O2 1143   3.531   0.905  13.758  0.5918 -0.1219  0.2388
   75TCq2    C2 1144   3.419   0.958  13.572 -0.2374 -0.7279 -0.3351
   75TCq2    C3 1145   3.439   1.090  13.610 -0.5292  0.7313 -0.2575
   75TCq2    C4 1146   3.379   1.195  13.540  0.3197 -0.2294 -0.6320
   75TCq2    C5 1147   3.307   1.158  13.428 -0.3837 -0.1934 -0.0428
   75TCq2    C6 1148   3.307   1.026  13.382  0.2581  0.0630 -0.1613
   75TCq2    C7 1149   3.357   0.922  13.456  0.2032  0.0465  0.8107
   75TCq2    C8 1150   3.223   0.985  13.278  0.3310 -0.3743  0.1037
   75TCq2    O4 1151   3.217   0.866  13.252  0.3945  0.0755 -0.9355
   75TCq2    C9 1152   3.379   1.332  13.585  0.4061  0.4124 -0.2175
   75TCq2    O5 1153   3.425   1.361  13.696 -0.4208 -0.3503  0.0627
   75TCq2    O6 1154   3.290   1.409  13.529  0.6857 -0.0459  0.4219
   75TCq2    H2 1155   3.496   1.115  13.698 -0.3887 -0.7378  0.0624
   75TCq2    H3 1156   3.246   1.237  13.386 -0.0816 -0.1472 -0.3951
   75TCq2    H4 1157   3.360   0.816  13.431  0.8775  0.3136 -0.2254
   76MPD2     C 1158   1.326   1.942  12.118 -0.2036 -0.1265 -1.1325
   76MPD2    C1 1159   1.333   1.837  12.031 -0.1508  0.1674  0.3520
   76MPD2    C2 1160   1.433   1.745  12.022 -0.4514 -0.1521 -0.3402
   76MPD2    C3 1161   1.531   1.742  12.119 -0.9864 -0.3699  0.4768
   76MPD2    C4 1162   1.521   1.839  12.221  0.3596  0.1934  0.0718
   76MPD2    C5 1163   1.412   1.931  12.225 -0.4792 -0.1464  0.3142
   76MPD2     H 1164   1.441   1.672  11.942  2.7915 -1.3509  1.1126
   76MPD2    H1 1165   1.595   1.834  12.300 -0.0464 -0.8865  0.3807
   76MPD2    H2 1166   1.243   2.010  12.125 -1.2327 -1.4093 -0.8706
   76MPD2    H3 1167   1.407   2.000  12.309 -0.7431 -1.3631  1.3036
   76MPD2     N 1168   1.645   1.655  12.117  0.2530 -0.8514 -0.3707
   76MPD2    H5 1169   1.720   1.668  12.183 -0.4651  2.1913 -0.1409
   76MPD2    N1 1170   1.244   1.822  11.928  0.7559 -0.3387 -0.2886
   76MPD2    H7 1171   1.276   1.764  11.851  0.6459  0.1362 -0.6975
   77TCq2    C1 1172   1.674   1.559  12.022  0.5473 -0.7057 -0.5183
   77TCq2    O2 1173   1.619   1.530  11.914  0.0735  0.1740  0.4540
   77TCq2    C2 1174   1.796   1.490  12.051  0.4205 -0.6808 -0.7027
   77TCq2    C3 1175   1.798   1.361  12.010 -0.7627 -0.0520  0.5415
   77TCq2    C4 1176   1.910   1.287  12.026  0.2357  0.9665 -0.6323
   77TCq2    C5 1177   2.022   1.334  12.091  0.7144 -0.1970 -0.0203
   77TCq2    C6 1178   2.010   1.460  12.139  0.0798 -0.2792 -0.3955
   77TCq2    C7 1179   1.899   1.543  12.126  0.5158  0.6428  0.0537
   77TCq2    C8 1180   2.136   1.521  12.173  0.2738  0.2523 -0.1534
   77TCq2    O4 1181   2.167   1.635  12.139 -0.1305  0.4406  0.2636
   77TCq2    C9 1182   1.923   1.162  11.964  0.5378  0.2573 -0.4123
   77TCq2    O5 1183   2.030   1.097  11.983 -0.5929  0.2296 -0.2888
   77TCq2    O6 1184   1.812   1.101  11.943  0.0914 -0.2247 -0.4446
   77TCq2    H2 1185   1.716   1.319  11.952  0.4222 -0.7767 -0.6241
   77TCq2    H3 1186   2.119   1.286  12.090 -0.1383 -1.9018 -1.1375
   77TCq2    H4 1187   1.892   1.643  12.166  1.0762  1.3111 -1.5096
   78MPD1     C 1188   3.331   0.849   1.877 -0.4270  0.4679  0.1649
   78MPD1    C1 1189   3.356   0.947   1.777  0.4712  0.1709  0.3311
   78MPD1    C2 1190   3.485   0.991   1.742 -0.2596  0.2826  0.4690
   78MPD1    C3 1191   3.592   0.942   1.813 -0.2678  0.3966  0.5784
   78MPD1    C4 1192   3.562   0.853   1.917 -0.9013  0.4142  0.4451
   78MPD1    C5 1193   3.437   0.808   1.952 -0.1562  0.0748  0.2511
   78MPD1     H 1194   3.486   1.060   1.658  1.6494  1.2415  1.2929
   78MPD1    H1 1195   3.644   0.804   1.969  0.2841 -0.3278 -2.1471
   78MPD1    H2 1196   3.233   0.803   1.888 -0.7995  1.1553 -0.2313
   78MPD1    H3 1197   3.421   0.738   2.034  1.1002  0.6338  0.9727
   78MPD1     N 1198   3.721   0.986   1.794 -0.1289  0.4847  0.3878
   78MPD1    H5 1199   3.796   0.955   1.855 -0.0696  0.7517  0.4549
   78MPD1    N1 1200   3.256   0.992   1.704  0.1264 -0.8727  0.4518
   78MPD1    H6 1201   3.169   0.995   1.757 -1.1870  0.6626 -1.8129
   78MPD1    H7 1202   3.268   1.088   1.674 -0.6253 -1.5516 -2.0694
   79TCq2    C1 1203   3.771   1.037   1.674 -0.1807  0.3702  0.2721
   79TCq2    O2 1204   3.715   1.077   1.575  0.0314  0.0054 -0.3334
   79TCq2    C2 1205   3.911   1.089   1.689 -0.0169  0.5829  0.4800
   79TCq2    C3 1206   3.973   1.052   1.806 -0.1730 -0.2174  0.6273
   79TCq2    C4 1207   4.082   1.125   1.842 -0.2539 -0.1271  0.2544
   79TCq2    C5 1208   4.132   1.226   1.764 -1.1391 -0.0754  0.2215
   79TCq2    C6 1209   4.059   1.263   1.655 -0.0731 -0.5047 -0.3092
   79TCq2    C7 1210   3.949   1.190   1.608  0.2685  0.4121 -0.4873
   79TCq2    C8 1211   4.119   1.365   1.571  0.2738  0.1514  0.4198
   79TCq2    O4 1212   4.240   1.369   1.558  0.4041  0.7509 -0.0514
   79TCq2    C9 1213   4.158   1.083   1.960 -0.2219 -0.3492 -0.0406
   79TCq2    O5 1214   4.260   1.153   1.997  0.0819  0.7510 -0.3683
   79TCq2    O6 1215   4.099   0.999   2.032 -0.6660 -0.0388 -0.1098
   79TCq2    H2 1216   3.961   0.953   1.849 -0.0487 -0.2685  0.5446
   79TCq2    H3 1217   4.211   1.291   1.800  0.1024 -1.0323 -0.8076
   79TCq2    H4 1218   3.899   1.218   1.516 -0.8239 -2.3244 -0.7267
   80MPD2     C 1219   1.175   1.006  12.509  0.1130 -0.0429  0.5806
   80MPD2    C1 1220   1.094   0.944  12.417 -0.0425  0.5727  0.1815
   80MPD2    C2 1221   0.959   0.933  12.440  0.1648  0.2749  0.1673
   80MPD2    C3 1222   0.903   0.981  12.557 -0.1823  0.3429 -0.0278
   80MPD2    C4 1223   0.989   1.027  12.656 -0.9040  0.8214  0.2997
   80MPD2    C5 1224   1.123   1.037  12.632 -0.3210  0.8724  0.4542
   80MPD2     H 1225   0.890   0.890  12.368  1.4245  0.1563 -0.9730
   80MPD2    H1 1226   0.948   1.039  12.756 -1.3324 -1.8052  0.4455
   80MPD2    H2 1227   1.282   1.019  12.500  0.2637 -2.6759 -1.6282
   80MPD2    H3 1228   1.201   1.067  12.701 -0.5423 -0.3595  1.2439
   80MPD2     N 1229   0.765   0.966  12.589  0.0655  0.4730  0.1947
   80MPD2    H5 1230   0.734   0.989  12.683 -0.7303 -2.5188  0.6374
   80MPD2    N1 1231   1.140   0.895  12.289  0.5021  0.3285  0.2835
   80MPD2    H7 1232   1.064   0.859  12.233  0.6580 -0.6072  0.6736
   81TCq2    C1 1233   1.274   0.887  12.245  0.6293  0.3947 -0.3658
   81TCq2    O2 1234   1.376   0.898  12.306  0.0481 -0.6809 -0.4092
   81TCq2    C2 1235   1.288   0.840  12.109 -0.3335  0.6412 -0.0398
   81TCq2    C3 1236   1.417   0.828  12.059 -0.0972 -0.3024 -0.2083
   81TCq2    C4 1237   1.440   0.779  11.935 -0.0244  0.6982  0.6917
   81TCq2    C5 1238   1.332   0.738  11.861  0.0665  0.3658  0.0336
   81TCq2    C6 1239   1.203   0.766  11.903 -0.8137  0.3016 -0.6182
   81TCq2    C7 1240   1.182   0.808  12.032 -0.4751 -0.0619  1.0841
   81TCq2    C8 1241   1.095   0.689  11.845 -0.1506  0.5381  0.1099
   81TCq2    O4 1242   1.094   0.669  11.722  0.1463  0.0772  0.1918
   81TCq2    C9 1243   1.567   0.760  11.874 -0.0530 -0.1281 -0.0659
   81TCq2    O5 1244   1.673   0.785  11.940  0.7954  0.1383 -0.1168
   81TCq2    O6 1245   1.574   0.715  11.757  0.6880 -0.0713  0.5772
   81TCq2    H2 1246   1.507   0.852  12.115 -0.1085  2.3876 -1.3360
   81TCq2    H3 1247   1.345   0.692  11.764  1.5820 -0.5079  0.6617
   81TCq2    H4 1248   1.081   0.832  12.065  0.0720  1.2238  1.7939
   82MPD2     C 1249   3.515   0.185  10.598 -0.5907  0.3587  0.2600
   82MPD2    C1 1250   3.506   0.047  10.598 -0.0718  0.1831 -0.0844
   82MPD2    C2 1251   3.579   4.701  10.687  0.5221 -0.6443  0.1693
   82MPD2    C3 1252   3.638   0.032  10.796  0.7693  0.1134 -0.8215
   82MPD2    C4 1253   3.644   0.163  10.789  0.5666  0.5426 -0.3984
   82MPD2    C5 1254   3.587   0.249  10.703  0.2591  0.4048 -0.5733
   82MPD2     H 1255   3.585   4.593  10.681  1.6502 -0.6548  1.5685
   82MPD2    H1 1256   3.703   0.222  10.858  1.1013 -0.1754 -0.2541
   82MPD2    H2 1257   3.477   0.235  10.510 -1.2426  1.2342  1.0455
   82MPD2    H3 1258   3.609   0.355  10.705  0.7757  0.2744  1.3398
   82MPD2     N 1259   3.710   4.682  10.890  0.4677  0.5944 -0.1013
   82MPD2    H5 1260   3.758   0.013  10.961  0.3083  1.6033 -0.7570
   82MPD2    N1 1261   3.434   4.714  10.495 -0.4398  0.6120  0.8303
   82MPD2    H7 1262   3.392   0.058  10.431  0.6868  1.4933  1.0100
   83TCq2    C1 1263   3.688   4.546  10.912 -0.2920  0.7487  1.4988
   83TCq2    O2 1264   3.610   4.467  10.859  0.0102 -0.6805 -0.0558
   83TCq2    C2 1265   3.793   4.487  10.995 -0.3872 -0.2279  0.0024
   83TCq2    C3 1266   3.900   4.555  11.038  0.1937  0.0954 -0.0068
   83TCq2    C4 1267   4.005   4.487  11.079 -0.3591  0.5230 -0.1993
   83TCq2    C5 1268   3.994   4.350  11.103 -0.5149 -0.7721  0.6813
   83TCq2    C6 1269   3.886   4.285  11.056 -0.1686 -0.5846  0.0564
   83TCq2    C7 1270   3.784   4.353  10.999 -0.1315  0.6074  0.2690
   83TCq2    C8 1271   3.877   4.142  11.073 -0.3013 -0.8116 -0.5669
   83TCq2    O4 1272   3.922   4.094  11.175 -0.0534  0.5546  0.6867
   83TCq2    C9 1273   4.129   4.557  11.127 -0.2808  0.1883  0.2442
   83TCq2    O5 1274   4.225   4.493  11.170  0.2753 -0.1323 -0.0372
   83TCq2    O6 1275   4.127   4.685  11.106 -0.0512  0.5236  0.2943
   83TCq2    H2 1276   3.912   4.661  11.022 -0.1039  0.2098  0.5134
   83TCq2    H3 1277   4.079   4.292  11.134 -0.3621 -1.3304 -0.7698
   83TCq2    H4 1278   3.687   4.310  10.975  1.6650 -3.1177 -0.3482
   84TCq2    C1 1279   0.139   3.739  10.033  0.5215  0.3654  0.2221
   84TCq2    O2 1280   0.055   3.672  10.086 -0.0588  0.2909  0.0460
   84TCq2    C2 1281   0.238   3.790  10.122 -0.2163 -0.5657  0.2287
   84TCq2    C3 1282   0.353   3.852  10.070  0.0539  0.1240 -0.6768
   84TCq2    C4 1283   0.443   3.904  10.157 -0.7664 -0.1443  0.7603
   84TCq2    C5 1284   0.423   3.902  10.295  0.0728  0.0453 -0.0012
   84TCq2    C6 1285   0.311   3.833  10.340 -0.0420 -0.1096  0.4908
   84TCq2    C7 1286   0.218   3.783  10.256  0.6449 -0.5567  0.1324
   84TCq2    C8 1287   0.296   3.822  10.484  0.3360  0.3678  0.4810
   84TCq2    O4 1288   0.185   3.792  10.526  0.3621  0.4317  0.3070
   84TCq2    C9 1289   0.569   3.936  10.098 -0.2130  0.3100 -0.5292
   84TCq2    O5 1290   0.586   3.905   9.977  0.3026 -0.2126  0.6366
   84TCq2    O6 1291   0.660   3.975  10.173 -0.0789  0.3382  0.2783
   84TCq2    H2 1292   0.371   3.857   9.964  3.1319 -0.4390 -0.1654
   84TCq2    H3 1293   0.494   3.945  10.365 -1.1774  1.2307  0.5415
   84TCq2    H4 1294   0.127   3.743  10.299 -0.5945  0.3239 -1.6529
   85MPD2     C 1295   1.212   1.866  16.122  0.4067 -0.6871  0.5782
   85MPD2    C1 1296   1.120   1.942  16.193 -0.1960 -0.7222  0.6905
   85MPD2    C2 1297   1.119   2.081  16.190 -0.1933 -0.3878  0.5659
   85MPD2    C3 1298   1.220   2.145  16.118 -0.1006  0.0852  0.5734
   85MPD2    C4 1299   1.315   2.067  16.056 -0.7122 -0.1377  0.4151
   85MPD2    C5 1300   1.313   1.930  16.061  0.2747  0.2795  0.2779
   85MPD2     H 1301   1.046   2.138  16.247  0.2670 -0.6180  1.3910
   85MPD2    H1 1302   1.397   2.111  15.999  0.5595  0.2218  2.4873
   85MPD2    H2 1303   1.208   1.758  16.109 -0.0451 -0.6625  0.5073
   85MPD2    H3 1304   1.395   1.877  16.011 -1.3391 -1.8273 -0.1563
   85MPD2     N 1305   1.217   2.284  16.094 -0.5666 -0.1564 -0.3471
   85MPD2    H5 1306   1.141   2.334  16.139  0.1193  1.2986 -0.7849
   85MPD2    N1 1307   1.004   1.885  16.254 -1.0478  0.3748  0.1085
   85MPD2    H7 1308   0.943   1.943  16.310  1.6429  3.0374  0.2685
   86TCq2    C1 1309   1.302   2.353  16.003  0.1398 -0.5080  0.1296
   86TCq2    O2 1310   1.390   2.314  15.925 -0.0197 -0.4335 -1.0914
   86TCq2    C2 1311   1.258   2.490  15.988  0.6594  0.2494 -0.6250
   86TCq2    C3 1312   1.194   2.561  16.083 -1.6762 -0.2216  0.3421
   86TCq2    C4 1313   1.146   2.689  16.056  0.6494 -0.4831 -0.2610
   86TCq2    C5 1314   1.167   2.739  15.923 -0.5256  0.0819 -0.7785
   86TCq2    C6 1315   1.217   2.656  15.828 -0.1706  0.1132 -0.5148
   86TCq2    C7 1316   1.274   2.539  15.862  0.1225 -0.3092  0.0308
   86TCq2    C8 1317   1.264   2.730  15.707  0.1998 -1.3919  0.5115
   86TCq2    O4 1318   1.208   2.834  15.673 -0.1478  0.2876  0.2944
   86TCq2    C9 1319   1.086   2.770  16.155 -0.8930 -0.5188  0.3806
   86TCq2    O5 1320   1.102   2.724  16.272 -0.2638 -0.9059  0.1297
   86TCq2    O6 1321   1.018   2.869  16.118  0.3949  0.0881 -0.2698
   86TCq2    H2 1322   1.204   2.531  16.187 -1.4571  1.4015  0.7858
   86TCq2    H3 1323   1.125   2.836  15.895 -1.1624 -0.5432 -2.0125
   86TCq2    H4 1324   1.308   2.472  15.783 -0.6258 -1.5529  0.7672
   87MPD2     C 1325   2.798   0.722   0.861  0.4142 -0.0858 -0.2754
   87MPD2    C1 1326   2.839   0.847   0.825 -0.0624  0.8361  0.3828
   87MPD2    C2 1327   2.751   0.927   0.757  0.2463 -0.3961  0.4630
   87MPD2    C3 1328   2.622   0.888   0.729  0.2441  0.5337  0.0502
   87MPD2    C4 1329   2.583   0.766   0.769 -0.3747  0.2225  0.4886
   87MPD2    C5 1330   2.671   0.682   0.838  0.0466 -0.2994 -0.7015
   87MPD2     H 1331   2.778   1.017   0.703 -0.2177 -1.0593 -0.8799
   87MPD2    H1 1332   2.484   0.725   0.753 -0.6225  1.0046  0.0271
   87MPD2    H2 1333   2.867   0.645   0.894  0.6351  0.8551  1.4662
   87MPD2    H3 1334   2.643   0.582   0.870  0.3878  0.3949  1.8239
   87MPD2     N 1335   2.538   0.965   0.648  0.0574  0.3060 -0.1764
   87MPD2    H5 1336   2.464   0.921   0.594 -2.7936  3.1653  1.3916
   87MPD2    N1 1337   2.975   0.876   0.844 -0.3796 -0.7693  0.5653
   87MPD2    H7 1338   3.044   0.805   0.864  1.0584  0.3013 -0.5530
   88TCq2    C1 1339   3.028   0.998   0.846  0.1314 -0.0843  0.0319
   88TCq2    O2 1340   2.982   1.110   0.839 -0.2062  0.5271  0.3702
   88TCq2    C2 1341   3.173   0.993   0.823  0.5629  0.0894 -0.1921
   88TCq2    C3 1342   3.233   1.111   0.820  0.6009 -0.4789 -0.2431
   88TCq2    C4 1343   3.364   1.120   0.771  0.3406 -0.2022  0.0720
   88TCq2    C5 1344   3.424   1.013   0.697  1.1106  0.3180  0.8158
   88TCq2    C6 1345   3.354   0.899   0.698  0.0023 -0.2277  0.2446
   88TCq2    C7 1346   3.234   0.885   0.762 -0.0858 -0.0538 -0.0123
   88TCq2    C8 1347   3.386   0.792   0.602 -0.2976 -0.4534  0.1356
   88TCq2    O4 1348   3.343   0.680   0.629 -0.5930 -0.9051 -0.3226
   88TCq2    C9 1349   3.435   1.240   0.799 -0.1222  0.8002  0.4459
   88TCq2    O5 1350   3.555   1.234   0.767  0.5753 -0.2383 -0.3546
   88TCq2    O6 1351   3.393   1.315   0.894 -0.3305 -0.4609  0.1265
   88TCq2    H2 1352   3.193   1.199   0.871  3.5792  0.7972 -0.1203
   88TCq2    H3 1353   3.523   1.014   0.653  1.0513  1.1562  0.6925
   88TCq2    H4 1354   3.180   0.794   0.740  1.5857 -1.5182  1.9169
   89MPD2     C 1355   0.169   3.926   2.186  0.4805 -0.2183  0.1891
   89MPD2    C1 1356   0.098   4.041   2.151  0.5726  0.4473  0.1109
   89MPD2    C2 1357   0.147   4.164   2.178 -0.0297  0.3948  0.3516
   89MPD2    C3 1358   0.268   4.174   2.237  0.1603  0.0201 -0.3662
   89MPD2    C4 1359   0.346   4.060   2.266  0.6789  0.4924 -0.1025
   89MPD2    C5 1360   0.292   3.935   2.250 -0.2671  0.6907 -0.4760
   89MPD2     H 1361   0.091   4.253   2.155  0.2611  0.1445 -1.2790
   89MPD2    H1 1362   0.445   4.048   2.309  1.2795  2.1812 -1.0059
   89MPD2    H2 1363   0.133   3.826   2.164 -1.8186  0.6272  0.1981
   89MPD2    H3 1364   0.360   3.855   2.276  0.2063  0.5320 -2.2016
   89MPD2     N 1365   0.324   4.306   2.246 -0.0675  0.5334 -0.4486
   89MPD2    H5 1366   0.273   4.388   2.215 -0.8289  0.6164  1.0088
   89MPD2    N1 1367   4.697   4.026   2.086 -0.8143 -0.4722 -0.4043
   89MPD2    H7 1368   4.651   4.110   2.053 -1.0298 -0.2897  0.3550
   90TCq2    C1 1369   0.461   4.331   2.261  0.7261 -0.4739 -0.5107
   90TCq2    O2 1370   0.555   4.251   2.279  0.4443 -0.7303 -0.7641
   90TCq2    C2 1371   0.502   4.464   2.211 -0.0349 -0.3000  0.6663
   90TCq2    C3 1372   0.409   4.539   2.151 -0.4464  0.5779  0.9818
   90TCq2    C4 1373   0.448   4.618   2.046  0.2360  0.2746 -0.4536
   90TCq2    C5 1374   0.577   4.609   1.998 -0.1161 -0.4844 -0.4738
   90TCq2    C6 1375   0.670   4.536   2.067 -0.2903 -0.7139 -0.3871
   90TCq2    C7 1376   0.638   4.470   2.183 -0.1529 -0.2174 -0.3617
   90TCq2    C8 1377   0.810   4.551   2.028  0.0240  0.0026 -0.1889
   90TCq2    O4 1378   0.889   4.548   2.120 -0.2351  0.0621 -0.2018
   90TCq2    C9 1379   0.354   4.696   1.969  0.2336 -0.4600 -0.6989
   90TCq2    O5 1380   0.235   4.678   1.995 -0.1013  0.3416 -0.3689
   90TCq2    O6 1381   0.408   0.073   1.908 -0.1262 -0.1909 -0.5910
   90TCq2    H2 1382   0.304   4.537   2.180 -1.1518 -1.0619 -1.6611
   90TCq2    H3 1383   0.611   4.679   1.922 -4.3406  1.4023 -0.6512
   90TCq2    H4 1384   0.709   4.403   2.230  0.5888  1.1002  0.4000
   91TMC2    C1 1385   0.761   3.361  16.180 -0.1081 -0.1128 -0.1268
   91TMC2    C2 1386   0.830   3.367  16.295  0.0970  0.0650  0.5794
   91TMC2    C3 1387   0.783   3.287  16.400 -0.1775 -0.1353 -0.5000
   91TMC2    C4 1388   0.645   3.288  16.163 -0.6870  0.5046 -0.0522
   91TMC2    C5 1389   0.603   3.216  16.271 -0.1055 -0.1883  0.0473
   91TMC2    C6 1390   0.666   3.222  16.395 -0.2647 -0.0546 -0.6485
   91TMC2     C 1391   0.834   3.413  16.055 -0.2831 -0.5667 -0.4040
   91TMC2     O 1392   0.770   3.472  15.968  0.2561 -0.1397  0.1364
   91TMC2     H 1393   0.926   3.416  16.304  0.7900 -1.0040 -1.0836
   91TMC2    H1 1394   0.596   3.289  16.066  0.2568  1.1128 -0.5260
   91TMC2    H2 1395   0.627   3.171  16.482  0.8650  0.7072  0.2999
   91TMC2    C7 1396   0.473   3.151  16.265  0.1771 -0.2403  0.2184
   91TMC2    C8 1397   0.824   3.327  16.536  0.1068 -0.2106 -0.7467
   91TMC2    O1 1398   0.423   3.142  16.373 -0.3577 -0.4240  0.4053
   91TMC2    O2 1399   0.808   3.248  16.629 -0.1022 -0.5057  0.4057
   91TMC2    O5 1400   0.770   3.458  16.531  0.7459  0.2447 -0.2364
   91TMC2    H5 1401   0.804   3.499  16.448  0.3606  1.9082  0.4313
   92MPD2     C 1402   1.043   3.489  15.851 -0.1458  0.4018  0.2965
   92MPD2    C1 1403   1.071   3.422  15.976 -0.4464  0.1317 -0.1078
   92MPD2    C2 1404   1.199   3.383  16.002  0.3823 -0.0741  0.0633
   92MPD2    C3 1405   1.300   3.423  15.924  0.2575 -0.5226  0.3024
   92MPD2    C4 1406   1.273   3.481  15.801 -0.0734 -0.0825  0.4979
   92MPD2    C5 1407   1.143   3.512  15.759  0.2216 -0.1914 -0.2901
   92MPD2     H 1408   1.226   3.348  16.101  0.0885 -0.1632  0.1109
   92MPD2    H1 1409   1.352   3.522  15.740  0.5656 -1.7488  0.1932
   92MPD2    H2 1410   0.944   3.529  15.833  0.2634 -0.8426 -4.6094
   92MPD2    H3 1411   1.123   3.565  15.666  0.7440  1.0796  0.3403
   92MPD2     N 1412   1.427   3.419  15.966  0.2090 -0.2985 -0.3423
   92MPD2    H5 1413   1.440   3.391  16.063 -1.6867 -0.3868 -0.1095
   92MPD2    N1 1414   0.971   3.381  16.068 -0.1793 -0.2603  0.0095
   92MPD2    H7 1415   0.999   3.337  16.155 -0.3035 -2.1881 -0.9285
   93MPD2     C 1416   2.735   2.486  13.980  0.1403  0.0888 -0.5352
   93MPD2    C1 1417   2.757   2.598  13.901  0.2116  0.4825 -0.0604
   93MPD2    C2 1418   2.649   2.676  13.869  1.2491 -1.2150  0.1225
   93MPD2    C3 1419   2.517   2.652  13.898  0.3001  0.0563 -0.3749
   93MPD2    C4 1420   2.498   2.528  13.958  0.2604 -0.1841 -0.3865
   93MPD2    C5 1421   2.602   2.451  14.003 -0.2703  0.0052  0.3550
   93MPD2     H 1422   2.682   2.770  13.827 -1.0822 -1.0053 -1.2485
   93MPD2    H1 1423   2.398   2.496  13.985 -0.7856  2.9587 -0.4919
   93MPD2    H2 1424   2.821   2.428  14.011  0.6405  0.7224 -0.7237
   93MPD2    H3 1425   2.588   2.362  14.062  1.8529 -0.8869 -0.4989
   93MPD2     N 1426   2.408   2.741  13.865 -0.8855  0.1159  0.3597
   93MPD2    H5 1427   2.311   2.720  13.889 -0.8681 -0.0647  0.2737
   93MPD2    N1 1428   2.889   2.646  13.870  0.1957  0.2838 -0.3700
   93MPD2    H7 1429   2.900   2.740  13.832 -0.1450  0.4843  0.0367
   94TCq2    C1 1430   3.012   2.595  13.904 -0.0570 -0.6449  0.4457
   94TCq2    O2 1431   3.044   2.499  13.974  0.1128  0.4741  0.1710
   94TCq2    C2 1432   3.116   2.671  13.848  0.3448  0.1131  0.6124
   94TCq2    C3 1433   3.085   2.753  13.742 -0.2964 -0.1652 -0.8329
   94TCq2    C4 1434   3.145   2.879  13.737 -0.1111 -0.2243  0.2115
   94TCq2    C5 1435   3.244   2.909  13.822 -0.0754 -0.6913  0.1537
   94TCq2    C6 1436   3.274   2.815  13.923 -0.4909 -0.1877 -0.0946
   94TCq2    C7 1437   3.208   2.700  13.940 -0.0441  0.5422 -0.9115
   94TCq2    C8 1438   3.415   2.829  13.983  0.1612  0.0098  0.3081
   94TCq2    O4 1439   3.494   2.733  13.977 -0.5749  0.1224  0.1123
   94TCq2    C9 1440   3.094   2.973  13.640 -1.1281  0.4665  0.2371
   94TCq2    O5 1441   3.147   3.085  13.616 -0.0285 -0.7591 -0.4024
   94TCq2    O6 1442   2.981   2.942  13.590 -0.3793 -0.0977 -0.2985
   94TCq2    H2 1443   3.004   2.737  13.670 -1.6551 -3.8313  1.4986
   94TCq2    H3 1444   3.302   2.999  13.807 -1.4942  0.2212  0.1146
   94TCq2    H4 1445   3.249   2.628  14.009 -1.1587 -0.8742 -1.7405
   95TMC2    C1 1446   2.306   4.631  15.632  0.5439 -0.1963 -0.6313
   95TMC2    C2 1447   2.348   4.499  15.631  0.1235  0.4354 -0.1689
   95TMC2    C3 1448   2.262   4.417  15.699  0.3907 -0.2248 -0.0499
   95TMC2    C4 1449   2.180   4.680  15.675 -0.3036  0.6032  0.0784
   95TMC2    C5 1450   2.112   4.585  15.735 -0.0824 -0.2504 -0.5091
   95TMC2    C6 1451   2.145   4.451  15.753  0.1178 -0.9041 -0.2063
   95TMC2     C 1452   2.403   0.013  15.588  0.3911 -0.1359 -0.6087
   95TMC2     O 1453   2.504   4.701  15.529  0.1150 -0.6981  0.0207
   95TMC2     H 1454   2.434   4.460  15.578 -1.2645 -0.6429 -1.6449
   95TMC2    H1 1455   2.142   0.054  15.647  1.6172  1.1806 -0.5121
   95TMC2    H2 1456   2.074   4.378  15.791 -1.0189 -0.6968 -1.9130
   95TMC2    C7 1457   1.985   4.629  15.782 -0.5218 -0.2416  1.0935
   95TMC2    C8 1458   2.318   4.295  15.755 -0.1607  0.5662 -0.5262
   95TMC2    O1 1459   1.983   0.017  15.833 -0.2281  0.2252  0.1618
   95TMC2    O2 1460   2.234   4.214  15.790 -0.3337 -0.0728  0.0616
   95TMC2    O5 1461   2.436   4.327  15.818 -0.1079 -0.0416  0.2940
   95TMC2    H5 1462   2.481   4.410  15.794 -2.1425  0.2835 -2.3934
   96MPD2     C 1463   2.581   0.493  15.657 -0.3386 -0.1459  0.7331
   96MPD2    C1 1464   2.608   0.405  15.551 -0.0266  0.3158  0.1287
   96MPD2    C2 1465   2.534   0.288  15.550  0.2512  0.0056  0.2619
   96MPD2    C3 1466   2.443   0.256  15.650  0.3170  0.1080 -0.0062
   96MPD2    C4 1467   2.418   0.346  15.752 -0.6117  1.4022  0.4604
   96MPD2    C5 1468   2.479   0.468  15.745  0.5333 -0.3191 -0.4200
   96MPD2     H 1469   2.551   0.214  15.472  0.5562 -0.7997  1.0851
   96MPD2    H1 1470   2.343   0.330  15.828 -1.2641  0.2496 -0.4274
   96MPD2    H2 1471   2.633   0.588  15.670  1.1542 -1.1096  1.8739
   96MPD2    H3 1472   2.453   0.540  15.822  0.1701 -0.9316  0.0361
   96MPD2     N 1473   2.376   0.129  15.653 -0.8318  0.1916  0.6228
   96MPD2    H5 1474   2.304   0.120  15.724 -0.8693  2.8245  0.9163
   96MPD2    N1 1475   2.701   0.450  15.449 -0.2942 -0.0932  0.0990
   96MPD2    H7 1476   2.749   0.537  15.471  1.3765 -0.7181 -1.0562
   97MPD2     C 1477   0.059   2.806   0.830  0.1016 -0.4102 -0.5411
   97MPD2    C1 1478   0.189   2.789   0.778 -0.0013  0.5840 -0.0989
   97MPD2    C2 1479   0.207   2.763   0.644  0.3815 -0.1017  0.5110
   97MPD2    C3 1480   0.095   2.787   0.560  0.1308 -0.5327 -0.3119
   97MPD2    C4 1481   4.694   2.813   0.615  0.1325 -0.1294  0.6859
   97MPD2    C5 1482   4.674   2.826   0.749 -0.3958  0.6203  0.4402
   97MPD2     H 1483   0.300   2.731   0.599  0.4155 -1.9496  1.8842
   97MPD2    H1 1484   4.617   2.826   0.540  2.0515 -2.2685 -1.6564
   97MPD2    H2 1485   0.039   2.822   0.935  1.3918  0.7885 -0.4877
   97MPD2    H3 1486   4.576   2.854   0.787 -0.8784 -0.6679  0.1520
   97MPD2     N 1487   0.106   2.779   0.416  0.0867  0.2589  0.0891
   97MPD2    H5 1488   0.012   2.773   0.377  0.2670 -1.9847 -0.0210
   97MPD2    N1 1489   0.300   2.791   0.873  0.1522  0.1246 -0.0458
   97MPD2    H7 1490   0.286   2.817   0.970  2.2173  2.8270 -0.4702
   98TCq2    C1 1491   0.219   2.789   0.343  0.1849 -1.0502  0.3729
   98TCq2    O2 1492   0.330   2.824   0.377  0.1806  0.3192 -0.1801
   98TCq2    C2 1493   0.179   2.813   0.201  0.9056 -0.0004  0.1369
   98TCq2    C3 1494   0.071   2.754   0.145  0.2421 -0.2695 -0.3758
   98TCq2    C4 1495   0.035   2.794   0.019  0.6113 -0.0564 -0.8541
   98TCq2    C5 1496   0.110   2.885  17.644  0.1725  0.0328 -0.4286
   98TCq2    C6 1497   0.219   2.944   0.010  0.2758  0.0839  0.9652
   98TCq2    C7 1498   0.263   2.897   0.134  0.1987 -0.6732 -0.2639
   98TCq2    C8 1499   0.313   3.018  17.621  0.5226 -0.0651  0.7336
   98TCq2    O4 1500   0.431   3.022  17.658  0.0311 -0.2449 -0.0811
   98TCq2    C9 1501   4.642   2.745  17.653  0.1252 -0.2409 -0.0275
   98TCq2    O5 1502   4.613   2.783  17.532 -0.3041  0.3530  0.0916
   98TCq2    O6 1503   4.564   2.688   0.040  0.5645  0.6879 -0.3334
   98TCq2    H2 1504   0.008   2.680   0.193 -0.8450  0.2184 -1.0393
   98TCq2    H3 1505   0.072   2.927  17.551 -0.6654  0.6688  0.2021
   98TCq2    H4 1506   0.338   2.955   0.186 -1.8670  0.4916  1.3957
   99MPD2     C 1507   3.423   0.150   1.006 -0.0941 -0.6942  0.0169
   99MPD2    C1 1508   3.504   0.112   1.110  0.8074  0.1905  0.6542
   99MPD2    C2 1509   3.637   0.084   1.088 -0.5862 -0.1623  0.4204
   99MPD2    C3 1510   3.692   0.084   0.959  0.1588  1.0056  0.3581
   99MPD2    C4 1511   3.610   0.126   0.856  1.0796 -0.4791 -0.2309
   99MPD2    C5 1512   3.479   0.161   0.881  0.2400  0.1690  1.1771
   99MPD2     H 1513   3.692   0.047   1.174 -0.1192 -0.6682 -0.0945
   99MPD2    H1 1514   3.651   0.142   0.757 -1.0971 -0.4714 -1.1260
   99MPD2    H2 1515   3.321   0.185   1.018  0.4998  1.0643 -0.0823
   99MPD2    H3 1516   3.418   0.201   0.801  0.5024  1.3609  1.5834
   99MPD2     N 1517   3.826   0.048   0.945  0.1562 -0.6472  0.1299
   99MPD2    H5 1518   3.872   0.031   1.034  1.6323 -0.5080 -0.6027
   99MPD2    N1 1519   3.451   0.101   1.243  0.5162  0.4423  0.0293
   99MPD2    H7 1520   3.520   0.077   1.314 -1.2246 -2.1571  0.8477
  100TCq2    C1 1521   3.319   0.106   1.279 -1.2145  0.1196 -0.4873
  100TCq2    O2 1522   3.220   0.102   1.208  0.2457 -0.4526 -0.4579
  100TCq2    C2 1523   3.301   0.090   1.419 -0.0583  0.1144 -0.1679
  100TCq2    C3 1524   3.402   0.141   1.499 -0.4754  0.7742 -0.1165
  100TCq2    C4 1525   3.384   0.162   1.631 -0.9703 -0.6866  0.0313
  100TCq2    C5 1526   3.266   0.123   1.692 -0.3664  0.0424 -0.1635
  100TCq2    C6 1527   3.165   0.073   1.610  0.0771  0.2735  0.1822
  100TCq2    C7 1528   3.183   0.049   1.477  0.6628 -0.0009  0.3812
  100TCq2    C8 1529   3.027   0.089   1.655 -0.3525  0.3474  0.4341
  100TCq2    O4 1530   2.997   0.180   1.733 -0.0500 -0.0970 -0.5459
  100TCq2    C9 1531   3.495   0.209   1.709  0.1383 -0.1883  0.5004
  100TCq2    O5 1532   3.465   0.228   1.832 -0.0457 -0.0297  0.2047
  100TCq2    O6 1533   3.606   0.202   1.648  0.2778  0.4513  0.1494
  100TCq2    H2 1534   3.499   0.175   1.466  0.6546 -2.5691 -0.2192
  100TCq2    H3 1535   3.239   0.137   1.796  1.9973  0.8289  0.3328
  100TCq2    H4 1536   3.104   0.019   1.409  1.6894  1.3993 -1.4152
  101MPD2     C 1537   4.427   0.150  12.672 -0.6243  0.0358  0.2453
  101MPD2    C1 1538   4.366   0.259  12.721 -0.0587  0.2911  0.1910
  101MPD2    C2 1539   4.297   0.257  12.846 -0.2383  0.3845 -0.3336
  101MPD2    C3 1540   4.292   0.133  12.907  0.0142  0.5581  0.3877
  101MPD2    C4 1541   4.347   0.017  12.853  0.1271  0.1035  0.0273
  101MPD2    C5 1542   4.415   0.029  12.738 -0.4771 -0.0626  0.4605
  101MPD2     H 1543   4.238   0.337  12.889  0.8303  0.2059  1.4684
  101MPD2    H1 1544   4.366   4.645  12.900 -1.8511 -0.5860 -0.5755
  101MPD2    H2 1545   4.487   0.149  12.582 -1.2365  3.2281 -0.1901
  101MPD2    H3 1546   4.456   4.660  12.697  0.0083  0.7755 -0.9368
  101MPD2     N 1547   4.217   0.110  13.027 -0.1670  0.4768 -0.1423
  101MPD2    H5 1548   4.188   0.015  13.048  0.7928  0.1088 -0.4451
  101MPD2    N1 1549   4.385   0.377  12.649 -1.0012 -0.3782  0.0622
  101MPD2    H7 1550   4.430   0.370  12.559  0.4505  0.1470  0.7538
  102TCq2    C1 1551   4.373   0.662  12.231 -0.3685 -0.2837 -0.0730
  102TCq2    O2 1552   4.342   0.556  12.181 -0.6613  0.3003 -0.0754
  102TCq2    C2 1553   4.330   0.688  12.371 -0.3632 -0.5656  0.1671
  102TCq2    C3 1554   4.322   0.816  12.420 -0.1811 -0.0481 -0.7958
  102TCq2    C4 1555   4.308   0.848  12.550 -0.9866  1.0695  0.6478
  102TCq2    C5 1556   4.338   0.741  12.646  0.1045 -0.2756 -0.3475
  102TCq2    C6 1557   4.366   0.610  12.601  0.3187 -0.7690 -0.0159
  102TCq2    C7 1558   4.355   0.583  12.462  0.5678  0.3387 -0.1698
  102TCq2    C8 1559   4.349   0.508  12.699 -0.5956 -0.6661  0.3606
  102TCq2    O4 1560   4.318   0.544  12.812 -0.1882  0.2951  0.2690
  102TCq2    C9 1561   4.284   0.982  12.588 -0.2449  0.5396  0.5010
  102TCq2    O5 1562   4.244   1.061  12.502  0.0202  0.1590 -0.1254
  102TCq2    O6 1563   4.270   1.003  12.711  0.1422 -0.3021  0.0689
  102TCq2    H2 1564   4.329   0.902  12.354 -0.7930  0.0739 -0.6969
  102TCq2    H3 1565   4.333   0.766  12.751 -2.8162 -0.6418 -0.3945
  102TCq2    H4 1566   4.366   0.482  12.423  0.6746 -0.9454  3.2056
  103TMC2    C1 1567   2.539   1.307  12.813 -0.4104 -0.3405  0.8932
  103TMC2    C2 1568   2.615   1.413  12.859 -0.1069  0.2586 -0.2748
  103TMC2    C3 1569   2.663   1.410  12.984 -0.0342  0.0534 -0.0547
  103TMC2    C4 1570   2.505   1.200  12.901 -0.5633  0.4174  0.0047
  103TMC2    C5 1571   2.562   1.203  13.028 -0.0127 -0.2630 -0.3771
  103TMC2    C6 1572   2.647   1.305  13.063 -0.0821  0.6830  0.4905
  103TMC2     C 1573   2.478   1.306  12.678  0.1285 -0.1376  0.3063
  103TMC2     O 1574   2.367   1.252  12.675  0.4322  0.0368 -0.2939
  103TMC2     H 1575   2.638   1.492  12.788 -0.5610  0.8893  0.2827
  103TMC2    H1 1576   2.420   1.143  12.866  0.5057 -3.2412  3.3971
  103TMC2    H2 1577   2.691   1.293  13.162  0.7491 -2.2988 -0.2523
  103TMC2    C7 1578   2.552   1.089  13.122  0.1144 -0.6137 -0.1960
  103TMC2    C8 1579   2.760   1.513  13.014  0.4756  0.3821 -0.3714
  103TMC2    O1 1580   2.630   1.093  13.212 -0.6701 -0.5864  0.0857
  103TMC2    O2 1581   2.834   1.554  12.925 -0.0609  0.0903  0.9698
  103TMC2    O5 1582   2.793   1.499  13.142  0.0479 -0.6786  0.4585
  103TMC2    H5 1583   2.726   1.509  13.213 -1.6683  2.9531 -1.6547
  104MPD2     C 1584   2.589   1.486  12.380  0.3676  0.6164  0.2660
  104MPD2    C1 1585   2.500   1.420  12.460  0.1909 -0.3552  0.3043
  104MPD2    C2 1586   2.377   1.390  12.410 -0.1466 -0.2376  0.4786
  104MPD2    C3 1587   2.334   1.457  12.299 -0.8746  0.2537  0.0254
  104MPD2    C4 1588   2.426   1.525  12.222  1.1118  0.2824 -0.4866
  104MPD2    C5 1589   2.550   1.541  12.263 -0.2639  0.1996 -0.0216
  104MPD2     H 1590   2.310   1.324  12.464 -0.3315  0.2791  0.8793
  104MPD2    H1 1591   2.402   1.574  12.128  0.5867 -1.5760 -1.3191
  104MPD2    H2 1592   2.692   1.490  12.412  0.5653 -1.2169 -0.1367
  104MPD2    H3 1593   2.618   1.582  12.189  1.3204  1.0021  1.8860
  104MPD2     N 1594   2.207   1.441  12.258 -0.0294  0.6140 -0.4028
  104MPD2    H5 1595   2.155   1.364  12.300  0.4580 -0.8403 -2.4708
  104MPD2    N1 1596   2.552   1.374  12.585 -1.0552  0.2474 -0.0091
  104MPD2    H7 1597   2.650   1.385  12.610 -1.0148 -1.2305  0.4617
  105MPD2     C 1598   3.986   4.497  17.388 -0.1507 -0.2183 -0.8721
  105MPD2    C1 1599   3.955   4.632  17.401 -0.3414  0.2664  0.8127
  105MPD2    C2 1600   3.884   4.677  17.509 -0.4626  0.1156  0.1328
  105MPD2    C3 1601   3.844   4.586  17.610 -0.0490  0.2270  0.0688
  105MPD2    C4 1602   3.868   4.453  17.591 -0.3574 -0.1216  0.0514
  105MPD2    C5 1603   3.929   4.402  17.477  0.3982 -0.4269 -0.3472
  105MPD2     H 1604   3.869   0.060  17.522  1.7665  0.6252 -1.5202
  105MPD2    H1 1605   3.838   4.389  17.673 -1.3168 -2.5460 -2.1762
  105MPD2    H2 1606   4.019   4.456  17.293  0.7720 -0.8457 -0.2823
  105MPD2    H3 1607   3.953   4.298  17.458  1.2266 -0.2048 -0.5155
  105MPD2     N 1608   3.789   4.643   0.030 -0.1758 -0.7774 -0.0814
  105MPD2    H5 1609   3.776   0.021   0.025  0.2781 -0.7632 -0.8970
  105MPD2    N1 1610   4.001   0.006  17.311  0.2775  0.0433  0.0383
  105MPD2    H7 1611   3.958   0.096  17.329  0.4746  0.0191  0.6316
  106TCq2    C1 1612   3.753   4.578   0.147  0.1173  0.3042  0.4685
  106TCq2    O2 1613   3.749   4.458   0.174  0.7219  0.5275 -0.0430
  106TCq2    C2 1614   3.717   4.676   0.249 -0.1401 -0.1295  0.0482
  106TCq2    C3 1615   3.638   4.629   0.349 -0.8263 -0.3598 -0.4038
  106TCq2    C4 1616   3.580   0.002   0.428  0.0038  0.6951  0.8392
  106TCq2    C5 1617   3.608   0.131   0.423 -0.6471 -0.1923 -0.3555
  106TCq2    C6 1618   3.692   0.173   0.323  0.5988  0.2087  0.0435
  106TCq2    C7 1619   3.745   0.089   0.236  0.0756  0.6888  0.7394
  106TCq2    C8 1620   3.705   0.310   0.279 -0.1147 -0.5694  0.1646
  106TCq2    O4 1621   3.775   0.329   0.180 -0.6882 -0.1273  0.3123
  106TCq2    C9 1622   3.481   4.682   0.515  0.3149 -0.0942  0.3181
  106TCq2    O5 1623   3.475   4.560   0.548 -0.5212 -0.4629 -0.5432
  106TCq2    O6 1624   3.395   0.041   0.566  0.0519  0.0075 -0.5873
  106TCq2    H2 1625   3.601   4.528   0.361  0.5669 -0.8084  0.1036
  106TCq2    H3 1626   3.564   0.194   0.500 -0.9582 -0.9308  0.0746
  106TCq2    H4 1627   3.828   0.130   0.179  2.0182 -1.9287  1.6714
  107TMC2    C1 1628   0.034   4.060  11.385  0.3153 -0.1973  0.0190
  107TMC2    C2 1629   4.663   4.106  11.294  0.3670  0.2258 -0.4864
  107TMC2    C3 1630   4.687   4.081  11.159  0.1819 -0.1153  0.1634
  107TMC2    C4 1631   0.137   3.989  11.338 -0.0223  0.1262 -0.2661
  107TMC2    C5 1632   0.151   3.959  11.201 -0.2811 -0.1247 -0.5267
  107TMC2    C6 1633   0.073   4.017  11.110  0.5129 -0.2593  0.2151
  107TMC2     C 1634   0.007   4.060  11.531  0.1415  0.8383  0.3361
  107TMC2     O 1635   4.619   4.101  11.569  0.2352  0.2269  0.0391
  107TMC2     H 1636   4.583   4.175  11.317 -0.9332 -1.2432 -0.6611
  107TMC2    H1 1637   0.216   3.956  11.405 -0.5559 -0.3762  0.1126
  107TMC2    H2 1638   0.086   4.021  11.002  0.7452  2.2817  0.3307
  107TMC2    C7 1639   0.266   3.878  11.148 -0.2577 -0.7858  0.3863
  107TMC2    C8 1640   4.603   4.153  11.068  0.2767  0.1935 -0.6105
  107TMC2    O1 1641   0.347   3.835  11.227 -0.6343 -0.3708  0.0846
  107TMC2    O2 1642   4.599   4.272  11.093 -0.3289 -0.9647  0.1456
  107TMC2    O5 1643   4.608   4.087  10.951  0.0880 -0.4887  0.4072
  107TMC2    H5 1644   4.608   3.990  10.963 -2.4473 -0.4113  0.9731
  108MPD2     C 1645   0.236   3.984  11.804 -0.3883  0.5849 -0.8543
  108MPD2    C1 1646   0.111   4.010  11.750  0.0671 -0.5796  0.0481
  108MPD2    C2 1647   0.000   4.028  11.831 -0.2567  0.1878  0.2670
  108MPD2    C3 1648   0.014   4.013  11.966  0.5794 -0.6321 -0.1314
  108MPD2    C4 1649   0.139   3.988  12.017  0.3030 -0.6145 -0.1535
  108MPD2    C5 1650   0.250   3.972  11.935 -0.1424  0.0099  0.3209
  108MPD2     H 1651   4.628   4.045  11.783  0.2927 -0.3153 -0.9944
  108MPD2    H1 1652   0.154   3.970  12.123 -1.1047  2.1301  0.5045
  108MPD2    H2 1653   0.329   3.968  11.751 -0.8492 -1.3468 -1.0862
  108MPD2    H3 1654   0.346   3.953  11.981 -1.1713 -1.2537  1.9574
  108MPD2     N 1655   4.628   4.007  12.062 -0.6783 -1.0013 -0.1437
  108MPD2    H5 1656   4.650   3.986  12.159 -0.2530  0.4233  0.0751
  108MPD2    N1 1657   0.111   4.019  11.611 -0.7950  0.4220 -0.3106
  108MPD2    H7 1658   0.200   4.014  11.563  0.0298 -0.4967  1.3429
  109MPD2     C 1659   0.296   1.530   1.385  0.1943  0.1787 -0.1466
  109MPD2    C1 1660   0.289   1.624   1.285  0.3324  0.6937  0.3814
  109MPD2    C2 1661   0.411   1.661   1.231  0.1250 -0.0439  0.4754
  109MPD2    C3 1662   0.536   1.613   1.273  0.2011  0.7020 -0.7054
  109MPD2    C4 1663   0.536   1.521   1.376 -0.1249  0.6568 -0.4956
  109MPD2    C5 1664   0.415   1.480   1.425 -0.7603 -0.3283  0.6358
  109MPD2     H 1665   0.405   1.712   1.135  1.6430 -0.4826  0.1493
  109MPD2    H1 1666   0.623   1.465   1.411 -1.6299 -0.4696  1.4346
  109MPD2    H2 1667   0.207   1.503   1.441 -0.1143 -0.7672 -1.0912
  109MPD2    H3 1668   0.414   1.407   1.505 -0.6916 -0.8405  0.1696
  109MPD2     N 1669   0.653   1.664   1.214 -0.3105  0.0323 -0.8614
  109MPD2    H5 1670   0.648   1.749   1.158 -1.1647  1.4775  1.4178
  109MPD2    N1 1671   0.162   1.669   1.240  0.3974 -0.0633  0.0391
  109MPD2    H7 1672   0.074   1.625   1.269  0.0065  0.3148 -0.5784
  110TCq2    C1 1673   0.781   1.613   1.238 -1.2338  0.1580 -0.2537
  110TCq2    O2 1674   0.807   1.511   1.298 -0.1399  0.1134 -0.3277
  110TCq2    C2 1675   0.893   1.698   1.207 -0.2813  0.2645  0.3499
  110TCq2    C3 1676   1.018   1.658   1.241 -0.1850 -0.3046 -0.4198
  110TCq2    C4 1677   1.126   1.743   1.226  0.1817  0.2703  0.0004
  110TCq2    C5 1678   1.105   1.875   1.188  0.9890  0.0399 -0.5131
  110TCq2    C6 1679   0.978   1.918   1.180 -0.2626  1.3583  0.2508
  110TCq2    C7 1680   0.873   1.832   1.176 -0.1861  0.1235 -0.3615
  110TCq2    C8 1681   0.949   2.064   1.183 -0.6070  0.1252 -0.4726
  110TCq2    O4 1682   0.840   2.110   1.157 -0.1303 -0.1013 -0.3080
  110TCq2    C9 1683   1.251   1.693   1.249  0.1117 -0.0524  0.7047
  110TCq2    O5 1684   1.268   1.570   1.233  0.2417 -0.2712 -0.5851
  110TCq2    O6 1685   1.344   1.777   1.278 -0.0074 -0.8339  0.3407
  110TCq2    H2 1686   1.038   1.553   1.260 -3.2293 -0.3180  2.7808
  110TCq2    H3 1687   1.194   1.936   1.177  2.6081 -2.9522 -4.2534
  110TCq2    H4 1688   0.774   1.875   1.165 -1.0286 -1.4281  1.2090
  111TMC2    C1 1689   0.433   1.565  11.011  0.3661 -0.3533 -0.0251
  111TMC2    C2 1690   0.516   1.676  10.996 -0.0869  0.6069 -0.0243
  111TMC2    C3 1691   0.644   1.678  11.048  0.2625 -0.1060 -0.2431
  111TMC2    C4 1692   0.485   1.452  11.078  0.1607  0.6374 -0.2918
  111TMC2    C5 1693   0.613   1.456  11.131 -0.2510 -0.4552 -0.8617
  111TMC2    C6 1694   0.681   1.575  11.130  0.1639  0.3114 -0.0588
  111TMC2     C 1695   0.295   1.593  11.035  0.6003 -0.1871 -0.0662
  111TMC2     O 1696   0.241   1.671  10.955 -0.3560 -0.2290 -0.5889
  111TMC2     H 1697   0.467   1.763  10.953  1.1118  0.6306 -1.3766
  111TMC2    H1 1698   0.422   1.364  11.082 -0.0799  0.8504  0.6860
  111TMC2    H2 1699   0.785   1.574  11.162  0.1504  1.9817  0.0435
  111TMC2    C7 1700   0.597   1.390  11.259 -0.9230 -0.1140 -0.0867
  111TMC2    C8 1701   0.739   1.787  11.022  0.1266  0.2091 -0.0375
  111TMC2    O1 1702   0.481   1.377  11.301 -0.1351  0.0984  0.0038
  111TMC2    O2 1703   0.790   1.797  10.913 -0.2110 -0.1909  0.2238
  111TMC2    O5 1704   0.713   1.884  11.110 -0.0743 -0.1015  0.0287
  111TMC2    H5 1705   0.673   1.856  11.195 -1.9741  0.1568 -0.7831
  112MPD2     C 1706   4.587   1.540  11.295  0.0921 -0.6938 -0.0111
  112MPD2    C1 1707   4.599   1.552  11.161  0.7175  0.1601  0.0413
  112MPD2    C2 1708   0.005   1.557  11.110 -0.5310 -0.1144 -0.4958
  112MPD2    C3 1709   0.116   1.526  11.191  0.3410 -0.6469 -0.3190
  112MPD2    C4 1710   0.096   1.500  11.326  0.4611  0.1655  0.0225
  112MPD2    C5 1711   4.690   1.506  11.376 -0.4004  0.6140 -0.3163
  112MPD2     H 1712   0.017   1.575  11.004 -0.8265 -1.4798 -0.7661
  112MPD2    H1 1713   0.179   1.497  11.395  0.9677 -0.6874 -0.6144
  112MPD2    H2 1714   4.490   1.531  11.343 -0.2232 -2.6976 -1.0341
  112MPD2    H3 1715   4.667   1.484  11.480 -1.1407  0.9432 -0.4114
  112MPD2     N 1716   0.251   1.530  11.146  0.1085  0.1296 -0.0315
  112MPD2    H5 1717   0.313   1.475  11.205  1.1783  2.6211  1.2033
  112MPD2    N1 1718   4.494   1.558  11.071  0.2259 -0.0176 -0.5058
  112MPD2    H7 1719   4.513   1.550  10.972  0.3153 -1.4672 -0.3708
  113MPD2     C 1720   2.796   4.389   1.169  0.1231  0.4089 -0.3243
  113MPD2    C1 1721   2.702   4.474   1.108  0.4163  0.5188 -0.1512
  113MPD2    C2 1722   2.590   4.410   1.047  0.4903 -0.0891  0.2252
  113MPD2    C3 1723   2.580   4.269   1.035 -0.7654 -0.2721  0.6052
  113MPD2    C4 1724   2.677   4.195   1.095  0.0117  0.4226  0.1981
  113MPD2    C5 1725   2.781   4.256   1.163 -0.8738  0.0917  0.3737
  113MPD2     H 1726   2.513   4.475   1.008 -0.9044 -0.7722  1.8382
  113MPD2    H1 1727   2.668   4.087   1.088 -0.9553  0.4635  0.7620
  113MPD2    H2 1728   2.882   4.422   1.226  0.8142  1.0918 -1.7761
  113MPD2    H3 1729   2.855   4.190   1.207 -1.1734 -0.2093  0.4359
  113MPD2     N 1730   2.478   4.202   0.973 -0.4127 -0.0611 -0.0650
  113MPD2    H5 1731   2.494   4.103   0.955 -0.7313 -0.1876  0.3629
  113MPD2    N1 1732   2.705   4.610   1.132  0.1141  0.1276  0.1281
  113MPD2    H7 1733   2.619   4.661   1.112 -1.0214 -1.6061  0.5368
  114TCq2    C1 1734   2.364   4.267   0.926 -0.4050  0.8360 -0.0282
  114TCq2    O2 1735   2.330   4.383   0.928 -0.3454 -0.4042 -0.3024
  114TCq2    C2 1736   2.254   4.182   0.881  0.1426  0.0694  0.1836
  114TCq2    C3 1737   2.143   4.250   0.842 -0.4914  0.6497  0.0423
  114TCq2    C4 1738   2.022   4.197   0.869  0.6922  0.1185 -0.1627
  114TCq2    C5 1739   2.008   4.066   0.914 -0.3940 -0.4571  0.2761
  114TCq2    C6 1740   2.122   4.012   0.971  0.8854  0.2599 -0.3338
  114TCq2    C7 1741   2.243   4.065   0.956 -0.3394  0.2175 -0.4759
  114TCq2    C8 1742   2.108   3.870   1.018 -0.3299 -0.0761 -0.0900
  114TCq2    O4 1743   1.994   3.824   1.027  0.8250  0.1351  0.0150
  114TCq2    C9 1744   1.902   4.268   0.845  0.0750  0.1766  0.7600
  114TCq2    O5 1745   1.802   4.219   0.902  0.4274 -0.4203 -0.0540
  114TCq2    O6 1746   1.904   4.362   0.762 -0.0410 -0.1355  0.1212
  114TCq2    H2 1747   2.153   4.343   0.787  0.0131  2.8471  3.8495
  114TCq2    H3 1748   1.910   4.021   0.929  0.3054 -1.1582  2.7201
  114TCq2    H4 1749   2.331   4.030   1.010 -1.1244  0.5671  1.0392
  115TMC2    C1 1750   4.168   2.810   0.039 -0.7489 -0.1773  0.0534
  115TMC2    C2 1751   4.284   2.827   0.121  0.2483  0.1716 -0.6392
  115TMC2    C3 1752   4.363   2.929   0.076  0.1309  0.6427  0.0274
  115TMC2    C4 1753   4.137   2.895  17.624 -0.2584  0.2614  0.5556
  115TMC2    C5 1754   4.220   2.997  17.596 -0.2900  0.2478  0.7602
  115TMC2    C6 1755   4.335   3.019  17.666 -0.1956 -0.5547  0.0437
  115TMC2     C 1756   4.086   2.687   0.053 -0.2168 -0.5195 -0.5151
  115TMC2     O 1757   3.989   2.672  17.671  0.3386  0.0375  0.0814
  115TMC2     H 1758   4.290   2.781   0.218  1.5467  2.1700  0.2408
  115TMC2    H1 1759   4.044   2.883  17.570 -0.7956  2.9534  0.8553
  115TMC2    H2 1760   4.404   3.091  17.623 -0.7467  0.5662  1.0018
  115TMC2    C7 1761   4.186   3.107  17.512  0.1423 -0.4350 -0.2276
  115TMC2    C8 1762   4.475   2.974   0.155  0.1769 -0.2319  0.0310
  115TMC2    O1 1763   4.261   3.205  17.493 -0.7314 -0.0275  0.5756
  115TMC2    O2 1764   4.461   3.082   0.209  0.1007 -0.8598 -0.4263
  115TMC2    O5 1765   4.511   2.860   0.219 -0.5640  0.4172 -0.2583
  115TMC2    H5 1766   4.517   2.780   0.163  0.3915  1.1371 -1.1857
  116MPD2     C 1767   3.903   2.292   0.327  0.3459 -0.6035  0.4132
  116MPD2    C1 1768   3.855   2.353   0.214  0.5784 -0.6295 -0.4566
  116MPD2    C2 1769   3.927   2.462   0.162 -0.1197 -0.1997  0.1000
  116MPD2    C3 1770   4.049   2.494   0.210  0.9896 -0.3190  0.0166
  116MPD2    C4 1771   4.101   2.428   0.311  0.4062 -0.0580  0.1570
  116MPD2    C5 1772   4.032   2.324   0.367 -0.3520  0.0145  0.2350
  116MPD2     H 1773   3.902   2.509   0.067 -0.3570 -2.9537 -1.2241
  116MPD2    H1 1774   4.194   2.457   0.359 -0.5855  0.3683  1.8042
  116MPD2    H2 1775   3.847   2.220   0.385  0.5551 -1.1366 -0.0492
  116MPD2    H3 1776   4.075   2.268   0.450 -0.6343 -1.7761 -0.8313
  116MPD2     N 1777   4.119   2.611   0.162  0.4380  0.5755  0.2253
  116MPD2    H5 1778   4.198   2.644   0.216  1.3459  0.2357 -0.9016
  116MPD2    N1 1779   3.731   2.308   0.164  0.7240 -0.2893  0.1189
  116MPD2    H7 1780   3.689   2.230   0.213  1.1086 -0.4603  0.1728
  117TMC2    C1 1781   2.003   3.628  13.605 -0.5108 -0.5440 -0.3841
  117TMC2    C2 1782   2.013   3.511  13.684  0.3028  0.5740 -0.3256
  117TMC2    C3 1783   2.092   3.511  13.791  0.0944 -0.5609 -0.3119
  117TMC2    C4 1784   2.088   3.735  13.625 -0.5858 -0.2823 -0.9376
  117TMC2    C5 1785   2.174   3.722  13.733 -0.5836 -0.2491  0.0699
  117TMC2    C6 1786   2.171   3.615  13.822 -0.4473  0.2451 -0.7920
  117TMC2     C 1787   1.914   3.626  13.488 -0.0373 -0.7165  0.2673
  117TMC2     O 1788   1.886   3.515  13.448 -0.3561  0.2006 -0.3698
  117TMC2     H 1789   1.957   3.428  13.645  1.6208 -1.0133  1.1715
  117TMC2    H1 1790   2.109   3.802  13.543  2.6645  1.1102  1.0586
  117TMC2    H2 1791   2.226   3.614  13.915 -0.9270 -0.3963 -0.5146
  117TMC2    C7 1792   2.278   3.822  13.758 -0.4850 -0.3308 -0.5168
  117TMC2    C8 1793   2.124   3.382  13.852 -1.2171  0.4257 -0.2563
  117TMC2    O1 1794   2.242   3.937  13.727 -0.2918  0.1497 -0.7527
  117TMC2    O2 1795   2.208   3.373  13.940 -0.4814 -0.7982 -0.3021
  117TMC2    O5 1796   2.026   3.292  13.825  0.2208 -0.0327  0.1252
  117TMC2    H5 1797   1.945   3.317  13.775  0.5468  1.6154  0.3970
  118MPD2     C 1798   2.630   3.799  13.868  0.4781  0.2210 -0.2627
  118MPD2    C1 1799   2.513   3.853  13.838 -0.6410 -0.1718  0.6090
  118MPD2    C2 1800   2.502   3.991  13.839  0.5291 -0.3442  1.1920
  118MPD2    C3 1801   2.609   4.075  13.873 -0.0351 -0.0218  0.6897
  118MPD2    C4 1802   2.726   4.011  13.893 -0.2447 -0.7655  0.3063
  118MPD2    C5 1803   2.735   3.874  13.891  0.1619 -0.0261  0.3623
  118MPD2     H 1804   2.408   4.044  13.831  0.4342 -0.9995 -1.9660
  118MPD2    H1 1805   2.820   4.064  13.905  0.0365 -1.4053  0.9801
  118MPD2    H2 1806   2.639   3.691  13.868 -1.7253  0.0477 -1.7160
  118MPD2    H3 1807   2.832   3.828  13.904  1.3713  2.6160  0.7809
  118MPD2     N 1808   2.615   4.218  13.866 -0.6000  0.0110 -0.6106
  118MPD2    H5 1809   2.707   4.259  13.877 -1.0234  0.6924  0.5155
  118MPD2    N1 1810   2.397   3.766  13.810  0.2287 -0.2930  0.6189
  118MPD2    H7 1811   2.399   3.666  13.830  0.0636 -0.4120  0.0476
  119MPD2     C 1812   0.823   0.693  13.384  0.1939  0.3425 -0.2932
  119MPD2    C1 1813   0.704   0.751  13.351  0.6153  0.9937 -0.0082
  119MPD2    C2 1814   0.633   0.711  13.238 -0.4799 -0.1497 -0.2749
  119MPD2    C3 1815   0.696   0.611  13.157  0.3313 -0.5908 -0.4051
  119MPD2    C4 1816   0.824   0.569  13.181 -0.3398  0.4870  0.0693
  119MPD2    C5 1817   0.883   0.612  13.298 -0.0260  0.6319 -0.5476
  119MPD2     H 1818   0.531   0.738  13.218 -0.8121 -0.6098  0.7723
  119MPD2    H1 1819   0.874   0.502  13.113  1.1042  2.9995 -1.3657
  119MPD2    H2 1820   0.876   0.725  13.474  1.0550  1.7935 -1.3168
  119MPD2    H3 1821   0.984   0.582  13.320 -0.6282 -0.3949  0.8696
  119MPD2     N 1822   0.629   0.542  13.054 -0.1438 -0.2561 -0.2197
  119MPD2    H5 1823   0.681   0.469  13.006  0.7267  0.3136 -0.1433
  119MPD2    N1 1824   0.645   0.832  13.459 -0.1667  0.7015 -0.2191
  119MPD2    H7 1825   0.704   0.829  13.542  0.9452  0.5628 -1.0236
  120TCq2    C1 1826   0.498   0.539  13.027 -0.2830  0.6323 -0.1234
  120TCq2    O2 1827   0.411   0.622  13.068  0.4293 -0.3994  0.1488
  120TCq2    C2 1828   0.443   0.411  12.983  0.5447  0.1164  1.2090
  120TCq2    C3 1829   0.520   0.303  12.951 -0.6631 -0.4965 -0.1959
  120TCq2    C4 1830   0.459   0.179  12.931 -0.7848 -0.5022  0.4051
  120TCq2    C5 1831   0.324   0.167  12.960 -0.2794  0.5283 -0.2037
  120TCq2    C6 1832   0.244   0.275  12.994 -0.2479 -0.5257 -0.4052
  120TCq2    C7 1833   0.310   0.394  13.014 -0.5055 -0.1759  0.0298
  120TCq2    C8 1834   0.129   0.254  13.074  0.2266  0.1388 -0.3252
  120TCq2    O4 1835   0.022   0.293  13.031  0.0041 -0.3564 -0.3539
  120TCq2    C9 1836   0.539   0.068  12.891  1.0751  0.4713  0.4545
  120TCq2    O5 1837   0.479   4.686  12.860  0.3110 -0.2801 -0.0481
  120TCq2    O6 1838   0.662   0.083  12.911  0.4934 -0.6242 -0.0349
  120TCq2    H2 1839   0.625   0.311  12.928 -1.1104  0.3618 -1.9580
  120TCq2    H3 1840   0.270   0.074  12.951  0.4270 -0.1834  3.0966
  120TCq2    H4 1841   0.252   0.478  13.051  1.1854  1.2352 -0.5228
  121TMC2    C1 1842   1.850   1.905  14.269  0.2911 -0.4153 -0.1198
  121TMC2    C2 1843   1.800   1.835  14.376 -1.2838  0.4029  0.0027
  121TMC2    C3 1844   1.697   1.751  14.361 -0.1220  0.6381 -0.1943
  121TMC2    C4 1845   1.789   1.893  14.151  0.6159  0.0625 -0.0934
  121TMC2    C5 1846   1.674   1.811  14.141  0.4014 -0.1565  0.4249
  121TMC2    C6 1847   1.629   1.738  14.248  0.1167 -0.0608  0.0248
  121TMC2     C 1848   1.991   1.950  14.271 -0.8354  0.0920  0.0045
  121TMC2     O 1849   2.041   1.942  14.382  0.5099  0.0933  0.4749
  121TMC2     H 1850   1.861   1.839  14.466  1.5971  0.1919 -1.9238
  121TMC2    H1 1851   1.827   1.945  14.064  1.5223 -2.0786 -0.9835
  121TMC2    H2 1852   1.540   1.675  14.249 -0.2946  0.4918 -1.0830
  121TMC2    C7 1853   1.579   1.835  14.035 -0.4567 -1.0436 -0.1592
  121TMC2    C8 1854   1.682   1.665  14.474  0.9466  0.5472  0.2004
  121TMC2    O1 1855   1.631   1.878  13.935  0.1894  0.2567  0.5222
  121TMC2    O2 1856   1.768   1.640  14.558 -0.4695  0.1532  0.3029
  121TMC2    O5 1857   1.550   1.670  14.506 -0.3568  0.3163  0.0685
  121TMC2    H5 1858   1.480   1.692  14.441 -1.0066 -1.5226  0.1485
  122MPD2     C 1859   2.288   1.981  14.238  0.0995  0.3991 -0.6799
  122MPD2    C1 1860   2.190   2.025  14.144  0.0535  0.0259  0.1047
  122MPD2    C2 1861   2.233   2.082  14.024  0.7003  0.4399  0.0846
  122MPD2    C3 1862   2.370   2.100  13.997 -0.2642  0.3260 -0.5797
  122MPD2    C4 1863   2.461   2.053  14.086 -0.1296  0.3830 -0.0177
  122MPD2    C5 1864   2.420   1.987  14.197  0.0653 -0.3713  0.4301
  122MPD2     H 1865   2.164   2.100  13.942  0.0403  0.3421  0.6136
  122MPD2    H1 1866   2.562   2.042  14.047 -0.2658 -0.0771 -0.2403
  122MPD2    H2 1867   2.276   1.934  14.335 -2.1578  1.4241 -0.4514
  122MPD2    H3 1868   2.503   1.957  14.259  0.0619  0.6392  0.9245
  122MPD2     N 1869   2.421   2.159  13.879 -0.1145  0.4713  0.8763
  122MPD2    H5 1870   2.520   2.137  13.868 -0.5024 -0.8314  0.0254
  122MPD2    N1 1871   2.051   1.992  14.155 -0.0861 -1.0074  0.1185
  122MPD2    H7 1872   2.004   2.007  14.067  0.6260 -0.9458 -0.2548
  123MPD2     C 1873   4.688   4.345  10.704 -0.0939 -0.2599  0.7650
  123MPD2    C1 1874   4.680   4.432  10.598  0.2109  0.0455  0.4737
  123MPD2    C2 1875   0.026   4.554  10.607  0.0074  0.6803  0.0175
  123MPD2    C3 1876   0.089   4.594  10.723 -0.2410  0.4685 -0.4985
  123MPD2    C4 1877   0.082   4.506  10.835  0.3566  0.3175 -0.2851
  123MPD2    C5 1878   0.030   4.382  10.817  0.9871 -0.6196  0.1367
  123MPD2     H 1879   0.029   4.625  10.525 -1.6764  4.2862  3.0510
  123MPD2    H1 1880   0.125   4.541  10.929 -0.1699  2.8543 -0.9904
  123MPD2    H2 1881   4.637   4.250  10.714 -1.3951  0.1073 -2.2659
  123MPD2    H3 1882   0.028   4.308  10.896 -0.0292 -1.8138 -0.9995
  123MPD2     N 1883   0.148   4.720  10.744  0.8101 -0.8653 -0.2974
  123MPD2    H5 1884   0.174   0.013  10.841 -0.8184  1.5484 -0.2453
  123MPD2    N1 1885   4.615   4.382  10.484 -0.7380  0.7484  0.1849
  123MPD2    H7 1886   4.558   4.299  10.499  0.5894 -0.3672 -0.9705
  124TCq2    C1 1887   0.168   0.095  10.643 -0.2440 -0.0820 -0.5160
  124TCq2    O2 1888   0.143   0.086  10.524 -0.1635  0.2330  0.8861
  124TCq2    C2 1889   0.239   0.213  10.689  0.8431  0.2624 -0.1249
  124TCq2    C3 1890   0.320   0.184  10.796  0.7000  0.4419 -0.5545
  124TCq2    C4 1891   0.441   0.243  10.812 -0.3005 -0.4747  0.5561
  124TCq2    C5 1892   0.489   0.316  10.709  0.3053  0.4019 -0.2678
  124TCq2    C6 1893   0.409   0.345  10.604  0.6239  0.4155 -0.6969
  124TCq2    C7 1894   0.277   0.304  10.594  0.2307 -0.0441  0.0418
  124TCq2    C8 1895   0.488   0.355  10.482 -0.3466  0.8236  0.7533
  124TCq2    O4 1896   0.601   0.304  10.492  0.0313  0.0661 -0.1008
  124TCq2    C9 1897   0.526   0.211  10.918 -0.0035  0.5284  0.4887
  124TCq2    O5 1898   0.638   0.274  10.924  0.3339 -0.4544 -0.0549
  124TCq2    O6 1899   0.508   0.098  10.974 -0.4091  0.9258 -0.6166
  124TCq2    H2 1900   0.286   0.122  10.879  1.0334 -0.5599 -1.1602
  124TCq2    H3 1901   0.587   0.361  10.701  0.8032 -0.8210 -1.0059
  124TCq2    H4 1902   0.220   0.308  10.501 -0.6970  0.4023  0.6277
  125TMC2    C1 1903   0.616   1.445   9.420 -0.0988  0.3670 -0.5942
  125TMC2    C2 1904   0.509   1.525   9.442 -0.8375 -0.6974  0.4997
  125TMC2    C3 1905   0.530   1.665   9.452 -0.2406  0.9599 -0.5594
  125TMC2    C4 1906   0.743   1.491   9.431 -0.6092  0.3049 -0.3849
  125TMC2    C5 1907   0.765   1.629   9.439 -0.3690  0.3935 -0.2250
  125TMC2    C6 1908   0.658   1.711   9.448  0.1657 -0.0851 -0.0838
  125TMC2     C 1909   0.590   1.304   9.419 -0.1193  0.0474  0.1151
  125TMC2     O 1910   0.670   1.232   9.365  0.4580 -0.2567 -0.4544
  125TMC2     H 1911   0.408   1.485   9.435 -0.0546 -2.0802 -2.9757
  125TMC2    H1 1912   0.826   1.421   9.438  0.9800  2.2531  0.3126
  125TMC2    H2 1913   0.677   1.814   9.476  2.1534 -0.2626 -0.7961
  125TMC2    C7 1914   0.894   1.683   9.464  0.8422  0.4455 -0.4288
  125TMC2    C8 1915   0.417   1.753   9.465  0.2162 -0.3422  0.2239
  125TMC2    O1 1916   0.901   1.803   9.486 -0.2363  0.2337 -0.1025
  125TMC2    O2 1917   0.406   1.869   9.416  0.9830  0.0576 -0.2941
  125TMC2    O5 1918   0.330   1.699   9.552 -0.7349 -0.6313 -0.2598
  125TMC2    H5 1919   0.377   1.631   9.606  1.3059  0.7182 -0.3210
  126MPD1     C 1920   0.363   0.877   9.593  0.1776  0.1210 -0.2594
  126MPD1    C1 1921   0.312   0.979   9.666 -0.3955  0.1865 -0.0782
  126MPD1    C2 1922   0.336   1.111   9.619 -1.2101  0.5309 -0.0043
  126MPD1    C3 1923   0.433   1.134   9.519  0.5905  0.5168 -0.0676
  126MPD1    C4 1924   0.484   1.026   9.450  0.5473  0.2821  0.0446
  126MPD1    C5 1925   0.450   0.899   9.487 -0.6906  0.2975 -0.3658
  126MPD1     H 1926   0.284   1.191   9.670 -0.3104  0.5961  0.8149
  126MPD1    H1 1927   0.565   1.039   9.378  0.1941 -1.7528 -0.7291
  126MPD1    H2 1928   0.338   0.774   9.616  0.7581 -0.1667 -0.9264
  126MPD1    H3 1929   0.492   0.812   9.438 -0.0470 -0.0637  0.8219
  126MPD1     N 1930   0.477   1.265   9.497  0.3851 -0.1433  0.5055
  126MPD1    H5 1931   0.428   1.339   9.546  1.2795  0.7166  0.1053
  126MPD1    N1 1932   0.204   0.958   9.757  0.3539  0.2373  0.1624
  126MPD1    H6 1933   0.202   1.031   9.828  1.7619 -0.1340  0.5908
  126MPD1    H7 1934   0.216   0.866   9.799 -0.8277  1.5072  3.2547
  127MPD2     C 1935   1.973   0.264   9.939  0.1590  0.3116 -0.2436
  127MPD2    C1 1936   1.996   0.355   9.845  0.0493  1.2013 -0.0318
  127MPD2    C2 1937   2.111   0.435   9.844  0.3334 -0.4084  0.5014
  127MPD2    C3 1938   2.204   0.415   9.947 -0.1070 -0.2750 -0.1669
  127MPD2    C4 1939   2.176   0.324  10.046 -0.4453  0.5410  0.5960
  127MPD2    C5 1940   2.060   0.248  10.044  0.5672 -0.4446  0.1415
  127MPD2     H 1941   2.135   0.506   9.766 -0.1154 -0.8926 -0.0787
  127MPD2    H1 1942   2.245   0.313  10.129 -0.0065  0.9993  0.2916
  127MPD2    H2 1943   1.880   0.210   9.946  0.7355 -0.6361  0.1292
  127MPD2    H3 1944   2.057   0.165  10.113  0.8061 -1.4807 -1.1011
  127MPD2     N 1945   2.305   0.511   9.947 -0.7384 -0.5111  0.0225
  127MPD2    H5 1946   2.311   0.567   9.863  0.3354 -1.3659 -0.4653
  127MPD2    N1 1947   1.895   0.376   9.744 -0.1807  0.6258  0.5447
  127MPD2    H7 1948   1.822   0.307   9.736 -1.4979  1.6958  3.1989
  128TCq2    C1 1949   1.903   0.464   9.643  0.1306 -0.1140 -0.2554
  128TCq2    O2 1950   1.978   0.560   9.624 -0.7220  0.4091 -0.4427
  128TCq2    C2 1951   1.806   0.438   9.535  0.4946 -0.1498  0.8062
  128TCq2    C3 1952   1.839   0.492   9.409  0.1734 -0.3022 -0.4911
  128TCq2    C4 1953   1.746   0.502   9.313  0.1788 -0.8338 -0.1652
  128TCq2    C5 1954   1.625   0.439   9.328 -0.5628 -0.1540 -0.2035
  128TCq2    C6 1955   1.594   0.390   9.453  0.7012 -0.2104  0.1976
  128TCq2    C7 1956   1.678   0.388   9.560  0.6485 -0.0783 -0.8373
  128TCq2    C8 1957   1.465   0.332   9.459  0.4746  0.0873  0.4388
  128TCq2    O4 1958   1.375   0.383   9.392  0.9131 -0.4679  0.6194
  128TCq2    C9 1959   1.780   0.556   9.188  0.7529  0.1601 -0.2272
  128TCq2    O5 1960   1.895   0.604   9.186 -0.0672  0.0193  0.2378
  128TCq2    O6 1961   1.710   0.548   9.083 -0.7228 -0.0647  0.4996
  128TCq2    H2 1962   1.938   0.531   9.394  0.6171 -0.8747  0.9367
  128TCq2    H3 1963   1.547   0.446   9.253 -0.4492 -3.2504 -0.6074
  128TCq2    H4 1964   1.640   0.361   9.658  0.0941  0.1368 -0.9909
  129MPD2     C 1965   0.592   1.931   0.553  0.1780  0.5800  0.1990
  129MPD2    C1 1966   0.690   1.910   0.642 -0.2277 -0.1299  0.6087
  129MPD2    C2 1967   0.768   2.017   0.684 -0.0240 -0.3608  0.0704
  129MPD2    C3 1968   0.740   2.146   0.637 -0.0258 -0.1592 -0.3881
  129MPD2    C4 1969   0.638   2.160   0.545  0.2307  0.2540  0.4310
  129MPD2    C5 1970   0.569   2.054   0.494 -0.2773 -0.0970  0.3470
  129MPD2     H 1971   0.837   1.999   0.765  1.8070  2.8326 -0.7610
  129MPD2    H1 1972   0.612   2.257   0.503 -0.7642 -0.3322 -0.2928
  129MPD2    H2 1973   0.522   1.860   0.509  0.2673  1.5131 -1.4567
  129MPD2    H3 1974   0.488   2.071   0.424 -0.1745  0.5703  0.3847
  129MPD2     N 1975   0.820   2.251   0.679 -0.9676 -0.0923  0.1477
  129MPD2    H5 1976   0.893   2.237   0.748 -1.8861  0.2594  1.1869
  129MPD2    N1 1977   0.718   1.788   0.703  0.0709 -1.0356  0.1359
  129MPD2    H7 1978   0.792   1.788   0.772 -1.4804 -1.2156  1.8122
  130TCq2    C1 1979   0.654   1.668   0.673 -0.4311 -0.5631  0.0974
  130TCq2    O2 1980   0.553   1.642   0.611  0.3842  0.0680 -0.0333
  130TCq2    C2 1981   0.693   1.570   0.764  0.0868  0.8048  0.7646
  130TCq2    C3 1982   0.820   1.589   0.814  0.6659 -0.0862  0.0685
  130TCq2    C4 1983   0.869   1.509   0.909  0.3317  0.1135 -0.1050
  130TCq2    C5 1984   0.790   1.410   0.963 -0.1459 -0.1948 -0.5907
  130TCq2    C6 1985   0.663   1.393   0.912 -0.6313  0.5068  0.3838
  130TCq2    C7 1986   0.613   1.474   0.816  0.3837  0.5189 -0.0959
  130TCq2    C8 1987   0.558   1.313   0.975 -0.4207  0.2139  0.0841
  130TCq2    O4 1988   0.455   1.284   0.917 -0.3953  0.0942  0.0654
  130TCq2    C9 1989   1.009   1.521   0.951 -0.2842 -0.4092  1.4454
  130TCq2    O5 1990   1.049   1.445   1.038 -0.0955 -0.0678 -0.2191
  130TCq2    O6 1991   1.083   1.608   0.891 -0.1435  0.2031 -0.1483
  130TCq2    H2 1992   0.899   1.647   0.768  0.4641  0.4531  0.3918
  130TCq2    H3 1993   0.832   1.350   1.042 -0.3056 -0.4769 -0.7189
  130TCq2    H4 1994   0.518   1.444   0.774 -0.0534 -1.2307  2.1729
  131MPD2     C 1995   4.317   0.087   9.618  0.4872 -0.5173 -0.8477
  131MPD2    C1 1996   4.356   0.144   9.732 -0.0566  0.1876 -0.6072
  131MPD2    C2 1997   4.367   0.060   9.838 -1.1431  0.1735  0.0650
  131MPD2    C3 1998   4.362   4.647   9.819 -0.1093  0.5395  0.0362
  131MPD2    C4 1999   4.319   4.595   9.695  0.4293  0.0214  0.2408
  131MPD2    C5 2000   4.288   4.681   9.599  0.1884  0.1435  0.0197
  131MPD2     H 2001   4.383   0.103   9.936 -0.8599  0.6702 -0.2001
  131MPD2    H1 2002   4.289   4.493   9.679  2.1633  0.0071 -2.8466
  131MPD2    H2 2003   4.291   0.151   9.534  1.4311 -1.3801 -1.7909
  131MPD2    H3 2004   4.247   4.641   9.507  4.7539  0.9981 -2.4143
  131MPD2     N 2005   4.394   4.562   9.934  0.2381 -0.1432  0.0168
  131MPD2    H5 2006   4.433   4.602  10.018  1.3781  2.0540 -1.5689
  131MPD2    N1 2007   4.365   0.283   9.740  0.0862  0.5369  0.1270
  131MPD2    H7 2008   4.345   0.340   9.659 -0.0123 -3.6757 -2.7866
  132TCq2    C1 2009   4.522   0.792  10.010 -0.3241 -0.0258 -0.4056
  132TCq2    O2 2010   4.473   0.881  10.079 -0.0693 -0.2183 -0.0963
  132TCq2    C2 2011   4.422   0.704   9.947  0.1689 -0.4563 -0.6625
  132TCq2    C3 2012   4.307   0.760   9.899  0.8936  0.8204  0.2831
  132TCq2    C4 2013   4.237   0.681   9.818  0.1059  0.3108  0.3147
  132TCq2    C5 2014   4.270   0.551   9.778  0.0115 -0.0736 -0.6974
  132TCq2    C6 2015   4.380   0.494   9.840 -0.7984 -0.6618  0.3918
  132TCq2    C7 2016   4.461   0.577   9.917  0.3676  0.2657 -0.8380
  132TCq2    C8 2017   4.407   0.350   9.850 -0.6567  0.1010 -0.0849
  132TCq2    O4 2018   4.487   0.320   9.938  0.0759  0.1603 -0.1056
  132TCq2    C9 2019   4.120   0.740   9.751  0.7231 -0.2370  0.0809
  132TCq2    O5 2020   4.085   0.852   9.789 -0.1893  0.0538 -0.1020
  132TCq2    O6 2021   4.048   0.658   9.686  0.0032 -0.4222 -0.1534
  132TCq2    H2 2022   4.297   0.867   9.911 -2.1595  0.3108  2.0833
  132TCq2    H3 2023   4.209   0.507   9.700 -0.5920 -1.1126  0.3548
  132TCq2    H4 2024   4.560   0.544   9.945  0.1696 -0.5806 -1.1184
  133MPD2     C 2025   2.409   0.687   9.035 -0.7303 -0.3793 -0.1497
  133MPD2    C1 2026   2.422   0.820   9.007 -0.2051 -0.4349 -0.1193
  133MPD2    C2 2027   2.541   0.882   9.046  0.4572 -0.1931  0.2626
  133MPD2    C3 2028   2.638   0.813   9.113 -0.7865  0.9596  0.2878
  133MPD2    C4 2029   2.620   0.686   9.147  0.6904  0.1692  0.4987
  133MPD2    C5 2030   2.509   0.625   9.106 -0.3723  0.2545  0.2260
  133MPD2     H 2031   2.546   0.988   9.026  1.1879 -0.3751 -0.4766
  133MPD2    H1 2032   2.691   0.628   9.205 -0.1973 -0.7687  0.6463
  133MPD2    H2 2033   2.323   0.626   9.012 -1.2216  1.0215 -1.9836
  133MPD2    H3 2034   2.505   0.518   9.125  2.9964  0.1065  0.1460
  133MPD2     N 2035   2.752   0.874   9.170  0.0373 -0.0495  0.3140
  133MPD2    H5 2036   2.813   0.809   9.218  1.5194  0.8342 -0.3537
  133MPD2    N1 2037   2.315   0.883   8.945  0.0299 -0.9994  0.5163
  133MPD2    H7 2038   2.237   0.824   8.918  1.6680 -2.5031 -0.9407
  134TCq2    C1 2039   2.297   1.016   8.921 -0.2420 -0.4087  0.6758
  134TCq2    O2 2040   2.370   1.107   8.963  0.3151 -0.5182  0.1319
  134TCq2    C2 2041   2.175   1.041   8.847  0.6054 -0.2051  0.0270
  134TCq2    C3 2042   2.103   0.939   8.795  0.3080  0.2572 -0.1477
  134TCq2    C4 2043   1.971   0.954   8.780 -0.0109  0.7817  0.3918
  134TCq2    C5 2044   1.907   1.079   8.789  0.8671 -0.5605 -0.3784
  134TCq2    C6 2045   1.988   1.183   8.827  0.1418  0.0966  0.7055
  134TCq2    C7 2046   2.118   1.166   8.861 -0.7843 -0.5588  0.1500
  134TCq2    C8 2047   1.954   1.325   8.839 -0.3337  0.0422 -0.5226
  134TCq2    O4 2048   2.049   1.401   8.846  0.9850  0.0782  0.2048
  134TCq2    C9 2049   1.893   0.832   8.744  0.1264  0.0099 -0.8185
  134TCq2    O5 2050   1.947   0.715   8.763  0.1355 -0.4580 -0.0122
  134TCq2    O6 2051   1.768   0.856   8.735  0.1245  0.0011  0.1617
  134TCq2    H2 2052   2.141   0.840   8.774  0.4370  0.3213 -0.2147
  134TCq2    H3 2053   1.799   1.085   8.791  0.8418 -1.4145  0.8451
  134TCq2    H4 2054   2.177   1.241   8.913  0.0596 -0.5302 -0.8502
  135MPD2     C 2055   1.688   2.220   9.633  0.1332  0.5719 -0.5886
  135MPD2    C1 2056   1.553   2.189   9.632 -0.9732  0.5190 -0.1556
  135MPD2    C2 2057   1.497   2.095   9.546  0.2017  0.2888 -0.6236
  135MPD2    C3 2058   1.585   2.044   9.444 -0.7495 -0.1055  0.1567
  135MPD2    C4 2059   1.719   2.080   9.447  0.0822  0.1057  0.3638
  135MPD2    C5 2060   1.771   2.167   9.541 -0.6327  0.5175 -1.0207
  135MPD2     H 2061   1.394   2.066   9.532 -0.1605  0.6717  1.2730
  135MPD2    H1 2062   1.792   2.052   9.372  0.2122 -0.2117  0.6102
  135MPD2    H2 2063   1.724   2.298   9.698 -1.5896 -0.6328  1.7949
  135MPD2    H3 2064   1.875   2.196   9.531  0.0863 -1.5915  0.4175
  135MPD2     N 2065   1.543   1.946   9.346 -0.7366  0.1644  0.0050
  135MPD2    H5 2066   1.617   1.909   9.287 -1.3997 -0.5761 -0.3597
  135MPD2    N1 2067   1.456   2.247   9.722 -0.1887  0.1791  0.1809
  135MPD2    H7 2068   1.363   2.207   9.718  0.0579 -0.4592  0.7215
  136TCq2    C1 2069   1.482   2.356   9.803 -0.2609  0.3700  0.2212
  136TCq2    O2 2070   1.562   2.442   9.784  0.7062 -0.3630 -0.8553
  136TCq2    C2 2071   1.378   2.392   9.891 -0.0630 -0.5093 -0.7573
  136TCq2    C3 2072   1.346   2.526   9.884  0.0614 -0.1115  0.3159
  136TCq2    C4 2073   1.237   2.558   9.957  0.3882 -0.3184  0.2542
  136TCq2    C5 2074   1.156   2.463  10.018 -0.0670  0.0201  0.1796
  136TCq2    C6 2075   1.196   2.332  10.019 -0.0162 -0.2678  1.0300
  136TCq2    C7 2076   1.310   2.294   9.953  0.5519 -0.4393 -0.3301
  136TCq2    C8 2077   1.162   2.268  10.142 -0.2849  0.0195 -0.1641
  136TCq2    O4 2078   1.097   2.335  10.217 -0.2494  0.3370  0.4489
  136TCq2    C9 2079   1.214   2.696   9.986 -0.0154  0.2910  0.1165
  136TCq2    O5 2080   1.312   2.773   9.989 -0.3288  0.2664 -0.2590
  136TCq2    O6 2081   1.094   2.729  10.022  0.1171  0.6248 -0.1490
  136TCq2    H2 2082   1.407   2.598   9.830  0.9681 -0.6957  0.5589
  136TCq2    H3 2083   1.075   2.505  10.076  1.3114  0.2574  1.9189
  136TCq2    H4 2084   1.338   2.189   9.958  2.6621  0.0708 -1.4779
  137MPD2     C 2085   1.537   4.447  10.381  0.8164  0.0271 -0.1346
  137MPD2    C1 2086   1.479   4.534  10.285 -0.8284  0.7549  0.4856
  137MPD2    C2 2087   1.480   4.669  10.313 -0.5210 -0.0561 -0.0154
  137MPD2    C3 2088   1.534   4.715  10.432  0.5125 -0.5360 -0.2773
  137MPD2    C4 2089   1.598   4.626  10.521  0.2771 -0.2653 -0.1714
  137MPD2    C5 2090   1.601   4.494  10.487  0.1252  0.3454  0.5005
  137MPD2     H 2091   1.455   0.018  10.236 -1.5379  0.5080  0.8626
  137MPD2    H1 2092   1.636   4.661  10.617  0.5698 -0.8825 -0.0634
  137MPD2    H2 2093   1.539   4.339  10.371 -1.0424 -0.1335  1.1550
  137MPD2    H3 2094   1.632   4.423  10.563 -1.2023 -0.9181 -0.1459
  137MPD2     N 2095   1.524   0.130  10.456  0.2111 -0.3700  0.0496
  137MPD2    H5 2096   1.489   0.189  10.382 -0.7952 -3.3931 -1.9083
  137MPD2    N1 2097   1.414   4.474  10.177  0.2132  0.5868  0.0237
  137MPD2    H7 2098   1.410   4.372  10.175 -2.3004  0.7046 -0.7246
  138TCq2    C1 2099   1.324   4.536  10.099 -0.1841 -0.1760  0.3256
  138TCq2    O2 2100   1.302   4.653  10.069  0.0546  0.3636  0.0812
  138TCq2    C2 2101   1.231   4.442  10.042  0.1237  0.2830 -0.2470
  138TCq2    C3 2102   1.204   4.328  10.110  0.2176 -0.0719 -0.0326
  138TCq2    C4 2103   1.087   4.258  10.084 -0.1339  0.4895 -0.0160
  138TCq2    C5 2104   0.997   4.310   9.993 -0.5490  0.0604 -0.2968
  138TCq2    C6 2105   1.025   4.430   9.938 -0.1914 -0.0809  0.1602
  138TCq2    C7 2106   1.137   4.503   9.967  0.7061  0.7477  0.0531
  138TCq2    C8 2107   0.913   4.489   9.869  0.3900  0.4209 -0.8781
  138TCq2    O4 2108   0.831   4.407   9.825  0.2000 -0.1615  0.1104
  138TCq2    C9 2109   1.064   4.131  10.149  0.1086 -0.3075  0.2119
  138TCq2    O5 2110   0.950   4.081  10.140  0.1709  0.3777  0.1654
  138TCq2    O6 2111   1.142   4.097  10.241  0.0662  0.0588 -0.6874
  138TCq2    H2 2112   1.270   4.289  10.187  0.9417  0.9919 -0.1231
  138TCq2    H3 2113   0.908   4.251   9.973 -1.7410  1.3981  1.0297
  138TCq2    H4 2114   1.150   4.600   9.922 -1.8675  0.6064 -1.0203
  139TMC2    C1 2115   2.306   0.102  13.128  0.5103 -0.9920 -0.0867
  139TMC2    C2 2116   2.295   0.093  12.989 -0.2620  0.0200 -0.0402
  139TMC2    C3 2117   2.202   0.178  12.927 -0.1573  0.1313 -0.0908
  139TMC2    C4 2118   2.233   0.194  13.201  1.1933 -0.2609  0.2944
  139TMC2    C5 2119   2.152   0.274  13.129 -0.1321  0.4991  0.1418
  139TMC2    C6 2120   2.138   0.273  12.998  0.1351  0.4460 -0.1692
  139TMC2     C 2121   2.338   4.694  13.197  0.4574 -0.7956 -0.2632
  139TMC2     O 2122   2.423   4.627  13.137  0.4202  0.4730  0.1103
  139TMC2     H 2123   2.344   0.008  12.944 -0.9374 -0.2194 -0.3251
  139TMC2    H1 2124   2.242   0.195  13.309 -0.1063  0.1479  0.4059
  139TMC2    H2 2125   2.062   0.343  12.966 -0.7539 -0.7930 -0.7868
  139TMC2    C7 2126   2.059   0.359  13.207 -0.1180 -0.5916 -0.0103
  139TMC2    C8 2127   2.189   0.165  12.785 -1.0307 -0.3932 -0.1507
  139TMC2    O1 2128   2.108   0.428  13.299  0.4389  0.2611  0.9079
  139TMC2    O2 2129   2.161   0.064  12.722 -0.0355  0.1725  0.4580
  139TMC2    O5 2130   2.164   0.288  12.737  0.4614  0.9275  0.2014
  139TMC2    H5 2131   2.201   0.362  12.790 -0.8514  0.4842  1.7310
  140MPD2     C 2132   2.225   4.514  13.492  0.3089  0.1994 -0.5245
  140MPD2    C1 2133   2.255   4.539  13.359  0.2502 -0.2571  0.1059
  140MPD2    C2 2134   2.275   4.423  13.282 -0.0436 -0.1339  0.0377
  140MPD2    C3 2135   2.257   4.297  13.336 -0.1701  0.1757  0.1652
  140MPD2    C4 2136   2.218   4.278  13.472  0.2005  0.2936  1.1568
  140MPD2    C5 2137   2.209   4.393  13.547  0.0127  0.1568  0.0879
  140MPD2     H 2138   2.289   4.425  13.174 -0.3611 -1.0134 -0.0144
  140MPD2    H1 2139   2.205   4.181  13.517 -0.5763  0.3248  1.0060
  140MPD2    H2 2140   2.205   4.602  13.552  0.9047  0.2768 -0.4411
  140MPD2    H3 2141   2.188   4.385  13.653 -1.2807 -0.2107 -0.2020
  140MPD2     N 2142   2.283   4.193  13.248 -0.0343 -0.0492 -0.2736
  140MPD2    H5 2143   2.329   4.219  13.161 -2.7094 -1.8581 -2.2389
  140MPD2    N1 2144   2.270   4.663  13.306 -0.4434 -0.8561 -0.0441
  140MPD2    H7 2145   2.214   0.013  13.349  0.3993 -0.6913  0.7994
  141TCq2    C1 2146   2.808   0.640  14.650 -0.3326 -0.5794 -0.1620
  141TCq2    O2 2147   2.864   0.724  14.577  0.1551 -0.4405 -0.3657
  141TCq2    C2 2148   2.788   0.681  14.789  0.7314  0.2898 -0.3372
  141TCq2    C3 2149   2.688   0.612  14.866  0.7739 -0.2892  0.0093
  141TCq2    C4 2150   2.660   0.651  14.996 -0.4166 -0.3592  0.5434
  141TCq2    C5 2151   2.730   0.753  15.051 -0.6006 -0.7795  0.5348
  141TCq2    C6 2152   2.816   0.824  14.972 -0.4533 -0.0130 -0.9055
  141TCq2    C7 2153   2.845   0.792  14.841  0.3396  0.1078  0.3987
  141TCq2    C8 2154   2.870   0.933  15.042 -0.1272 -0.9437 -0.2141
  141TCq2    O4 2155   2.931   0.901  15.144  0.3572 -0.3950  0.1052
  141TCq2    C9 2156   2.565   0.580  15.077 -0.2519 -0.1893 -0.3013
  141TCq2    O5 2157   2.524   0.630  15.184  0.1852 -0.3403 -0.0719
  141TCq2    O6 2158   2.501   0.491  15.011  0.3483  0.6137  0.2303
  141TCq2    H2 2159   2.640   0.528  14.819 -0.7198 -0.6949  2.2680
  141TCq2    H3 2160   2.728   0.780  15.156  3.3753 -1.1616  0.7144
  141TCq2    H4 2161   2.927   0.844  14.793  0.2769  0.8656  1.1288
  142MPD2     C 2162   0.102   4.116  10.395  0.0481  0.2506 -0.3066
  142MPD2    C1 2163   0.124   4.136  10.258 -0.2693  0.1093  0.1467
  142MPD2    C2 2164   0.245   4.200  10.222  0.2977 -0.0778  0.2981
  142MPD2    C3 2165   0.324   4.260  10.316  0.1454  0.5249 -0.6448
  142MPD2    C4 2166   0.294   4.243  10.451  0.9692  0.0890 -0.0491
  142MPD2    C5 2167   0.184   4.163  10.486  0.1712  1.3984 -0.4545
  142MPD2     H 2168   0.272   4.210  10.118 -0.6488 -3.2286 -0.2606
  142MPD2    H1 2169   0.360   4.273  10.532  2.0146 -0.9240 -0.5280
  142MPD2    H2 2170   0.012   4.067  10.431  0.6367 -1.4658 -1.1573
  142MPD2    H3 2171   0.179   4.149  10.593 -0.7686  0.6181 -0.5934
  142MPD2     N 2172   0.455   4.310  10.277 -0.5915  0.4289 -0.6841
  142MPD2    H5 2173   0.514   4.331  10.357 -0.2984 -1.2352 -0.4622
  142MPD2    N1 2174   0.030   4.086  10.166 -0.2504  0.0089  0.7822
  142MPD2    H7 2175   4.676   4.035  10.207 -0.8422  0.6385  0.4541
  143TCq2    C1 2176   0.496   4.346  10.157 -0.1819 -0.2516 -0.2455
  143TCq2    O2 2177   0.439   4.347  10.049 -0.0742 -0.4837  0.5131
  143TCq2    C2 2178   0.634   4.392  10.163 -0.0929  0.1193  0.3000
  143TCq2    C3 2179   0.713   4.349  10.267 -0.5876 -0.2698 -0.0729
  143TCq2    C4 2180   0.820   4.423  10.302  0.3888 -0.2669  0.1020
  143TCq2    C5 2181   0.834   4.551  10.260 -0.0052 -0.1744  0.2762
  143TCq2    C6 2182   0.753   4.594  10.161 -0.2397 -0.3433  0.2512
  143TCq2    C7 2183   0.654   4.515  10.108 -0.4610  0.1173  0.4242
  143TCq2    C8 2184   0.728   0.013  10.176  0.1698 -0.4105  0.1204
  143TCq2    O4 2185   0.762   0.062  10.281  0.1372  0.1885  0.0618
  143TCq2    C9 2186   0.903   4.369  10.403  0.9272 -0.2439  0.5047
  143TCq2    O5 2187   0.905   4.242  10.411  0.3982 -0.3465 -0.1569
  143TCq2    O6 2188   0.952   4.451  10.489 -0.2204  0.0092 -0.2320
  143TCq2    H2 2189   0.697   4.251  10.310 -0.1198  0.1040  0.9452
  143TCq2    H3 2190   0.914   4.616  10.294 -0.5845  0.4623  0.4032
  143TCq2    H4 2191   0.589   4.555  10.030  0.7484 -1.0413 -1.1702
  144MPD2     C 2192   2.402   4.289   0.548 -0.4890  0.0232  0.1590
  144MPD2    C1 2193   2.426   4.154   0.572  0.0568  0.4026 -0.0034
  144MPD2    C2 2194   2.553   4.114   0.620 -1.0232 -0.2532 -0.3359
  144MPD2    C3 2195   2.654   4.208   0.651 -0.1037  0.0768 -0.6625
  144MPD2    C4 2196   2.628   4.338   0.612 -0.3231 -0.6573 -0.1618
  144MPD2    C5 2197   2.508   4.377   0.564 -0.2302  0.7767  0.1894
  144MPD2     H 2198   2.569   4.007   0.632 -0.6977  0.0236  1.8591
  144MPD2    H1 2199   2.704   4.415   0.617 -2.3614  1.1349  3.2818
  144MPD2    H2 2200   2.313   4.324   0.496 -0.8098  0.3119  0.9000
  144MPD2    H3 2201   2.497   4.474   0.518  0.8229  0.7608 -0.0929
  144MPD2     N 2202   2.777   4.181   0.714 -0.2352  0.9075 -0.5628
  144MPD2    H5 2203   2.843   4.257   0.727 -2.2230  2.6966 -1.0300
  144MPD2    N1 2204   2.331   4.054   0.544 -0.2098 -0.1289  1.3112
  144MPD2    H7 2205   2.367   3.960   0.534 -0.6786 -0.1139 -0.4047
  145TCq2    C1 2206   2.809   4.056   0.762 -0.2860 -0.3476 -0.0042
  145TCq2    O2 2207   2.753   3.947   0.770  0.3624 -0.4959  0.1068
  145TCq2    C2 2208   2.933   4.054   0.838 -0.2580 -0.4164 -0.2890
  145TCq2    C3 2209   3.027   4.160   0.836 -0.5096 -0.0381  0.0236
  145TCq2    C4 2210   3.139   4.142   0.911  0.2882 -0.2228 -0.0363
  145TCq2    C5 2211   3.146   4.048   1.011 -0.8331  0.0741 -0.1395
  145TCq2    C6 2212   3.046   3.954   1.012 -0.9278 -0.0687  0.0092
  145TCq2    C7 2213   2.948   3.946   0.921  0.0514 -0.1436  0.8037
  145TCq2    C8 2214   3.020   3.891   1.140 -0.2218  0.4760 -0.1094
  145TCq2    O4 2215   3.111   3.885   1.221  0.1137  0.1630  0.4464
  145TCq2    C9 2216   3.242   4.243   0.905  0.3765 -1.2007 -0.3339
  145TCq2    O5 2217   3.221   4.333   0.818 -0.3844  0.3117 -0.0465
  145TCq2    O6 2218   3.352   4.202   0.953 -0.3477 -0.2616 -0.3209
  145TCq2    H2 2219   3.024   4.242   0.765  1.1145  1.4796  1.7139
  145TCq2    H3 2220   3.236   4.048   1.071  0.6405 -0.8988 -2.3362
  145TCq2    H4 2221   2.887   3.856   0.921 -2.9664  1.9054 -0.9987
  146TMC2    C1 2222   4.171   1.996  12.412 -0.1774  0.2497 -0.2852
  146TMC2    C2 2223   4.214   2.038  12.288  0.1408  0.1002  0.2137
  146TMC2    C3 2224   4.251   1.940  12.207  0.6752 -0.4019  0.7582
  146TMC2    C4 2225   4.173   1.859  12.442 -0.5038  0.4841  0.1987
  146TMC2    C5 2226   4.199   1.770  12.350 -0.5966 -0.1692  0.5840
  146TMC2    C6 2227   4.251   1.803  12.229  0.0196  0.6930 -0.1379
  146TMC2     C 2228   4.132   2.101  12.504  0.2282 -0.1110  0.7722
  146TMC2     O 2229   4.142   2.219  12.475 -0.0305  0.3712 -0.4523
  146TMC2     H 2230   4.216   2.143  12.261 -1.6691 -0.5242 -2.3556
  146TMC2    H1 2231   4.140   1.823  12.539 -2.2578  0.8730 -0.2582
  146TMC2    H2 2232   4.291   1.730  12.160  2.2125  2.2951 -0.5549
  146TMC2    C7 2233   4.229   1.638  12.397  0.8311 -1.0846 -0.2397
  146TMC2    C8 2234   4.286   1.983  12.076 -0.7246 -0.4176 -0.7118
  146TMC2    O1 2235   4.245   1.558  12.305 -0.1806 -0.0148 -0.4358
  146TMC2    O2 2236   4.331   2.090  12.057 -0.6692 -0.1969 -0.3525
  146TMC2    O5 2237   4.238   1.898  11.986  0.4087 -0.3116 -0.5805
  146TMC2    H5 2238   4.190   1.824  12.028  0.1260  0.1401 -0.0996
  147MPD2     C 2239   4.525   1.345  12.707  0.0903 -0.2364  0.3538
  147MPD2    C1 2240   4.543   1.485  12.728  0.6644 -0.0945 -1.1854
  147MPD2    C2 2241   4.463   1.575  12.669  0.6647 -0.2794  0.7842
  147MPD2    C3 2242   4.369   1.537  12.576  0.5856  0.5962 -0.0364
  147MPD2    C4 2243   4.366   1.412  12.531  0.2518  0.9513 -0.0468
  147MPD2    C5 2244   4.436   1.319  12.610 -0.7733  0.6190 -0.2158
  147MPD2     H 2245   4.463   1.676  12.709 -0.1494  0.3136 -0.7312
  147MPD2    H1 2246   4.303   1.372  12.453 -1.0446 -0.1420  1.5696
  147MPD2    H2 2247   4.588   1.270  12.753  2.2328 -0.6191 -3.2462
  147MPD2    H3 2248   4.420   1.214  12.590  0.5048  0.3729  0.0480
  147MPD2     N 2249   4.289   1.642  12.522 -0.3238  0.3700 -0.3018
  147MPD2    H5 2250   4.303   1.735  12.559 -3.0097 -0.3737  2.5132
  147MPD2    N1 2251   4.651   1.533  12.816 -0.4210 -0.5681  0.1930
  147MPD2    H7 2252   4.704   1.461  12.864  0.4327 -0.2470 -0.2761
  148MPD2     C 2253   4.561   0.658  10.447 -0.6972 -0.1998  0.5696
  148MPD2    C1 2254   4.558   0.550  10.534 -0.3665  0.1003  0.7062
  148MPD2    C2 2255   4.461   0.453  10.519 -0.1098  0.2423 -0.1619
  148MPD2    C3 2256   4.361   0.456  10.427 -0.3802  0.4373  0.0593
  148MPD2    C4 2257   4.362   0.559  10.331  1.5086  0.3675  0.3521
  148MPD2    C5 2258   4.460   0.656  10.347 -0.2323 -0.0016  0.6033
  148MPD2     H 2259   4.464   0.370  10.588 -1.8739 -0.1115 -0.5218
  148MPD2    H1 2260   4.284   0.566  10.256  2.8155 -0.5155 -1.1039
  148MPD2    H2 2261   4.631   0.740  10.447 -3.0072  1.7894 -1.0689
  148MPD2    H3 2262   4.461   0.734  10.272 -2.5366  0.2129  0.7901
  148MPD2     N 2263   4.258   0.359  10.414  0.0684  0.0331 -0.6094
  148MPD2    H5 2264   4.191   0.368  10.338 -0.2304 -1.7265 -0.5597
  148MPD2    N1 2265   4.648   0.539  10.639 -0.2688  0.1500 -0.0607
  148MPD2    H7 2266   4.626   0.456  10.693 -0.4149  1.0123  1.1807
  149TCq2    C1 2267   0.027   0.630  10.677 -0.1414  0.1683  0.1546
  149TCq2    O2 2268   0.093   0.710  10.607  0.0804 -0.4961 -0.1686
  149TCq2    C2 2269   0.062   0.602  10.809 -0.3942  0.3784 -0.0597
  149TCq2    C3 2270   0.195   0.617  10.840  0.3224  0.4363 -1.0098
  149TCq2    C4 2271   0.249   0.556  10.946  0.2249  0.6287 -0.6374
  149TCq2    C5 2272   0.175   0.456  11.004 -0.7168  0.1392  0.2450
  149TCq2    C6 2273   0.041   0.443  10.974 -0.0430  0.4985 -0.8006
  149TCq2    C7 2274   4.704   0.521  10.885 -0.0265  0.1719  0.1656
  149TCq2    C8 2275   4.691   0.334  11.034 -1.3106  0.1467 -0.3414
  149TCq2    O4 2276   4.575   0.327  10.999 -0.1199 -0.2281  0.1779
  149TCq2    C9 2277   0.391   0.552  10.957  0.0946 -0.1047  0.3575
  149TCq2    O5 2278   0.432   0.470  11.048  0.8954  0.3709  0.6798
  149TCq2    O6 2279   0.460   0.611  10.872  0.1517  0.5611 -0.4209
  149TCq2    H2 2280   0.260   0.682  10.782  1.9900  0.8240  1.2970
  149TCq2    H3 2281   0.223   0.385  11.071  1.3430  1.0441 -0.2688
  149TCq2    H4 2282   4.596   0.519  10.876 -0.2034  0.3293  2.2416
  150MPD2     C 2283   1.432   0.051  12.436 -0.0879 -0.4697  0.1101
  150MPD2    C1 2284   1.433   0.129  12.326 -0.5005  0.0533 -0.4319
  150MPD2    C2 2285   1.521   0.238  12.324 -0.1997 -0.0735  0.3504
  150MPD2    C3 2286   1.607   0.265  12.425 -0.4566 -0.9919 -0.2672
  150MPD2    C4 2287   1.605   0.177  12.535 -0.3677 -0.3077 -0.2292
  150MPD2    C5 2288   1.514   0.074  12.538  0.3360 -0.4720 -0.5698
  150MPD2     H 2289   1.513   0.307  12.240 -1.6728  0.4249  0.8880
  150MPD2    H1 2290   1.666   0.201  12.621  0.4461 -0.4971 -0.7593
  150MPD2    H2 2291   1.357   4.696  12.439  0.6687 -1.3294 -2.4225
  150MPD2    H3 2292   1.502   0.022  12.632  1.1666 -1.6938 -1.1503
  150MPD2     N 2293   1.697   0.373  12.417 -0.3676  0.0217  0.6793
  150MPD2    H5 2294   1.676   0.445  12.348 -0.5743  0.0538  0.7739
  150MPD2    N1 2295   1.332   0.119  12.230  0.0593  0.4483 -0.6846
  150MPD2    H7 2296   1.275   0.035  12.232  0.9677 -0.1652 -1.0031
  151TCq2    C1 2297   1.803   0.395  12.502 -0.2494  0.0941  0.4956
  151TCq2    O2 2298   1.853   0.320  12.578  0.3899 -0.8489 -0.4050
  151TCq2    C2 2299   1.879   0.512  12.462 -0.6160 -0.0907  0.5828
  151TCq2    C3 2300   1.818   0.610  12.391 -0.8464  0.0886 -0.6077
  151TCq2    C4 2301   1.898   0.698  12.324 -0.1777  0.3791  0.5547
  151TCq2    C5 2302   2.034   0.678  12.329 -0.6375 -0.0982 -0.2225
  151TCq2    C6 2303   2.085   0.578  12.402 -0.0416  0.0829  0.2513
  151TCq2    C7 2304   2.011   0.492  12.471  0.1307 -0.0136 -0.2374
  151TCq2    C8 2305   2.227   0.586  12.425  0.1096 -0.8261 -0.2817
  151TCq2    O4 2306   2.284   0.695  12.414  0.6583  0.4963  0.2544
  151TCq2    C9 2307   1.845   0.793  12.237  0.7961  0.4307 -0.2325
  151TCq2    O5 2308   1.720   0.808  12.230 -0.6648  0.7809 -0.1781
  151TCq2    O6 2309   1.923   0.847  12.155 -0.0459 -0.2997 -0.3859
  151TCq2    H2 2310   1.710   0.622  12.384 -0.5428  3.4390  0.3625
  151TCq2    H3 2311   2.107   0.740  12.277  0.1070 -0.3146  0.5659
  151TCq2    H4 2312   2.057   0.416  12.533 -0.8012 -0.4066 -0.0259
  152MPD2     C 2313   1.222   4.586  12.771 -0.0785 -0.2008  0.5651
  152MPD2    C1 2314   1.209   4.722  12.753 -0.0399  0.2668 -0.2909
  152MPD2    C2 2315   1.097   0.050  12.692  0.2033 -0.3723  1.0019
  152MPD2    C3 2316   0.994   4.680  12.669  0.4940  0.2392  0.6447
  152MPD2    C4 2317   1.009   4.548  12.692 -0.3110 -0.8595 -0.1013
  152MPD2    C5 2318   1.125   4.498  12.735  0.2629  0.7636  0.3136
  152MPD2     H 2319   1.078   0.156  12.678 -0.6014 -0.8447 -1.5086
  152MPD2    H1 2320   0.921   4.485  12.689  1.4056 -3.2451 -0.3595
  152MPD2    H2 2321   1.307   4.546  12.825  0.0282 -0.9533 -0.1641
  152MPD2    H3 2322   1.121   4.394  12.764 -0.3713  1.3311  2.2840
  152MPD2     N 2323   0.881   0.009  12.614  0.3185  0.0998 -0.7801
  152MPD2    H5 2324   0.890   0.101  12.572  0.0924  1.2034  1.5902
  152MPD2    N1 2325   1.312   0.078  12.801 -1.0369 -0.5131  0.7916
  152MPD2    H7 2326   1.388   0.033  12.851  0.4296  1.9973  0.8205
  153TCq2    C1 2327   1.333   0.216  12.788  0.2850 -0.3639 -0.4269
  153TCq2    O2 2328   1.260   0.295  12.729 -0.0118 -0.6201 -0.6545
  153TCq2    C2 2329   1.460   0.254  12.843  0.1151 -0.0195  0.0235
  153TCq2    C3 2330   1.551   0.159  12.878  0.6482 -0.3434  0.0788
  153TCq2    C4 2331   1.681   0.193  12.879  1.0298  0.1731 -0.0753
  153TCq2    C5 2332   1.729   0.318  12.853  1.2907  0.0251 -0.5032
  153TCq2    C6 2333   1.636   0.413  12.834 -0.0485  0.1525  0.3522
  153TCq2    C7 2334   1.499   0.382  12.829  0.0563  0.0185  0.5374
  153TCq2    C8 2335   1.689   0.547  12.788  0.0195 -0.1730 -0.4149
  153TCq2    O4 2336   1.612   0.616  12.719  0.5647 -0.0313  0.3059
  153TCq2    C9 2337   1.784   0.088  12.895 -0.4637  0.3607 -0.3583
  153TCq2    O5 2338   1.764   4.700  12.836  0.3130 -0.4242  0.4629
  153TCq2    O6 2339   1.870   0.115  12.983 -0.0292 -1.1528  0.1727
  153TCq2    H2 2340   1.528   0.054  12.887  0.9017 -0.5252 -1.3888
  153TCq2    H3 2341   1.836   0.323  12.842  0.9647  1.6864 -2.8207
  153TCq2    H4 2342   1.428   0.458  12.797  1.6674  0.9269 -0.8736
  154MPD2     C 2343   2.547   4.142   0.206  0.0412  0.4216  0.0644
  154MPD2    C1 2344   2.658   4.207   0.249 -0.4139  0.5061 -0.3234
  154MPD2    C2 2345   2.663   4.345   0.228  0.1294 -0.1913  0.0196
  154MPD2    C3 2346   2.560   4.414   0.177 -0.6300 -0.1850  0.2270
  154MPD2    C4 2347   2.437   4.354   0.146 -0.8004 -0.7571  0.8888
  154MPD2    C5 2348   2.441   4.219   0.160  0.2005 -0.7008 -0.1347
  154MPD2     H 2349   2.750   4.403   0.256  0.9168 -0.6166 -1.5452
  154MPD2    H1 2350   2.355   4.418   0.117 -0.7242 -0.5204  1.1950
  154MPD2    H2 2351   2.531   4.035   0.208 -1.3242  0.5695 -2.2263
  154MPD2    H3 2352   2.348   4.168   0.136 -1.9164  2.5631  1.1852
  154MPD2     N 2353   2.568   4.551   0.178 -0.5429 -0.5526  0.5991
  154MPD2    H5 2354   2.647   4.586   0.232 -0.4169 -1.4505  0.9985
  154MPD2    N1 2355   2.768   4.142   0.298 -0.4501 -0.0060 -0.1408
  154MPD2    H7 2356   2.772   4.041   0.291 -1.2888 -0.0302 -0.2638
  155TCq2    C1 2357   2.876   4.199   0.365  0.4595 -0.2867  0.2704
  155TCq2    O2 2358   2.908   4.313   0.389  0.1618  0.3192 -0.4121
  155TCq2    C2 2359   2.948   4.099   0.443  0.4945 -0.0518 -0.2741
  155TCq2    C3 2360   3.065   4.138   0.504  0.2348  0.2088 -0.1418
  155TCq2    C4 2361   3.144   4.042   0.559  0.2231  0.1325 -0.4260
  155TCq2    C5 2362   3.095   3.921   0.583  0.0918  0.1317  0.1893
  155TCq2    C6 2363   2.966   3.889   0.545  0.7006  0.6369 -0.3158
  155TCq2    C7 2364   2.897   3.979   0.462  0.6121 -0.3058 -0.1449
  155TCq2    C8 2365   2.910   3.753   0.560 -0.0002  0.1168  0.4169
  155TCq2    O4 2366   2.802   3.732   0.508  0.6775 -0.0525 -0.4903
  155TCq2    C9 2367   3.278   4.075   0.603 -0.0450  0.6091  0.7053
  155TCq2    O5 2368   3.323   4.190   0.565  0.4327  0.3116  0.3928
  155TCq2    O6 2369   3.348   3.995   0.664 -0.6876 -0.7722  0.0461
  155TCq2    H2 2370   3.107   4.235   0.481  1.7556 -0.5753 -0.6551
  155TCq2    H3 2371   3.156   3.850   0.638 -0.2174  0.5167  1.0374
  155TCq2    H4 2372   2.796   3.950   0.436 -0.1509 -1.1162  3.6646
  156MPD2     C 2373   1.839   1.980  12.184  0.0364  0.6011 -0.8139
  156MPD2    C1 2374   1.759   2.089  12.172  1.0501 -0.6145 -0.3304
  156MPD2    C2 2375   1.776   2.196  12.263  0.1827 -0.2510  0.7707
  156MPD2    C3 2376   1.868   2.192  12.360 -0.4647  0.6306 -0.2984
  156MPD2    C4 2377   1.942   2.075  12.374 -0.1834  0.2481 -0.1142
  156MPD2    C5 2378   1.933   1.974  12.284 -0.1390 -0.0939 -0.4868
  156MPD2     H 2379   1.726   2.292  12.253 -0.0145 -0.3735  0.5849
  156MPD2    H1 2380   2.025   2.056  12.441 -1.1878 -1.8266  0.5373
  156MPD2    H2 2381   1.837   1.895  12.116 -3.1572  0.1969 -0.2421
  156MPD2    H3 2382   1.986   1.880  12.298 -0.0624  0.2537  1.4898
  156MPD2     N 2383   1.907   2.308  12.434  0.2257  0.5045 -0.4706
  156MPD2    H5 2384   1.858   2.394  12.414  1.0515  0.7487 -1.4184
  156MPD2    N1 2385   1.679   2.094  12.059  0.1497  0.1299  0.2890
  156MPD2    H7 2386   1.678   2.012  11.999 -0.2538  0.8804 -0.7116
  157TCq2    C1 2387   1.607   2.207  12.017 -0.6710  0.9467  0.1456
  157TCq2    O2 2388   1.604   2.318  12.071 -0.6094 -0.3249  0.0390
  157TCq2    C2 2389   1.529   2.204  11.891 -0.0965  0.0948 -0.3411
  157TCq2    C3 2390   1.520   2.093  11.813  0.1775 -0.6763 -0.2818
  157TCq2    C4 2391   1.437   2.096  11.702  0.1366  0.1360  0.1916
  157TCq2    C5 2392   1.356   2.206  11.674 -0.2336 -0.1380 -0.0591
  157TCq2    C6 2393   1.364   2.316  11.765  0.8248 -1.3180 -0.1950
  157TCq2    C7 2394   1.460   2.318  11.858 -0.5663 -0.9450  0.6502
  157TCq2    C8 2395   1.269   2.425  11.747  0.2205 -0.0692  1.1814
  157TCq2    O4 2396   1.305   2.540  11.771 -0.4904  0.1036  0.4759
  157TCq2    C9 2397   1.424   1.978  11.618  0.4449 -0.5049 -0.0269
  157TCq2    O5 2398   1.337   1.977  11.528  0.2837 -0.5920 -0.1095
  157TCq2    O6 2399   1.512   1.890  11.640 -0.2133  0.1994 -0.3280
  157TCq2    H2 2400   1.564   1.996  11.835 -0.5370 -1.8573 -4.0397
  157TCq2    H3 2401   1.305   2.217  11.579  0.3323 -2.6545 -0.6643
  157TCq2    H4 2402   1.459   2.415  11.908 -0.9162 -0.0831 -1.0541
  158TMC2    C1 2403   2.714   1.358  14.265  0.7778  0.4175  0.6070
  158TMC2    C2 2404   2.852   1.390  14.254 -0.6566  0.0181 -1.0910
  158TMC2    C3 2405   2.912   1.378  14.128  0.0664 -0.2425 -0.2151
  158TMC2    C4 2406   2.647   1.323  14.149  0.6532 -1.2028  0.5709
  158TMC2    C5 2407   2.715   1.321  14.029  0.4781 -0.2637 -0.1930
  158TMC2    C6 2408   2.844   1.345  14.015 -0.6933  0.1070 -0.3048
  158TMC2     C 2409   2.669   1.317  14.394  0.4550 -0.1443 -0.5805
  158TMC2     O 2410   2.718   1.371  14.490  0.0271 -0.1843 -0.0314
  158TMC2     H 2411   2.909   1.413  14.343 -1.2167 -1.1133 -0.4404
  158TMC2    H1 2412   2.540   1.329  14.159  0.9408 -2.4781  4.5770
  158TMC2    H2 2413   2.898   1.333  13.921  0.6281 -1.1388  0.6096
  158TMC2    C7 2414   2.636   1.313  13.906 -0.0493  0.2598  0.5732
  158TMC2    C8 2415   3.060   1.375  14.111 -0.5302  0.2185 -0.5332
  158TMC2    O1 2416   2.690   1.375  13.816  0.4669  0.5669  0.2796
  158TMC2    O2 2417   3.110   1.381  14.001 -0.2469  0.1573 -0.0319
  158TMC2    O5 2418   3.122   1.326  14.220  0.4809  0.0389  0.2987
  158TMC2    H5 2419   3.061   1.296  14.291  0.0070  0.4384  0.0542
  159MPD2     C 2420   2.509   0.943  14.701  0.2949 -0.1114  0.0998
  159MPD2    C1 2421   2.493   0.906  14.573  0.5689 -0.4733  0.2304
  159MPD2    C2 2422   2.528   0.992  14.476 -0.5774 -0.2307  0.2529
  159MPD2    C3 2423   2.575   1.119  14.496  0.8957  0.2710  0.7804
  159MPD2    C4 2424   2.587   1.161  14.625 -0.1010 -0.0366 -0.1898
  159MPD2    C5 2425   2.556   1.070  14.730  0.2190  0.4484  0.1868
  159MPD2     H 2426   2.531   0.958  14.373 -1.0139  0.8690 -0.1207
  159MPD2    H1 2427   2.617   1.258  14.662  0.4804 -0.0795 -0.5403
  159MPD2    H2 2428   2.484   0.880  14.786  2.1237 -0.7423  0.1739
  159MPD2    H3 2429   2.568   1.095  14.835  1.6058  1.5946 -0.2574
  159MPD2     N 2430   2.611   1.192  14.383 -0.6244 -0.5236  0.5796
  159MPD2    H5 2431   2.592   1.146  14.294 -0.3729  0.6712 -0.0851
  159MPD2    N1 2432   2.456   0.768  14.546 -0.4901  0.0017 -0.1296
  159MPD2    H7 2433   2.422   0.710  14.621  0.9390 -0.3251  0.2573
  160TMC2    C1 2434   2.008   3.707   1.429  0.6584  0.8920  0.1781
  160TMC2    C2 2435   2.075   3.593   1.458 -0.1598  0.0580 -0.0322
  160TMC2    C3 2436   2.039   3.481   1.387 -0.4098 -0.8111 -0.1810
  160TMC2    C4 2437   1.910   3.708   1.326 -0.1566  0.2982  0.1594
  160TMC2    C5 2438   1.879   3.588   1.263 -0.5356 -0.4976  0.0309
  160TMC2    C6 2439   1.948   3.474   1.284 -0.1372  0.3354 -0.0848
  160TMC2     C 2440   2.053   3.836   1.497 -0.3975  0.0162  0.4704
  160TMC2     O 2441   2.155   3.830   1.559  0.3386  0.6462  0.3094
  160TMC2     H 2442   2.140   3.595   1.545  0.3195  1.2011 -0.4054
  160TMC2    H1 2443   1.865   3.799   1.289 -0.2278 -0.1935 -0.9637
  160TMC2    H2 2444   1.925   3.375   1.248  0.6285 -0.6905  2.2862
  160TMC2    C7 2445   1.760   3.588   1.181  0.2085  0.1776 -0.3543
  160TMC2    C8 2446   2.116   3.358   1.404 -0.1658 -0.3589  0.1004
  160TMC2    O1 2447   1.687   3.490   1.179 -0.0448  0.5066 -0.2408
  160TMC2    O2 2448   2.090   3.251   1.345 -0.8048 -0.5240  0.4921
  160TMC2    O5 2449   2.244   3.393   1.424 -0.1812  0.2455  0.3126
  160TMC2    H5 2450   2.269   3.485   1.446 -1.4152  1.3927 -3.1553
  161MPD2     C 2451   2.058   4.097   1.633 -0.2922 -0.7380  0.3830
  161MPD2    C1 2452   1.966   4.060   1.541 -0.2981 -0.0490 -0.6026
  161MPD2    C2 2453   1.859   4.133   1.498 -0.0611 -0.2401  0.3622
  161MPD2    C3 2454   1.858   4.262   1.541  0.7097 -0.5429 -0.3531
  161MPD2    C4 2455   1.948   4.306   1.641  0.5873  0.4054  0.6609
  161MPD2    C5 2456   2.042   4.223   1.687 -0.6574 -0.1118 -0.3391
  161MPD2     H 2457   1.795   4.100   1.417 -0.1139  2.2107 -0.5924
  161MPD2    H1 2458   1.948   4.404   1.686 -0.1772 -0.2346  2.0484
  161MPD2    H2 2459   2.135   4.027   1.667 -0.1927 -0.2424  1.1767
  161MPD2    H3 2460   2.114   4.266   1.755 -1.5562 -2.4151  2.0537
  161MPD2     N 2461   1.769   4.369   1.499 -1.0828  0.0176  0.1918
  161MPD2    H5 2462   1.797   4.465   1.518  0.2054 -0.5820  1.3419
  161MPD2    N1 2463   1.965   3.936   1.480  0.1901  0.1528  0.0797
  161MPD2    H7 2464   1.889   3.920   1.414 -0.0633 -0.0815  0.4270
  162TMC2    C1 2465   4.358   1.631   0.419 -0.2824  1.2061  0.4412
  162TMC2    C2 2466   4.294   1.604   0.303 -0.5011 -0.2586  0.6475
  162TMC2    C3 2467   4.158   1.587   0.308 -0.2065  0.1301  0.0201
  162TMC2    C4 2468   4.299   1.653   0.542 -0.1910  0.0396 -0.2107
  162TMC2    C5 2469   4.166   1.625   0.544  0.3332 -0.2686 -0.5434
  162TMC2    C6 2470   4.089   1.594   0.427  0.4704  0.5229 -0.2038
  162TMC2     C 2471   4.497   1.652   0.415 -1.1144  0.0542 -0.0035
  162TMC2     O 2472   4.547   1.599   0.315 -0.4914 -0.1441  0.2281
  162TMC2     H 2473   4.351   1.572   0.216  0.0021  0.6272  0.6536
  162TMC2    H1 2474   4.356   1.663   0.634 -0.1929  0.6019 -0.2654
  162TMC2    H2 2475   3.982   1.579   0.428  0.8542 -2.1231  2.4748
  162TMC2    C7 2476   4.092   1.579   0.662 -0.0580 -0.5893 -0.0791
  162TMC2    C8 2477   4.100   1.580   0.172 -0.2509 -0.4627 -0.6463
  162TMC2    O1 2478   3.969   1.570   0.650 -0.3666 -0.2926  0.5899
  162TMC2    O2 2479   4.173   1.619   0.083  0.1289  0.0249 -0.4323
  162TMC2    O5 2480   3.968   1.599   0.179 -0.6361 -0.8425 -0.2506
  162TMC2    H5 2481   3.918   1.542   0.241 -0.2688 -0.7625  0.1127
  163MPD2     C 2482   0.216   1.784   0.617 -0.0319 -0.2084  0.4620
  163MPD2    C1 2483   0.179   1.671   0.560 -1.0315 -0.0169  0.4481
  163MPD2    C2 2484   0.049   1.661   0.510 -0.1187  0.1284  0.0244
  163MPD2    C3 2485   4.683   1.766   0.523 -0.3180 -0.2487 -0.5350
  163MPD2    C4 2486   4.716   1.877   0.600  0.3375  0.1484 -0.4132
  163MPD2    C5 2487   0.126   1.892   0.631 -0.2449 -0.3863  0.6210
  163MPD2     H 2488   0.013   1.567   0.471  1.8465 -0.7947  0.4327
  163MPD2    H1 2489   4.653   1.961   0.626 -1.2202 -0.9519 -0.6115
  163MPD2    H2 2490   0.318   1.802   0.651  0.1820  0.0708 -0.3095
  163MPD2    H3 2491   0.153   1.984   0.681  0.1103  0.5306 -1.2639
  163MPD2     N 2492   4.547   1.746   0.501 -0.1263  0.1754  0.2575
  163MPD2    H5 2493   4.487   1.809   0.555  2.3624  2.4136  0.4197
  163MPD2    N1 2494   0.272   1.570   0.555  0.1251 -0.2037 -1.0986
  163MPD2    H7 2495   0.365   1.588   0.592 -1.3899 -0.4870  2.9016
  164TCq2    C1 2496   0.222   0.457  11.354  0.3603  0.5942  0.2462
  164TCq2    O2 2497   0.119   0.415  11.408  0.4581 -0.4459  0.4098
  164TCq2    C2 2498   0.218   0.591  11.298 -0.5004 -0.3914 -0.9213
  164TCq2    C3 2499   0.337   0.655  11.286 -0.4183 -0.1165  0.7930
  164TCq2    C4 2500   0.328   0.784  11.235 -0.4451 -0.2711 -0.0096
  164TCq2    C5 2501   0.207   0.832  11.188 -0.3143 -0.6818  0.5254
  164TCq2    C6 2502   0.093   0.754  11.202  0.0548 -0.3596 -0.2866
  164TCq2    C7 2503   0.092   0.644  11.277  0.2051  0.1104  0.0295
  164TCq2    C8 2504   4.701   0.777  11.114  0.1277 -0.3602 -0.1471
  164TCq2    O4 2505   4.590   0.728  11.147  0.3082  0.0251  0.1402
  164TCq2    C9 2506   0.442   0.875  11.222 -0.3937 -0.0758 -0.4008
  164TCq2    O5 2507   0.418   0.987  11.173  0.5993  0.1958  0.1464
  164TCq2    O6 2508   0.549   0.839  11.279  0.6726 -0.3446 -0.0960
  164TCq2    H2 2509   0.437   0.617  11.303  0.0415  0.2290 -1.0755
  164TCq2    H3 2510   0.202   0.930  11.142  0.3309  0.5589  3.0561
  164TCq2    H4 2511   0.003   0.581  11.273  0.7273 -0.6681  0.7140
  165MPD2     C 2512   1.806   3.561   1.689 -0.2072  0.5519  0.1101
  165MPD2    C1 2513   1.771   3.440   1.630  0.3965  0.1755  0.1538
  165MPD2    C2 2514   1.843   3.328   1.662  0.1672 -0.7836 -0.0666
  165MPD2    C3 2515   1.960   3.341   1.732 -0.4039 -0.7834  0.1332
  165MPD2    C4 2516   2.001   3.464   1.777 -1.1220  0.5115  0.1854
  165MPD2    C5 2517   1.920   3.576   1.760  0.9908  0.1879 -0.3455
  165MPD2     H 2518   1.825   3.236   1.608  1.3016 -0.5933 -0.7754
  165MPD2    H1 2519   2.097   3.465   1.828 -0.9101  1.3544 -0.2286
  165MPD2    H2 2520   1.749   3.648   1.658 -0.7267  0.5667  1.1056
  165MPD2    H3 2521   1.951   3.678   1.780  0.9508  0.0883  0.2346
  165MPD2     N 2522   2.050   3.229   1.734 -0.0446  0.4588 -0.4032
  165MPD2    H5 2523   2.147   3.251   1.752 -0.2072  3.3567 -3.0818
  165MPD2    N1 2524   1.654   3.445   1.552  0.0174  1.0481  0.0538
  165MPD2    H7 2525   1.590   3.523   1.567 -0.8678  0.1554  0.8522
  166TCq2    C1 2526   2.019   3.098   1.738 -0.2596  0.4898 -0.9078
  166TCq2    O2 2527   1.907   3.047   1.738 -0.2446 -0.0492  0.1717
  166TCq2    C2 2528   2.135   3.009   1.718  0.6911  0.0536  0.2293
  166TCq2    C3 2529   2.145   2.890   1.780 -0.1221 -0.4570  0.1938
  166TCq2    C4 2530   2.267   2.827   1.793  0.2441 -0.2241  0.3486
  166TCq2    C5 2531   2.380   2.868   1.724 -0.0435  0.0174 -0.3866
  166TCq2    C6 2532   2.362   2.980   1.647  0.1201  0.2751 -0.0068
  166TCq2    C7 2533   2.248   3.051   1.646  0.3682  0.0983  0.3118
  166TCq2    C8 2534   2.475   3.025   1.571  0.5255  0.2623 -0.7436
  166TCq2    O4 2535   2.475   3.143   1.558  0.3068 -0.6909 -0.0751
  166TCq2    C9 2536   2.265   2.700   1.863  0.3485 -0.4270  0.1755
  166TCq2    O5 2537   2.372   2.628   1.863  0.1244 -0.5607 -0.0377
  166TCq2    O6 2538   2.159   2.666   1.912  0.2621 -0.0409  0.7698
  166TCq2    H2 2539   2.056   2.853   1.829  2.2001 -0.9411  4.0568
  166TCq2    H3 2540   2.470   2.812   1.746 -0.3462  0.0938  1.0306
  166TCq2    H4 2541   2.240   3.134   1.577  0.8541  0.7437  1.0337
  167TMC2    C1 2542   3.902   0.955  12.212 -0.6583 -0.5472 -0.7068
  167TMC2    C2 2543   3.936   1.083  12.241  0.5268 -0.0145 -0.5414
  167TMC2    C3 2544   3.953   1.117  12.371 -0.4497  0.4075  0.0643
  167TMC2    C4 2545   3.897   0.858  12.306  0.4751 -0.3743  0.0347
  167TMC2    C5 2546   3.941   0.889  12.438 -0.2704 -0.1447 -0.1215
  167TMC2    C6 2547   3.958   1.021  12.472  0.4391  0.4304  0.1723
  167TMC2     C 2548   3.832   0.930  12.085  0.4176  0.5439  0.2573
  167TMC2     O 2549   3.788   1.033  12.035  0.4463  0.1505 -0.1207
  167TMC2     H 2550   3.931   1.152  12.158 -1.9012  0.9294  0.3932
  167TMC2    H1 2551   3.868   0.755  12.291 -1.4947 -0.1786  2.6567
  167TMC2    H2 2552   3.983   1.042  12.575  0.6512  0.1358  0.1828
  167TMC2    C7 2553   3.952   0.783  12.546  0.4235 -0.4371  0.1743
  167TMC2    C8 2554   3.987   1.256  12.396  0.0991  0.0251  0.1675
  167TMC2    O1 2555   3.939   0.813  12.667  0.4422 -0.5197 -0.1344
  167TMC2    O2 2556   3.916   1.355  12.370 -0.6350 -0.5628 -0.2699
  167TMC2    O5 2557   4.073   1.250  12.502  0.3823 -0.0204 -0.1810
  167TMC2    H5 2558   4.133   1.172  12.503 -0.1158 -0.3940  0.6661
  168MPD2     C 2559   3.733   0.837  11.820  0.0885  0.6882 -0.0718
  168MPD2    C1 2560   3.776   0.757  11.925 -0.5247  0.0500  0.0398
  168MPD2    C2 2561   3.791   0.621  11.895 -0.4478  0.1531  0.5227
  168MPD2    C3 2562   3.747   0.560  11.774  0.3555 -0.1122 -0.1692
  168MPD2    C4 2563   3.710   0.647  11.677 -0.7819  0.4466 -0.6770
  168MPD2    C5 2564   3.714   0.784  11.698 -0.3001  0.1692 -0.1704
  168MPD2     H 2565   3.828   0.561  11.977  2.7367  1.3602 -0.0341
  168MPD2    H1 2566   3.651   0.624  11.589 -0.4592 -0.7772 -0.5671
  168MPD2    H2 2567   3.736   0.945  11.823 -1.2683  0.7261 -0.5078
  168MPD2    H3 2568   3.685   0.844  11.613 -0.8950  4.2712  2.9447
  168MPD2     N 2569   3.756   0.419  11.741  0.8846 -0.1549 -0.4667
  168MPD2    H5 2570   3.719   0.398  11.648 -0.8627  0.1852  0.1482
  168MPD2    N1 2571   3.832   0.805  12.041  0.3654 -0.0148  0.3357
  168MPD2    H7 2572   3.888   0.737  12.092  0.8508 -2.0255 -2.8922
  169MPD1     C 2573   0.939   0.667   9.189  0.5382 -0.2794 -0.4689
  169MPD1    C1 2574   1.069   0.667   9.232 -0.7820  0.6007  0.5786
  169MPD1    C2 2575   1.139   0.546   9.224  0.0849 -0.1643  0.8347
  169MPD1    C3 2576   1.085   0.428   9.179  0.3851 -0.2125 -0.0576
  169MPD1    C4 2577   0.955   0.432   9.131  0.4440 -0.0350 -0.3909
  169MPD1    C5 2578   0.888   0.554   9.134 -0.4563  0.4226 -0.4345
  169MPD1     H 2579   1.244   0.548   9.253  0.8161  0.5570 -1.9513
  169MPD1    H1 2580   0.904   0.342   9.098  0.1816 -0.5638  1.4721
  169MPD1    H2 2581   0.872   0.753   9.185  0.7805 -0.0720 -0.0500
  169MPD1    H3 2582   0.789   0.560   9.090 -0.5538  0.9019 -0.1476
  169MPD1     N 2583   1.168   0.316   9.185 -0.3569  0.0160  0.0983
  169MPD1    H5 2584   1.260   0.323   9.228 -0.1412  0.5535 -0.4506
  169MPD1    N1 2585   1.140   0.785   9.271 -0.1591  0.3948 -0.0730
  169MPD1    H6 2586   1.221   0.756   9.325  0.1951  0.4546 -0.5753
  169MPD1    H7 2587   1.074   0.845   9.320 -0.3814  1.2688 -1.4653
  170MPD1     C 2588   0.813   2.529  13.011 -0.2208 -0.1943  0.1333
  170MPD1    C1 2589   0.883   2.557  13.128 -0.0954 -0.2308  0.1469
  170MPD1    C2 2590   0.844   2.658  13.207 -0.5543 -0.1191  0.5590
  170MPD1    C3 2591   0.726   2.730  13.184 -0.0489 -0.2187 -0.1623
  170MPD1    C4 2592   0.659   2.700  13.066  0.6163  0.1006 -0.0173
  170MPD1    C5 2593   0.711   2.610  12.979 -0.7360  0.4489 -0.3815
  170MPD1     H 2594   0.902   2.676  13.297  0.0898  2.0722 -0.3120
  170MPD1    H1 2595   0.574   2.761  13.037  0.3022 -0.1932  0.2828
  170MPD1    H2 2596   0.854   2.454  12.944  3.4757  1.1070  0.9371
  170MPD1    H3 2597   0.672   2.597  12.879 -0.1336  1.3561 -0.7318
  170MPD1     N 2598   0.691   2.826  13.284  0.0969 -0.3690  0.3680
  170MPD1    H5 2599   0.751   2.848  13.362 -0.0297 -2.7384  1.1532
  170MPD1    N1 2600   1.002   2.482  13.159  0.5664  0.1954 -0.6833
  170MPD1    H6 2601   1.048   2.491  13.250 -1.0087 -1.0976  0.2254
  170MPD1    H7 2602   1.002   2.385  13.129 -1.6193 -0.1274  0.3942
  171MPD1     C 2603   3.471   4.427  15.500 -0.3463  0.0889  0.4516
  171MPD1    C1 2604   3.408   4.306  15.479 -0.0465  0.1863 -0.1845
  171MPD1    C2 2605   3.487   4.196  15.485 -0.0068 -0.6161 -0.8536
  171MPD1    C3 2606   3.628   4.204  15.487 -0.4369 -0.0941 -0.3483
  171MPD1    C4 2607   3.685   4.327  15.493  0.1045  0.7072 -0.1922
  171MPD1    C5 2608   3.606   4.440  15.502  0.1252  0.6463  0.7465
  171MPD1     H 2609   3.437   4.099  15.490 -2.1490  0.3912 -2.8400
  171MPD1    H1 2610   3.792   4.334  15.510  0.1782  0.1984 -0.4417
  171MPD1    H2 2611   3.410   4.515  15.515 -3.1254 -1.9333  1.1156
  171MPD1    H3 2612   3.652   4.533  15.534 -0.3709  1.2426 -0.2914
  171MPD1     N 2613   3.716   4.094  15.494 -0.0723 -0.1627 -0.0999
  171MPD1    H5 2614   3.815   4.112  15.502  0.2446 -2.2637  0.7030
  171MPD1    N1 2615   3.267   4.310  15.477 -0.3133 -0.1961  0.2635
  171MPD1    H6 2616   3.243   4.402  15.440 -1.3388  0.2371  1.9617
  171MPD1    H7 2617   3.237   4.241  15.408 -2.3275  1.8907 -0.9504
  172MPD1     C 2618   2.974   3.054  17.682 -0.2288  1.0591  0.1442
  172MPD1    C1 2619   2.935   3.182  17.642  0.3765  0.0859 -0.3262
  172MPD1    C2 2620   2.988   3.292   0.016  0.5988 -0.1415  0.2991
  172MPD1    C3 2621   3.079   3.278   0.119 -0.1510  0.2136  1.0794
  172MPD1    C4 2622   3.124   3.151   0.153  0.2075  0.5942 -0.3667
  172MPD1    C5 2623   3.074   3.040   0.082  0.7899 -1.1348  0.1824
  172MPD1     H 2624   2.939   3.386  17.690 -0.3668 -0.8341 -0.6447
  172MPD1    H1 2625   3.196   3.135   0.232  0.2193  2.4891  0.0062
  172MPD1    H2 2626   2.939   2.966  17.631 -0.0592 -0.3051  2.3826
  172MPD1    H3 2627   3.117   2.945   0.111  0.6401 -1.6707 -1.3780
  172MPD1     N 2628   3.134   3.385   0.190 -0.5299  0.7042  0.6817
  172MPD1    H5 2629   3.194   3.356   0.267  1.3787  1.0515 -0.6551
  172MPD1    N1 2630   2.812   3.197  17.566  0.0139  1.0806 -0.1135
  172MPD1    H6 2631   2.810   3.285  17.516  1.6607  1.5057  0.5405
  172MPD1    H7 2632   2.783   3.115  17.512 -0.0829  1.2095 -0.2551
  173MPD1     C 2633   4.457   3.565  14.375  0.1332  0.4779 -0.7193
  173MPD1    C1 2634   4.554   3.473  14.342 -0.2470 -0.2394 -0.0599
  173MPD1    C2 2635   4.517   3.341  14.361  0.7982 -0.0950 -0.1640
  173MPD1    C3 2636   4.398   3.306  14.429  0.0808  0.2477  0.5239
  173MPD1    C4 2637   4.305   3.398  14.458 -0.7258  0.0291  0.1006
  173MPD1    C5 2638   4.337   3.530  14.433 -0.5344 -0.0014  0.0614
  173MPD1     H 2639   4.589   3.263  14.342  1.0801  0.0935  0.1425
  173MPD1    H1 2640   4.208   3.368  14.497  0.1507 -2.9326 -0.0375
  173MPD1    H2 2641   4.462   3.672  14.356  1.8358  0.7614  1.2383
  173MPD1    H3 2642   4.258   3.602  14.449 -1.6654 -0.7248 -2.3375
  173MPD1     N 2643   4.385   3.176  14.485  0.3363 -0.0141 -0.6019
  173MPD1    H5 2644   4.460   3.110  14.466  0.5527 -0.0528  0.3699
  173MPD1    N1 2645   4.661   3.514  14.268  0.3777  0.5935  0.2611
  173MPD1    H6 2646   0.023   3.458  14.271 -0.1956 -0.3642 -1.3339
  173MPD1    H7 2647   4.682   3.613  14.283 -0.3327  0.8691 -0.5749
  174MPD1     C 2648   0.081   2.518  14.221  0.3261 -0.1641 -0.1360
  174MPD1    C1 2649   0.006   2.437  14.307  0.4558  0.8428 -0.0414
  174MPD1    C2 2650   4.640   2.498  14.384  0.3391 -0.2508  0.0102
  174MPD1    C3 2651   4.613   2.634  14.365  0.3520  0.3821  0.1602
  174MPD1    C4 2652   4.680   2.707  14.276  0.3727 -0.7188  0.0893
  174MPD1    C5 2653   0.040   2.643  14.195  0.2014  0.0082  0.2963
  174MPD1     H 2654   4.595   2.443  14.466 -0.7704  1.2345  0.4096
  174MPD1    H1 2655   4.661   2.813  14.268  0.9658 -0.5990  0.2977
  174MPD1    H2 2656   0.158   2.468  14.163 -0.2321 -0.6891 -0.4270
  174MPD1    H3 2657   0.087   2.705  14.120  2.6018  0.1904  1.9380
  174MPD1     N 2658   4.519   2.716  14.439  0.1771 -0.0659  0.2483
  174MPD1    H5 2659   4.521   2.817  14.431  0.1942 -0.0202  0.8448
  174MPD1    N1 2660   0.026   2.299  14.325  0.3127 -0.1821 -0.1348
  174MPD1    H6 2661   4.671   2.240  14.352  0.5873 -0.9355 -0.9521
  174MPD1    H7 2662   0.076   2.255  14.247 -0.3023 -0.3592 -0.4336
  175MPD1     C 2663   2.679   3.902  15.212 -0.5061  0.8304  0.4941
  175MPD1    C1 2664   2.544   3.876  15.251 -0.6525 -0.2345 -0.3508
  175MPD1    C2 2665   2.513   3.884  15.392  0.0638  0.4108 -0.4910
  175MPD1    C3 2666   2.607   3.930  15.483 -0.0980 -0.2988 -0.4019
  175MPD1    C4 2667   2.736   3.952  15.446  0.3121 -0.0489  0.4237
  175MPD1    C5 2668   2.765   3.936  15.311  0.1032  0.3107 -0.7835
  175MPD1     H 2669   2.416   3.849  15.428 -0.2125  0.6540 -1.0021
  175MPD1    H1 2670   2.810   3.979  15.520  0.1067  0.0575  0.5926
  175MPD1    H2 2671   2.719   3.884  15.113 -1.1128  0.0904  0.3869
  175MPD1    H3 2672   2.864   3.948  15.269 -0.3737  0.0962 -1.9784
  175MPD1     N 2673   2.576   3.943  15.621 -0.5208 -0.8726  0.2899
  175MPD1    H5 2674   2.653   3.989  15.668 -1.0088  0.9525 -0.7002
  175MPD1    N1 2675   2.454   3.859  15.140  0.2921  0.0571  0.6930
  175MPD1    H6 2676   2.381   3.791  15.160  0.5315 -0.9928 -2.0263
  175MPD1    H7 2677   2.501   3.829  15.055  0.6224 -2.4772  1.7576
  176MPD1     C 2678   1.216   2.641  17.499 -0.1650  1.0077 -0.0637
  176MPD1    C1 2679   1.148   2.515  17.505 -0.1928  0.1257 -0.2084
  176MPD1    C2 2680   1.014   2.506  17.502 -0.8807 -0.1385 -0.1406
  176MPD1    C3 2681   0.946   2.622  17.466 -0.2752  0.4781  0.0268
  176MPD1    C4 2682   1.010   2.742  17.449 -0.2411 -0.1230 -0.2558
  176MPD1    C5 2683   1.142   2.757  17.471  0.0428 -0.0552 -0.7359
  176MPD1     H 2684   0.952   2.417  17.508 -1.9792  0.6905  0.8610
  176MPD1    H1 2685   0.953   2.829  17.421 -0.7893  0.3369  2.3059
  176MPD1    H2 2686   1.318   2.658  17.533 -0.2295  0.2236  0.5115
  176MPD1    H3 2687   1.182   2.857  17.481  0.9562 -0.4274 -0.6772
  176MPD1     N 2688   0.805   2.620  17.475 -0.0331 -0.3889 -0.4430
  176MPD1    H5 2689   0.770   2.528  17.499 -1.9845  0.2014 -1.0490
  176MPD1    N1 2690   1.216   2.404  17.562  0.6229  0.3565 -0.2937
  176MPD1    H6 2691   1.318   2.413  17.557  0.9644 -2.7449  0.9872
  176MPD1    H7 2692   1.188   2.316  17.519  0.2165 -1.0998  2.9613
  177MPD1     C 2693   3.103   0.830  10.505 -0.2122  0.1175 -0.0874
  177MPD1    C1 2694   2.976   0.801  10.537  0.3579  0.0918  0.2604
  177MPD1    C2 2695   2.887   0.760  10.437  0.8513  0.4545  0.9269
  177MPD1    C3 2696   2.921   0.757  10.308 -0.5761  0.2292  0.7919
  177MPD1    C4 2697   3.053   0.781  10.275 -0.6774  0.6250  0.8062
  177MPD1    C5 2698   3.141   0.822  10.373  0.6506 -0.7275  0.6847
  177MPD1     H 2699   2.785   0.746  10.469  0.8016 -2.1170 -0.4152
  177MPD1    H1 2700   3.079   0.767  10.171 -0.7152 -0.4767  0.9499
  177MPD1    H2 2701   3.178   0.849  10.581 -0.6696 -0.5748  0.5411
  177MPD1    H3 2702   3.246   0.834  10.349  1.0700 -2.3052  1.6924
  177MPD1     N 2703   2.818   0.728  10.222  0.1147  0.5560  0.0329
  177MPD1    H5 2704   2.727   0.709  10.264 -0.0524  2.6587  0.6002
  177MPD1    N1 2705   2.940   0.806  10.673 -0.6644  0.1391  0.2248
  177MPD1    H6 2706   3.007   0.766  10.739  0.7567  0.6507 -0.9214
  177MPD1    H7 2707   2.849   0.764  10.693  0.0363 -0.8980  1.2662
  178MPD1     C 2708   1.539   1.874  17.502  0.8787 -0.7977  0.2234
  178MPD1    C1 2709   1.451   1.963  17.552  0.6869 -0.0779  0.2667
  178MPD1    C2 2710   1.384   2.041  17.465  0.9008  0.0667  0.0649
  178MPD1    C3 2711   1.407   2.032  17.326  0.0674 -0.2886 -0.7794
  178MPD1    C4 2712   1.489   1.939  17.275  0.0484 -0.5670 -0.4081
  178MPD1    C5 2713   1.553   1.859  17.365  0.8868  0.5945 -0.5289
  178MPD1     H 2714   1.316   2.109  17.514 -1.3292 -1.0020 -1.5616
  178MPD1    H1 2715   1.514   1.932  17.170 -0.7028 -0.5902 -0.5864
  178MPD1    H2 2716   1.592   1.807  17.568  1.4971  0.0198  0.5685
  178MPD1    H3 2717   1.615   1.776  17.335 -0.0739 -0.0098 -0.7972
  178MPD1     N 2718   1.338   2.120  17.240  0.1770 -0.4667  0.3574
  178MPD1    H5 2719   1.366   2.122  17.142  0.0663 -1.2021  0.3116
  178MPD1    N1 2720   1.427   1.963  17.691 -0.8455  0.2342  0.6742
  178MPD1    H6 2721   1.501   1.940   0.063 -0.0850 -0.8468 -0.5501
  178MPD1    H7 2722   1.390   2.053   0.026 -0.0678  0.9386 -0.5052
  179MPD1     C 2723   0.403   0.383  15.415 -0.1339 -0.1261  0.4018
  179MPD1    C1 2724   0.268   0.378  15.383  0.6002  0.0610  0.0345
  179MPD1    C2 2725   0.187   0.339  15.491 -0.9713  0.2747  0.2261
  179MPD1    C3 2726   0.223   0.331  15.623 -0.7604 -0.0785 -0.9111
  179MPD1    C4 2727   0.355   0.361  15.649 -0.2220 -0.0163  0.9135
  179MPD1    C5 2728   0.443   0.378  15.541 -0.2958 -0.1103 -0.0517
  179MPD1     H 2729   0.083   0.318  15.467 -0.8930 -1.2611  1.2366
  179MPD1    H1 2730   0.396   0.373  15.749 -0.5733  0.3902  1.0074
  179MPD1    H2 2731   0.473   0.417  15.339  0.6673  0.7114  1.5300
  179MPD1    H3 2732   0.546   0.404  15.562 -0.8959  1.2603  1.1968
  179MPD1     N 2733   0.142   0.306  15.732 -0.2300  0.3182 -0.8028
  179MPD1    H5 2734   0.192   0.315  15.819 -0.8256 -2.4524 -0.1821
  179MPD1    N1 2735   0.223   0.383  15.249 -0.1994  0.2192 -0.6959
  179MPD1    H6 2736   0.277   0.452  15.196  0.2535  1.5131  1.4637
  179MPD1    H7 2737   0.124   0.407  15.245  0.0636  1.4074 -0.1485
  180MPD1     C 2738   4.552   1.776  15.497  0.2481 -0.0163  0.0594
  180MPD1    C1 2739   4.655   1.823  15.419 -0.7266  0.1394  0.4115
  180MPD1    C2 2740   4.651   1.811  15.278 -0.1832  0.3981  0.2742
  180MPD1    C3 2741   4.536   1.748  15.228 -0.3628  0.4385  0.2666
  180MPD1    C4 2742   4.432   1.702  15.311  0.0407 -1.0327 -0.1460
  180MPD1    C5 2743   4.445   1.709  15.444  0.0879 -0.4940  0.4056
  180MPD1     H 2744   4.709   1.867  15.206  1.6556 -0.8013  0.8223
  180MPD1    H1 2745   4.338   1.658  15.278  0.5117 -2.3005  0.2170
  180MPD1    H2 2746   4.567   1.796  15.602  0.8532 -0.0123 -0.0286
  180MPD1    H3 2747   4.364   1.673  15.507  0.0162  0.4578  0.8603
  180MPD1     N 2748   4.533   1.734  15.088  0.0688 -0.5156 -0.1685
  180MPD1    H5 2749   4.614   1.766  15.036 -0.3442  0.5856 -0.1357
  180MPD1    N1 2750   0.027   1.902  15.488  0.3068 -0.2870 -0.7009
  180MPD1    H6 2751   0.100   1.936  15.426 -0.8664  0.3486 -1.7315
  180MPD1    H7 2752   0.062   1.857  15.573  0.7748  2.9621  0.8190
  181MPD1     C 2753   1.035   2.496   9.637  0.7859 -0.3428 -0.0876
  181MPD1    C1 2754   1.059   2.627   9.652 -0.3842 -0.1201  0.0482
  181MPD1    C2 2755   1.180   2.672   9.607  0.0654  0.9579 -0.4500
  181MPD1    C3 2756   1.275   2.584   9.547  0.0207  0.0710 -0.1548
  181MPD1    C4 2757   1.246   2.451   9.536  0.8093 -0.5707 -0.7775
  181MPD1    C5 2758   1.132   2.406   9.591  0.4266 -0.2249  0.2631
  181MPD1     H 2759   1.205   2.777   9.612  0.7414  0.6705  2.6410
  181MPD1    H1 2760   1.310   2.383   9.481  2.0128 -0.6418  0.7488
  181MPD1    H2 2761   0.936   2.456   9.657  1.5760 -2.4099 -0.3328
  181MPD1    H3 2762   1.104   2.302   9.581 -1.2259  0.4109 -1.7150
  181MPD1     N 2763   1.403   2.628   9.499 -0.0993  0.0254  0.4400
  181MPD1    H5 2764   1.460   2.558   9.454  0.7963  1.9405 -1.3853
  181MPD1    N1 2765   0.964   2.722   9.684  0.8930  0.6761 -0.6184
  181MPD1    H6 2766   0.894   2.685   9.748  1.4256 -0.8107 -0.9060
  181MPD1    H7 2767   1.007   2.806   9.722  2.8189 -1.0539  1.0261
  182MPD1     C 2768   4.157   2.474   1.363 -0.2483 -0.5952 -0.2726
  182MPD1    C1 2769   4.134   2.391   1.470 -0.6933  1.1134 -0.3783
  182MPD1    C2 2770   4.002   2.349   1.502 -0.5028  0.6120  0.4425
  182MPD1    C3 2771   3.895   2.387   1.420  0.2024 -0.1196  0.7050
  182MPD1    C4 2772   3.926   2.465   1.315  1.1920  0.0634 -0.0853
  182MPD1    C5 2773   4.053   2.512   1.291 -0.1682 -0.2097 -0.4280
  182MPD1     H 2774   3.995   2.288   1.591  1.5091  0.8172  0.7490
  182MPD1    H1 2775   3.842   2.475   1.247  1.0370  0.2116  0.1304
  182MPD1    H2 2776   4.255   2.514   1.337  0.1318 -0.7333  0.9638
  182MPD1    H3 2777   4.070   2.575   1.205 -1.5714 -1.5612 -1.6910
  182MPD1     N 2778   3.758   2.340   1.431 -0.2995 -0.4528 -0.3178
  182MPD1    H5 2779   3.688   2.356   1.360 -0.3407  1.6937  0.2010
  182MPD1    N1 2780   4.239   2.362   1.556 -0.1488  0.2740  0.1891
  182MPD1    H6 2781   4.211   2.287   1.618  0.4192 -1.1913 -1.3200
  182MPD1    H7 2782   4.314   2.318   1.503 -0.5532  0.5330 -0.6083
  183MPD1     C 2783   2.816   3.812   9.126  0.2724  0.9144  0.2238
  183MPD1    C1 2784   2.718   3.862   9.209  0.6537  0.2253  0.0846
  183MPD1    C2 2785   2.621   3.772   9.249 -0.4682  0.4844 -0.5083
  183MPD1    C3 2786   2.626   3.638   9.210  0.7383 -0.6210 -0.8100
  183MPD1    C4 2787   2.726   3.591   9.131 -0.4652  0.4895 -0.3962
  183MPD1    C5 2788   2.812   3.682   9.079 -0.0312 -0.2108  0.5577
  183MPD1     H 2789   2.546   3.802   9.322 -1.1037 -1.0464 -0.5351
  183MPD1    H1 2790   2.745   3.490   9.097  0.1962  0.4137  0.1935
  183MPD1    H2 2791   2.885   3.877   9.074  0.0742  1.7654  1.0280
  183MPD1    H3 2792   2.891   3.643   9.015  1.2100  1.4404  1.0664
  183MPD1     N 2793   2.518   3.556   9.258 -0.0356 -0.7013  0.3252
  183MPD1    H5 2794   2.448   3.608   9.309  1.4669  0.5782  1.1023
  183MPD1    N1 2795   2.706   4.002   9.217 -0.2833 -0.4631  0.2660
  183MPD1    H6 2796   2.793   4.054   9.215  0.2186 -1.2913  0.7613
  183MPD1    H7 2797   2.655   4.035   9.299  1.0339  0.1616  0.8220
  184MPD1     C 2798   1.804   0.317  10.214 -0.2264  0.1973 -0.6082
  184MPD1    C1 2799   1.708   0.277  10.124  0.0369  0.0458  0.7062
  184MPD1    C2 2800   1.674   0.376  10.034  0.3335 -0.0872 -0.6027
  184MPD1    C3 2801   1.705   0.512  10.054  0.8581  0.8231 -0.1854
  184MPD1    C4 2802   1.790   0.543  10.156 -0.2105  0.6809  0.1067
  184MPD1    C5 2803   1.843   0.447  10.230  1.1002  0.8365  0.4100
  184MPD1     H 2804   1.618   0.349   9.946 -1.2677  0.1326  0.3449
  184MPD1    H1 2805   1.831   0.642  10.171  1.9068 -0.1914  0.0759
  184MPD1    H2 2806   1.849   0.258  10.293 -1.9033 -0.5896 -0.2336
  184MPD1    H3 2807   1.920   0.476  10.300  1.2322  0.3728  0.4573
  184MPD1     N 2808   1.667   0.616   9.967  0.2006 -0.2903  0.2347
  184MPD1    H5 2809   1.724   0.700   9.978 -2.2504  1.3765  0.3268
  184MPD1    N1 2810   1.688   0.143  10.098  0.7372 -0.7393  0.4941
  184MPD1    H6 2811   1.681   0.088  10.183 -2.6265 -0.8678  0.1141
  184MPD1    H7 2812   1.606   0.139  10.038 -0.2232 -1.0149  1.8314
  185MPD1     C 2813   0.790   0.774   9.574  0.3381 -0.4519  0.2283
  185MPD1    C1 2814   0.827   0.899   9.621 -0.4836  0.3964  0.1267
  185MPD1    C2 2815   0.962   0.921   9.645  0.2956  0.2861  0.2530
  185MPD1    C3 2816   1.052   0.821   9.622 -1.0796 -0.5966 -0.2625
  185MPD1    C4 2817   1.015   0.701   9.564  0.3868 -0.0504  0.9035
  185MPD1    C5 2818   0.883   0.682   9.539 -0.3770 -0.2249 -0.2579
  185MPD1     H 2819   0.983   1.022   9.680 -0.6528  0.1196  1.3338
  185MPD1    H1 2820   1.085   0.626   9.528 -0.5764 -1.0636  1.1450
  185MPD1    H2 2821   0.692   0.734   9.549 -0.0444  2.7579 -3.2905
  185MPD1    H3 2822   0.851   0.593   9.486 -0.5846 -0.2705 -0.0586
  185MPD1     N 2823   1.190   0.831   9.643 -0.0057 -0.3172  0.2451
  185MPD1    H5 2824   1.237   0.743   9.629  0.1966 -0.2686  0.6160
  185MPD1    N1 2825   0.732   0.989   9.664 -0.5515 -0.5748 -0.0354
  185MPD1    H6 2826   0.764   1.083   9.640 -1.7625  0.0516  0.8211
  185MPD1    H7 2827   0.639   0.979   9.625 -0.2425 -3.2191 -0.1065
  186MPD1     C 2828   0.446   0.080  16.104 -0.0223 -0.5027 -0.4925
  186MPD1    C1 2829   0.521   0.170  16.025 -0.0293  0.8550 -0.1414
  186MPD1    C2 2830   0.537   0.294  16.078 -0.2788 -0.1979  0.6743
  186MPD1    C3 2831   0.476   0.335  16.195  0.2276  0.1618 -0.6610
  186MPD1    C4 2832   0.386   0.249  16.254 -0.4365 -0.1885 -1.0007
  186MPD1    C5 2833   0.367   0.120  16.212 -0.0474 -0.2446  0.0283
  186MPD1     H 2834   0.603   0.368  16.034 -0.3435 -1.0101 -0.7905
  186MPD1    H1 2835   0.343   0.277  16.349  2.1098  1.6558 -0.3900
  186MPD1    H2 2836   0.447   4.696  16.088 -0.6447 -0.2827 -2.0289
  186MPD1    H3 2837   0.316   0.051  16.280 -1.3253  1.4448  0.8004
  186MPD1     N 2838   0.485   0.462  16.251 -0.1029  0.0412 -0.7419
  186MPD1    H5 2839   0.430   0.476  16.335  0.4077  0.1549 -0.4279
  186MPD1    N1 2840   0.604   0.132  15.922 -0.3471  0.3568 -0.1869
  186MPD1    H6 2841   0.637   0.212  15.869  1.3428 -0.5862 -0.5801
  186MPD1    H7 2842   0.563   0.058  15.865  0.6626 -0.9655  0.7871
  187MPD1     C 2843   4.553   3.830   0.058  0.9451 -0.1947  0.5226
  187MPD1    C1 2844   4.574   3.698   0.067 -0.9040 -0.7359  0.6539
  187MPD1    C2 2845   4.588   3.619  17.651 -0.1304 -0.3713 -0.7843
  187MPD1    C3 2846   4.587   3.667  17.520  0.0666  0.0075  0.6104
  187MPD1    C4 2847   4.576   3.808  17.516  0.3858  0.0699  0.4253
  187MPD1    C5 2848   4.566   3.885  17.630 -0.5485 -0.3800 -0.3848
  187MPD1     H 2849   4.613   3.514  17.662 -0.1433 -0.2963  0.0090
  187MPD1    H1 2850   4.583   3.861  17.421  3.3698  1.0816  1.2134
  187MPD1    H2 2851   4.532   3.886   0.148  2.7740 -0.0626  0.8731
  187MPD1    H3 2852   4.561   3.993  17.640 -2.1479 -0.6057  1.3272
  187MPD1     N 2853   4.601   3.591  17.402 -0.3294  0.2938 -0.1156
  187MPD1    H5 2854   4.587   3.641  17.315  0.6424 -0.2683 -0.5976
  187MPD1    N1 2855   4.582   3.636   0.190 -0.0052 -0.1734 -0.5017
  187MPD1    H6 2856   4.518   3.556   0.193  1.2389 -1.1498  0.0645
  187MPD1    H7 2857   4.547   3.693   0.267  0.5872 -1.2685  0.5859
  188MPD1     C 2858   3.435   1.869   9.737 -0.4978  0.0733  0.3470
  188MPD1    C1 2859   3.369   1.781   9.655 -0.2042  0.7556  1.0158
  188MPD1    C2 2860   3.397   1.647   9.675  1.0471  0.0700 -0.1230
  188MPD1    C3 2861   3.511   1.607   9.753 -0.2516  0.1674 -0.0451
  188MPD1    C4 2862   3.584   1.702   9.818 -0.3290 -0.6582 -0.2871
  188MPD1    C5 2863   3.546   1.833   9.819  0.0942  0.4922  0.1125
  188MPD1     H 2864   3.347   1.571   9.615  0.5017 -0.5599  1.1305
  188MPD1    H1 2865   3.667   1.656   9.871 -1.2429  1.0451  2.6596
  188MPD1    H2 2866   3.427   1.977   9.738  2.4953  0.3177 -2.8097
  188MPD1    H3 2867   3.606   1.909   9.867  2.5999 -0.6962 -1.1668
  188MPD1     N 2868   3.552   1.470   9.770  0.0506 -0.0660  0.3138
  188MPD1    H5 2869   3.638   1.449   9.819 -0.5087  0.3134  1.4466
  188MPD1    N1 2870   3.246   1.808   9.592 -0.4346  0.2180  0.4667
  188MPD1    H6 2871   3.221   1.728   9.534 -0.4609  2.5782 -2.7373
  188MPD1    H7 2872   3.259   1.896   9.543  3.5240  0.1418  1.3193
  189MPD1     C 2873   1.457   2.950   0.020  0.1840  0.3079  0.3474
  189MPD1    C1 2874   1.437   2.957  17.577  0.5438  0.2178  0.0496
  189MPD1    C2 2875   1.347   3.046  17.521 -0.8926 -0.4706 -0.9426
  189MPD1    C3 2876   1.278   3.134  17.602 -0.0619  0.1454 -0.5732
  189MPD1    C4 2877   1.297   3.133   0.045  0.6193 -0.1352  0.4064
  189MPD1    C5 2878   1.383   3.040   0.094 -0.2021 -0.2436 -0.2088
  189MPD1     H 2879   1.340   3.058  17.413 -2.5207 -0.2596 -0.8136
  189MPD1    H1 2880   1.253   3.206   0.112 -2.2239  0.3301 -1.9797
  189MPD1    H2 2881   1.545   2.909   0.068 -1.1491 -1.4726  1.2714
  189MPD1    H3 2882   1.398   3.041   0.202  2.4488  1.4893 -0.6156
  189MPD1     N 2883   1.188   3.221  17.541 -0.2120 -0.3860 -0.3218
  189MPD1    H5 2884   1.168   3.209  17.442  0.5337 -0.5619 -0.4532
  189MPD1    N1 2885   1.527   2.891  17.489  0.5118  0.3266  0.3270
  189MPD1    H6 2886   1.560   2.800  17.522  1.0290 -0.0880 -1.3477
  189MPD1    H7 2887   1.479   2.873  17.402  0.0123 -0.5178  0.7717
  190MPD1     C 2888   4.194   1.698  15.907  0.2179  0.0423 -0.0557
  190MPD1    C1 2889   4.282   1.787  15.961  0.2619  0.6654  0.0089
  190MPD1    C2 2890   4.416   1.762  15.969  0.1909 -0.1699  0.0937
  190MPD1    C3 2891   4.469   1.649  15.898  0.7574  0.5517  0.7379
  190MPD1    C4 2892   4.378   1.573  15.829  0.3676  0.1843 -0.6675
  190MPD1    C5 2893   4.242   1.593  15.830  0.4298 -0.0394 -0.4517
  190MPD1     H 2894   4.481   1.837  16.014  0.1163 -0.7995  1.2534
  190MPD1    H1 2895   4.407   1.482  15.777 -2.3787 -2.6607  2.8223
  190MPD1    H2 2896   4.090   1.729  15.903  0.1143 -0.2031  0.8933
  190MPD1    H3 2897   4.177   1.518  15.786 -0.8068 -1.0623  3.1427
  190MPD1     N 2898   4.607   1.630  15.902  0.4989 -0.2642 -0.2095
  190MPD1    H5 2899   4.659   1.696  15.959 -3.8037  1.5478  1.6686
  190MPD1    N1 2900   4.240   1.908  16.011  0.2292  0.3379 -0.0050
  190MPD1    H6 2901   4.156   1.946  15.967 -0.1563 -0.1104  0.3406
  190MPD1    H7 2902   4.311   1.975  16.038  0.7160  0.0772 -0.6380
  191MPD1     C 2903   4.545   3.068  12.885 -0.0542 -0.0529  0.1930
  191MPD1    C1 2904   4.513   3.049  12.754  0.1829  0.1698 -0.2327
  191MPD1    C2 2905   4.437   3.150  12.694 -0.3820  0.5836 -0.4159
  191MPD1    C3 2906   4.384   3.260  12.765  0.2149  0.3047 -0.4361
  191MPD1    C4 2907   4.429   3.278  12.896  0.2804  0.1083  0.0704
  191MPD1    C5 2908   4.515   3.181  12.948 -0.1277  0.2359 -0.6293
  191MPD1     H 2909   4.409   3.142  12.590 -0.6735 -0.7663 -0.2293
  191MPD1    H1 2910   4.399   3.371  12.944  1.5685 -1.9164  4.7658
  191MPD1    H2 2911   4.611   3.000  12.938  1.1508  1.4177  0.5864
  191MPD1    H3 2912   4.541   3.193  13.053 -1.9476  0.3679 -0.1813
  191MPD1     N 2913   4.303   3.353  12.699 -0.4991  0.2385 -0.6623
  191MPD1    H5 2914   4.296   3.338  12.599 -1.8892 -0.7731 -0.4130
  191MPD1    N1 2915   4.570   2.942  12.685 -0.2934  0.1362  0.0623
  191MPD1    H6 2916   4.527   2.918  12.596 -1.1340  1.3842  0.1288
  191MPD1    H7 2917   4.603   2.855  12.726  0.8462  1.4293  1.8508
  192MPD1     C 2918   3.607   4.213  12.712 -0.1614 -0.1195 -0.0116
  192MPD1    C1 2919   3.670   4.227  12.599  0.2257 -0.2494 -0.0909
  192MPD1    C2 2920   3.778   4.150  12.575 -0.4170  0.4939  0.1235
  192MPD1    C3 2921   3.809   4.044  12.662 -0.5615 -0.2127  0.6733
  192MPD1    C4 2922   3.741   4.031  12.784 -0.3466  0.3871 -0.6515
  192MPD1    C5 2923   3.637   4.122  12.806  0.5180 -0.1022 -0.4170
  192MPD1     H 2924   3.841   4.171  12.489  0.9099 -0.3502  0.8937
  192MPD1    H1 2925   3.753   3.953  12.859  3.9716 -0.2723 -2.0183
  192MPD1    H2 2926   3.534   4.288  12.741  1.4918  0.2176  3.3538
  192MPD1    H3 2927   3.599   4.127  12.907  2.0624 -0.8010  0.1971
  192MPD1     N 2928   3.916   3.962  12.626  0.0254  0.6000 -0.4697
  192MPD1    H5 2929   3.943   3.956  12.528  1.6819  0.7676 -0.0352
  192MPD1    N1 2930   3.637   4.337  12.519 -0.4050  0.4796 -0.3420
  192MPD1    H6 2931   3.662   4.329  12.421 -0.4491 -0.6597 -0.2651
  192MPD1    H7 2932   3.544   4.377  12.529 -0.8418 -0.8722  0.8883
  193MPD1     C 2933   3.721   3.744  15.859  0.2402  0.1048 -0.0568
  193MPD1    C1 2934   3.702   3.878  15.894  0.7559  0.0606  0.3275
  193MPD1    C2 2935   3.775   3.922  16.009  0.4840 -0.0219 -0.0430
  193MPD1    C3 2936   3.869   3.833  16.072  0.2333 -0.2827  0.1692
  193MPD1    C4 2937   3.896   3.708  16.015 -0.5653  1.0363  0.0827
  193MPD1    C5 2938   3.821   3.672  15.907  0.1524 -0.2713 -0.2215
  193MPD1     H 2939   3.761   4.023  16.045 -1.6072 -1.0606  2.0871
  193MPD1    H1 2940   3.977   3.647  16.054 -0.3897  1.2773  0.0982
  193MPD1    H2 2941   3.657   3.696  15.786 -0.2887 -2.0704  1.8457
  193MPD1    H3 2942   3.838   3.573  15.866 -1.5785 -1.0709  0.9843
  193MPD1     N 2943   3.944   3.867  16.183  0.7975  0.0735  0.0132
  193MPD1    H5 2944   4.025   3.809  16.201 -0.1510 -1.6588 -1.3033
  193MPD1    N1 2945   3.616   3.964  15.826 -0.0274 -0.2675  0.4496
  193MPD1    H6 2946   3.644   4.061  15.824 -1.2690  0.0860  0.0812
  193MPD1    H7 2947   3.585   3.931  15.735 -2.4599  0.9532  0.8431
  194MPD1     C 2948   1.822   1.582  16.713  0.2592  0.1185  0.3596
  194MPD1    C1 2949   1.768   1.488  16.625 -0.3586 -0.7184 -0.5781
  194MPD1    C2 2950   1.796   1.353  16.646 -0.9372 -1.2110 -0.6214
  194MPD1    C3 2951   1.882   1.312  16.751 -0.4541 -0.1970 -0.1508
  194MPD1    C4 2952   1.915   1.402  16.841  0.8120 -0.2866 -1.2055
  194MPD1    C5 2953   1.889   1.540  16.828  0.0039 -0.8578 -0.0684
  194MPD1     H 2954   1.754   1.281  16.578 -2.0929 -0.2858 -0.9003
  194MPD1    H1 2955   1.985   1.378  16.920  0.6677 -1.4785 -1.4312
  194MPD1    H2 2956   1.810   1.689  16.702 -4.6725 -0.6119 -1.1781
  194MPD1    H3 2957   1.931   1.612  16.897 -0.3520 -2.2107  1.5480
  194MPD1     N 2958   1.933   1.183  16.772  0.8528 -0.2769  0.0608
  194MPD1    H5 2959   1.989   1.171  16.856 -0.7078 -1.7933  0.8905
  194MPD1    N1 2960   1.711   1.528  16.502  0.2409  0.1522  0.3249
  194MPD1    H6 2961   1.676   1.623  16.487  3.4875  1.3203  0.1056
  194MPD1    H7 2962   1.638   1.474  16.457  0.5085 -1.1640  1.4741
  195MPD1     C 2963   4.347   1.595  17.260  0.2248  0.0383 -0.2460
  195MPD1    C1 2964   4.450   1.684  17.283 -0.4302 -0.3492 -0.3141
  195MPD1    C2 2965   4.459   1.746  17.410 -0.1889  0.9107 -0.4876
  195MPD1    C3 2966   4.362   1.720  17.509 -0.2112 -0.4754 -0.6094
  195MPD1    C4 2967   4.257   1.640  17.474 -0.8225  0.9103  0.6455
  195MPD1    C5 2968   4.259   1.566  17.357  0.2950  0.1820  0.3876
  195MPD1     H 2969   4.550   1.803  17.420 -0.2237  0.4930  2.1344
  195MPD1    H1 2970   4.180   1.618  17.547  0.8840  0.1327  2.2028
  195MPD1    H2 2971   4.349   1.533  17.171  0.7067  0.3434 -0.4448
  195MPD1    H3 2972   4.187   1.488  17.333 -1.1553  1.6645 -0.1006
  195MPD1     N 2973   4.363   1.774  17.643 -0.6698 -0.1004 -0.8892
  195MPD1    H5 2974   4.295   1.746   0.019 -0.5169 -0.8838 -1.0525
  195MPD1    N1 2975   4.548   1.700  17.186  0.7003 -0.0056 -0.6014
  195MPD1    H6 2976   4.555   1.799  17.165  1.9073 -0.5929 -2.9334
  195MPD1    H7 2977   4.524   1.664  17.093 -0.4037 -0.6947 -0.0480
  196MPD1     C 2978   0.199   3.322   0.728 -0.1431  0.5860  0.3189
  196MPD1    C1 2979   0.176   3.419   0.829 -0.7091  0.4483  0.5151
  196MPD1    C2 2980   0.253   3.437   0.941 -0.8346  0.0502  1.1332
  196MPD1    C3 2981   0.367   3.356   0.954 -0.1006 -0.0242  0.1325
  196MPD1    C4 2982   0.389   3.259   0.855  0.5281 -0.3777 -0.2345
  196MPD1    C5 2983   0.309   3.246   0.748 -0.1218  0.7145  0.1198
  196MPD1     H 2984   0.226   3.513   1.014  0.0930  0.6211  0.8816
  196MPD1    H1 2985   0.474   3.193   0.870  0.4984 -0.6183 -1.1311
  196MPD1    H2 2986   0.132   3.322   0.642  0.3240 -2.2548 -0.0322
  196MPD1    H3 2987   0.329   3.171   0.672  1.1050  0.2829  0.8706
  196MPD1     N 2988   0.432   3.350   1.078  0.6001  0.3912 -0.5911
  196MPD1    H5 2989   0.494   3.273   1.098 -0.3516 -0.0457  0.6674
  196MPD1    N1 2990   0.054   3.496   0.820  0.3990 -0.4375 -0.7801
  196MPD1    H6 2991   0.050   3.583   0.873  0.1447 -0.9548  0.0659
  196MPD1    H7 2992   0.031   3.526   0.726  0.5863 -1.5571 -1.1902
  197MPD1     C 2993   1.934   3.612  17.119  0.5171 -0.0378 -0.1878
  197MPD1    C1 2994   1.887   3.734  17.095 -0.3094 -0.2634  0.3466
  197MPD1    C2 2995   1.960   3.833  17.022 -0.3255  0.2182  0.6420
  197MPD1    C3 2996   2.096   3.814  17.011  1.1199 -0.5350 -0.0943
  197MPD1    C4 2997   2.150   3.688  17.036 -0.4680 -0.0940 -0.8838
  197MPD1    C5 2998   2.064   3.585  17.078  0.4788  0.3172 -0.9088
  197MPD1     H 2999   1.903   3.916  16.982 -2.1906 -1.0408  0.7005
  197MPD1    H1 3000   2.255   3.666  17.019 -0.9669 -1.5915 -2.0933
  197MPD1    H2 3001   1.870   3.531  17.153  1.5808 -0.2095  1.4422
  197MPD1    H3 3002   2.102   3.484  17.088  2.8572  1.5609  2.9136
  197MPD1     N 3003   2.174   3.911  16.946 -0.5276  0.5466  0.0045
  197MPD1    H5 3004   2.273   3.895  16.934 -0.6626  0.3705 -0.8809
  197MPD1    N1 3005   1.750   3.746  17.107 -0.2863 -0.2897 -0.9202
  197MPD1    H6 3006   1.722   3.844  17.101  1.3514  0.2440 -0.1023
  197MPD1    H7 3007   1.712   3.699  17.188  0.9629 -2.0804 -1.3756
  198MPD1     C 3008   4.054   3.170  15.360  0.5952  0.1058  0.5389
  198MPD1    C1 3009   4.099   3.166  15.495  0.5754  0.2624 -0.4883
  198MPD1    C2 3010   4.215   3.088  15.522 -0.2642  0.1450 -0.5287
  198MPD1    C3 3011   4.272   3.009  15.420 -0.2876  0.0386  0.1204
  198MPD1    C4 3012   4.230   3.032  15.289  0.2134 -0.5963  0.2539
  198MPD1    C5 3013   4.131   3.115  15.263  0.1520 -0.0285 -0.4389
  198MPD1     H 3014   4.257   3.085  15.622  1.0691 -2.6963 -1.1475
  198MPD1    H1 3015   4.271   2.982  15.202  0.7052 -0.0900  0.1999
  198MPD1    H2 3016   3.961   3.221  15.340 -0.1513 -1.5192 -0.1369
  198MPD1    H3 3017   4.091   3.120  15.162  1.1481 -0.4064 -0.8513
  198MPD1     N 3018   4.384   2.942  15.462  0.6929 -0.7691 -0.5000
  198MPD1    H5 3019   4.407   2.952  15.561  1.3269 -0.3807 -0.6882
  198MPD1    N1 3020   4.029   3.237  15.596 -0.4041 -0.6905 -0.2090
  198MPD1    H6 3021   3.957   3.299  15.560 -0.4249  0.0621  1.1510
  198MPD1    H7 3022   4.080   3.266  15.679 -1.8351  0.4982  0.2453
  199MPD1     C 3023   2.382   3.856  10.110 -0.1313 -0.2236  0.0227
  199MPD1    C1 3024   2.365   3.894   9.977 -0.4014  0.3089  0.3873
  199MPD1    C2 3025   2.252   3.864   9.903  0.0527  0.1083 -0.1307
  199MPD1    C3 3026   2.143   3.802   9.962  0.4192 -0.0408  0.5243
  199MPD1    C4 3027   2.164   3.762  10.098 -0.0118 -0.5946 -0.2210
  199MPD1    C5 3028   2.282   3.787  10.165 -0.4984 -0.4662 -0.0514
  199MPD1     H 3029   2.239   3.898   9.801  0.2473 -0.6750 -0.4182
  199MPD1    H1 3030   2.092   3.702  10.152  0.1962  1.1535  2.0130
  199MPD1    H2 3031   2.470   3.879  10.169 -0.1704  1.6701 -0.6722
  199MPD1    H3 3032   2.305   3.734  10.257 -2.1885  0.1410  0.7318
  199MPD1     N 3033   2.019   3.770   9.899 -0.0276 -0.2583 -0.0960
  199MPD1    H5 3034   1.958   3.713   9.955  0.8530  1.7845  2.9602
  199MPD1    N1 3035   2.460   3.984   9.927  0.2886  0.5130 -0.0777
  199MPD1    H6 3036   2.551   3.975   9.970  0.5537 -0.6276 -0.8952
  199MPD1    H7 3037   2.464   3.973   9.826 -3.9519  1.9787 -0.4199
  200MPD1     C 3038   2.471   4.597  15.104 -0.2143  0.9813  0.6891
  200MPD1    C1 3039   2.478   4.712  15.030 -0.0478  0.1560 -0.5843
  200MPD1    C2 3040   2.402   4.713  14.914 -0.0678  0.5482  0.2802
  200MPD1    C3 3041   2.322   4.607  14.881  0.5618 -0.7005  0.3578
  200MPD1    C4 3042   2.318   4.495  14.954  0.2402 -0.1649 -0.0286
  200MPD1    C5 3043   2.399   4.493  15.065  0.4992  0.4126  0.6539
  200MPD1     H 3044   2.412   0.074  14.846  2.5041  0.3316  0.3895
  200MPD1    H1 3045   2.269   4.403  14.922 -0.4455  0.4788 -0.8333
  200MPD1    H2 3046   2.516   4.594  15.202  3.1122 -0.1689 -0.8771
  200MPD1    H3 3047   2.392   4.406  15.129 -0.3291 -0.3212 -0.4334
  200MPD1     N 3048   2.239   4.614  14.762  0.2591  0.3454  0.2904
  200MPD1    H5 3049   2.251   4.688  14.693 -0.3065 -0.5364 -0.7656
  200MPD1    N1 3050   2.523   0.113  15.085  0.0029  0.6955 -0.0497
  200MPD1    H6 3051   2.535   0.180  15.009 -2.0133  0.6765 -0.4096
  200MPD1    H7 3052   2.613   0.099  15.130 -0.0663  1.8266  0.4356
  201MPD1     C 3053   3.653   3.100  13.120 -0.6575  0.2629 -0.0874
  201MPD1    C1 3054   3.775   3.030  13.128 -0.5542  0.2061 -0.2893
  201MPD1    C2 3055   3.773   2.894  13.120 -0.2024  0.4450 -0.4662
  201MPD1    C3 3056   3.653   2.824  13.073 -0.6960  0.2268  0.2649
  201MPD1    C4 3057   3.541   2.907  13.057 -0.1813 -1.3065  0.4945
  201MPD1    C5 3058   3.543   3.039  13.087 -0.3272  0.0560  0.3409
  201MPD1     H 3059   3.865   2.839  13.140  0.2621  0.3607 -2.8869
  201MPD1    H1 3060   3.442   2.876  13.024  1.1515 -2.4440 -2.4713
  201MPD1    H2 3061   3.651   3.206  13.142  0.9037  0.4611 -0.8275
  201MPD1    H3 3062   3.460   3.108  13.080 -0.3623  0.0009  0.2189
  201MPD1     N 3063   3.662   2.683  13.060  0.2654 -0.8743 -0.7128
  201MPD1    H5 3064   3.753   2.642  13.081  1.0406  1.3630  0.2796
  201MPD1    N1 3065   3.887   3.100  13.178  0.5980  0.3817  0.3706
  201MPD1    H6 3066   3.877   3.193  13.137 -2.6630 -0.0027  0.3185
  201MPD1    H7 3067   3.979   3.065  13.153  1.0404  2.0638 -0.3469
  202MPD1     C 3068   3.278   3.168   9.442  1.3334  0.4517 -0.0950
  202MPD1    C1 3069   3.364   3.095   9.518  0.0245  0.6306 -0.1996
  202MPD1    C2 3070   3.325   2.958   9.527 -0.8285  0.4012  0.4709
  202MPD1    C3 3071   3.192   2.918   9.514  0.4844  0.7292 -0.2914
  202MPD1    C4 3072   3.105   3.012   9.454  0.6791  0.4262 -0.0488
  202MPD1    C5 3073   3.156   3.122   9.400 -0.2299 -0.0648 -0.1244
  202MPD1     H 3074   3.394   2.885   9.567 -1.2123 -0.2069  0.0195
  202MPD1    H1 3075   3.002   2.989   9.429  0.8885  2.5646 -2.8075
  202MPD1    H2 3076   3.314   3.258   9.392  0.3389  0.2490 -1.1680
  202MPD1    H3 3077   3.093   3.190   9.345  1.6745  0.1599 -2.0280
  202MPD1     N 3078   3.133   2.798   9.559  0.1296  0.1190  0.0277
  202MPD1    H5 3079   3.032   2.793   9.559  0.1525 -0.1873  3.6267
  202MPD1    N1 3080   3.501   3.137   9.526 -0.8233 -0.5704 -0.1049
  202MPD1    H6 3081   3.503   3.238   9.535  2.0236 -0.7446  1.0393
  202MPD1    H7 3082   3.556   3.103   9.604  0.2360 -0.6849 -0.8958
  203MPD1     C 3083   1.823   3.445  12.388 -0.4016 -0.9628  0.4255
  203MPD1    C1 3084   1.884   3.379  12.292  0.7140  0.2094  0.3898
  203MPD1    C2 3085   1.996   3.300  12.323 -0.2053  0.7260 -0.1689
  203MPD1    C3 3086   2.019   3.266  12.455 -0.1924 -0.3447 -0.0339
  203MPD1    C4 3087   1.957   3.339  12.551 -0.3426 -0.0283  0.3947
  203MPD1    C5 3088   1.878   3.435  12.517 -0.3518  0.1748 -0.3561
  203MPD1     H 3089   2.044   3.244  12.243 -3.8911 -1.4013 -0.8692
  203MPD1    H1 3090   1.975   3.328  12.658 -0.6919 -3.4871  0.1222
  203MPD1    H2 3091   1.743   3.515  12.368 -0.1129 -0.0521  2.3783
  203MPD1    H3 3092   1.847   3.504  12.594 -0.1260  0.7194 -0.7610
  203MPD1     N 3093   2.094   3.151  12.473 -0.4091 -0.6721  0.1401
  203MPD1    H5 3094   2.151   3.110  12.399  2.1367 -0.3595  1.9147
  203MPD1    N1 3095   1.843   3.396  12.159  0.2317  0.0215  0.4020
  203MPD1    H6 3096   1.748   3.434  12.159 -0.8891 -2.7258 -1.6192
  203MPD1    H7 3097   1.844   3.303  12.117  1.7524  0.3579 -0.2900
  204MPD1     C 3098   1.229   0.120  17.537 -0.7973  0.0449  0.5015
  204MPD1    C1 3099   1.238   0.067  17.407  0.5923  0.6768  0.1270
  204MPD1    C2 3100   1.320   4.687  17.380  0.2050 -0.2663  0.0038
  204MPD1    C3 3101   1.375   4.611  17.482  0.3457 -0.0353 -0.0073
  204MPD1    C4 3102   1.374   4.665  17.608 -0.3486 -0.6261 -0.2509
  204MPD1    C5 3103   1.297   0.052  17.634  0.2777  0.0679 -0.3956
  204MPD1     H 3104   1.326   4.657  17.276 -0.7721  0.0903 -0.1553
  204MPD1    H1 3105   1.419   4.616  17.693 -1.5818 -1.7278 -0.2265
  204MPD1    H2 3106   1.170   0.207  17.563  0.6043  1.4032 -0.8214
  204MPD1    H3 3107   1.307   0.101   0.036  0.2137 -2.1342  0.7293
  204MPD1     N 3108   1.447   4.492  17.443 -0.5647  0.2506  0.6622
  204MPD1    H5 3109   1.452   4.478  17.342 -0.8491 -0.1879  0.7077
  204MPD1    N1 3110   1.165   0.147  17.312 -0.3837 -0.3745 -0.2326
  204MPD1    H6 3111   1.078   0.178  17.355 -2.0238 -0.1358 -3.6822
  204MPD1    H7 3112   1.146   0.085  17.233  2.4377 -0.3292 -0.9470
  205MPD1     C 3113   2.523   3.346  17.128  0.3173 -0.3329 -0.2271
  205MPD1    C1 3114   2.570   3.266  17.229  0.2342 -1.0924  0.4369
  205MPD1    C2 3115   2.517   3.284  17.357 -0.2450 -0.4338 -0.2847
  205MPD1    C3 3116   2.417   3.377  17.383 -0.5326 -0.0605 -0.4073
  205MPD1    C4 3117   2.372   3.453  17.281  0.2528  0.3631 -0.2222
  205MPD1    C5 3118   2.420   3.431  17.152 -0.2493  0.4790 -0.1930
  205MPD1     H 3119   2.562   3.222  17.433 -1.2888 -1.6150 -0.6454
  205MPD1    H1 3120   2.287   3.519  17.296  0.3140  0.3547  0.1402
  205MPD1    H2 3121   2.556   3.343  17.024 -0.6429 -0.1437 -0.5396
  205MPD1    H3 3122   2.377   3.487  17.070  2.0063 -0.3722 -1.9676
  205MPD1     N 3123   2.361   3.400  17.511  0.0515  0.0708 -0.0657
  205MPD1    H5 3124   2.292   3.474  17.521 -0.1422  0.0716 -1.4345
  205MPD1    N1 3125   2.673   3.175  17.209  0.2624 -0.4564  0.9483
  205MPD1    H6 3126   2.678   3.103  17.282  2.7249 -0.6047  0.6164
  205MPD1    H7 3127   2.673   3.147  17.111 -3.9772  0.0785  0.7882
  206MPD1     C 3128   2.430   1.551  16.992  0.0913  0.0405 -0.3148
  206MPD1    C1 3129   2.460   1.436  16.924  0.2001  0.3415  0.0189
  206MPD1    C2 3130   2.389   1.409  16.810  0.0882  0.7086 -0.1264
  206MPD1    C3 3131   2.281   1.491  16.776 -0.2095 -0.2479 -0.4120
  206MPD1    C4 3132   2.269   1.612  16.842  0.2227 -0.0850 -0.2949
  206MPD1    C5 3133   2.348   1.644  16.946 -0.4811  0.5778 -0.4464
  206MPD1     H 3134   2.409   1.316  16.758  1.3916  0.3794  0.9597
  206MPD1    H1 3135   2.184   1.675  16.821  1.6664  1.4418 -1.5892
  206MPD1    H2 3136   2.491   1.572  17.080 -0.5013 -0.0330  0.1179
  206MPD1    H3 3137   2.333   1.741  16.992  1.1087  0.5983  0.0301
  206MPD1     N 3138   2.191   1.478  16.667  0.1042 -0.6748 -0.2437
  206MPD1    H5 3139   2.137   1.560  16.640  0.7995  0.8920  3.1295
  206MPD1    N1 3140   2.549   1.346  16.985  0.2770 -0.2664  0.6425
  206MPD1    H6 3141   2.592   1.269  16.934 -2.7363 -0.6985 -1.2827
  206MPD1    H7 3142   2.618   1.400  17.036  0.1445 -0.5920  1.1663
  207MPD1     C 3143   4.463   4.437   9.288  0.7155  0.3557 -0.0258
  207MPD1    C1 3144   4.379   4.320   9.292  0.4157  0.6607  0.6337
  207MPD1    C2 3145   4.380   4.244   9.407  0.4123 -1.0273 -0.4257
  207MPD1    C3 3146   4.454   4.290   9.516  0.2636 -0.1736 -0.4580
  207MPD1    C4 3147   4.519   4.411   9.508  0.0414 -0.5217  0.6226
  207MPD1    C5 3148   4.528   4.486   9.395  0.2285  0.3134  0.3968
  207MPD1     H 3149   4.326   4.151   9.412 -0.2533 -0.6812 -1.2286
  207MPD1    H1 3150   4.582   4.450   9.587  0.9034  1.3317 -0.9672
  207MPD1    H2 3151   4.483   4.485   9.194  2.4191  1.6647  1.0004
  207MPD1    H3 3152   4.581   4.580   9.385  1.9086 -0.7382 -0.5460
  207MPD1     N 3153   4.479   4.216   9.635  0.0422 -0.6396  0.5937
  207MPD1    H5 3154   4.530   4.269   9.705 -0.6589 -2.4452  2.4864
  207MPD1    N1 3155   4.319   4.273   9.175 -0.2355 -0.2751  0.1803
  207MPD1    H6 3156   4.251   4.200   9.193  0.0633 -0.5076  0.3701
  207MPD1    H7 3157   4.277   4.347   9.119 -0.0072  0.6919  1.2852
  208MPD1     C 3158   3.591   2.973   0.349 -0.7482 -0.2468 -0.3298
  208MPD1    C1 3159   3.621   2.984   0.484  0.8857  0.4570  0.9657
  208MPD1    C2 3160   3.516   2.951   0.573 -0.2720 -0.0393 -0.8317
  208MPD1    C3 3161   3.394   2.902   0.525  0.5188 -0.5441  0.3019
  208MPD1    C4 3162   3.373   2.876   0.395  0.7241 -0.9049  0.6003
  208MPD1    C5 3163   3.470   2.921   0.316 -0.1574  0.4452 -0.4221
  208MPD1     H 3164   3.525   2.961   0.681 -0.2565 -1.6001 -0.6938
  208MPD1    H1 3165   3.276   2.854   0.352  0.4755  1.4192 -0.0530
  208MPD1    H2 3166   3.665   3.006   0.276 -1.8572  1.7925 -0.5309
  208MPD1    H3 3167   3.434   2.939   0.216 -2.5684 -1.6156  0.0646
  208MPD1     N 3168   3.287   2.893   0.617  0.0639  0.6598  0.5895
  208MPD1    H5 3169   3.296   2.894   0.718  2.1049 -2.9906  0.4006
  208MPD1    N1 3170   3.741   3.032   0.536 -0.1936 -0.5388  0.0618
  208MPD1    H6 3171   3.748   3.012   0.635  2.0449  2.3380  0.4903
  208MPD1    H7 3172   3.818   2.987   0.486  0.9547  2.5746 -0.9933
  209MPD1     C 3173   3.708   2.637  10.204 -0.1280 -0.9606 -0.4070
  209MPD1    C1 3174   3.695   2.761  10.147  0.0942  0.0747 -0.2802
  209MPD1    C2 3175   3.769   2.869  10.204  0.0296  0.2804  0.2755
  209MPD1    C3 3176   3.863   2.852  10.298 -0.2627 -0.2954  0.4085
  209MPD1    C4 3177   3.874   2.725  10.353 -0.1702 -0.3568  0.4189
  209MPD1    C5 3178   3.794   2.620  10.309  0.4734  0.6328  0.4453
  209MPD1     H 3179   3.755   2.970  10.168 -1.7573  0.0089  0.1872
  209MPD1    H1 3180   3.940   2.697  10.435 -3.4732 -2.4446  2.3805
  209MPD1    H2 3181   3.656   2.547  10.173 -0.3723 -0.6434 -0.9133
  209MPD1    H3 3182   3.799   2.524  10.359 -1.0836 -1.2800 -3.0647
  209MPD1     N 3183   3.930   2.966  10.352  0.0290 -0.2247 -0.1706
  209MPD1    H5 3184   3.904   3.051  10.303 -0.3399 -1.0585 -1.4257
  209MPD1    N1 3185   3.587   2.791  10.059  0.3250 -0.2940  0.4670
  209MPD1    H6 3186   3.610   2.874  10.005 -0.8408 -0.2458  0.0345
  209MPD1    H7 3187   3.577   2.718   9.988 -2.4124  0.9100 -0.3887
  210MPD1     C 3188   0.034   3.224  10.987 -0.0988 -0.2979 -0.3196
  210MPD1    C1 3189   4.634   3.175  11.031 -0.4032 -0.6822 -0.4674
  210MPD1    C2 3190   4.525   3.181  10.947 -0.2688 -0.1544 -0.2330
  210MPD1    C3 3191   4.543   3.212  10.815 -0.4342 -0.4998 -0.6393
  210MPD1    C4 3192   4.670   3.244  10.768  0.6237  0.1356  0.0137
  210MPD1    C5 3193   0.053   3.245  10.856 -0.1625  0.8342  0.3601
  210MPD1     H 3194   4.430   3.155  10.992  0.9225 -0.1811  2.2856
  210MPD1    H1 3195   4.690   3.272  10.665 -0.7285  1.4746  0.1157
  210MPD1    H2 3196   0.115   3.243  11.056  1.1899  2.2847 -2.5233
  210MPD1    H3 3197   0.151   3.276  10.822  0.4560 -0.6775  0.7729
  210MPD1     N 3198   4.439   3.223  10.723 -0.3392 -0.5420  0.3045
  210MPD1    H5 3199   4.457   3.262  10.631 -0.0756  1.3331  1.1427
  210MPD1    N1 3200   4.626   3.159  11.169 -0.4329  0.1616 -0.3265
  210MPD1    H6 3201   4.554   3.097  11.205 -2.7648  3.0734  0.0437
  210MPD1    H7 3202   4.711   3.139  11.221 -0.9133  1.7920  1.0935
  211MPD1     C 3203   2.511   3.212  15.921 -0.2801  0.0074 -0.1212
  211MPD1    C1 3204   2.455   3.199  16.050 -0.3899 -0.0510 -0.2449
  211MPD1    C2 3205   2.321   3.223  16.066 -1.7550  0.2188  0.6918
  211MPD1    C3 3206   2.242   3.260  15.959 -0.0330  0.1252 -0.2095
  211MPD1    C4 3207   2.301   3.281  15.837 -0.0834 -0.3830 -0.0657
  211MPD1    C5 3208   2.432   3.244  15.813  0.4588 -0.3773  0.3107
  211MPD1     H 3209   2.277   3.215  16.165  0.2704 -1.0606  1.4935
  211MPD1    H1 3210   2.238   3.314  15.755  1.9767  0.6139 -1.2339
  211MPD1    H2 3211   2.618   3.215  15.905  0.0797 -3.4792  1.5801
  211MPD1    H3 3212   2.481   3.278  15.722  0.8420 -2.3636 -0.2233
  211MPD1     N 3213   2.103   3.289  15.993 -0.1702  0.2240 -0.9757
  211MPD1    H5 3214   2.068   3.239  16.075  2.0533 -1.1186 -0.8416
  211MPD1    N1 3215   2.540   3.170  16.160 -0.0158 -0.1420 -0.4182
  211MPD1    H6 3216   2.627   3.222  16.152 -1.5651  2.4024 -0.8070
  211MPD1    H7 3217   2.493   3.201  16.244 -2.1215 -3.5408 -0.3411
  212MPD1     C 3218   1.569   1.423  16.100 -0.1805 -0.3178 -0.5800
  212MPD1    C1 3219   1.515   1.521  16.179 -0.2390 -0.0248  0.5838
  212MPD1    C2 3220   1.464   1.479  16.299 -0.0702 -0.2040  0.1048
  212MPD1    C3 3221   1.496   1.351  16.346 -0.3535  0.4102 -0.4315
  212MPD1    C4 3222   1.571   1.260  16.271  0.2385 -0.3445 -0.2934
  212MPD1    C5 3223   1.610   1.302  16.145 -0.2090  0.0124 -0.4550
  212MPD1     H 3224   1.404   1.546  16.359 -1.6348 -2.3528  0.9219
  212MPD1    H1 3225   1.594   1.157  16.300  1.8143 -0.4319 -1.8422
  212MPD1    H2 3226   1.603   1.442  15.998 -0.1731  0.2010 -0.4757
  212MPD1    H3 3227   1.657   1.241  16.069 -1.7024 -2.3220  0.4643
  212MPD1     N 3228   1.451   1.307  16.475  0.2143  0.1083  0.2637
  212MPD1    H5 3229   1.477   1.211  16.495 -0.6921  0.5665  3.7090
  212MPD1    N1 3230   1.457   1.633  16.118  1.0336 -0.4662  0.6871
  212MPD1    H6 3231   1.428   1.701  16.189  2.1681  0.0893  0.6215
  212MPD1    H7 3232   1.513   1.674  16.044  0.1786  0.5651  0.6236
  213MPD1     C 3233   0.196   2.422  15.765 -0.1161  0.5388 -0.6018
  213MPD1    C1 3234   0.188   2.307  15.685  0.0831  0.4325  1.0219
  213MPD1    C2 3235   0.085   2.321  15.592  0.2376  0.4761 -0.3129
  213MPD1    C3 3236   4.700   2.413  15.597  0.0879  0.6314 -0.6733
  213MPD1    C4 3237   4.707   2.507  15.695 -0.8086 -0.3957  0.4666
  213MPD1    C5 3238   0.099   2.521  15.771  0.4553  0.2391  0.0120
  213MPD1     H 3239   0.078   2.254  15.507 -3.2944  1.2178 -0.6158
  213MPD1    H1 3240   4.634   2.586  15.711  0.0599  0.1714  1.6197
  213MPD1    H2 3241   0.285   2.446  15.822 -1.4724 -1.2025  2.2847
  213MPD1    H3 3242   0.120   2.600  15.843 -1.5660 -0.3809  1.2952
  213MPD1     N 3243   4.598   2.406  15.500 -0.6568 -0.0517 -0.3926
  213MPD1    H5 3244   4.614   2.347  15.420 -0.4317 -0.5805  0.0415
  213MPD1    N1 3245   0.305   2.235  15.644  0.9715  0.4467  0.0172
  213MPD1    H6 3246   0.287   2.148  15.594  1.2077  1.0142 -1.0705
  213MPD1    H7 3247   0.363   2.214  15.724 -0.5918 -1.6685  0.6055
  214MPD1     C 3248   3.998   1.718  15.391 -0.0769 -0.0284 -0.0209
  214MPD1    C1 3249   3.977   1.782  15.277  0.0400 -0.3849  0.2422
  214MPD1    C2 3250   4.058   1.895  15.258  0.3050 -0.2585  0.2542
  214MPD1    C3 3251   4.146   1.943  15.354  1.0541  0.4012  0.0174
  214MPD1    C4 3252   4.164   1.868  15.466  0.9347 -0.5541  0.2010
  214MPD1    C5 3253   4.101   1.743  15.477 -0.9881  0.1780  0.3713
  214MPD1     H 3254   4.041   1.950  15.167 -1.2906  0.8749  1.2554
  214MPD1    H1 3255   4.232   1.904  15.543  2.9858 -1.4722 -1.1688
  214MPD1    H2 3256   3.943   1.628  15.415  0.5753 -0.8073 -1.4006
  214MPD1    H3 3257   4.105   1.683  15.567  0.2676 -0.6301 -0.2165
  214MPD1     N 3258   4.224   2.060  15.347  0.2661  0.1860  0.5286
  214MPD1    H5 3259   4.286   2.079  15.424 -0.6434  1.3552  0.9733
  214MPD1    N1 3260   3.904   1.712  15.176  0.0453  0.1705  0.2840
  214MPD1    H6 3261   3.858   1.764  15.102 -1.7150 -3.3526 -1.0965
  214MPD1    H7 3262   3.820   1.663  15.205  0.7248 -2.2551 -1.7999
  215MPD1     C 3263   3.605   2.127  10.553  0.9412 -0.0666  0.0925
  215MPD1    C1 3264   3.726   2.128  10.612 -0.2529 -0.5049  0.4295
  215MPD1    C2 3265   3.778   2.256  10.639 -0.2404 -0.6626  0.2673
  215MPD1    C3 3266   3.693   2.367  10.631 -0.0732 -0.2174 -0.1360
  215MPD1    C4 3267   3.566   2.354  10.582 -0.3390 -0.0190  0.0694
  215MPD1    C5 3268   3.523   2.237  10.545  0.1624  0.5416 -0.5940
  215MPD1     H 3269   3.875   2.270  10.685 -0.5781 -2.9534  1.6973
  215MPD1    H1 3270   3.500   2.436  10.607  0.5464  1.0348 -1.0847
  215MPD1    H2 3271   3.557   2.036  10.519 -2.2299  1.2850  0.9553
  215MPD1    H3 3272   3.420   2.219  10.516  0.2734 -1.4572  0.2130
  215MPD1     N 3273   3.743   2.492  10.683  0.1182  0.3498 -0.0134
  215MPD1    H5 3274   3.838   2.492  10.719  0.1024  2.2189  0.0539
  215MPD1    N1 3275   3.817   2.023  10.600 -0.3188 -0.0711 -0.4682
  215MPD1    H6 3276   3.779   1.928  10.597  4.5537 -2.0763  1.0367
  215MPD1    H7 3277   3.901   2.026  10.656 -0.5187 -0.6529 -0.1325
  216MPD1     C 3278   1.175   0.062  16.211  0.3439 -0.8905 -0.6616
  216MPD1    C1 3279   1.085   4.701  16.268  0.0088 -0.5669 -0.0046
  216MPD1    C2 3280   1.046   0.003  16.400  0.1682 -0.8017  0.0024
  216MPD1    C3 3281   1.087   0.113  16.475  0.8174  0.2317 -0.7055
  216MPD1    C4 3282   1.173   0.200  16.416 -0.4621  0.4542  0.3655
  216MPD1    C5 3283   1.225   0.165  16.287  0.2305 -0.3282  0.5692
  216MPD1     H 3284   0.994   4.653  16.461 -1.1273  1.5480  1.7237
  216MPD1    H1 3285   1.204   0.293  16.461  1.8837 -0.5585  0.8552
  216MPD1    H2 3286   1.227   0.046  16.118 -0.7174 -0.7632 -1.2818
  216MPD1    H3 3287   1.297   0.237  16.250  1.8282 -2.7388 -0.9762
  216MPD1     N 3288   1.029   0.136  16.602  0.3208  0.0407  0.0440
  216MPD1    H5 3289   0.963   0.068  16.638  0.9166 -0.2573  0.5939
  216MPD1    N1 3290   1.061   4.567  16.220  0.3251  0.0008  0.2090
  216MPD1    H6 3291   1.070   4.553  16.119 -0.6885 -0.1773  0.1399
  216MPD1    H7 3292   0.970   4.526  16.244 -0.2136  1.3283  0.4073
  217MPD1     C 3293   0.630   1.569   9.068 -0.3472 -0.0645 -0.2717
  217MPD1    C1 3294   0.670   1.696   9.098 -0.4481  0.1363 -0.3926
  217MPD1    C2 3295   0.803   1.720   9.109 -0.4330  1.0912 -0.0939
  217MPD1    C3 3296   0.897   1.618   9.123 -0.0737 -0.0489  0.3788
  217MPD1    C4 3297   0.853   1.486   9.116  0.5243  0.9823 -0.0240
  217MPD1    C5 3298   0.723   1.465   9.091  0.2908 -0.7223 -0.6354
  217MPD1     H 3299   0.839   1.822   9.108 -2.1518  1.6975 -2.0609
  217MPD1    H1 3300   0.916   1.400   9.135 -1.5447 -0.7448 -1.0377
  217MPD1    H2 3301   0.530   1.544   9.036 -1.9864  2.6045  2.8342
  217MPD1    H3 3302   0.693   1.363   9.071 -0.8439 -0.7035  0.9121
  217MPD1     N 3303   1.034   1.648   9.142 -0.2810 -0.3718 -0.1709
  217MPD1    H5 3304   1.064   1.744   9.125 -2.1677  0.1754 -0.3308
  217MPD1    N1 3305   0.576   1.797   9.084  0.2673 -0.4589 -0.0295
  217MPD1    H6 3306   0.597   1.882   9.136 -1.5367  0.0777 -0.1860
  217MPD1    H7 3307   0.490   1.758   9.120  0.6484  0.0230  1.4146
  218MPD1     C 3308   3.705   3.682  13.272  0.7497 -0.2631 -0.0546
  218MPD1    C1 3309   3.696   3.747  13.150  0.0507 -0.4552 -0.2608
  218MPD1    C2 3310   3.725   3.681  13.037 -0.0512  0.6378  0.1329
  218MPD1    C3 3311   3.796   3.566  13.040  0.0160 -0.3311  0.6057
  218MPD1    C4 3312   3.832   3.513  13.160  0.6189 -0.4980 -0.1276
  218MPD1    C5 3313   3.780   3.567  13.274 -0.6102  0.1991  0.0730
  218MPD1     H 3314   3.716   3.739  12.945 -0.8893  2.4995  1.3946
  218MPD1    H1 3315   3.877   3.415  13.170  2.1293 -0.0476 -2.5239
  218MPD1    H2 3316   3.664   3.722  13.363  0.4168  1.1474 -0.8185
  218MPD1    H3 3317   3.798   3.505  13.362 -3.2038  0.2903  0.6866
  218MPD1     N 3318   3.841   3.507  12.914  0.1194 -0.0213  1.1286
  218MPD1    H5 3319   3.823   3.561  12.830  3.0775  1.3866  1.3992
  218MPD1    N1 3320   3.617   3.858  13.142  0.2562 -0.6155  0.2106
  218MPD1    H6 3321   3.612   3.910  13.229 -3.7335 -1.1695  0.3275
  218MPD1    H7 3322   3.656   3.924  13.075 -2.0744  1.6067  1.0513
  219MPD1     C 3323   4.053   3.503  11.936  0.4928 -0.4427 -0.1447
  219MPD1    C1 3324   4.081   3.590  12.040  0.1121  0.0014 -0.2831
  219MPD1    C2 3325   4.043   3.541  12.165 -0.6547  0.8876  0.1578
  219MPD1    C3 3326   3.997   3.411  12.191 -0.0788 -0.4523  0.2670
  219MPD1    C4 3327   3.978   3.334  12.083 -0.6765 -0.6769  0.2736
  219MPD1    C5 3328   4.004   3.380  11.960 -1.5806  0.3091  0.7273
  219MPD1     H 3329   4.055   3.614  12.245  0.6122 -0.2066  0.9667
  219MPD1    H1 3330   3.950   3.229  12.089 -0.8120 -0.6444  0.1979
  219MPD1    H2 3331   4.072   3.537  11.835  1.2326 -2.1868 -0.5913
  219MPD1    H3 3332   3.980   3.313  11.878  3.7953 -1.2230  0.4200
  219MPD1     N 3333   3.974   3.364  12.316 -0.1506 -0.5954 -0.5703
  219MPD1    H5 3334   3.978   3.265  12.334 -2.1930 -0.5615  0.0326
  219MPD1    N1 3335   4.104   3.723  12.009  0.5326 -0.4986  0.1409
  219MPD1    H6 3336   4.154   3.771  12.084  3.4517 -2.1152 -0.7520
  219MPD1    H7 3337   4.147   3.742  11.919 -0.8095 -1.1273 -0.6231
  220MPD1     C 3338   2.721   3.513   9.569 -0.5585  0.0646 -0.4968
  220MPD1    C1 3339   2.708   3.393   9.628 -0.6781  0.5046 -0.0522
  220MPD1    C2 3340   2.820   3.317   9.668  0.0820 -0.1681  0.6309
  220MPD1    C3 3341   2.949   3.375   9.666 -0.3754  0.0248 -0.6431
  220MPD1    C4 3342   2.957   3.502   9.606 -1.1576  0.2395 -0.1979
  220MPD1    C5 3343   2.845   3.565   9.560  0.1673  0.1602  0.7805
  220MPD1     H 3344   2.819   3.211   9.689  0.7896 -0.0652  1.1871
  220MPD1    H1 3345   3.055   3.548   9.595  0.4427 -2.8919  0.9884
  220MPD1    H2 3346   2.640   3.571   9.526 -0.2695  3.3942  3.4126
  220MPD1    H3 3347   2.854   3.665   9.520  0.8901  0.5968  2.0210
  220MPD1     N 3348   3.055   3.302   9.726  0.6730 -0.0665 -0.3119
  220MPD1    H5 3349   3.032   3.216   9.776 -0.6087  0.0105 -0.7481
  220MPD1    N1 3350   2.576   3.337   9.635  0.0444 -0.1933 -0.0233
  220MPD1    H6 3351   2.506   3.407   9.660 -1.1258 -1.5538  0.5120
  220MPD1    H7 3352   2.576   3.259   9.700 -0.4220 -0.5218 -0.4122
  221MPD1     C 3353   2.701   2.915  15.891  0.3980  0.1607  0.1278
  221MPD1    C1 3354   2.594   2.831  15.919  0.5278 -0.2415 -0.3834
  221MPD1    C2 3355   2.613   2.695  15.914 -0.1839 -0.2008  0.6443
  221MPD1    C3 3356   2.739   2.643  15.877 -0.5003 -0.3283  0.2350
  221MPD1    C4 3357   2.841   2.730  15.843  0.2201  0.4171 -0.7711
  221MPD1    C5 3358   2.818   2.867  15.856 -0.0283  0.1913 -0.5826
  221MPD1     H 3359   2.531   2.632  15.945  1.1804 -1.6268  1.3057
  221MPD1    H1 3360   2.933   2.684  15.807  0.4511 -1.4987  2.3150
  221MPD1    H2 3361   2.703   3.024  15.894 -0.5015  0.1308  2.5188
  221MPD1    H3 3362   2.901   2.933  15.834 -0.2129 -0.7208 -4.1003
  221MPD1     N 3363   2.766   2.508  15.874 -0.6045 -0.6773 -0.1264
  221MPD1    H5 3364   2.861   2.473  15.880 -0.5353 -0.5376 -0.4160
  221MPD1    N1 3365   2.477   2.892  15.966  0.3564 -0.4184 -0.6936
  221MPD1    H6 3366   2.455   2.979  15.918 -0.5436 -0.7228 -0.8404
  221MPD1    H7 3367   2.398   2.828  15.954 -0.5541  0.4766  0.4635
  222MPD1     C 3368   1.439   0.853  16.690 -0.1782  1.0890 -0.0684
  222MPD1    C1 3369   1.516   0.966  16.694  0.1944 -0.1011  0.2569
  222MPD1    C2 3370   1.564   1.016  16.818  0.4205  0.8902 -0.4521
  222MPD1    C3 3371   1.528   0.958  16.937 -0.3725  0.3710 -0.6273
  222MPD1    C4 3372   1.450   0.843  16.925  0.4807 -0.5137  0.1251
  222MPD1    C5 3373   1.418   0.786  16.805 -0.0268 -0.9045  0.4605
  222MPD1     H 3374   1.631   1.100  16.807 -1.0339  1.7611 -2.8289
  222MPD1    H1 3375   1.418   0.789  17.014 -0.5769  0.6182  0.4230
  222MPD1    H2 3376   1.402   0.814  16.596  1.7675  0.2210 -0.4672
  222MPD1    H3 3377   1.346   0.706  16.799  2.2929 -2.8036 -1.8256
  222MPD1     N 3378   1.564   1.011  17.062 -0.4155 -0.4212 -0.2164
  222MPD1    H5 3379   1.531   0.959  17.142  1.5751  0.3215  1.0713
  222MPD1    N1 3380   1.545   1.043  16.577 -0.1429  0.5416  0.3191
  222MPD1    H6 3381   1.526   0.993  16.491 -0.3311  2.4439 -0.7527
  222MPD1    H7 3382   1.636   1.088  16.583  0.2107  0.0218 -1.3668
  223MPD1     C 3383   1.285   0.941   0.312  0.5660  0.1763  0.2593
  223MPD1    C1 3384   1.362   1.051   0.318  0.8959 -0.2986 -0.4182
  223MPD1    C2 3385   1.414   1.089   0.196  0.1666  0.0791  0.1113
  223MPD1    C3 3386   1.378   1.033   0.075 -0.2797 -0.1059  0.4517
  223MPD1    C4 3387   1.302   0.919   0.073  0.1559 -0.5728 -0.1495
  223MPD1    C5 3388   1.253   0.876   0.196  0.4522  0.0184  0.3606
  223MPD1     H 3389   1.486   1.170   0.189  2.1716 -1.7198 -0.0036
  223MPD1    H1 3390   1.282   0.864  17.675 -2.3857 -0.4725  0.3415
  223MPD1    H2 3391   1.255   0.894   0.405 -2.2980  0.8261 -0.3669
  223MPD1    H3 3392   1.192   0.786   0.202  0.9035 -0.3318 -0.3474
  223MPD1     N 3393   1.445   1.088  17.659  0.2087 -0.1318 -0.7954
  223MPD1    H5 3394   1.507   1.162  17.689 -0.1157 -1.1255  2.2907
  223MPD1    N1 3395   1.414   1.100   0.439  0.1538 -0.0719  0.1884
  223MPD1    H6 3396   1.427   1.201   0.437  3.6458 -0.5283 -0.0338
  223MPD1    H7 3397   1.365   1.078   0.526 -1.3610  2.0562 -0.1319
  224MPD1     C 3398   3.005   2.701   9.278 -0.1942 -0.1737  0.0503
  224MPD1    C1 3399   3.051   2.573   9.297  0.0854 -0.0322 -0.0716
  224MPD1    C2 3400   2.960   2.471   9.303 -0.8224 -0.1139  0.0223
  224MPD1    C3 3401   2.825   2.494   9.301  0.4113  0.5836 -0.4200
  224MPD1    C4 3402   2.779   2.620   9.274  0.2517 -0.4902  0.2648
  224MPD1    C5 3403   2.871   2.724   9.263  0.2945 -0.0930  0.3882
  224MPD1     H 3404   3.003   2.372   9.316 -0.3520  0.3217  1.8236
  224MPD1    H1 3405   2.673   2.644   9.275  0.0325 -1.4555 -0.4287
  224MPD1    H2 3406   3.064   2.791   9.264  1.0429 -1.3616 -2.4277
  224MPD1    H3 3407   2.833   2.823   9.243  2.4755  1.3027  3.2800
  224MPD1     N 3408   2.732   2.396   9.334  0.5317  0.0752  0.4778
  224MPD1    H5 3409   2.632   2.415   9.328  0.3156 -1.8169 -1.8372
  224MPD1    N1 3410   3.189   2.549   9.313 -0.4695  0.3583  0.2936
  224MPD1    H6 3411   3.200   2.478   9.385  0.5092 -0.8027 -0.9938
  224MPD1    H7 3412   3.231   2.639   9.336  4.4112 -2.5146  2.6423
  225MPD1     C 3413   3.257   3.379  13.158 -0.3155  0.2507  0.4157
  225MPD1    C1 3414   3.367   3.445  13.108  0.1513  0.1617 -0.5924
  225MPD1    C2 3415   3.357   3.490  12.973 -0.4339  0.3329  0.1645
  225MPD1    C3 3416   3.252   3.442  12.895  0.4859 -0.6064  0.8926
  225MPD1    C4 3417   3.156   3.367  12.950  0.2481 -0.0677  0.0487
  225MPD1    C5 3418   3.148   3.336  13.081 -0.2201 -0.0536 -0.4130
  225MPD1     H 3419   3.437   3.555  12.940 -0.0178  0.2923  1.0936
  225MPD1    H1 3420   3.066   3.334  12.899 -0.2660  1.8777 -0.3125
  225MPD1    H2 3421   3.257   3.366  13.266 -2.7945  0.2291  0.4130
  225MPD1    H3 3422   3.060   3.293  13.129 -1.5239  2.0935 -0.8734
  225MPD1     N 3423   3.234   3.475  12.757 -0.4670 -0.1814 -0.8142
  225MPD1    H5 3424   3.150   3.437  12.715 -1.9473  1.1955  0.9442
  225MPD1    N1 3425   3.466   3.496  13.203  0.4522  0.0396  0.1551
  225MPD1    H6 3426   3.551   3.514  13.151 -0.3404 -0.9402 -1.4994
  225MPD1    H7 3427   3.490   3.434  13.280 -1.2811 -1.7398 -0.7109
  226MPD1     C 3428   0.522   3.348   9.586 -0.1351 -0.0096 -0.1006
  226MPD1    C1 3429   0.562   3.271   9.475  0.9421 -0.2278 -0.6746
  226MPD1    C2 3430   0.692   3.287   9.426 -0.0200 -0.1325  0.0911
  226MPD1    C3 3431   0.782   3.364   9.488 -0.3881  0.1372  0.1773
  226MPD1    C4 3432   0.745   3.430   9.606 -0.3697 -0.1804 -0.7065
  226MPD1    C5 3433   0.620   3.415   9.652 -0.1894  0.4531 -0.8361
  226MPD1     H 3434   0.711   3.237   9.332  1.2769 -2.1436  1.4383
  226MPD1    H1 3435   0.815   3.492   9.663 -0.0822 -1.8901  0.7888
  226MPD1    H2 3436   0.433   3.343   9.647 -1.1306  0.3773 -1.5250
  226MPD1    H3 3437   0.590   3.477   9.735 -1.2738 -1.6181  0.3344
  226MPD1     N 3438   0.913   3.372   9.436  0.5196  0.0561  0.6597
  226MPD1    H5 3439   0.934   3.311   9.357 -1.3818 -0.5823  0.6462
  226MPD1    N1 3440   0.477   3.189   9.395  0.7655  0.7837  0.5760
  226MPD1    H6 3441   0.541   3.132   9.340  1.4171 -1.6104  3.7651
  226MPD1    H7 3442   0.419   3.118   9.440  0.6561  1.6459  1.8078
  227MPD1     C 3443   1.189   2.679   9.116  0.2190  0.0355  0.1748
  227MPD1    C1 3444   1.087   2.715   9.205  0.5710  0.6231 -0.7359
  227MPD1    C2 3445   1.112   2.833   9.271 -0.6549  0.5639  0.4912
  227MPD1    C3 3446   1.225   2.912   9.248 -1.0540  0.3146  0.6384
  227MPD1    C4 3447   1.318   2.880   9.162  0.0529  0.1530  0.4646
  227MPD1    C5 3448   1.302   2.758   9.104  0.5606  0.4075 -0.6486
  227MPD1     H 3449   1.039   2.857   9.348 -2.3018 -0.3467 -0.7657
  227MPD1    H1 3450   1.403   2.941   9.131 -0.0479 -0.6090 -1.3092
  227MPD1    H2 3451   1.175   2.592   9.053  0.3130 -1.1990  1.8311
  227MPD1    H3 3452   1.379   2.722   9.037 -0.8562 -1.5581 -1.2490
  227MPD1     N 3453   1.228   3.032   9.320 -0.0614 -0.7156  1.1504
  227MPD1    H5 3454   1.157   3.046   9.390 -1.2771  1.2497 -0.4456
  227MPD1    N1 3455   0.964   2.649   9.205  0.0974 -0.4512 -0.1081
  227MPD1    H6 3456   0.932   2.668   9.300 -0.9119  2.7342 -1.0908
  227MPD1    H7 3457   0.966   2.549   9.185 -2.6257 -0.5688  0.1136
  228MPD1     C 3458   0.742   2.067  12.640 -0.6124  0.4141  0.2600
  228MPD1    C1 3459   0.620   2.045  12.573 -0.4962  0.0657 -0.1285
  228MPD1    C2 3460   0.515   1.997  12.652  0.8190  0.1352 -0.1126
  228MPD1    C3 3461   0.518   1.993  12.788  0.1436 -0.0084  0.4538
  228MPD1    C4 3462   0.636   2.017  12.849  0.4428 -0.9023 -0.0100
  228MPD1    C5 3463   0.746   2.046  12.775 -0.2188 -0.2237  0.5845
  228MPD1     H 3464   0.426   1.964  12.599  0.7976  3.9563 -2.5311
  228MPD1    H1 3465   0.655   2.004  12.955  1.6857  2.0614  0.1260
  228MPD1    H2 3466   0.832   2.077  12.581  1.2651 -0.7742  2.9111
  228MPD1    H3 3467   0.839   2.040  12.830 -0.5431 -1.2800  1.0320
  228MPD1     N 3468   0.405   1.938  12.851 -0.3515 -0.0859  0.1931
  228MPD1    H5 3469   0.327   1.925  12.788 -0.4722  2.8909 -0.2977
  228MPD1    N1 3470   0.618   2.028  12.432 -0.2356 -0.0179 -0.7860
  228MPD1    H6 3471   0.687   2.084  12.383  2.7978 -0.8722  2.5059
  228MPD1    H7 3472   0.529   2.062  12.395 -0.4118  0.3233 -0.0472
  229MPD1     C 3473   0.403   0.156  14.779  0.1841 -0.2623  0.1876
  229MPD1    C1 3474   0.443   0.154  14.647 -0.4301 -0.9764  0.8739
  229MPD1    C2 3475   0.515   0.046  14.600  0.0160 -0.3843  0.4069
  229MPD1    C3 3476   0.548   4.668  14.689  0.4725  0.9245 -0.0876
  229MPD1    C4 3477   0.507   4.674  14.824 -0.0097 -0.5324  0.5127
  229MPD1    C5 3478   0.424   0.051  14.862 -0.0155 -0.0717 -0.0719
  229MPD1     H 3479   0.562   0.048  14.502 -0.1960  0.3632  0.3228
  229MPD1    H1 3480   0.516   4.589  14.891 -0.0059  0.1649  1.4081
  229MPD1    H2 3481   0.329   0.231  14.802 -0.4434 -0.8840  0.2152
  229MPD1    H3 3482   0.366   0.050  14.953  0.9151 -0.0527  0.5232
  229MPD1     N 3483   0.633   4.567  14.660  0.1151 -0.3041 -0.4646
  229MPD1    H5 3484   0.643   4.499  14.735 -0.8064 -2.1290 -1.9912
  229MPD1    N1 3485   0.430   0.275  14.578  0.2294 -0.5020 -0.5481
  229MPD1    H6 3486   0.448   0.266  14.478  0.3483 -0.6370 -0.5164
  229MPD1    H7 3487   0.351   0.335  14.599 -0.4740 -0.9746 -1.8631
  230MPD1     C 3488   0.905   3.928  15.159  0.5657 -0.5132 -0.3421
  230MPD1    C1 3489   0.778   3.979  15.131 -0.5420 -0.2396 -0.6357
  230MPD1    C2 3490   0.757   4.052  15.017  0.4292  0.0478 -0.1247
  230MPD1    C3 3491   0.857   4.067  14.921  0.2101  0.3432  0.6053
  230MPD1    C4 3492   0.984   4.015  14.943  0.5897 -0.3328 -0.3383
  230MPD1    C5 3493   1.009   3.951  15.062 -0.0937 -0.4596 -0.1022
  230MPD1     H 3494   0.660   4.093  14.994 -0.1735 -1.2671  0.1037
  230MPD1    H1 3495   1.065   4.020  14.873  2.0548  2.9721  1.5933
  230MPD1    H2 3496   0.925   3.871  15.249 -1.0664  1.4602  1.2815
  230MPD1    H3 3497   1.104   3.903  15.083  0.5680  1.7790  1.8525
  230MPD1     N 3498   0.820   4.131  14.799 -0.5123 -0.0803 -0.0240
  230MPD1    H5 3499   0.724   4.161  14.786  0.2214  3.0254  1.5000
  230MPD1    N1 3500   0.670   3.976  15.220  0.6106 -0.2500  0.2543
  230MPD1    H6 3501   0.579   3.989  15.176  2.8140  6.0257 -2.4023
  230MPD1    H7 3502   0.651   3.893  15.275  0.1025  0.1359  0.6640
  231MPD1     C 3503   3.101   1.987  15.855 -0.6294 -0.1596  0.7185
  231MPD1    C1 3504   3.134   1.906  15.754  0.7785  0.1830 -0.3056
  231MPD1    C2 3505   3.209   1.948  15.648 -0.4704 -0.1220 -0.7210
  231MPD1    C3 3506   3.248   2.079  15.639 -0.1635 -0.8885  0.2400
  231MPD1    C4 3507   3.211   2.161  15.742  0.5721  0.3165  0.0639
  231MPD1    C5 3508   3.134   2.114  15.845  0.2514 -0.1236 -0.0355
  231MPD1     H 3509   3.242   1.877  15.573 -0.2907 -0.5444 -0.2441
  231MPD1    H1 3510   3.224   2.268  15.736  4.5279 -0.1310  0.7869
  231MPD1    H2 3511   3.035   1.960  15.937 -1.1956 -0.1169  0.2755
  231MPD1    H3 3512   3.120   2.178  15.932 -0.4465  0.1833 -0.3715
  231MPD1     N 3513   3.320   2.120  15.524  0.5997 -0.2688 -0.4128
  231MPD1    H5 3514   3.315   2.058  15.443  1.5765  2.2062 -2.3642
  231MPD1    N1 3515   3.108   1.768  15.761 -0.1975 -0.5422 -0.3611
  231MPD1    H6 3516   3.036   1.749  15.830 -1.2793 -0.5784 -1.5057
  231MPD1    H7 3517   3.067   1.742  15.672  1.5044 -1.6741 -0.8075
  232MPD1     C 3518   1.254   0.476   0.533  0.5150  0.8111 -0.8472
  232MPD1    C1 3519   1.208   0.362   0.597 -0.2201 -0.1395 -0.0128
  232MPD1    C2 3520   1.070   0.323   0.577  0.5675 -0.1060  0.2806
  232MPD1    C3 3521   0.992   0.394   0.485 -0.3624 -0.0603 -0.3741
  232MPD1    C4 3522   1.048   0.494   0.408 -0.2318 -0.2969 -0.0023
  232MPD1    C5 3523   1.182   0.526   0.428  0.2347  0.3597  0.0819
  232MPD1     H 3524   1.024   0.240   0.631  1.0096 -1.1840 -1.0070
  232MPD1    H1 3525   0.998   0.544   0.325  0.3589  3.0977  1.6735
  232MPD1    H2 3526   1.353   0.513   0.559  0.4607  1.0778 -1.0250
  232MPD1    H3 3527   1.222   0.601   0.361  1.4463  2.0484  2.6976
  232MPD1     N 3528   0.856   0.363   0.474  0.5346 -0.1448  0.3019
  232MPD1    H5 3529   0.817   0.304   0.546 -0.0347 -0.3977 -0.2218
  232MPD1    N1 3530   1.284   0.291   0.696 -0.0344 -0.0873  0.3430
  232MPD1    H6 3531   1.243   0.204   0.728 -1.6613  0.6620  0.2915
  232MPD1    H7 3532   1.379   0.275   0.665  0.0798  0.5790  0.3373
  233MPD1     C 3533   2.893   1.085   2.445  0.1955 -0.2159 -0.1056
  233MPD1    C1 3534   2.992   0.998   2.400  0.0726  0.0307  0.1325
  233MPD1    C2 3535   3.098   1.058   2.342  0.3038  0.1065  0.9741
  233MPD1    C3 3536   3.100   1.189   2.299 -0.8063 -0.0969 -0.6936
  233MPD1    C4 3537   3.000   1.270   2.340  0.6836  0.2795 -1.5450
  233MPD1    C5 3538   2.899   1.219   2.417 -0.0278 -0.1286 -0.3162
  233MPD1     H 3539   3.181   0.991   2.323 -1.8292 -2.1183 -0.5649
  233MPD1    H1 3540   2.987   1.374   2.312 -1.6273  1.1181  2.6843
  233MPD1    H2 3541   2.800   1.054   2.490 -0.5381 -0.5833 -1.8484
  233MPD1    H3 3542   2.818   1.286   2.442  1.4303  1.3669  0.3455
  233MPD1     N 3543   3.201   1.242   2.217 -0.1070  0.1290  0.1004
  233MPD1    H5 3544   3.187   1.331   2.170 -1.6141 -1.3392 -2.2615
  233MPD1    N1 3545   2.997   0.865   2.447 -0.0355 -0.3326  0.2669
  233MPD1    H6 3546   3.066   0.807   2.400  0.5996 -0.1836  1.0117
  233MPD1    H7 3547   2.906   0.825   2.425 -0.4947 -0.0593  1.6547
  234MPD1     C 3548   2.484   0.405   9.664  0.6551 -0.5516 -0.5289
  234MPD1    C1 3549   2.574   0.518   9.675 -0.0332  0.0487 -0.5666
  234MPD1    C2 3550   2.538   0.619   9.593  0.5443  0.8854  0.1001
  234MPD1    C3 3551   2.419   0.626   9.524 -0.1119 -0.0544  0.0504
  234MPD1    C4 3552   2.321   0.525   9.539 -0.3313 -0.2093 -0.4696
  234MPD1    C5 3553   2.358   0.412   9.609 -0.0284 -0.1135 -0.1468
  234MPD1     H 3554   2.604   0.701   9.566 -0.0520  1.3729  0.1240
  234MPD1    H1 3555   2.221   0.528   9.500 -0.5222  0.6993  0.0855
  234MPD1    H2 3556   2.508   0.307   9.702 -1.8604 -1.7707 -2.1113
  234MPD1    H3 3557   2.293   0.325   9.610  2.2699 -1.8419 -0.5893
  234MPD1     N 3558   2.400   0.741   9.445 -0.1311 -0.3850  0.3562
  234MPD1    H5 3559   2.473   0.810   9.432  0.6336 -1.4653 -1.1324
  234MPD1    N1 3560   2.708   0.501   9.725  0.4347  1.0059 -0.8523
  234MPD1    H6 3561   2.750   0.589   9.756 -0.4286  1.1392 -0.0411
  234MPD1    H7 3562   2.719   0.427   9.793 -0.0650  1.9909  0.3076
  235MPD1     C 3563   3.869   3.795  10.362 -0.4397 -0.0482 -0.4967
  235MPD1    C1 3564   3.862   3.850  10.236  0.0326 -0.3033  0.5234
  235MPD1    C2 3565   3.962   3.939  10.193 -0.5715  0.9697  0.8472
  235MPD1    C3 3566   4.070   3.969  10.270 -0.0580 -0.1079 -0.4923
  235MPD1    C4 3567   4.071   3.913  10.396 -0.9709  0.1112  1.2460
  235MPD1    C5 3568   3.969   3.840  10.442  1.1329 -0.0108 -0.0061
  235MPD1     H 3569   3.961   3.977  10.092  3.0313 -1.5093 -0.1109
  235MPD1    H1 3570   4.144   3.943  10.470  1.6252 -3.1869  0.0085
  235MPD1    H2 3571   3.799   3.721  10.398  0.2214 -0.6634 -0.4711
  235MPD1    H3 3572   3.960   3.819  10.548 -1.9373  1.9128  0.1101
  235MPD1     N 3573   4.168   4.054  10.219 -0.1779  0.0256 -0.0770
  235MPD1    H5 3574   4.157   4.095  10.127 -0.0001  0.5628  0.1407
  235MPD1    N1 3575   3.738   3.830  10.171  1.0517  0.0824 -0.0595
  235MPD1    H6 3576   3.757   3.809  10.073  1.0613 -1.5585  0.2879
  235MPD1    H7 3577   3.681   3.757  10.214 -0.0834  0.2377 -1.2931
  236MPD1     C 3578   3.660   0.230   9.881  0.6095  0.6392 -0.1816
  236MPD1    C1 3579   3.678   0.340   9.960 -1.1793 -0.0121 -0.6709
  236MPD1    C2 3580   3.698   0.322  10.093  0.3205 -0.3621 -0.0733
  236MPD1    C3 3581   3.693   0.196  10.148  0.4024 -0.3050  0.0731
  236MPD1    C4 3582   3.665   0.088  10.067  0.0077 -0.1280 -0.4549
  236MPD1    C5 3583   3.642   0.103   9.933  0.1834 -0.5787 -1.1336
  236MPD1     H 3584   3.722   0.415  10.145 -1.8946 -0.7322  1.6116
  236MPD1    H1 3585   3.652   4.710  10.104 -0.2769 -0.6053 -1.8458
  236MPD1    H2 3586   3.639   0.238   9.775  1.0702 -0.7407 -0.3822
  236MPD1    H3 3587   3.620   0.013   9.875 -2.0239 -1.8817  1.7271
  236MPD1     N 3588   3.735   0.172  10.280 -0.8849  0.2014  0.2376
  236MPD1    H5 3589   3.750   0.078  10.315 -1.3409 -1.1468 -3.2319
  236MPD1    N1 3590   3.710   0.466   9.902  0.1877 -0.0018 -1.0167
  236MPD1    H6 3591   3.689   0.544   9.964  0.9194  1.3231 -2.4439
  236MPD1    H7 3592   3.673   0.489   9.810  0.2337  0.9226 -0.8088
  237MPD1     C 3593   4.025   3.984  15.096  0.0253 -0.0273 -0.0436
  237MPD1    C1 3594   4.051   3.861  15.038  0.0280  0.2881  0.4297
  237MPD1    C2 3595   3.938   3.779  15.022  0.1694  0.2011 -0.4524
  237MPD1    C3 3596   3.817   3.811  15.073 -0.4496 -0.3170 -0.3614
  237MPD1    C4 3597   3.795   3.928  15.140 -0.1632 -0.0813  0.4094
  237MPD1    C5 3598   3.901   4.018  15.145  1.1506 -0.3348 -0.1551
  237MPD1     H 3599   3.954   3.690  14.962 -0.9706  0.5608 -1.2796
  237MPD1    H1 3600   3.702   3.931  15.196  0.7013  1.0687  1.7832
  237MPD1    H2 3601   4.113   4.043  15.120 -1.1823  2.4172 -1.6232
  237MPD1    H3 3602   3.893   4.110  15.201  2.0450 -0.1415 -0.3439
  237MPD1     N 3603   3.712   3.715  15.066  0.0108  0.5308  0.4702
  237MPD1    H5 3604   3.636   3.730  15.132  1.0678 -0.3077  1.8776
  237MPD1    N1 3605   4.168   3.841  14.958  0.0281  0.5494  0.1652
  237MPD1    H6 3606   4.252   3.888  14.992 -0.0790  0.3989  0.6420
  237MPD1    H7 3607   4.195   3.744  14.945  0.2007  0.5074  0.8065
  238MPD1     C 3608   1.189   2.175  14.763  0.4163  0.2395  1.1566
  238MPD1    C1 3609   1.149   2.077  14.848 -0.1072 -0.2158  0.2035
  238MPD1    C2 3610   1.014   2.066  14.876  0.1011  0.1644 -0.0360
  238MPD1    C3 3611   0.917   2.136  14.804 -0.2293 -0.0633  0.7711
  238MPD1    C4 3612   0.960   2.227  14.714 -0.3269  0.1200 -0.4314
  238MPD1    C5 3613   1.094   2.253  14.700 -0.0427  0.6427  0.5780
  238MPD1     H 3614   0.983   1.983  14.939 -1.5200  1.2892  0.6583
  238MPD1    H1 3615   0.893   2.284  14.650 -0.2718 -0.3098 -0.8732
  238MPD1    H2 3616   1.295   2.182  14.738  0.6867 -0.8066  1.9959
  238MPD1    H3 3617   1.128   2.319  14.621 -0.8390 -1.1428 -1.2434
  238MPD1     N 3618   0.780   2.117  14.812  0.9859  0.2306  0.0518
  238MPD1    H5 3619   0.724   2.165  14.741 -0.6213 -1.4438  0.1870
  238MPD1    N1 3620   1.247   2.007  14.922 -0.0305 -0.2673 -0.3534
  238MPD1    H6 3621   1.224   1.915  14.960 -0.1376  0.1536  0.6156
  238MPD1    H7 3622   1.338   2.005  14.878  1.0181  1.1015  1.7374
  239MPD1     C 3623   0.834   3.066  14.985  0.2689 -0.1749 -0.3701
  239MPD1    C1 3624   0.945   3.103  14.910 -0.2330 -0.5298  0.0387
  239MPD1    C2 3625   0.941   3.166  14.783 -0.1803 -0.2818  0.3189
  239MPD1    C3 3626   0.817   3.186  14.724 -0.0444 -0.0402  0.2828
  239MPD1    C4 3627   0.710   3.148  14.796 -0.5071  0.4047  0.3204
  239MPD1    C5 3628   0.717   3.092  14.921 -0.2991 -0.4346 -0.1806
  239MPD1     H 3629   1.030   3.206  14.736 -0.4866  2.3483  1.9902
  239MPD1    H1 3630   0.614   3.160  14.748 -0.0268 -0.4241 -0.8755
  239MPD1    H2 3631   0.842   3.031  15.088  4.2055  1.7482 -0.0072
  239MPD1    H3 3632   0.622   3.085  14.974  0.3272 -3.0552  0.6055
  239MPD1     N 3633   0.796   3.240  14.598  0.2293 -0.6104 -0.2755
  239MPD1    H5 3634   0.700   3.263  14.576 -0.4413 -2.5566  0.6926
  239MPD1    N1 3635   1.073   3.101  14.972  0.1625 -0.0749  0.5267
  239MPD1    H6 3636   1.145   3.087  14.901  1.0275  0.4586  1.3084
  239MPD1    H7 3637   1.086   3.035  15.048  2.3690  0.5454  0.6742
  240MPD1     C 3638   0.747   2.633  14.585 -0.1116  0.3531 -0.1597
  240MPD1    C1 3639   0.617   2.678  14.588  0.0831  0.0219  0.3889
  240MPD1    C2 3640   0.536   2.615  14.676 -0.1970  1.1481 -0.1140
  240MPD1    C3 3641   0.575   2.517  14.766  0.2406 -0.3005 -0.5443
  240MPD1    C4 3642   0.708   2.478  14.758 -0.3688  0.0557 -0.2319
  240MPD1    C5 3643   0.788   2.536  14.665  0.2189  0.5108  0.2281
  240MPD1     H 3644   0.432   2.645  14.669 -0.1575  0.6935 -2.6354
  240MPD1    H1 3645   0.747   2.404  14.827  0.0209 -0.3436 -0.8843
  240MPD1    H2 3646   0.813   2.667  14.506  0.1503 -3.0851 -1.3959
  240MPD1    H3 3647   0.887   2.492  14.657 -0.1959 -0.3484 -0.1052
  240MPD1     N 3648   0.481   2.435  14.831  0.1952  0.0875 -0.1900
  240MPD1    H5 3649   0.383   2.457  14.812  0.4052  2.9054  1.9934
  240MPD1    N1 3650   0.573   2.777  14.500  0.6391 -0.3879 -0.1730
  240MPD1    H6 3651   0.648   2.841  14.475 -2.0094  1.4741 -3.3999
  240MPD1    H7 3652   0.527   2.738  14.418  0.3717 -0.2432 -0.0916
  241MPD1     C 3653   0.585   1.899  15.679  0.2181 -0.1251  0.1976
  241MPD1    C1 3654   0.469   1.841  15.625 -0.0386  0.4175  0.4039
  241MPD1    C2 3655   0.398   1.908  15.522 -0.2017  0.3334  0.0314
  241MPD1    C3 3656   0.451   2.024  15.463  1.3668 -0.1966 -0.1138
  241MPD1    C4 3657   0.557   2.076  15.517 -0.0126  0.0805  0.3454
  241MPD1    C5 3658   0.618   2.020  15.628  0.8452 -0.4658 -0.4485
  241MPD1     H 3659   0.305   1.869  15.484  0.5149 -0.2602 -1.1035
  241MPD1    H1 3660   0.587   2.176  15.489 -0.2433  0.1043  0.1844
  241MPD1    H2 3661   0.648   1.862  15.760  2.0273 -2.3866 -2.2769
  241MPD1    H3 3662   0.693   2.082  15.675 -0.9087  0.7312  0.7813
  241MPD1     N 3663   0.397   2.098  15.351 -0.6899  0.0476 -0.3540
  241MPD1    H5 3664   0.445   2.181  15.318  1.0839 -0.5698  0.7226
  241MPD1    N1 3665   0.408   1.729  15.691 -0.1337 -0.2322  0.3009
  241MPD1    H6 3666   0.369   1.661  15.626  0.0014 -0.5032  0.5045
  241MPD1    H7 3667   0.479   1.673  15.738 -1.5462 -0.5247  2.0668
  242MPD1     C 3668   4.183   0.686  15.806  0.8654 -0.3055  0.2750
  242MPD1    C1 3669   4.239   0.814  15.823 -0.7844 -0.5401  0.0440
  242MPD1    C2 3670   4.291   0.871  15.709 -0.1638  0.2650  0.5701
  242MPD1    C3 3671   4.284   0.811  15.585  0.1995 -0.0804 -0.2099
  242MPD1    C4 3672   4.220   0.693  15.570  0.2174 -0.0800  0.6266
  242MPD1    C5 3673   4.170   0.632  15.681 -0.7572  0.2702  0.4217
  242MPD1     H 3674   4.321   0.975  15.706  1.1276 -0.0412  2.3879
  242MPD1    H1 3675   4.200   0.655  15.471  0.0136 -2.5686  1.6170
  242MPD1    H2 3676   4.132   0.647  15.894 -2.2661 -0.8979 -1.8103
  242MPD1    H3 3677   4.116   0.539  15.666 -1.3147  0.5262  0.8838
  242MPD1     N 3678   4.352   0.872  15.470 -0.0769 -0.1885 -0.1438
  242MPD1    H5 3679   4.347   0.819  15.383 -1.6264 -0.0472 -0.1294
  242MPD1    N1 3680   4.259   0.867  15.952 -0.3917 -0.1480  0.4298
  242MPD1    H6 3681   4.275   0.967  15.947 -2.6997  0.2986  1.9928
  242MPD1    H7 3682   4.185   0.850  16.019 -0.2853 -1.3907  0.2342
  243MPD1     C 3683   0.726   4.416   0.408  0.4982 -0.3389  0.0296
  243MPD1    C1 3684   0.847   4.359   0.442  0.1770 -0.2625  0.3701
  243MPD1    C2 3685   0.933   4.348   0.334 -0.1746  0.5118 -0.1490
  243MPD1    C3 3686   0.894   4.392   0.203  0.0083 -0.8900  0.5734
  243MPD1    C4 3687   0.770   4.454   0.182  0.9913  0.0494 -0.0640
  243MPD1    C5 3688   0.692   4.466   0.285  0.1206 -0.8183  0.2263
  243MPD1     H 3689   1.030   4.299   0.335  0.1354  1.1608  0.6553
  243MPD1    H1 3690   0.750   4.496   0.084 -1.3316  0.6109  0.6537
  243MPD1    H2 3691   0.655   4.434   0.488 -0.5553  0.5134 -1.0960
  243MPD1    H3 3692   0.593   4.502   0.263  1.0156  0.6122 -1.4372
  243MPD1     N 3693   0.987   4.369   0.097 -0.1020  0.3496 -0.5301
  243MPD1    H5 3694   1.085   4.371   0.121  0.4110  1.9495 -2.8090
  243MPD1    N1 3695   0.856   4.289   0.565 -0.2491 -0.1617  0.2068
  243MPD1    H6 3696   0.952   4.263   0.588 -0.0932 -0.3792 -0.7166
  243MPD1    H7 3697   0.806   4.347   0.633  1.0936 -0.9558  1.8607
  244MPD1     C 3698   1.402   3.512  17.530 -0.4893  0.1380 -0.7732
  244MPD1    C1 3699   1.378   3.573  17.408  0.6907  0.1175  0.4629
  244MPD1    C2 3700   1.340   3.707  17.411  0.1876 -0.1266 -0.2796
  244MPD1    C3 3701   1.320   3.774  17.528 -0.3811 -0.0258 -0.1762
  244MPD1    C4 3702   1.335   3.708  17.643  0.3049 -0.0609  0.1505
  244MPD1    C5 3703   1.373   3.579  17.644 -0.3340  0.1453 -0.6511
  244MPD1     H 3704   1.315   3.752  17.315 -0.5321 -1.0855 -0.5424
  244MPD1    H1 3705   1.324   3.745   0.050 -1.6570  0.2639 -0.1735
  244MPD1    H2 3706   1.453   3.416  17.530 -0.2902  0.2630  2.6499
  244MPD1    H3 3707   1.401   3.532   0.044 -0.6608 -2.6792 -1.9876
  244MPD1     N 3708   1.287   3.907  17.513 -0.0092  0.6906  0.2875
  244MPD1    H5 3709   1.291   3.940  17.418  2.5418 -0.5767 -0.0373
  244MPD1    N1 3710   1.422   3.498  17.297 -0.0850  0.4409 -0.5931
  244MPD1    H6 3711   1.370   3.517  17.212 -0.8103 -1.5959 -0.5997
  244MPD1    H7 3712   1.423   3.398  17.316  0.7661  0.0184 -2.9209
  245MPD1     C 3713   3.095   4.567  13.617  0.6489  0.4994  0.2075
  245MPD1    C1 3714   3.161   4.609  13.732  0.0372  0.2626 -0.4978
  245MPD1    C2 3715   3.263   4.696  13.721 -0.0652  0.1276 -0.1886
  245MPD1    C3 3716   3.302   0.020  13.603 -0.1089  0.2638 -0.4268
  245MPD1    C4 3717   3.234   4.705  13.486 -0.3578  0.5151 -0.0413
  245MPD1    C5 3718   3.136   4.610  13.491 -0.5396 -0.4353 -0.1405
  245MPD1     H 3719   3.305   0.021  13.809  0.9734  2.2796 -1.8565
  245MPD1    H1 3720   3.255   0.016  13.386  2.2881 -0.5189  0.1574
  245MPD1    H2 3721   3.023   4.486  13.625  0.4217  0.7180  0.3876
  245MPD1    H3 3722   3.088   4.591  13.396  0.4929 -1.3696 -0.4640
  245MPD1     N 3723   3.408   0.109  13.603 -0.5389 -0.0834 -0.2934
  245MPD1    H5 3724   3.445   0.117  13.697 -1.6981 -1.6711  0.2880
  245MPD1    N1 3725   3.122   4.547  13.851  0.2597  0.4587  0.3018
  245MPD1    H6 3726   3.162   4.592  13.933  1.4389  0.0268 -0.0260
  245MPD1    H7 3727   3.024   4.522  13.863  0.2588 -0.9500 -2.6508
  246MPD1     C 3728   1.641   1.716   8.821 -0.0106 -0.0445 -0.4833
  246MPD1    C1 3729   1.563   1.609   8.821  0.2837  0.0249  0.0727
  246MPD1    C2 3730   1.632   1.490   8.821 -0.4898  0.2696  0.4000
  246MPD1    C3 3731   1.766   1.481   8.837 -0.1029  0.0803  0.1685
  246MPD1    C4 3732   1.838   1.592   8.870 -0.3884 -0.4499 -0.5265
  246MPD1    C5 3733   1.775   1.708   8.858  0.2197 -0.2247 -0.1971
  246MPD1     H 3734   1.568   1.405   8.797 -0.6404 -0.1154  2.1456
  246MPD1    H1 3735   1.946   1.586   8.880 -0.5167 -2.1659 -0.1447
  246MPD1    H2 3736   1.595   1.814   8.810 -0.1464 -0.1078 -0.4768
  246MPD1    H3 3737   1.832   1.801   8.856  0.6405 -0.4778  0.0416
  246MPD1     N 3738   1.825   1.354   8.828  0.0816  0.6384  0.2488
  246MPD1    H5 3739   1.763   1.276   8.810  0.0778  0.0346  2.8121
  246MPD1    N1 3740   1.429   1.626   8.789 -0.2267 -0.1809 -0.5082
  246MPD1    H6 3741   1.375   1.545   8.817  1.4776 -0.3099  2.4693
  246MPD1    H7 3742   1.384   1.703   8.839 -0.4485 -0.6428 -0.0050
  247MPD1     C 3743   1.521   4.583  15.990  0.6546  0.0711 -0.0329
  247MPD1    C1 3744   1.613   4.682  15.994 -0.1479 -0.2042  0.3484
  247MPD1    C2 3745   1.732   4.660  15.936  0.4416 -0.4239  0.2913
  247MPD1    C3 3746   1.756   4.554  15.850  0.9539  0.2512 -0.1620
  247MPD1    C4 3747   1.656   4.459  15.828 -0.0460  0.6889  0.4684
  247MPD1    C5 3748   1.540   4.475  15.906  0.0201 -0.6605 -0.9584
  247MPD1     H 3749   1.812   0.005  15.965 -0.3786  0.2488  0.9720
  247MPD1    H1 3750   1.679   4.377  15.761  0.8565  1.2292  0.1097
  247MPD1    H2 3751   1.421   4.593  16.032  0.8472 -0.3162  0.5119
  247MPD1    H3 3752   1.463   4.399  15.906  1.6721 -2.3544  2.5347
  247MPD1     N 3753   1.881   4.540  15.785 -0.4535 -0.3544 -0.2468
  247MPD1    H5 3754   1.884   4.458  15.725  0.3612 -0.3232 -0.2427
  247MPD1    N1 3755   1.602   0.061  16.085  0.0695  0.2280 -0.0333
  247MPD1    H6 3756   1.506   0.093  16.099 -0.1652  0.4461 -2.1323
  247MPD1    H7 3757   1.663   0.142  16.078 -0.8482  0.9994  0.7323
  248MPD1     C 3758   3.012   3.257   0.493  0.3902  0.0129 -0.1593
  248MPD1    C1 3759   3.117   3.309   0.565 -0.6085  0.0541  0.1406
  248MPD1    C2 3760   3.108   3.446   0.605 -0.3071 -1.1565 -0.2770
  248MPD1    C3 3761   3.002   3.525   0.565 -0.3734 -0.2351  0.2871
  248MPD1    C4 3762   2.894   3.459   0.519  0.2422  0.1607 -0.5377
  248MPD1    C5 3763   2.899   3.328   0.484 -0.2812 -0.1447 -0.3085
  248MPD1     H 3764   3.204   3.488   0.631 -0.9728 -0.2697  0.7699
  248MPD1    H1 3765   2.803   3.513   0.496  0.8597  1.7375  0.7279
  248MPD1    H2 3766   3.022   3.156   0.456 -0.4936 -0.3593  0.6094
  248MPD1    H3 3767   2.814   3.284   0.433  0.1807 -1.5634  0.1425
  248MPD1     N 3768   3.009   3.665   0.580 -0.5735 -0.2858  0.7323
  248MPD1    H5 3769   3.092   3.703   0.625  0.1545 -0.8775 -0.1155
  248MPD1    N1 3770   3.245   3.248   0.565 -0.5256 -0.2077 -0.2357
  248MPD1    H6 3771   3.303   3.278   0.643 -0.6121  0.7887 -0.5417
  248MPD1    H7 3772   3.231   3.148   0.559  0.0044 -0.2447 -0.8480
  249MPD1     C 3773   4.411   3.028  10.364  0.3105  0.0143  0.6904
  249MPD1    C1 3774   4.475   3.140  10.333  0.6856  0.0314 -0.0907
  249MPD1    C2 3775   4.442   3.211  10.218  0.5178 -0.1896  0.1334
  249MPD1    C3 3776   4.337   3.169  10.132  0.2068 -0.0420  0.1478
  249MPD1    C4 3777   4.276   3.047  10.168  0.0802  0.1552  0.2077
  249MPD1    C5 3778   4.316   2.978  10.278 -0.3224  0.2781 -0.1002
  249MPD1     H 3779   4.489   3.307  10.201  0.1779  0.4094  2.5272
  249MPD1    H1 3780   4.209   2.997  10.098  0.2599 -0.5262  0.5246
  249MPD1    H2 3781   4.435   2.974  10.455 -1.4280 -0.0328  1.1135
  249MPD1    H3 3782   4.267   2.883  10.299  1.6519 -0.9360 -0.9503
  249MPD1     N 3783   4.305   3.249  10.015 -0.0601  0.1054 -0.0937
  249MPD1    H5 3784   4.369   3.325   9.992  1.5133 -0.1297  3.4428
  249MPD1    N1 3785   4.558   3.205  10.421 -0.2243 -0.5109 -0.2475
  249MPD1    H6 3786   4.606   3.143  10.486  0.4320  0.0485 -0.1990
  249MPD1    H7 3787   4.614   3.282  10.385  0.9216 -1.1163  0.2473
  250MPD2     C 3788   1.853   3.526  12.962 -0.2402 -0.5549  0.3999
  250MPD2    C1 3789   1.771   3.597  12.875 -0.0255  0.2776  0.3764
  250MPD2    C2 3790   1.666   3.528  12.820 -0.1713 -0.1434  0.9598
  250MPD2    C3 3791   1.642   3.392  12.850  0.0006  0.4484 -0.2729
  250MPD2    C4 3792   1.711   3.335  12.952  0.4024  0.0317 -0.5099
  250MPD2    C5 3793   1.812   3.403  13.009 -0.1949  0.2369  0.6945
  250MPD2     H 3794   1.613   3.572  12.736  1.0209 -2.4875 -1.0086
  250MPD2    H1 3795   1.685   3.237  12.988 -2.7465  0.2834 -2.1092
  250MPD2    H2 3796   1.935   3.569  13.019  0.4310 -1.0549 -0.1899
  250MPD2    H3 3797   1.860   3.372  13.101  0.7334 -0.4239 -0.0150
  250MPD2     N 3798   1.553   3.310  12.778 -0.7909  0.3136 -0.6830
  250MPD2    H5 3799   1.562   3.214  12.810 -0.8117  0.6732  0.4132
  250MPD2    N1 3800   1.788   3.739  12.852  0.1894 -0.3778  0.1462
  250MPD2    H7 3801   1.869   3.787  12.891 -0.3023  0.5106  0.0732
  251TMC3    C1 3802   1.713   3.953  12.797  0.4730  0.7407  0.1749
  251TMC3    C2 3803   1.634   4.037  12.866  0.8719  0.1847 -0.5093
  251TMC3    C3 3804   1.689   4.162  12.896 -0.5418 -0.4284 -0.3113
  251TMC3    C4 3805   1.835   3.990  12.762  0.2727 -0.1798  0.5063
  251TMC3    C5 3806   1.889   4.108  12.790  0.2915  0.5956 -0.7963
  251TMC3    C6 3807   1.819   4.200  12.859  0.6186 -0.1455 -0.1233
  251TMC3     C 3808   1.680   3.812  12.810  0.0317 -0.1538  0.0977
  251TMC3     O 3809   1.563   3.786  12.787 -0.0066 -0.4575 -0.1546
  251TMC3     H 3810   1.533   4.007  12.895 -0.1797  1.2518 -3.0838
  251TMC3    H1 3811   1.893   3.914  12.711 -1.0785  0.0512 -1.3749
  251TMC3    H2 3812   1.859   4.298  12.883 -0.2697 -0.1531  1.4390
  251TMC3    C7 3813   2.034   4.123  12.789  1.0766  0.2710  0.1991
  251TMC3    C8 3814   1.602   4.262  12.950  0.9463  0.1281 -0.7919
  251TMC3    O1 3815   2.094   4.021  12.754 -0.4527 -0.4431 -0.0661
  251TMC3    O2 3816   1.482   4.243  12.947  0.4377 -0.1010  0.4023
  252TMC3    C1 3817   1.243   0.096   9.169 -0.8714  0.0137 -0.5209
  252TMC3    C2 3818   1.375   0.136   9.154 -0.2966 -0.2722 -0.1067
  252TMC3    C3 3819   1.467   0.036   9.189  0.2971 -0.8978 -0.1409
  252TMC3    C4 3820   1.208   4.698   9.219  0.0915  0.6955 -0.5123
  252TMC3    C5 3821   1.305   4.606   9.245  0.7907 -0.4868  0.1377
  252TMC3    C6 3822   1.437   4.636   9.238 -0.5519  0.2334 -0.4593
  252TMC3     C 3823   1.129   0.190   9.152  0.8994 -0.1467  0.4676
  252TMC3     O 3824   1.016   0.150   9.118 -0.0447 -0.5571 -0.4528
  252TMC3     H 3825   1.414   0.231   9.121  0.8669 -0.6739  0.1107
  252TMC3    H1 3826   1.105   4.667   9.228  0.5862  0.0229  2.8659
  252TMC3    H2 3827   1.510   4.557   9.243 -1.2118 -0.3947 -0.8428
  252TMC3    C7 3828   1.260   4.467   9.252  0.2199  0.5519 -0.0170
  252TMC3    C8 3829   1.601   0.077   9.206 -0.3536 -0.3785  0.4000
  252TMC3    O1 3830   1.146   4.446   9.217 -0.0617 -0.5020 -0.2323
  252TMC3    O2 3831   1.632   0.162   9.125  0.3702 -0.2442  0.3398
  253MPD2     C 3832   2.846   3.270  14.979  0.4153  0.5574  0.5777
  253MPD2    C1 3833   2.708   3.261  14.963 -0.6898  0.1646 -0.4565
  253MPD2    C2 3834   2.629   3.317  15.061 -0.1632  0.8977  0.3703
  253MPD2    C3 3835   2.672   3.403  15.158  0.4234 -0.5374 -0.7410
  253MPD2    C4 3836   2.808   3.415  15.166 -0.0842 -0.1987  0.1726
  253MPD2    C5 3837   2.892   3.351  15.082  0.1358 -1.0854  0.0802
  253MPD2     H 3838   2.521   3.309  15.049  0.2800 -3.4793 -0.4548
  253MPD2    H1 3839   2.848   3.490  15.234 -0.6917 -0.3030  0.6309
  253MPD2    H2 3840   2.919   3.223  14.915  0.2231 -0.0705  0.8174
  253MPD2    H3 3841   2.998   3.359  15.098  0.1526  0.6656 -0.9745
  253MPD2     N 3842   2.588   3.458  15.257 -0.5036 -0.8455 -0.3915
  253MPD2    H5 3843   2.638   3.509  15.328  1.2982 -2.4783 -0.5007
  253MPD2    N1 3844   2.658   3.199  14.847  0.4854  0.4804  0.1359
  253MPD2    H7 3845   2.556   3.194  14.840  0.6642 -2.6920 -0.1462
  254TMC3    C1 3846   2.425   3.463  15.416  0.8799 -0.4140 -0.0461
  254TMC3    C2 3847   2.292   3.499  15.433 -0.4696  0.0745 -0.5571
  254TMC3    C3 3848   2.244   3.537  15.555  0.0110  0.6071  0.2979
  254TMC3    C4 3849   2.518   3.501  15.511 -0.4224 -0.4931  0.0410
  254TMC3    C5 3850   2.465   3.539  15.638  0.1369  0.2739  0.3894
  254TMC3    C6 3851   2.334   3.556  15.662  0.5266  0.1627  0.0988
  254TMC3     C 3852   2.459   3.422  15.281  0.6491  0.4185 -0.9645
  254TMC3     O 3853   2.382   3.344  15.223  0.3392  0.1014  0.4127
  254TMC3     H 3854   2.222   3.481  15.351 -0.0425 -1.5557 -0.5738
  254TMC3    H1 3855   2.622   3.472  15.498 -0.9096 -1.4944 -1.5132
  254TMC3    H2 3856   2.293   3.583  15.759 -0.9866 -0.0722 -0.4837
  254TMC3    C7 3857   2.558   3.563  15.748 -0.6507 -0.1685  0.3594
  254TMC3    C8 3858   2.134   3.627  15.549 -0.2396 -0.0205 -0.0300
  254TMC3    O1 3859   2.514   3.570  15.863 -0.4758 -0.3151 -0.1488
  254TMC3    O2 3860   2.109   3.687  15.443 -0.5037  0.0281  0.2051
  255MPD2     C 3861   1.606   1.129  10.876  0.0768 -0.0527  0.1968
  255MPD2    C1 3862   1.612   1.122  10.740  0.8174  0.3445 -0.0398
  255MPD2    C2 3863   1.618   0.999  10.677  0.4716 -0.0314 -0.4323
  255MPD2    C3 3864   1.620   0.887  10.753  0.3551  0.2232 -0.4883
  255MPD2    C4 3865   1.617   0.892  10.892  0.1811  0.8211  0.1217
  255MPD2    C5 3866   1.606   1.012  10.955 -0.2461 -0.0732 -0.9129
  255MPD2     H 3867   1.601   0.989  10.570 -3.4549 -0.6176  0.2272
  255MPD2    H1 3868   1.627   0.805  10.955 -0.7157  0.9731  0.4701
  255MPD2    H2 3869   1.594   1.225  10.924 -1.4104  0.1792 -0.6544
  255MPD2    H3 3870   1.605   1.021  11.063 -0.8767  1.7458 -1.0657
  255MPD2     N 3871   1.632   0.766  10.686  0.6160 -0.0696 -0.2252
  255MPD2    H5 3872   1.655   0.767  10.587 -0.8559 -0.0876 -0.5647
  255MPD2    N1 3873   1.570   1.231  10.662  0.1686  0.1236  0.1155
  255MPD2    H7 3874   1.520   1.307  10.707  0.5428  0.5825 -0.2438
  256TMC3    C1 3875   1.472   1.314  10.484  0.6648 -0.4358  0.6067
  256TMC3    C2 3876   1.470   1.447  10.503 -0.5820  0.6614  0.1688
  256TMC3    C3 3877   1.356   1.512  10.454  0.0161 -0.1340  0.0321
  256TMC3    C4 3878   1.374   1.250  10.410  0.6994  0.0819  0.8327
  256TMC3    C5 3879   1.270   1.324  10.359 -1.0213 -0.1971 -0.3326
  256TMC3    C6 3880   1.266   1.459  10.365  1.1437 -0.2325 -0.0962
  256TMC3     C 3881   1.577   1.231  10.531  0.2211 -0.6431  0.6943
  256TMC3     O 3882   1.646   1.169  10.453 -0.3112  0.0500 -0.0710
  256TMC3     H 3883   1.542   1.494  10.569  1.1620  0.3814 -1.5190
  256TMC3    H1 3884   1.366   1.143  10.397 -1.4606  0.0378  2.3901
  256TMC3    H2 3885   1.181   1.517  10.330 -0.3062 -0.3032  3.2657
  256TMC3    C7 3886   1.164   1.252  10.278 -0.1631  0.2675  0.0596
  256TMC3    C8 3887   1.332   1.651  10.497 -0.4745  0.9691 -0.0921
  256TMC3    O1 3888   1.139   1.139  10.310  0.2806  0.5162  0.1735
  256TMC3    O2 3889   1.383   1.687  10.603  0.1463 -0.4008 -0.3740
  257MPD2     C 3890   0.507   3.723  12.993  0.4201  0.4808 -0.1144
  257MPD2    C1 3891   0.453   3.608  12.933 -0.0396 -0.4198 -0.2240
  257MPD2    C2 3892   0.429   3.499  13.017 -0.2470 -0.2299  0.2171
  257MPD2    C3 3893   0.459   3.502  13.150  0.0536 -0.0592 -0.2833
  257MPD2    C4 3894   0.501   3.619  13.206  0.2261  0.2464 -0.6715
  257MPD2    C5 3895   0.526   3.728  13.128 -0.1493 -0.7030  0.7474
  257MPD2     H 3896   0.392   3.406  12.977  0.5702 -0.6306  0.3968
  257MPD2    H1 3897   0.516   3.637  13.312  1.6530  1.1829 -1.0279
  257MPD2    H2 3898   0.530   3.812  12.935  2.5265 -0.7431 -1.1848
  257MPD2    H3 3899   0.558   3.822  13.172 -1.6318  0.2584 -0.2335
  257MPD2     N 3900   0.455   3.379  13.218  0.0285 -0.3486  0.1607
  257MPD2    H5 3901   0.416   3.301  13.167 -1.6573  1.4177 -1.2372
  257MPD2    N1 3902   0.436   3.606  12.794  0.0177  0.0265 -0.7647
  257MPD2    H7 3903   0.448   3.693  12.743  0.4230  1.0695  1.1000
  258TMC3    C1 3904   0.534   3.226  13.394 -0.0772 -0.2368  1.0316
  258TMC3    C2 3905   0.551   3.122  13.307 -0.0020 -0.0541 -0.5136
  258TMC3    C3 3906   0.584   3.006  13.364 -0.3007 -0.0644 -0.8005
  258TMC3    C4 3907   0.570   3.216  13.530 -0.0675 -0.3829  0.8449
  258TMC3    C5 3908   0.612   3.091  13.576  0.6239 -0.0321 -0.0728
  258TMC3    C6 3909   0.631   2.988  13.489  0.0210  0.4006  0.1374
  258TMC3     C 3910   0.516   3.359  13.344  0.1628  0.3234 -0.0101
  258TMC3     O 3911   0.549   3.447  13.427  0.0014 -0.2193 -0.2491
  258TMC3     H 3912   0.508   3.126  13.207 -0.7999  1.7392 -0.0982
  258TMC3    H1 3913   0.543   3.299  13.594 -1.5688  1.1191 -1.7242
  258TMC3    H2 3914   0.650   2.886  13.523  1.0097  1.1362  1.7763
  258TMC3    C7 3915   0.627   3.054  13.717  0.0766  0.4249 -0.9938
  258TMC3    C8 3916   0.573   2.899  13.278 -0.4340  0.2989  0.2527
  258TMC3    O1 3917   0.551   3.118  13.791  0.2144  0.5883  0.4991
  258TMC3    O2 3918   0.482   2.894  13.197 -0.1181  0.2510 -0.1419
  259MPD2     C 3919   3.701   0.826   0.752 -0.0488 -0.4673  0.1542
  259MPD2    C1 3920   3.751   0.695   0.752 -0.7130  0.2359  0.5766
  259MPD2    C2 3921   3.833   0.657   0.650 -0.4095  0.3502  0.1916
  259MPD2    C3 3922   3.890   0.750   0.564 -0.2627  0.2575 -1.0364
  259MPD2    C4 3923   3.844   0.878   0.571 -0.6914 -0.0006  0.0243
  259MPD2    C5 3924   3.752   0.918   0.663  0.3911 -0.3040 -0.3815
  259MPD2     H 3925   3.858   0.552   0.642  1.9042  0.7507  2.4347
  259MPD2    H1 3926   3.864   0.950   0.493  0.7143  0.1766  0.5500
  259MPD2    H2 3927   3.630   0.861   0.827 -2.1882 -1.3866 -1.4588
  259MPD2    H3 3928   3.726   1.023   0.665  1.9968  0.0737  0.7060
  259MPD2     N 3929   3.981   0.708   0.461  0.3643 -0.2802 -0.7151
  259MPD2    H5 3930   3.991   0.608   0.447 -2.5594 -0.7484  0.4408
  259MPD2    N1 3931   3.710   0.607   0.849 -0.5964 -0.1603  0.7547
  259MPD2    H7 3932   3.646   0.648   0.917 -0.0697  1.0677  0.5072
  260TMC3    C1 3933   4.133   0.728   0.274  0.0690  0.0746  0.4316
  260TMC3    C2 3934   4.233   0.806   0.227  0.7967  0.4087  0.2805
  260TMC3    C3 3935   4.333   0.734   0.156  0.1129  0.5510  0.6614
  260TMC3    C4 3936   4.113   0.596   0.239 -0.0444 -0.3553  0.0032
  260TMC3    C5 3937   4.213   0.531   0.170  0.4472 -0.6316 -0.0677
  260TMC3    C6 3938   4.322   0.597   0.130 -0.2852 -0.0917  0.4123
  260TMC3     C 3939   4.049   0.790   0.371 -0.5506  0.2883  0.7356
  260TMC3     O 3940   4.052   0.914   0.373  0.2745 -0.0623  0.2162
  260TMC3     H 3941   4.244   0.907   0.265 -0.6984  0.0599  1.6338
  260TMC3    H1 3942   4.021   0.541   0.255 -0.3537 -0.2816 -1.5866
  260TMC3    H2 3943   4.401   0.544   0.079  0.8170  0.7733  1.2044
  260TMC3    C7 3944   4.202   0.396   0.124 -0.0740 -0.0466  0.2382
  260TMC3    C8 3945   4.463   0.795   0.175  0.4409 -0.6251  0.7387
  260TMC3    O1 3946   4.237   0.369   0.010 -0.3404  0.5627 -0.0532
  260TMC3    O2 3947   4.469   0.914   0.195  0.0961  0.7155 -0.6171
  261MPD2     C 3948   1.067   3.143  12.082  0.2913 -0.4070 -0.7909
  261MPD2    C1 3949   1.140   3.246  12.142 -0.0805  0.5339  0.4043
  261MPD2    C2 3950   1.162   3.359  12.065 -0.2729 -0.0948 -0.0542
  261MPD2    C3 3951   1.090   3.382  11.953 -0.6951  0.0887 -0.3398
  261MPD2    C4 3952   1.014   3.285  11.901  0.1049 -0.1995  0.2189
  261MPD2    C5 3953   1.005   3.161  11.965  0.3464 -0.1759  0.6321
  261MPD2     H 3954   1.221   3.441  12.105 -0.8390  0.2721  0.0225
  261MPD2    H1 3955   0.955   3.299  11.811  1.0279 -0.6596 -0.4604
  261MPD2    H2 3956   1.041   3.050  12.130  0.4515  0.1488  0.3698
  261MPD2    H3 3957   0.936   3.085  11.932  0.2455 -0.6357  1.9162
  261MPD2     N 3958   1.110   3.515  11.890 -0.3674 -0.8268 -0.1415
  261MPD2    H5 3959   1.167   3.586  11.934  1.9792 -2.0389 -1.2341
  261MPD2    N1 3960   1.191   3.239  12.274  0.0493  0.0404  0.0607
  261MPD2    H7 3961   1.261   3.308  12.299 -0.6054  0.9047 -0.5157
  262TMC3    C1 3962   1.128   3.653  11.697 -0.2235 -0.0106  0.6927
  262TMC3    C2 3963   1.117   3.762  11.773  0.0621  0.0195 -0.3573
  262TMC3    C3 3964   1.162   3.876  11.714  0.3466  0.2426 -0.0510
  262TMC3    C4 3965   1.182   3.642  11.574  0.0725  0.5077  0.6733
  262TMC3    C5 3966   1.230   3.754  11.519 -0.0586 -1.3720 -0.4465
  262TMC3    C6 3967   1.220   3.875  11.593  0.3876 -0.7532 -0.0396
  262TMC3     C 3968   1.086   3.531  11.755  0.1610 -0.3821  1.0146
  262TMC3     O 3969   1.012   3.469  11.682 -0.2520  0.3021 -0.7309
  262TMC3     H 3970   1.080   3.759  11.875  0.2884 -1.0088 -0.3056
  262TMC3    H1 3971   1.174   3.543  11.531  2.0707  1.1693 -1.2637
  262TMC3    H2 3972   1.243   3.965  11.537  0.1681 -0.2302  0.6943
  262TMC3    C7 3973   1.354   3.733  11.451  0.3719  0.6680 -0.5201
  262TMC3    C8 3974   1.119   4.007  11.766  0.3682 -0.2290  0.1217
  262TMC3    O1 3975   1.385   3.618  11.427  0.9951  0.6476  0.3658
  262TMC3    O2 3976   1.136   4.106  11.699  0.1212  0.3667 -0.1042
  263MPD2     C 3977   1.815   2.343  11.344 -0.6554 -0.0377 -0.1911
  263MPD2    C1 3978   1.896   2.457  11.357 -0.4982  0.1406 -0.0907
  263MPD2    C2 3979   1.882   2.555  11.258  0.2837  0.1992  0.1417
  263MPD2    C3 3980   1.792   2.554  11.156 -0.7788 -0.3022 -0.1441
  263MPD2    C4 3981   1.710   2.443  11.147 -0.5269  0.1330 -0.0691
  263MPD2    C5 3982   1.723   2.341  11.241 -0.2884  0.2724  0.1763
  263MPD2     H 3983   1.962   2.628  11.261  0.7089 -0.2288 -0.8511
  263MPD2    H1 3984   1.628   2.437  11.076 -0.0220 -0.6781 -0.5863
  263MPD2    H2 3985   1.803   2.264  11.417 -1.8573  0.6415  0.3278
  263MPD2    H3 3986   1.648   2.263  11.236  0.6959 -0.6144 -0.7615
  263MPD2     N 3987   1.790   2.657  11.060 -0.1719 -0.7188  0.2220
  263MPD2    H5 3988   1.837   2.742  11.090 -1.9740  1.5490 -3.2334
  263MPD2    N1 3989   2.001   2.471  11.458  0.2092  0.0249  0.4540
  263MPD2    H7 3990   2.058   2.555  11.459  1.0461 -0.5523  1.4854
  264TMC3    C1 3991   1.762   2.769  10.858  0.0076  0.4840 -0.2266
  264TMC3    C2 3992   1.771   2.891  10.917 -0.1369  0.5159 -0.3582
  264TMC3    C3 3993   1.800   3.000  10.843  0.8245 -0.2510  0.7026
  264TMC3    C4 3994   1.780   2.755  10.727  0.0124  0.6563  0.2599
  264TMC3    C5 3995   1.804   2.865  10.654  0.4859 -0.7801 -0.7990
  264TMC3    C6 3996   1.823   2.987  10.712 -1.3473  0.3409 -0.4148
  264TMC3     C 3997   1.731   2.655  10.935  0.6610  0.4574 -0.5698
  264TMC3     O 3998   1.666   2.564  10.886  0.2338 -0.0574 -0.1834
  264TMC3     H 3999   1.762   2.905  11.024  1.1484 -0.2561 -0.1493
  264TMC3    H1 4000   1.779   2.656  10.682 -0.0953 -0.7009  3.2509
  264TMC3    H2 4001   1.856   3.076  10.660 -1.4551  0.2760 -0.5943
  264TMC3    C7 4002   1.880   2.836  10.534 -0.1421  0.0940 -0.0637
  264TMC3    C8 4003   1.896   3.084  10.912  0.3382 -0.3764  0.1749
  264TMC3    O1 4004   1.913   2.724  10.504  0.1183  0.2408 -0.6069
  264TMC3    O2 4005   2.016   3.073  10.882  0.3533 -0.0171  0.0912
  265MPD2     C 4006   3.877   3.366  15.093 -0.5616 -0.1072 -0.0937
  265MPD2    C1 4007   3.976   3.447  15.133 -0.0057 -0.0147 -0.0966
  265MPD2    C2 4008   4.086   3.460  15.050 -0.3534 -1.0350  0.3468
  265MPD2    C3 4009   4.118   3.361  14.949  0.2030 -0.2839 -0.4130
  265MPD2    C4 4010   4.031   3.264  14.933 -0.6807 -0.0639  0.0666
  265MPD2    C5 4011   3.908   3.280  14.989 -0.1001  0.6700 -0.2675
  265MPD2     H 4012   4.162   3.534  15.072  0.9902 -2.7549  1.5629
  265MPD2    H1 4013   4.041   3.183  14.862  1.5938 -1.9321  2.5029
  265MPD2    H2 4014   3.779   3.353  15.135 -0.3620 -0.7135  0.1824
  265MPD2    H3 4015   3.826   3.227  14.943  0.4748  0.6932 -1.3080
  265MPD2     N 4016   4.240   3.363  14.877  0.4744  0.1591 -0.0604
  265MPD2    H5 4017   4.271   3.283  14.823  2.4157  2.2631 -2.0411
  265MPD2    N1 4018   3.966   3.542  15.235 -0.7304 -0.1227  0.1197
  265MPD2    H7 4019   4.042   3.608  15.238  0.9057 -1.9548 -1.2203
  266TMC3    C1 4020   3.871   3.666  15.409  0.5795  0.3047  0.1021
  266TMC3    C2 4021   3.990   3.678  15.483 -0.2107 -0.2210 -0.5157
  266TMC3    C3 4022   3.987   3.783  15.572  0.4045  0.3853  0.1729
  266TMC3    C4 4023   3.770   3.755  15.425  0.5287  0.6796 -0.2698
  266TMC3    C5 4024   3.780   3.860  15.509  0.4790  0.1995 -0.4519
  266TMC3    C6 4025   3.888   3.876  15.590 -0.2014 -0.0003  0.2209
  266TMC3     C 4026   3.866   3.549  15.322  0.2173  1.2436 -0.3218
  266TMC3     O 4027   3.762   3.481  15.327 -0.5601  0.3676  0.2405
  266TMC3     H 4028   4.059   3.594  15.477 -0.5765 -0.5920  0.4794
  266TMC3    H1 4029   3.670   3.736  15.387  1.0283  0.9633 -1.7229
  266TMC3    H2 4030   3.873   3.942  15.674  0.4862 -0.2874  0.5648
  266TMC3    C7 4031   3.675   3.965  15.490 -0.2843  0.3325  0.1022
  266TMC3    C8 4032   4.089   3.767  15.676 -1.1308 -0.3089  0.5786
  266TMC3    O1 4033   3.566   3.914  15.461  0.4372  0.2343  0.9192
  266TMC3    O2 4034   4.163   3.669  15.675 -0.6321 -0.0763 -0.2515
  267MPD2     C 4035   1.143   0.806  17.217 -0.8023  0.1231 -0.4953
  267MPD2    C1 4036   1.104   0.693  17.283  0.0943  0.6530 -0.1943
  267MPD2    C2 4037   1.025   0.604  17.216 -0.4366  0.0698  0.4238
  267MPD2    C3 4038   1.009   0.619  17.078 -0.2478 -0.0301  0.3222
  267MPD2    C4 4039   1.075   0.714  17.008 -0.1039 -0.0807 -1.0440
  267MPD2    C5 4040   1.125   0.812  17.086 -0.1074 -0.2284 -0.0357
  267MPD2     H 4041   0.997   0.508  17.257  1.4926 -0.8720 -0.4262
  267MPD2    H1 4042   1.070   0.716  16.900  0.3715  0.8011 -1.0413
  267MPD2    H2 4043   1.197   0.885  17.267  0.0729  0.3594 -1.8085
  267MPD2    H3 4044   1.163   0.904  17.044 -1.2943  2.4590  4.8630
  267MPD2     N 4045   0.925   0.530  17.006 -0.2953  0.0374  0.2414
  267MPD2    H5 4046   0.954   0.527  16.909  2.2035 -3.0105  1.1199
  267MPD2    N1 4047   1.149   0.686  17.418  0.3703  0.1228 -0.3287
  267MPD2    H7 4048   1.206   0.764  17.450 -0.4076  0.4347  0.2855
  268TMC3    C1 4049   1.211   0.577  17.619  0.6420  0.2151  0.1254
  268TMC3    C2 4050   1.338   0.632  17.612  0.1992 -0.1231  0.1182
  268TMC3    C3 4051   1.433   0.605   0.017 -0.2202  0.4316 -0.2638
  268TMC3    C4 4052   1.181   0.479   0.020 -0.3132  0.4476  0.5053
  268TMC3    C5 4053   1.287   0.448   0.110 -0.4059 -0.2004 -0.7363
  268TMC3    C6 4054   1.397   0.522   0.119  1.0179  0.0459  0.6517
  268TMC3     C 4055   1.135   0.577  17.500  0.2296  0.3480 -0.6386
  268TMC3     O 4056   1.088   0.469  17.471 -0.2586 -0.4111  0.2750
  268TMC3     H 4057   1.353   0.705  17.533 -0.9946 -1.1966 -1.1078
  268TMC3    H1 4058   1.083   0.434   0.010 -1.2463  3.0426 -1.9323
  268TMC3    H2 4059   1.464   0.515   0.204  0.6299  1.6575  1.0901
  268TMC3    C7 4060   1.283   0.328   0.193 -0.2570 -0.3429 -0.1373
  268TMC3    C8 4061   1.550   0.685   0.028  0.0002  0.4652 -0.0793
  268TMC3    O1 4062   1.386   0.307   0.254 -0.2054 -0.1611 -0.1766
  268TMC3    O2 4063   1.596   0.724   0.134  0.7660 -0.3475  0.1608
  269MPD2     C 4064   1.403   3.794  15.857  0.2394  0.0562  0.6575
  269MPD2    C1 4065   1.471   3.811  15.738  0.2937  0.1340  0.6365
  269MPD2    C2 4066   1.463   3.936  15.681  0.0476  0.3277 -0.2085
  269MPD2    C3 4067   1.405   4.042  15.741  0.3218 -0.2174  0.0663
  269MPD2    C4 4068   1.345   4.028  15.863 -0.0269  1.0006 -0.6812
  269MPD2    C5 4069   1.341   3.900  15.917 -0.2834 -1.0615 -0.2150
  269MPD2     H 4070   1.516   3.953  15.588 -0.4973 -1.1275 -0.7944
  269MPD2    H1 4071   1.294   4.116  15.900 -0.1560  0.3534  0.6553
  269MPD2    H2 4072   1.403   3.694  15.898 -3.5055 -0.1363  0.1725
  269MPD2    H3 4073   1.285   3.881  16.008 -0.8297  2.2417  0.1521
  269MPD2     N 4074   1.401   4.174  15.683  0.9594 -0.0998 -0.3307
  269MPD2    H5 4075   1.333   4.236  15.728 -0.0789 -2.3005  1.1611
  269MPD2    N1 4076   1.519   3.703  15.659  0.6003  0.0210 -0.0989
  269MPD2    H7 4077   1.527   3.611  15.701  0.5196 -0.7014 -1.6713
  270TMC3    C1 4078   1.580   3.569  15.461 -0.6932  0.3709  0.5426
  270TMC3    C2 4079   1.518   3.563  15.339  0.9620 -0.2021 -0.6725
  270TMC3    C3 4080   1.579   3.488  15.240 -0.1897 -0.1618 -0.5102
  270TMC3    C4 4081   1.695   3.499  15.496  0.0783  0.1327  0.0285
  270TMC3    C5 4082   1.752   3.423  15.392 -0.1267  0.2107 -0.8669
  270TMC3    C6 4083   1.691   3.409  15.265  0.1348  0.2589  0.0437
  270TMC3     C 4084   1.548   3.698  15.523  0.7836  0.3811  0.1897
  270TMC3     O 4085   1.550   3.789  15.438 -0.1968  0.0780 -0.5973
  270TMC3     H 4086   1.432   3.629  15.331 -0.5174 -2.1137 -0.6167
  270TMC3    H1 4087   1.750   3.521  15.587  1.5563  0.4082 -0.9297
  270TMC3    H2 4088   1.745   3.354  15.189 -0.7986 -1.5716  0.7027
  270TMC3    C7 4089   1.853   3.328  15.420 -0.7874  0.4271 -0.5542
  270TMC3    C8 4090   1.501   3.464  15.124  0.6648 -0.2728  0.6203
  270TMC3    O1 4091   1.933   3.313  15.330 -0.4173 -0.2626 -0.3330
  270TMC3    O2 4092   1.396   3.520  15.129 -0.1357 -0.0094 -0.2944
  271MPD2     C 4093   1.371   3.504  13.563 -0.0157  0.2309  0.0999
  271MPD2    C1 4094   1.272   3.460  13.649 -0.4581 -0.4290  0.4267
  271MPD2    C2 4095   1.152   3.525  13.647 -0.0343 -0.4305  0.4761
  271MPD2    C3 4096   1.131   3.642  13.572  0.0161  0.0984  0.2767
  271MPD2    C4 4097   1.235   3.689  13.499 -0.4436 -0.1685 -0.5590
  271MPD2    C5 4098   1.349   3.619  13.494 -0.5300 -0.0186 -0.5675
  271MPD2     H 4099   1.072   3.497  13.714  1.1807 -0.0759  2.0772
  271MPD2    H1 4100   1.243   3.784  13.447 -0.1445  0.1571  0.0700
  271MPD2    H2 4101   1.468   3.456  13.557 -0.4318 -0.3779 -1.7501
  271MPD2    H3 4102   1.435   3.666  13.448 -0.9090  1.4850  0.2835
  271MPD2     N 4103   1.011   3.718  13.576 -0.0756  0.0407 -0.0457
  271MPD2    H5 4104   1.020   3.806  13.525 -0.8163 -1.3523 -2.5654
  271MPD2    N1 4105   1.296   3.363  13.749  0.1443 -0.0974  0.7736
  271MPD2    H7 4106   1.210   3.353  13.801  1.2018  1.7921  2.8609
  272TMC3    C1 4107   1.406   3.197  13.885  0.9817 -0.0344 -0.1050
  272TMC3    C2 4108   1.510   3.115  13.897  0.3411  0.6098  0.0609
  272TMC3    C3 4109   1.549   3.074  14.019  0.2837 -0.8323  0.9545
  272TMC3    C4 4110   1.334   3.235  14.001 -0.0626 -0.2001 -0.0064
  272TMC3    C5 4111   1.373   3.189  14.128 -0.0679  0.5785 -0.0853
  272TMC3    C6 4112   1.482   3.106  14.138 -0.3700 -0.3573 -0.5330
  272TMC3     C 4113   1.406   3.285  13.767 -0.4398  0.2079  0.0330
  272TMC3     O 4114   1.501   3.273  13.699  0.2310  0.0619  0.4425
  272TMC3     H 4115   1.559   3.080  13.806 -3.2504  1.6886 -2.3098
  272TMC3    H1 4116   1.242   3.290  13.985  2.2938  3.4600 -1.0083
  272TMC3    H2 4117   1.517   3.073  14.235  1.2448  0.2842 -0.8924
  272TMC3    C7 4118   1.355   3.280  14.242  0.0079  0.1952  0.3669
  272TMC3    C8 4119   1.696   3.056  14.032 -0.2959 -0.2852 -0.1884
  272TMC3    O1 4120   1.417   3.248  14.339 -0.2689 -0.8280 -0.2348
  272TMC3    O2 4121   1.748   3.088  13.929  0.1623 -0.3202  0.0004
  273MPD2     C 4122   2.706   1.253  11.986  0.0723  0.3120  0.0825
  273MPD2    C1 4123   2.753   1.365  11.920  0.2662  0.1421 -0.6830
  273MPD2    C2 4124   2.743   1.378  11.783  0.0702  0.8252  0.5116
  273MPD2    C3 4125   2.676   1.283  11.709  0.4806  0.3315  0.0278
  273MPD2    C4 4126   2.623   1.179  11.780 -0.2112  0.4168 -0.3361
  273MPD2    C5 4127   2.636   1.157  11.910 -0.4432 -0.3455 -0.5895
  273MPD2     H 4128   2.765   1.476  11.741  0.0381  1.5763  2.2680
  273MPD2    H1 4129   2.565   1.113  11.717 -3.0108  1.6949  0.9039
  273MPD2    H2 4130   2.718   1.240  12.093  2.1941  1.9341  0.0405
  273MPD2    H3 4131   2.584   1.078  11.963 -0.9017  0.5780  0.3421
  273MPD2     N 4132   2.642   1.306  11.571 -0.7802  0.0060  0.3293
  273MPD2    H5 4133   2.585   1.232  11.531 -0.6802 -0.0568  0.3037
  273MPD2    N1 4134   2.838   1.461  11.986 -0.5127  0.2146 -0.5330
  273MPD2    H7 4135   2.837   1.459  12.087 -1.8534 -1.6139 -0.5940
  274TMC3    C1 4136   2.624   1.426  11.372  0.0442  0.5851 -0.4049
  274TMC3    C2 4137   2.494   1.398  11.360  0.0115  0.5456 -0.0390
  274TMC3    C3 4138   2.418   1.474  11.270  0.0420  1.0107 -0.3169
  274TMC3    C4 4139   2.683   1.534  11.311 -0.2142 -0.4626  0.4704
  274TMC3    C5 4140   2.606   1.619  11.231  0.2858 -1.1119 -0.7987
  274TMC3    C6 4141   2.479   1.569  11.203 -0.1022  0.0067 -0.6399
  274TMC3     C 4142   2.683   1.413  11.496 -0.3945  0.0265 -0.2850
  274TMC3     O 4143   2.754   1.506  11.529 -0.1981  0.4623 -0.3360
  274TMC3     H 4144   2.442   1.329  11.426 -2.0051  1.1012 -1.0518
  274TMC3    H1 4145   2.791   1.542  11.317 -0.2695  0.1379  0.6632
  274TMC3    H2 4146   2.415   1.646  11.160 -0.9278  0.0676  0.6747
  274TMC3    C7 4147   2.617   1.761  11.255 -0.1410  1.0207 -0.1188
  274TMC3    C8 4148   2.282   1.432  11.239 -0.1879 -0.5715 -0.6078
  274TMC3    O1 4149   2.516   1.827  11.232 -0.0115  0.8463 -0.0524
  274TMC3    O2 4150   2.227   1.352  11.312 -0.1023  0.5630  0.2500
  275MPD2     C 4151   2.460   3.991  14.369 -0.3202  0.1007  0.3412
  275MPD2    C1 4152   2.428   4.126  14.379  0.6974 -0.2112  0.9225
  275MPD2    C2 4153   2.376   4.191  14.267  0.8748  0.9101 -0.0546
  275MPD2    C3 4154   2.331   4.117  14.157  0.0470 -0.4685 -0.1299
  275MPD2    C4 4155   2.357   3.985  14.156 -0.3235  0.0573 -0.0502
  275MPD2    C5 4156   2.424   3.922  14.256 -0.3094  0.0401  0.0124
  275MPD2     H 4157   2.350   4.295  14.278 -0.7160  0.2876  1.9248
  275MPD2    H1 4158   2.317   3.924  14.076 -0.3334  0.9656 -0.7390
  275MPD2    H2 4159   2.516   3.944  14.448 -0.6893  1.1447  1.2311
  275MPD2    H3 4160   2.440   3.814  14.252  0.4173  0.2165 -1.9669
  275MPD2     N 4161   2.253   4.168  14.052 -0.6914 -0.0387 -0.1570
  275MPD2    H5 4162   2.225   4.100  13.982  0.1761  0.8900 -1.3973
  275MPD2    N1 4163   2.473   4.186  14.496 -0.5115 -0.2517 -0.2984
  275MPD2    H7 4164   2.526   4.130  14.562  0.4736  0.8521 -0.1486
  276TMC3    C1 4165   2.508   4.327  14.661  0.3568 -0.0821  0.0358
  276TMC3    C2 4166   2.553   4.219  14.722  0.1413  0.5624 -0.8200
  276TMC3    C3 4167   2.668   4.223  14.791 -0.2950  0.4227 -0.4858
  276TMC3    C4 4168   2.581   4.442  14.661 -0.4849 -0.1607  0.1714
  276TMC3    C5 4169   2.692   4.452  14.736 -0.4933 -1.3757  0.1388
  276TMC3    C6 4170   2.742   4.343  14.806  0.0480 -0.3991 -0.1012
  276TMC3     C 4171   2.444   4.312  14.538 -0.3518  0.8417 -0.3145
  276TMC3     O 4172   2.404   4.409  14.478 -0.0660 -0.2013  0.1741
  276TMC3     H 4173   2.496   4.127  14.720  1.1567 -0.1065  1.1275
  276TMC3    H1 4174   2.539   4.528  14.610  1.7854  1.8695  1.7357
  276TMC3    H2 4175   2.832   4.357  14.866  2.2820 -0.6787 -3.3758
  276TMC3    C7 4176   2.739   4.583  14.781  0.2828  0.2422 -0.0309
  276TMC3    C8 4177   2.726   4.111  14.860  0.0327 -0.0323 -0.1609
  276TMC3    O1 4178   2.773   4.599  14.897 -0.3748  0.2841  0.0999
  276TMC3    O2 4179   2.822   4.127  14.935  0.1779  0.2236 -0.1149
  277MPD2     C 4180   4.185   3.120  13.074 -0.6184  0.8888 -0.4866
  277MPD2    C1 4181   4.206   3.189  13.190  0.0523  0.0894 -0.1452
  277MPD2    C2 4182   4.204   3.129  13.314 -0.5890 -0.0917 -0.2012
  277MPD2    C3 4183   4.208   2.993  13.321  0.7477  0.7736  0.7668
  277MPD2    C4 4184   4.191   2.915  13.205 -0.2699 -0.6118 -0.0537
  277MPD2    C5 4185   4.177   2.979  13.085  0.5962 -0.5215 -0.5981
  277MPD2     H 4186   4.225   3.180  13.407 -2.2446  0.8495 -0.3514
  277MPD2    H1 4187   4.177   2.808  13.216 -1.4492 -0.3450  1.0330
  277MPD2    H2 4188   4.169   3.169  12.979 -2.1386  1.5999  0.1312
  277MPD2    H3 4189   4.165   2.933  12.988 -0.0790  1.3099 -1.3701
  277MPD2     N 4190   4.229   2.935  13.448 -0.4606  0.6534  0.1046
  277MPD2    H5 4191   4.282   2.989  13.516  1.1664  0.7410 -1.2555
  277MPD2    N1 4192   4.202   3.326  13.172  0.0673 -0.2893  0.0005
  277MPD2    H7 4193   4.214   3.366  13.079  0.7410 -2.2402 -0.7364
  278TMC3    C1 4194   4.227   2.781  13.625  0.4197  0.6780 -0.0700
  278TMC3    C2 4195   4.228   2.652  13.666  0.5297  0.0343 -0.7327
  278TMC3    C3 4196   4.182   2.631  13.796 -0.0890 -0.1464 -0.1900
  278TMC3    C4 4197   4.165   2.875  13.700 -0.8389 -0.3464  0.0918
  278TMC3    C5 4198   4.140   2.853  13.833  0.6198  0.1334 -0.0353
  278TMC3    C6 4199   4.147   2.729  13.888 -0.0675 -0.5109 -0.9214
  278TMC3     C 4200   4.229   2.805  13.482 -1.0802 -0.1778 -0.2447
  278TMC3     O 4201   4.222   2.708  13.410 -0.0412  0.2282 -0.2727
  278TMC3     H 4202   4.254   2.570  13.601 -0.1178 -1.6555  1.1124
  278TMC3    H1 4203   4.133   2.969  13.658  3.1923  1.4871  1.0858
  278TMC3    H2 4204   4.107   2.698  13.985  0.6997  2.1673  0.2399
  278TMC3    C7 4205   4.054   2.956  13.887  0.1712  0.3874 -0.2015
  278TMC3    C8 4206   4.093   2.515  13.796  0.4484  0.3033  0.5893
  278TMC3    O1 4207   4.070   3.070  13.839 -0.6163 -0.1452  0.5312
  278TMC3    O2 4208   4.052   2.469  13.903  0.2497 -0.3665  0.1736
  279MPD2     C 4209   3.407   3.284  17.669  0.0574  0.1322  0.8437
  279MPD2    C1 4210   3.448   3.414  17.689  0.1712  0.0276 -0.2388
  279MPD2    C2 4211   3.482   3.494  17.579 -0.0418  0.3734 -0.2698
  279MPD2    C3 4212   3.461   3.457  17.450  0.0977  0.6804  0.0493
  279MPD2    C4 4213   3.399   3.334  17.435 -0.1045  0.1025  0.3597
  279MPD2    C5 4214   3.391   3.246  17.538  0.0678  0.6863 -0.2952
  279MPD2     H 4215   3.531   3.587  17.605  0.2924 -0.1597  1.0196
  279MPD2    H1 4216   3.374   3.293  17.338 -2.3318 -0.8553  1.3582
  279MPD2    H2 4217   3.373   3.219   0.055  0.6969  0.1473  1.1280
  279MPD2    H3 4218   3.342   3.153  17.515  2.3155 -0.6330  0.2647
  279MPD2     N 4219   3.478   3.536  17.338  0.3649 -0.2122 -0.1457
  279MPD2    H5 4220   3.422   3.513  17.257 -1.7897  0.5451  1.1432
  279MPD2    N1 4221   3.450   3.464   0.132  0.1901 -0.3252 -0.1490
  279MPD2    H7 4222   3.415   3.395   0.196  2.7598 -0.7568  0.7759
  280TMC3    C1 4223   3.421   3.650   0.278 -0.4651 -0.0610 -0.4619
  280TMC3    C2 4224   3.313   3.569   0.299 -0.9791  0.6984 -0.1679
  280TMC3    C3 4225   3.184   3.602   0.270  0.0716 -0.0965  0.5387
  280TMC3    C4 4226   3.388   3.781   0.255 -0.0863  0.4172 -0.1172
  280TMC3    C5 4227   3.254   3.821   0.232  0.5890  0.2868 -0.0461
  280TMC3    C6 4228   3.153   3.735   0.242  0.4107  0.2910 -0.1694
  280TMC3     C 4229   3.498   3.591   0.177 -0.4478 -0.5077  0.5660
  280TMC3     O 4230   3.568   3.673   0.117 -0.0663 -0.1745 -0.0236
  280TMC3     H 4231   3.322   3.480   0.360  0.7211  0.8556 -0.1789
  280TMC3    H1 4232   3.468   3.853   0.265  0.2616  0.0760 -0.4839
  280TMC3    H2 4233   3.053   3.764   0.211 -0.8385  1.1228  4.7300
  280TMC3    C7 4234   3.232   3.964   0.221 -0.0728  0.3285 -0.7104
  280TMC3    C8 4235   3.096   3.517   0.185  0.3771  0.3509 -0.1794
  280TMC3    O1 4236   3.325   4.024   0.276  0.1008 -0.1503  0.0465
  280TMC3    O2 4237   3.010   3.569   0.116 -0.1968 -0.0367 -0.5569
  281TMC3    C1 4238   2.320   3.983  13.151 -1.0855  1.0192 -0.2497
  281TMC3    C2 4239   2.414   4.031  13.070 -0.4697 -0.3246  0.3057
  281TMC3    C3 4240   2.464   3.951  12.969  0.2520 -0.0318  0.5107
  281TMC3    C4 4241   2.286   3.851  13.149  0.0411 -0.1529  0.2560
  281TMC3    C5 4242   2.337   3.780  13.048  0.0973 -0.0807  0.5611
  281TMC3    C6 4243   2.425   3.825  12.955  0.1083  0.1931  0.0885
  281TMC3     C 4244   2.257   4.060  13.262 -0.0468 -0.8638 -0.2069
  281TMC3     O 4245   2.194   4.008  13.351  0.2829 -0.2457  0.2026
  281TMC3     H 4246   2.454   4.130  13.084  1.8387 -0.5549 -4.4571
  281TMC3    H1 4247   2.222   3.809  13.226  0.7632 -0.2261  0.8175
  281TMC3    H2 4248   2.468   3.774  12.870 -1.0061  1.4927 -1.2649
  281TMC3    C7 4249   2.311   3.639  13.042  1.0599  0.2871  0.1539
  281TMC3    C8 4250   2.569   3.989  12.882 -0.0856 -0.3487 -0.3367
  281TMC3    O1 4251   2.339   3.605  12.931  0.2112 -0.1041 -0.0597
  281TMC3    O2 4252   2.657   3.900  12.880 -0.2836  0.1403  0.0429
  282MPD2     C 4253   3.880   0.336  15.091 -0.9677 -0.2302 -0.2160
  282MPD2    C1 4254   3.777   0.420  15.118 -0.4575  0.5089  0.0811
  282MPD2    C2 4255   3.716   0.467  15.007  0.7449 -0.6647 -0.2591
  282MPD2    C3 4256   3.766   0.442  14.877  0.0422 -0.0877  1.0082
  282MPD2    C4 4257   3.867   0.351  14.859  0.9854 -0.0514 -0.3177
  282MPD2    C5 4258   3.922   0.295  14.970  0.7287 -0.1652 -0.0757
  282MPD2     H 4259   3.624   0.524  15.014  0.7581 -0.4804 -1.5648
  282MPD2    H1 4260   3.909   0.322  14.763  0.7172 -1.8079  0.1060
  282MPD2    H2 4261   3.930   0.304  15.182  0.0538  1.8024 -0.0744
  282MPD2    H3 4262   3.996   0.218  14.952 -1.0110 -2.1062  1.0157
  282MPD2     N 4263   3.709   0.514  14.767  0.1124 -0.0493 -0.4650
  282MPD2    H5 4264   3.636   0.582  14.787 -0.0400 -0.4322  0.2807
  282MPD2    N1 4265   3.728   0.465  15.245  0.5022  0.5769  1.2784
  282MPD2    H7 4266   3.646   0.526  15.243  0.3324  0.3125  0.3232
  283TMC3    C1 4267   3.727   0.532  15.465 -0.2257  0.1085 -0.2829
  283TMC3    C2 4268   3.802   0.609  15.545 -0.0534 -0.1708  0.8045
  283TMC3    C3 4269   3.739   0.654  15.658 -0.3329  0.4238 -0.3034
  283TMC3    C4 4270   3.604   0.490  15.492  0.9141  0.4545 -0.0819
  283TMC3    C5 4271   3.555   0.520  15.613  0.9928  0.6467  0.0681
  283TMC3    C6 4272   3.623   0.601  15.698  0.5100 -0.1985  0.3023
  283TMC3     C 4273   3.794   0.461  15.365  0.8494 -0.1744 -1.1819
  283TMC3     O 4274   3.902   0.407  15.391  0.0369  0.4426  0.0874
  283TMC3     H 4275   3.906   0.632  15.522 -0.4931 -0.8741 -1.9339
  283TMC3    H1 4276   3.556   0.426  15.419 -0.8021 -0.7518  2.1207
  283TMC3    H2 4277   3.576   0.618  15.794 -0.2003 -4.9058  0.8119
  283TMC3    C7 4278   3.429   0.457  15.656  0.7563 -0.0455  0.2107
  283TMC3    C8 4279   3.794   0.762  15.731  0.6306 -0.3012  0.7734
  283TMC3    O1 4280   3.406   0.453  15.781 -0.1570 -0.4545 -0.2640
  283TMC3    O2 4281   3.771   0.767  15.852  0.3991  0.4728 -0.2109
  284MPD2     C 4282   2.098   4.353  11.844  0.0322 -0.0574 -1.0867
  284MPD2    C1 4283   2.150   4.283  11.737 -0.4351  0.6899  0.3984
  284MPD2    C2 4284   2.126   4.152  11.730  0.4458  0.3944 -0.4846
  284MPD2    C3 4285   2.053   4.083  11.827 -0.2956 -0.4697  0.1470
  284MPD2    C4 4286   2.004   4.151  11.935  0.6544 -0.2344 -0.1627
  284MPD2    C5 4287   2.021   4.286  11.936  0.1744 -0.5825 -0.7158
  284MPD2     H 4288   2.162   4.100  11.642 -0.7790 -2.8167  0.9047
  284MPD2    H1 4289   1.939   4.101  12.005  0.7962 -1.0499 -0.6038
  284MPD2    H2 4290   2.127   4.456  11.864  2.4357 -0.9383 -0.1101
  284MPD2    H3 4291   1.962   4.342  12.008  1.7023  0.0576  0.0532
  284MPD2     N 4292   2.039   3.947  11.816 -0.6677 -0.2952 -0.3061
  284MPD2    H5 4293   2.020   3.895  11.901  1.2518 -0.7083 -0.1313
  284MPD2    N1 4294   2.238   4.341  11.634 -0.7789  0.4227  0.2969
  284MPD2    H7 4295   2.283   4.277  11.568 -0.2564  1.9268 -0.8050
  285TMC3    C1 4296   2.348   4.501  11.509  0.3917  0.2229  0.8608
  285TMC3    C2 4297   2.382   4.400  11.420  0.0536 -0.0418 -0.1139
  285TMC3    C3 4298   2.492   4.416  11.343 -0.0655 -0.1886 -0.5690
  285TMC3    C4 4299   2.432   4.610  11.513 -0.0626 -0.8478  0.5982
  285TMC3    C5 4300   2.534   4.630  11.424  0.2671  0.4936  0.6448
  285TMC3    C6 4301   2.578   4.521  11.349 -0.0734  0.8514 -0.2179
  285TMC3     C 4302   2.269   4.473  11.626  1.1742  0.4604  0.2139
  285TMC3     O 4303   2.230   4.575  11.686 -1.2548  0.6015  0.0767
  285TMC3     H 4304   2.329   4.306  11.417 -0.4109  0.2563 -1.0179
  285TMC3    H1 4305   2.402   4.678  11.592  0.5499  1.2479 -0.9512
  285TMC3    H2 4306   2.636   4.533  11.259 -1.6678 -1.0872 -1.5043
  285TMC3    C7 4307   2.615   0.020  11.415 -0.2136  0.7845  0.7888
  285TMC3    C8 4308   2.523   4.302  11.258 -0.1634  1.0628  0.3032
  285TMC3    O1 4309   2.733   4.719  11.388 -0.3666 -0.0341  0.3606
  285TMC3    O2 4310   2.428   4.239  11.221 -0.1916 -0.7189 -0.4462
  286MPD2     C 4311   3.406   3.695   0.851  0.8462  0.4647  0.1082
  286MPD2    C1 4312   3.393   3.609   0.957 -0.6186  0.6456 -0.4029
  286MPD2    C2 4313   3.504   3.553   1.011  0.0567 -0.3895 -0.9643
  286MPD2    C3 4314   3.637   3.597   0.977 -0.7777 -1.0639 -0.2861
  286MPD2    C4 4315   3.643   3.694   0.877 -0.2599  0.0512  0.0810
  286MPD2    C5 4316   3.531   3.740   0.815  0.0001  0.2092  0.3518
  286MPD2     H 4317   3.498   3.477   1.089  1.4081  1.7839  1.2700
  286MPD2    H1 4318   3.740   3.730   0.846 -0.2049  1.3620  1.7780
  286MPD2    H2 4319   3.319   3.725   0.794  2.5800  0.1447 -2.7137
  286MPD2    H3 4320   3.540   3.816   0.738 -0.3008 -0.0255  0.0840
  286MPD2     N 4321   3.754   3.531   1.026  0.5295  0.1384  0.4602
  286MPD2    H5 4322   3.837   3.546   0.970  0.2978  2.1487  0.6556
  286MPD2    N1 4323   3.268   3.548   0.995 -0.2106 -0.7335 -0.3044
  286MPD2    H7 4324   3.269   3.477   1.067  0.4616 -0.8068 -0.3793
  287TMC3    C1 4325   3.890   3.374   1.160 -0.2803 -0.0737  0.2371
  287TMC3    C2 4326   3.961   3.329   1.050  0.0870  0.5363  0.6421
  287TMC3    C3 4327   4.049   3.224   1.065  0.3576  0.1988  0.8412
  287TMC3    C4 4328   3.932   3.338   1.280  0.7467  0.3276 -0.4418
  287TMC3    C5 4329   4.024   3.243   1.294  0.6093 -0.2441  0.2990
  287TMC3    C6 4330   4.074   3.170   1.193 -0.9457 -0.1515 -0.4444
  287TMC3     C 4331   3.770   3.464   1.146 -1.4168 -0.3459 -0.1604
  287TMC3     O 4332   3.697   3.475   1.244 -0.1053  0.0756 -0.2263
  287TMC3     H 4333   3.936   3.372   0.954 -2.0096 -2.2911 -0.0707
  287TMC3    H1 4334   3.891   3.376   1.373 -0.8686  0.0019 -1.0222
  287TMC3    H2 4335   4.150   3.096   1.210 -2.6860 -1.6411  0.8252
  287TMC3    C7 4336   4.091   3.230   1.417  0.2344  0.3490  0.5451
  287TMC3    C8 4337   4.076   3.126   0.954 -0.8037 -0.5214  0.0496
  287TMC3    O1 4338   4.123   3.114   1.444  0.5530  0.0802  0.2947
  287TMC3    O2 4339   4.091   3.010   0.995 -0.5333  0.5396  0.1488
  288TMC3    C1 4340   4.344   2.769  14.583  0.1893 -0.0974 -0.5110
  288TMC3    C2 4341   4.306   2.735  14.705 -0.2085  0.7516 -0.4341
  288TMC3    C3 4342   4.265   2.841  14.789  0.0258  0.1147  0.2300
  288TMC3    C4 4343   4.351   2.901  14.536 -0.3484  0.3194  0.0657
  288TMC3    C5 4344   4.316   2.997  14.623 -0.2487  0.0697 -0.7632
  288TMC3    C6 4345   4.273   2.976  14.754 -0.2341  1.2177 -1.0791
  288TMC3     C 4346   4.405   2.661  14.504 -0.2925  0.1617  0.0765
  288TMC3     O 4347   4.391   2.544  14.537  0.7738 -0.0578  0.0591
  288TMC3     H 4348   4.306   2.632  14.737  0.2118  1.3986  1.6263
  288TMC3    H1 4349   4.379   2.911  14.432 -1.0169  0.8173 -0.0617
  288TMC3    H2 4350   4.257   3.057  14.824 -1.8903 -0.6248  0.7030
  288TMC3    C7 4351   4.296   3.134  14.577 -0.3519 -0.3081 -0.1688
  288TMC3    C8 4352   4.224   2.820  14.928 -0.0252  0.2033  0.6895
  288TMC3    O1 4353   4.207   3.191  14.640  0.1575  0.0904  0.3137
  288TMC3    O2 4354   4.232   2.923  14.996  0.3202 -0.0528 -0.5470
  289MPD2     C 4355   4.468   2.035  14.957  1.1727  0.3392  0.8355
  289MPD2    C1 4356   4.557   2.095  14.874  0.1243 -0.0197 -0.0531
  289MPD2    C2 4357   4.523   2.110  14.737  0.2287  0.6477 -0.3176
  289MPD2    C3 4358   4.391   2.074  14.693  0.0079 -0.0257  0.0688
  289MPD2    C4 4359   4.305   2.012  14.784 -0.5543 -1.3411  0.3799
  289MPD2    C5 4360   4.345   1.986  14.913 -0.6895  0.4106  0.5147
  289MPD2     H 4361   4.596   2.146  14.665 -0.4055  0.9611 -0.8065
  289MPD2    H1 4362   4.205   1.979  14.758 -0.7255  0.0241 -0.7166
  289MPD2    H2 4363   4.490   2.038  15.063 -0.4913  1.2380  1.1560
  289MPD2    H3 4364   4.271   1.953  14.985 -0.7510  0.3405  0.4177
  289MPD2     N 4365   4.348   2.095  14.559 -0.4141 -0.4991  0.6397
  289MPD2    H5 4366   4.257   2.058  14.535 -0.7875  0.3984  0.6599
  289MPD2    N1 4367   4.677   2.127  14.933 -0.0988  0.2506 -0.2045
  289MPD2    H7 4368   4.677   2.133  15.034 -0.4804 -0.9637 -0.1370
  290TMC3    C1 4369   4.315   2.188  14.355 -0.3373 -0.0304  1.0530
  290TMC3    C2 4370   4.306   2.314  14.306 -0.7011  0.4693  0.0174
  290TMC3    C3 4371   4.192   2.342  14.233  0.0901 -0.6132 -1.2164
  290TMC3    C4 4372   4.233   2.082  14.320  0.1762 -0.2347  0.1791
  290TMC3    C5 4373   4.126   2.117  14.249 -0.2100  0.0914  0.2068
  290TMC3    C6 4374   4.100   2.241  14.210 -0.0871  0.0836 -0.0891
  290TMC3     C 4375   4.404   2.166  14.461 -0.3998  0.5665  0.4461
  290TMC3     O 4376   4.505   2.234  14.470 -0.2919 -0.4115  0.2263
  290TMC3     H 4377   4.368   2.385  14.359  0.0785  0.4170 -0.8364
  290TMC3    H1 4378   4.242   1.978  14.351  0.2530 -0.7358 -1.5478
  290TMC3    H2 4379   4.006   2.267  14.163 -0.1132 -0.0897 -0.1302
  290TMC3    C7 4380   4.039   2.020  14.183  0.9517 -0.4432 -0.5391
  290TMC3    C8 4381   4.128   2.467  14.280  0.2980  0.9964 -0.6009
  290TMC3    O1 4382   4.004   2.054  14.070 -0.0054 -0.5428  0.0871
  290TMC3    O2 4383   4.008   2.466  14.308  0.2434  0.2174 -0.1884
  291MPD2     C 4384   3.777   1.922   0.706 -0.1807  0.5529  0.2386
  291MPD2    C1 4385   3.769   1.880   0.577 -0.1076  0.8739 -0.0949
  291MPD2    C2 4386   3.888   1.886   0.499 -0.2704  0.4091 -0.2292
  291MPD2    C3 4387   4.003   1.941   0.550 -0.0364 -0.3557 -0.4436
  291MPD2    C4 4388   4.012   1.960   0.685  0.3566 -0.0122 -0.0262
  291MPD2    C5 4389   3.900   1.955   0.756 -0.6996 -0.0576  0.2660
  291MPD2     H 4390   3.885   1.843   0.400 -0.3143  1.3722 -0.6402
  291MPD2    H1 4391   4.097   2.002   0.738 -0.6334  1.6090  0.2656
  291MPD2    H2 4392   3.687   1.909   0.766  1.0325  1.1379  2.1630
  291MPD2    H3 4393   3.906   1.996   0.856 -0.1161 -1.1080  0.6640
  291MPD2     N 4394   4.121   1.971   0.475 -0.0499 -0.0264 -0.4759
  291MPD2    H5 4395   4.197   2.014   0.528  0.2192 -1.2504  0.1302
  291MPD2    N1 4396   3.653   1.830   0.520  0.2631 -0.0418 -0.2766
  291MPD2    H7 4397   3.662   1.788   0.428 -1.2761 -0.4529 -0.2348
  292TMC3    C1 4398   3.427   1.768   0.511 -0.0173  0.1492  0.2237
  292TMC3    C2 4399   3.301   1.821   0.524  0.2124  0.2234 -0.3624
  292TMC3    C3 4400   3.197   1.740   0.482 -0.1736 -0.8079 -0.1385
  292TMC3    C4 4401   3.451   1.647   0.451  0.7204  0.9550  0.9399
  292TMC3    C5 4402   3.340   1.575   0.424  0.2341 -0.2946 -0.2115
  292TMC3    C6 4403   3.218   1.621   0.416  0.1576  0.5475 -0.1558
  292TMC3     C 4404   3.531   1.841   0.581  0.4191 -0.7584  0.2988
  292TMC3     O 4405   3.488   1.926   0.659 -0.1105  0.1790  0.0337
  292TMC3     H 4406   3.280   1.914   0.575 -1.7669 -0.9233  0.9219
  292TMC3    H1 4407   3.553   1.609   0.443  0.7001  1.3543 -1.2701
  292TMC3    H2 4408   3.141   1.549   0.391  0.9879 -0.4960  0.2895
  292TMC3    C7 4409   3.355   1.431   0.411  0.5697 -0.1021  0.1751
  292TMC3    C8 4410   3.065   1.796   0.476 -0.1060 -0.6386 -0.2539
  292TMC3    O1 4411   3.463   1.401   0.364 -0.0306 -0.3252 -0.0627
  292TMC3    O2 4412   3.058   1.919   0.481 -0.1454 -0.1282  0.0622
  293MPD2     C 4413   0.809   3.346  12.383  1.2169 -0.7243  0.1083
  293MPD2    C1 4414   0.692   3.298  12.434  0.4811 -0.3189 -0.0447
  293MPD2    C2 4415   0.668   3.308  12.569 -0.6471 -0.2212 -0.2223
  293MPD2    C3 4416   0.762   3.357  12.655  0.5501 -0.1561  0.1441
  293MPD2    C4 4417   0.881   3.397  12.603 -0.5108 -0.7815  0.3309
  293MPD2    C5 4418   0.901   3.404  12.465 -0.0710  0.4296  0.5995
  293MPD2     H 4419   0.573   3.279  12.613 -0.6204  0.6975  0.4242
  293MPD2    H1 4420   0.960   3.440  12.664 -0.7788 -0.7696  0.6722
  293MPD2    H2 4421   0.832   3.346  12.277 -0.0134  1.0611 -0.1554
  293MPD2    H3 4422   0.991   3.454  12.432 -0.3884  0.9895  0.5904
  293MPD2     N 4423   0.749   3.358  12.798  0.0920  0.0269  0.2465
  293MPD2    H5 4424   0.670   3.311  12.841  0.2737 -0.2462  0.2830
  293MPD2    N1 4425   0.598   3.250  12.339 -0.2013 -0.3440  0.4264
  293MPD2    H7 4426   0.625   3.250  12.242 -0.1210  0.4282  0.4543
  294TMC3    C1 4427   0.401   3.181  12.226 -0.5526 -0.1744 -0.3309
  294TMC3    C2 4428   0.320   3.074  12.215 -0.4699  0.0763  0.2928
  294TMC3    C3 4429   0.244   3.065  12.100 -0.7886  0.1968  1.0798
  294TMC3    C4 4430   0.409   3.287  12.135  0.3398  0.0277  0.1932
  294TMC3    C5 4431   0.335   3.270  12.019  0.6386 -1.2725  0.1758
  294TMC3    C6 4432   0.250   3.161  12.003  0.1597  0.5975  0.0889
  294TMC3     C 4433   0.469   3.200  12.352  0.3344 -0.1675  0.2878
  294TMC3     O 4434   0.406   3.167  12.449 -1.0496  0.1244  0.1652
  294TMC3     H 4435   0.322   2.996  12.291 -1.5120  0.8699  1.1351
  294TMC3    H1 4436   0.480   3.368  12.150  1.3833 -0.7389 -0.5816
  294TMC3    H2 4437   0.191   3.152  11.913  0.9989  2.1571 -0.6201
  294TMC3    C7 4438   0.300   3.385  11.937 -0.2704  0.3669  0.2392
  294TMC3    C8 4439   0.168   2.952  12.070 -1.0924 -1.0856  0.2059
  294TMC3    O1 4440   0.281   3.495  11.994 -0.6477  0.0981  0.0406
  294TMC3    O2 4441   0.197   2.847  12.134 -0.3607 -0.2079  0.1297
  295MPD2     C 4442   1.694   2.281   0.532 -0.0707 -0.3772 -0.0271
  295MPD2    C1 4443   1.600   2.301   0.432  0.2800  0.0950  0.0776
  295MPD2    C2 4444   1.476   2.351   0.466 -0.0363  0.0289  0.0536
  295MPD2    C3 4445   1.438   2.370   0.601  0.0008  0.1105  0.2897
  295MPD2    C4 4446   1.529   2.343   0.700 -0.0561  0.1343 -0.0982
  295MPD2    C5 4447   1.657   2.296   0.668  0.3404 -0.0309 -0.2604
  295MPD2     H 4448   1.421   2.387   0.379  0.1014  0.7195  0.2564
  295MPD2    H1 4449   1.505   2.354   0.805 -0.0587 -2.7185  0.2128
  295MPD2    H2 4450   1.789   2.232   0.516  1.1697  2.1455 -0.3996
  295MPD2    H3 4451   1.721   2.272   0.752 -0.7061 -0.5929  0.3775
  295MPD2     N 4452   1.314   2.432   0.625  0.4468 -0.5549  0.2852
  295MPD2    H5 4453   1.254   2.448   0.545  0.6803  3.1441  0.8582
  295MPD2    N1 4454   1.624   2.271   0.293 -0.0108 -0.1011  0.0093
  295MPD2    H7 4455   1.545   2.286   0.231  0.4258  3.1462  0.2233
  296TMC3    C1 4456   1.131   2.519   0.741 -0.1216 -0.6495 -0.0587
  296TMC3    C2 4457   1.100   2.644   0.787 -0.0781  0.3906 -0.3759
  296TMC3    C3 4458   0.967   2.679   0.777  0.6251  0.0090  0.1734
  296TMC3    C4 4459   1.041   2.427   0.691 -0.5006  0.1795  0.0254
  296TMC3    C5 4460   0.910   2.470   0.695 -0.2365  0.7580 -0.3505
  296TMC3    C6 4461   0.875   2.593   0.723 -0.0989  0.5261  0.0064
  296TMC3     C 4462   1.267   2.477   0.747  0.4286  0.2108 -0.2570
  296TMC3     O 4463   1.341   2.504   0.844 -0.2876 -0.7377 -0.7588
  296TMC3     H 4464   1.171   2.714   0.828 -0.6837  0.4016  0.6713
  296TMC3    H1 4465   1.079   2.327   0.671  0.5288  0.8052 -1.1881
  296TMC3    H2 4466   0.772   2.627   0.717 -0.0113  0.8333  0.1912
  296TMC3    C7 4467   0.793   2.387   0.656 -0.5266  0.1456 -0.1663
  296TMC3    C8 4468   0.932   2.820   0.767 -0.1009 -0.5002  0.0776
  296TMC3    O1 4469   0.695   2.446   0.610 -0.2485  1.2314  0.3319
  296TMC3    O2 4470   0.842   2.854   0.697  0.0914  0.3657  0.1424
  297MPD2     C 4471   2.981   3.888  16.184  0.3703 -0.1982  0.0701
  297MPD2    C1 4472   2.940   3.966  16.080 -0.6336  0.8004 -0.8450
  297MPD2    C2 4473   3.028   4.054  16.024  0.3220 -0.7658 -0.3438
  297MPD2    C3 4474   3.154   4.073  16.083  0.1970  0.1261 -0.6666
  297MPD2    C4 4475   3.185   4.004  16.198 -0.2594 -0.0385  0.0912
  297MPD2    C5 4476   3.099   3.910  16.248  0.7097  0.5070  0.8110
  297MPD2     H 4477   2.990   4.101  15.934 -1.9158 -2.5376 -0.3412
  297MPD2    H1 4478   3.280   4.021  16.247  0.4963  0.0372 -1.4033
  297MPD2    H2 4479   2.928   3.801  16.218 -0.5691  0.8332  1.2435
  297MPD2    H3 4480   3.138   3.850  16.330  1.3995 -1.8397 -1.2136
  297MPD2     N 4481   3.248   4.166  16.032 -0.2900 -1.3407 -0.6586
  297MPD2    H5 4482   3.336   4.186  16.079 -0.6773 -3.4823  0.9556
  297MPD2    N1 4483   2.814   3.949  16.012 -0.2055 -0.6126  0.0630
  297MPD2    H7 4484   2.806   3.995  15.923 -2.6204 -0.2351  0.4716
  298TMC3    C1 4485   2.592   3.933  16.014  0.4161  0.2771  0.7036
  298TMC3    C2 4486   2.591   3.913  15.882 -0.5129 -0.4659 -0.3930
  298TMC3    C3 4487   2.466   3.940  15.827  0.9318  0.1566 -0.8004
  298TMC3    C4 4488   2.494   3.975  16.096  0.5101 -0.0079 -0.3446
  298TMC3    C5 4489   2.367   3.993  16.043 -0.7916  0.8021  0.1843
  298TMC3    C6 4490   2.354   3.972  15.903 -0.3365 -0.0190 -0.3386
  298TMC3     C 4491   2.711   3.887  16.075 -0.5376  0.7776  0.1378
  298TMC3     O 4492   2.689   3.856  16.192 -0.5562  0.1412  0.1659
  298TMC3     H 4493   2.680   3.891  15.825  0.7893  2.0533  0.6817
  298TMC3    H1 4494   2.516   4.008  16.197 -0.3770  0.6903 -0.3759
  298TMC3    H2 4495   2.260   3.986  15.850  0.1543  1.1997 -0.8948
  298TMC3    C7 4496   2.278   4.077  16.116 -0.0113 -0.4336 -1.0297
  298TMC3    C8 4497   2.455   3.929  15.683 -0.7432  0.1833 -0.7131
  298TMC3    O1 4498   2.291   4.077  16.240 -0.2884 -0.6132  0.3039
  298TMC3    O2 4499   2.340   3.915  15.639  0.5886  0.1573 -0.0229
  299MPD2     C 4500   3.500   2.909  10.999  0.3242 -0.2238 -0.9268
  299MPD2    C1 4501   3.479   3.027  10.930  0.3731 -0.0112 -0.3033
  299MPD2    C2 4502   3.391   3.028  10.829 -0.0398 -0.0222  0.5882
  299MPD2    C3 4503   3.317   2.912  10.802  0.4055  0.3988  0.5963
  299MPD2    C4 4504   3.332   2.798  10.884  0.3020 -0.7856  0.4186
  299MPD2    C5 4505   3.429   2.796  10.977  0.7850 -1.2143 -0.9094
  299MPD2     H 4506   3.369   3.118  10.773 -1.7347  0.3485  1.8548
  299MPD2    H1 4507   3.282   2.702  10.875  0.0207 -0.6886  0.9290
  299MPD2    H2 4508   3.567   2.902  11.085 -0.9827  0.6057  0.1743
  299MPD2    H3 4509   3.445   2.708  11.038 -0.9267 -0.7680  0.1552
  299MPD2     N 4510   3.226   2.907  10.695  0.1978  0.3980  0.6997
  299MPD2    H5 4511   3.169   2.823  10.700  0.7007  0.0975  1.4591
  299MPD2    N1 4512   3.558   3.138  10.967  0.2652  0.2958  0.0543
  299MPD2    H7 4513   3.640   3.115  11.023  0.0479  0.6234  0.5045
  300TMC3    C1 4514   3.130   2.955  10.485  0.0284 -0.7103  0.5403
  300TMC3    C2 4515   3.140   3.026  10.371  0.0190 -0.3182  0.0327
  300TMC3    C3 4516   3.030   3.026  10.288  0.2379 -0.0522  0.0952
  300TMC3    C4 4517   3.034   2.863  10.506  0.2951 -0.5695 -0.0699
  300TMC3    C5 4518   2.931   2.850  10.416  0.9063 -0.4657 -0.2983
  300TMC3    C6 4519   2.929   2.935  10.303 -0.1739  0.5612  0.4885
  300TMC3     C 4520   3.229   2.997  10.589  0.1488  0.3003  0.1066
  300TMC3     O 4521   3.304   3.091  10.566 -0.3522  0.3262 -0.4109
  300TMC3     H 4522   3.216   3.103  10.366  0.7009 -1.0081 -0.2149
  300TMC3    H1 4523   3.023   2.800  10.594  0.1147 -1.1153 -0.4837
  300TMC3    H2 4524   2.850   2.930  10.229  0.2255  0.5257  0.0659
  300TMC3    C7 4525   2.802   2.853  10.475 -0.3571  0.2391 -0.7174
  300TMC3    C8 4526   3.006   3.139  10.205  0.1546  0.5607  0.5356
  300TMC3    O1 4527   2.716   2.804  10.409 -0.1159  0.4530  0.6236
  300TMC3    O2 4528   2.943   3.119  10.100  0.0119  0.2437  0.0790
  301MPD2     C 4529   1.267   0.357   1.858  0.0708  0.3224  0.3865
  301MPD2    C1 4530   1.172   0.288   1.782  0.0111 -0.2777 -0.2820
  301MPD2    C2 4531   1.223   0.197   1.689 -0.2671  0.1411  1.0464
  301MPD2    C3 4532   1.359   0.192   1.668  0.5118 -0.3680 -0.1903
  301MPD2    C4 4533   1.453   0.263   1.740  0.2822  0.7831 -0.1366
  301MPD2    C5 4534   1.405   0.336   1.840  0.2368  0.3062  0.0530
  301MPD2     H 4535   1.162   0.131   1.630  2.2184 -1.2751  0.0536
  301MPD2    H1 4536   1.559   0.257   1.720 -0.0706  2.2227 -2.4280
  301MPD2    H2 4537   1.234   0.422   1.938 -2.7177 -0.4336 -0.1728
  301MPD2    H3 4538   1.474   0.387   1.906  0.7682  2.4181 -2.1011
  301MPD2     N 4539   1.399   0.092   1.574  0.9617  0.8455 -0.1905
  301MPD2    H5 4540   1.329   0.024   1.544  1.5330  0.4230 -0.5741
  301MPD2    N1 4541   1.029   0.297   1.799  0.2550  0.2610 -0.9997
  301MPD2    H7 4542   0.970   0.227   1.755 -0.1982 -0.8817  1.3954
  302TMC3    C1 4543   1.529   4.694   1.424  0.2488  0.5547  0.5652
  302TMC3    C2 4544   1.614   4.590   1.453  0.2806  0.0452  0.1431
  302TMC3    C3 4545   1.589   4.476   1.390  0.8439  0.7017  0.7474
  302TMC3    C4 4546   1.423   4.689   1.341 -0.3063 -0.2487  0.0718
  302TMC3    C5 4547   1.400   4.569   1.273 -0.5926 -0.0703 -0.4025
  302TMC3    C6 4548   1.484   4.462   1.297 -0.8072 -0.3738 -0.2256
  302TMC3     C 4549   1.524   0.068   1.530 -0.6026 -0.4794  0.4685
  302TMC3     O 4550   1.631   0.095   1.573  0.2523  0.0169 -0.0193
  302TMC3     H 4551   1.694   4.605   1.524  0.9792  0.6547 -0.7685
  302TMC3    H1 4552   1.368   0.058   1.323  0.0732  0.3070  1.7840
  302TMC3    H2 4553   1.459   4.360   1.270 -1.4979  0.0899 -1.3287
  302TMC3    C7 4554   1.332   4.574   1.145 -0.2596 -0.3184 -0.5325
  302TMC3    C8 4555   1.656   4.352   1.423 -0.5318 -0.0571 -0.0458
  302TMC3    O1 4556   1.353   4.471   1.079  0.6382  0.2969  0.5389
  302TMC3    O2 4557   1.604   4.242   1.413  0.1732 -0.2494  0.0371
  303MPD2     C 4558   0.757   3.274  10.494  1.0022  0.7202 -0.1580
  303MPD2    C1 4559   0.655   3.207  10.427 -0.3306 -0.3480  0.0366
  303MPD2    C2 4560   0.649   3.193  10.294 -0.0131  0.3804 -0.5249
  303MPD2    C3 4561   0.755   3.237  10.217 -0.1643  0.5135  1.2634
  303MPD2    C4 4562   0.864   3.300  10.281 -0.2988 -0.8611  0.2697
  303MPD2    C5 4563   0.858   3.326  10.413  0.2970 -0.0536 -0.1198
  303MPD2     H 4564   0.570   3.133  10.250 -0.9186 -0.6981  2.5622
  303MPD2    H1 4565   0.953   3.330  10.227 -0.9399  0.2267 -0.1744
  303MPD2    H2 4566   0.767   3.271  10.601  0.7412  0.0184 -0.1599
  303MPD2    H3 4567   0.947   3.368  10.458 -0.0866  0.9515 -0.2993
  303MPD2     N 4568   0.771   3.212  10.079 -0.2284 -0.3526 -0.8529
  303MPD2    H5 4569   0.863   3.242  10.047 -0.3611  0.8831 -0.0847
  303MPD2    N1 4570   0.558   3.155  10.515 -0.2410 -0.0450  0.1726
  303MPD2    H7 4571   0.578   3.182  10.611 -1.9026 -0.9585  0.7645
  304TMC3    C1 4572   0.384   3.022  10.594  0.2009 -0.2701 -0.4825
  304TMC3    C2 4573   0.248   3.019  10.587  0.2149 -1.1293 -0.5580
  304TMC3    C3 4574   0.185   2.922  10.663 -0.5132 -0.1343  0.3132
  304TMC3    C4 4575   0.455   2.917  10.646 -0.0117  0.0292 -0.7059
  304TMC3    C5 4576   0.388   2.816  10.706 -0.6843 -0.2128 -0.3845
  304TMC3    C6 4577   0.250   2.832  10.738 -0.2145  0.1113 -0.1365
  304TMC3     C 4578   0.449   3.085  10.484 -0.1044  0.5773  0.6354
  304TMC3     O 4579   0.395   3.069  10.377  0.4639  0.1824 -0.6721
  304TMC3     H 4580   0.195   3.085  10.520 -2.2629 -0.9487  1.5940
  304TMC3    H1 4581   0.558   2.914  10.612  0.1072 -1.4407 -0.2228
  304TMC3    H2 4582   0.190   2.757  10.789 -0.9420  0.7314 -0.0910
  304TMC3    C7 4583   0.420   2.677  10.656  0.0691  0.9622 -0.5754
  304TMC3    C8 4584   0.062   2.868  10.600  0.1507  0.1015 -0.1296
  304TMC3    O1 4585   0.320   2.610  10.636  0.0612  0.0967 -0.0798
  304TMC3    O2 4586   4.689   2.938  10.578  0.0387  1.0027  0.2121
  305MPD2     C 4587   4.108   0.712  13.817 -0.1113  0.3865 -0.0076
  305MPD2    C1 4588   4.122   0.582  13.866 -0.1154  0.1359  0.4838
  305MPD2    C2 4589   4.107   0.481  13.775  0.3073 -0.3060 -0.4604
  305MPD2    C3 4590   4.107   0.505  13.638  0.0989 -0.1719  0.4216
  305MPD2    C4 4591   4.101   0.633  13.591  0.0669 -0.5102  0.4957
  305MPD2    C5 4592   4.096   0.733  13.676  0.8900 -0.5635  0.4788
  305MPD2     H 4593   4.111   0.377  13.807  0.6844 -0.4440 -0.9459
  305MPD2    H1 4594   4.103   0.656  13.485  2.2923 -2.2659  0.1596
  305MPD2    H2 4595   4.112   0.810  13.864  1.4400 -0.0541  0.7767
  305MPD2    H3 4596   4.096   0.837  13.647  0.9842  0.4908  4.3341
  305MPD2     N 4597   4.087   0.404  13.542 -0.2176 -0.7318 -0.0579
  305MPD2    H5 4598   4.069   0.437  13.448  2.4348 -1.7216 -0.9108
  305MPD2    N1 4599   4.165   0.568  13.999 -0.3479  0.6951  0.7702
  305MPD2    H7 4600   4.162   0.655  14.053  1.5370  0.2266  1.6283
  306TMC3    C1 4601   4.243   0.466  14.203  1.0862 -0.6616  0.1251
  306TMC3    C2 4602   4.336   0.374  14.255 -0.9051 -0.3132 -0.1091
  306TMC3    C3 4603   4.369   0.375  14.392 -0.6287 -0.0757  0.1117
  306TMC3    C4 4604   4.184   0.558  14.285 -0.7967 -0.1687  0.3655
  306TMC3    C5 4605   4.226   0.556  14.416 -0.1737 -0.3476  0.3147
  306TMC3    C6 4606   4.304   0.463  14.477  0.0091  0.0317 -1.1390
  306TMC3     C 4607   4.205   0.449  14.061 -0.1460 -0.2744 -0.9021
  306TMC3     O 4608   4.222   0.337  14.013  0.0762 -0.2161 -0.3302
  306TMC3     H 4609   4.391   0.315  14.183 -0.4151  0.3156 -0.2467
  306TMC3    H1 4610   4.118   0.636  14.248  0.3629  0.4609 -0.3762
  306TMC3    H2 4611   4.319   0.473  14.584 -0.8790  2.5981 -1.2708
  306TMC3    C7 4612   4.150   0.640  14.510 -0.0927 -0.1125  0.4328
  306TMC3    C8 4613   4.455   0.274  14.440  0.1645  1.0108  0.5438
  306TMC3    O1 4614   4.036   0.670  14.478  0.5419 -0.4219 -0.0838
  306TMC3    O2 4615   4.555   0.246  14.375 -0.0001  0.1184  0.1177
  307MPD2     C 4616   2.009   2.632   0.316 -0.3273  0.1399  0.1870
  307MPD2    C1 4617   1.956   2.727   0.401  0.5177  0.1215 -0.5270
  307MPD2    C2 4618   1.821   2.748   0.383 -0.2930 -0.2905  0.3795
  307MPD2    C3 4619   1.742   2.670   0.299 -0.4392  0.0123  0.4951
  307MPD2    C4 4620   1.797   2.563   0.224  0.0384  0.4178 -0.4124
  307MPD2    C5 4621   1.932   2.546   0.241  0.1569  0.1947  0.0059
  307MPD2     H 4622   1.777   2.832   0.436  0.8442  1.1255 -0.9132
  307MPD2    H1 4623   1.744   2.488   0.167 -0.5702  1.4012 -1.1551
  307MPD2    H2 4624   2.116   2.618   0.313 -0.2310  0.4998  1.6370
  307MPD2    H3 4625   1.989   2.464   0.199  1.5636  0.2555  1.8002
  307MPD2     N 4626   1.606   2.699   0.315  0.3805  0.4124 -0.4720
  307MPD2    H5 4627   1.575   2.776   0.372  1.1187  1.4594 -1.4772
  307MPD2    N1 4628   2.030   2.819   0.480  0.2857  0.7439 -0.2925
  307MPD2    H7 4629   1.965   2.882   0.526  0.1791 -0.1154  0.7140
  308TMC3    C1 4630   1.190   2.788   0.268 -0.9928  0.3117 -0.2884
  308TMC3    C2 4631   1.195   2.840   0.394  0.8328 -0.1550 -0.0055
  308TMC3    C3 4632   1.294   2.800   0.481  0.8127 -0.2841  0.1065
  308TMC3    C4 4633   1.279   2.700   0.217 -0.7996 -0.4702 -0.6469
  308TMC3    C5 4634   1.381   2.666   0.307  0.0229 -0.1147  0.2640
  308TMC3    C6 4635   1.390   2.714   0.434  0.6237  0.3865  0.2146
  308TMC3     C 4636   1.076   2.820   0.182 -0.8984  0.7525  0.7115
  308TMC3     O 4637   1.037   2.732   0.103 -0.6706 -0.3264  0.3245
  308TMC3     H 4638   1.122   2.909   0.436  0.1101  1.1739 -3.4790
  308TMC3    H1 4639   1.268   2.649   0.122 -0.5129 -0.9002 -0.4510
  308TMC3    H2 4640   1.472   2.683   0.499  0.6858 -0.3411 -0.2082
  308TMC3    C7 4641   1.510   2.617   0.259  0.7180  0.3421  0.0548
  308TMC3    C8 4642   1.319   2.861   0.610  0.0000 -0.0933  0.0599
  308TMC3    O1 4643   1.519   2.549   0.157  0.0574 -0.2001 -0.1950
  308TMC3    O2 4644   1.388   2.791   0.691  0.2503 -0.3257  0.1686
  309MPD2     C 4645   0.944   3.987  17.200 -0.2334  0.4444 -0.1161
  309MPD2    C1 4646   0.900   4.069  17.092  0.0107  0.7036  0.2568
  309MPD2    C2 4647   0.796   4.155  17.113  0.8940  0.4220 -0.0288
  309MPD2    C3 4648   0.742   4.172  17.240  0.5091 -0.3609  0.9199
  309MPD2    C4 4649   0.800   4.097  17.341 -0.5789  0.3143 -0.1635
  309MPD2    C5 4650   0.892   4.003  17.324  0.6235  0.1218  0.2430
  309MPD2     H 4651   0.758   4.209  17.027  1.2504  1.2642  0.3402
  309MPD2    H1 4652   0.765   4.109  17.443  0.9285  0.7264  0.3000
  309MPD2    H2 4653   1.013   3.904  17.191  2.0784  2.2867  0.4177
  309MPD2    H3 4654   0.923   3.944  17.410 -0.6007 -1.2348 -0.2513
  309MPD2     N 4655   0.636   4.261  17.270 -0.1136 -0.7428 -0.8415
  309MPD2    H5 4656   0.602   4.263  17.365  0.7684 -0.1640 -0.5398
  309MPD2    N1 4657   0.951   4.060  16.961  0.0437  0.3496  0.1037
  309MPD2    H7 4658   0.889   4.116  16.902  0.5583  0.8975  0.0790
  310TMC3    C1 4659   1.104   4.019  16.784  0.2505 -0.1732  0.5118
  310TMC3    C2 4660   1.044   4.124  16.709 -0.4477 -0.2338 -0.2713
  310TMC3    C3 4661   1.077   4.129  16.581 -0.6791 -0.7597 -0.2578
  310TMC3    C4 4662   1.222   3.953  16.744  0.1736  0.5388 -0.6986
  310TMC3    C5 4663   1.255   3.969  16.612 -0.1336 -0.5518 -0.1241
  310TMC3    C6 4664   1.173   4.038  16.534 -0.3805  0.0141 -0.0707
  310TMC3     C 4665   1.052   3.981  16.914  0.1643  0.6066  0.3097
  310TMC3     O 4666   1.118   3.899  16.974  0.2222 -0.3802  0.1635
  310TMC3     H 4667   0.985   4.195  16.765 -0.1646 -0.2650  0.0707
  310TMC3    H1 4668   1.276   3.883  16.806 -0.6818  0.5668  0.0626
  310TMC3    H2 4669   1.203   4.058  16.432  1.8854 -0.3938  0.5053
  310TMC3    C7 4670   1.375   3.913  16.556 -0.1681 -0.0416  0.2846
  310TMC3    C8 4671   1.001   4.212  16.481 -0.0319  1.1169 -0.3265
  310TMC3    O1 4672   1.376   3.906  16.433 -0.4402  0.0544 -0.0539
  310TMC3    O2 4673   1.031   4.197  16.365  0.8834 -0.4141 -0.3088
  311MPD2     C 4674   3.146   0.098  13.058 -0.2911 -0.6352 -0.3607
  311MPD2    C1 4675   3.178   0.181  12.960  0.8316 -0.3744 -0.0357
  311MPD2    C2 4676   3.083   0.264  12.909 -0.4971  0.1780  0.0475
  311MPD2    C3 4677   2.956   0.269  12.963  0.5207 -0.2698  0.0552
  311MPD2    C4 4678   2.922   0.181  13.064  0.1187  0.8282  0.0428
  311MPD2    C5 4679   3.017   0.099  13.111 -0.7355  0.6804  0.4969
  311MPD2     H 4680   3.113   0.336  12.834  1.1149  0.9573  1.4433
  311MPD2    H1 4681   2.822   0.180  13.106 -0.2465 -0.2980 -0.8481
  311MPD2    H2 4682   3.221   0.031  13.098  1.2811  0.8284 -0.8284
  311MPD2    H3 4683   2.992   0.030  13.190 -0.9616  0.7375  0.4751
  311MPD2     N 4684   2.865   0.370  12.919  0.4355 -0.3687  0.1999
  311MPD2    H5 4685   2.896   0.442  12.854  0.3865 -1.3996 -0.9756
  311MPD2    N1 4686   3.310   0.189  12.899 -0.0090 -0.0005 -0.1066
  311MPD2    H7 4687   3.321   0.262  12.829  0.3634  1.4064  1.4241
  312TMC3    C1 4688   2.674   0.503  12.906 -0.0557  0.0974  0.2223
  312TMC3    C2 4689   2.538   0.493  12.877  0.0141  0.4001 -0.2208
  312TMC3    C3 4690   2.473   0.604  12.844  0.1603  0.2188  0.7358
  312TMC3    C4 4691   2.743   0.621  12.891  0.2086 -0.2236 -0.3200
  312TMC3    C5 4692   2.668   0.728  12.878 -0.3997  0.1824 -0.2728
  312TMC3    C6 4693   2.532   0.731  12.851  0.0080 -0.3980 -0.1374
  312TMC3     C 4694   2.730   0.382  12.953 -0.1514  0.0234  0.1286
  312TMC3     O 4695   2.656   0.298  13.005 -0.1342  0.0836  0.1031
  312TMC3     H 4696   2.496   0.396  12.898 -1.3374  0.3765 -3.0814
  312TMC3    H1 4697   2.846   0.626  12.924 -0.1393  0.8470  0.6296
  312TMC3    H2 4698   2.470   0.819  12.845  2.3026  1.1809 -0.7118
  312TMC3    C7 4699   2.722   0.863  12.876 -0.5973  0.0169 -0.2739
  312TMC3    C8 4700   2.330   0.598  12.825 -0.0940  0.4260  0.9371
  312TMC3    O1 4701   2.663   0.948  12.815  0.1949 -0.2132  0.1056
  312TMC3    O2 4702   2.274   0.489  12.855 -0.7286  0.0043 -0.8316
  313MPD2     C 4703   2.819   3.898  10.484  0.3587 -0.0653  0.3284
  313MPD2    C1 4704   2.690   3.859  10.515  0.2072 -0.0780 -0.2580
  313MPD2    C2 4705   2.620   3.780  10.422  0.4847 -0.3984 -0.4376
  313MPD2    C3 4706   2.683   3.738  10.303  0.5265  0.0674  0.3339
  313MPD2    C4 4707   2.814   3.773  10.282 -0.2574  0.2218 -0.8753
  313MPD2    C5 4708   2.879   3.857  10.368 -0.6519 -0.0122 -0.4459
  313MPD2     H 4709   2.513   3.768  10.435  0.7260 -0.6493  1.2609
  313MPD2    H1 4710   2.872   3.728  10.202 -0.5924 -1.1910 -0.3197
  313MPD2    H2 4711   2.877   3.971  10.540  0.6562  1.4301 -1.9019
  313MPD2    H3 4712   2.985   3.873  10.355 -0.5029 -1.4853 -1.1011
  313MPD2     N 4713   2.608   3.649  10.223  0.6368  0.3290 -0.0193
  313MPD2    H5 4714   2.517   3.616  10.252  0.6029  0.2886 -0.1696
  313MPD2    N1 4715   2.630   3.921  10.626 -0.0213 -0.2760 -0.0386
  313MPD2    H7 4716   2.668   4.013  10.647  0.1711 -0.7889  1.9240
  314TMC3    C1 4717   2.465   3.993  10.779  0.0413 -0.6819  0.5625
  314TMC3    C2 4718   2.543   4.100  10.812 -0.2575 -0.2182 -0.2050
  314TMC3    C3 4719   2.491   4.224  10.838  0.2469 -0.0672  0.2785
  314TMC3    C4 4720   2.331   4.008  10.764 -0.4511  0.5514  0.4885
  314TMC3    C5 4721   2.280   4.132  10.773 -0.1197  0.4535 -0.2388
  314TMC3    C6 4722   2.359   4.244  10.806 -0.5622 -0.4135  0.0392
  314TMC3     C 4723   2.522   3.884  10.694  0.2328  0.4117  0.2738
  314TMC3     O 4724   2.445   3.791  10.668  0.3393  0.4292  0.0351
  314TMC3     H 4725   2.650   4.091  10.825 -0.2572 -0.4937 -0.4090
  314TMC3    H1 4726   2.271   3.920  10.743 -0.9051  0.5353  1.8558
  314TMC3    H2 4727   2.316   4.342  10.820 -0.1777 -0.0589 -1.2875
  314TMC3    C7 4728   2.160   4.156  10.700  0.2617 -0.6861 -0.0268
  314TMC3    C8 4729   2.581   4.333  10.871  0.2040  0.2513  0.8270
  314TMC3    O1 4730   2.089   4.058  10.696 -0.4210  0.2029 -0.0247
  314TMC3    O2 4731   2.698   4.321  10.845  0.0783  0.0124 -0.4364
  315MPD2     C 4732   1.880   4.243  17.676 -0.0718  0.9437  0.5596
  315MPD2    C1 4733   1.978   4.155  17.688 -0.0530  1.0737 -0.3337
  315MPD2    C2 4734   2.092   4.183  17.622 -0.5914  0.0906 -0.2400
  315MPD2    C3 4735   2.114   4.301  17.552 -0.2628 -0.3935  0.3019
  315MPD2    C4 4736   2.011   4.391  17.549  0.0425 -0.2555 -0.2275
  315MPD2    C5 4737   1.892   4.366  17.618 -0.0638  0.6221 -0.4322
  315MPD2     H 4738   2.173   4.112  17.638 -0.5197  0.2733  0.2208
  315MPD2    H1 4739   2.016   4.486  17.497 -0.0957  0.6608  1.4349
  315MPD2    H2 4740   1.786   4.222   0.033 -0.5263  0.8228 -0.3199
  315MPD2    H3 4741   1.811   4.438  17.612 -0.0357  0.7663  0.8627
  315MPD2     N 4742   2.231   4.327  17.485  0.2136 -0.4309  0.4156
  315MPD2    H5 4743   2.239   4.418  17.441 -0.0411  0.3296  1.9279
  315MPD2    N1 4744   1.974   4.042   0.082  0.2852 -0.0891  0.0222
  315MPD2    H7 4745   2.058   3.986   0.073  0.8475  0.2360  3.2211
  316TMC3    C1 4746   2.457   4.326  17.428  0.3755 -0.0662  0.1332
  316TMC3    C2 4747   2.577   4.323  17.489 -0.4865 -0.4235  0.2558
  316TMC3    C3 4748   2.675   4.412  17.455  0.4924  0.7051  0.5957
  316TMC3    C4 4749   2.432   4.417  17.331  0.2503  0.2412 -0.5993
  316TMC3    C5 4750   2.528   4.508  17.298 -0.6947 -0.4288 -0.1638
  316TMC3    C6 4751   2.647   4.505  17.358  1.0705  0.4919 -0.3128
  316TMC3     C 4752   2.348   4.248  17.486  0.4886 -0.8645  0.2213
  316TMC3     O 4753   2.381   4.143  17.533  0.4078 -0.3784 -0.7272
  316TMC3     H 4754   2.585   4.247  17.567 -0.0743  0.9687  1.5593
  316TMC3    H1 4755   2.341   4.400  17.276 -0.0560  2.3209 -0.7410
  316TMC3    H2 4756   2.725   4.574  17.329  1.4545  0.0236 -0.3880
  316TMC3    C7 4757   2.520   4.593  17.180 -0.1613 -0.6542  0.5286
  316TMC3    C8 4758   2.795   4.423  17.532  0.9676 -0.0505  0.2602
  316TMC3    O1 4759   2.609   4.672  17.155 -0.1204  0.4428 -0.1987
  316TMC3    O2 4760   2.872   4.507  17.478 -0.2898 -0.0671 -0.4288
  317MPD2     C 4761   4.039   2.272  12.727 -0.6858 -0.4848  0.2840
  317MPD2    C1 4762   4.079   2.143  12.740  0.0378  0.8402 -0.1551
  317MPD2    C2 4763   4.085   2.079  12.865  0.0165  0.3213  0.2080
  317MPD2    C3 4764   4.058   2.150  12.978 -0.0851  0.1120 -0.2267
  317MPD2    C4 4765   4.030   2.287  12.968  0.3381  0.2611  0.1161
  317MPD2    C5 4766   4.022   2.339  12.845  0.3679 -0.1552 -0.0222
  317MPD2     H 4767   4.118   1.976  12.876 -1.1816  0.2049  2.7255
  317MPD2    H1 4768   4.016   2.337  13.063  0.3644  1.2555 -0.4111
  317MPD2    H2 4769   4.039   2.331  12.636 -0.4210 -0.8248  0.0693
  317MPD2    H3 4770   3.993   2.442  12.828 -1.7542 -0.6979  0.2721
  317MPD2     N 4771   4.092   2.077  13.094  0.4471 -0.1238 -0.5908
  317MPD2    H5 4772   4.090   1.976  13.095  1.9936 -0.1404  0.3134
  317MPD2    N1 4773   4.113   2.058  12.632  0.0874 -0.5384  0.5333
  317MPD2    H7 4774   4.147   1.965  12.653 -1.9460 -1.0961  1.3476
  318TMC3    C1 4775   4.123   2.027  13.323  0.0052  0.5657  0.4002
  318TMC3    C2 4776   4.086   1.896  13.299 -0.6517 -0.4930 -0.2624
  318TMC3    C3 4777   4.150   1.803  13.370 -0.1875  0.5584 -0.4621
  318TMC3    C4 4778   4.199   2.061  13.433 -0.1420 -0.1619 -0.6433
  318TMC3    C5 4779   4.264   1.957  13.503  0.2221 -0.0397 -0.1999
  318TMC3    C6 4780   4.244   1.829  13.470 -0.5902 -0.2105 -0.2417
  318TMC3     C 4781   4.109   2.133  13.224 -0.5392  0.3194 -0.5589
  318TMC3     O 4782   4.111   2.250  13.250  0.5845  0.1109  0.2077
  318TMC3     H 4783   4.025   1.875  13.212  0.2388 -0.8287 -0.7985
  318TMC3    H1 4784   4.210   2.166  13.456 -0.9675  0.1921 -1.8903
  318TMC3    H2 4785   4.282   1.744  13.526 -0.8704 -1.2946 -1.6633
  318TMC3    C7 4786   4.373   1.995  13.581 -0.4529 -0.3733  0.6826
  318TMC3    C8 4787   4.131   1.660  13.331  0.4158  0.0219  0.6785
  318TMC3    O1 4788   4.371   2.109  13.614  0.4346 -0.3234 -0.0151
  318TMC3    O2 4789   4.218   1.590  13.376 -0.4003 -0.1713 -0.2899
  319MPD2     C 4790   0.485   3.614  16.216  0.7947 -0.2558  0.7164
  319MPD2    C1 4791   0.393   3.551  16.297  0.3059  0.1355  0.6653
  319MPD2    C2 4792   0.301   3.467  16.243 -0.5134 -0.0743  0.4786
  319MPD2    C3 4793   0.302   3.444  16.108  0.4093 -0.0056  0.2172
  319MPD2    C4 4794   0.402   3.498  16.034  0.6095 -0.2550  0.1524
  319MPD2    C5 4795   0.497   3.583  16.086 -0.2167  0.2218 -0.0061
  319MPD2     H 4796   0.239   3.415  16.316 -2.0056 -1.1356 -1.5535
  319MPD2    H1 4797   0.416   3.460  15.933  0.5681  1.3183 -0.4364
  319MPD2    H2 4798   0.552   3.695  16.244  0.8053 -1.2687  3.6599
  319MPD2    H3 4799   0.561   3.638  16.018  1.8974 -0.3080  1.5609
  319MPD2     N 4800   0.205   3.364  16.048 -0.8325 -1.1522  0.3164
  319MPD2    H5 4801   0.215   3.339  15.950 -1.0198  1.8296 -0.4538
  319MPD2    N1 4802   0.392   3.569  16.436 -0.1208  0.0701 -1.1091
  319MPD2    H7 4803   0.318   3.528  16.492  0.5201 -0.9862 -1.0406
  320TMC3    C1 4804   4.718   3.242  16.020  0.2876 -0.4547  0.6529
  320TMC3    C2 4805   4.705   3.278  15.886 -0.3933  0.1540 -0.1495
  320TMC3    C3 4806   4.600   3.218  15.826 -0.2336 -0.2752  0.1051
  320TMC3    C4 4807   4.638   3.156  16.095 -0.5119  0.2712 -0.0096
  320TMC3    C5 4808   4.545   3.087  16.021  0.3813  0.6038  0.1323
  320TMC3    C6 4809   4.534   3.115  15.889  0.1498  0.4368 -0.0429
  320TMC3     C 4810   0.089   3.321  16.109  0.3084 -0.3315  0.1589
  320TMC3     O 4811   0.060   3.328  16.226 -0.5563  0.2893  0.1603
  320TMC3     H 4812   0.036   3.361  15.842 -1.3990  0.8745 -0.0265
  320TMC3    H1 4813   4.664   3.140  16.199 -2.8190 -0.7700  0.4100
  320TMC3    H2 4814   4.456   3.060  15.838  0.4452  0.5311 -0.6078
  320TMC3    C7 4815   4.447   2.996  16.071  0.0786 -0.3276 -0.2988
  320TMC3    C8 4816   4.557   3.232  15.690 -0.2638 -0.0389 -0.2966
  320TMC3    O1 4817   4.404   2.914  15.994 -0.9860  0.5847  0.2677
  320TMC3    O2 4818   4.509   3.128  15.641 -0.3957 -0.0432  0.6367
  321TMC3    C1 4819   0.476   3.613  16.652  1.0656 -0.3635 -0.0325
  321TMC3    C2 4820   0.420   3.496  16.697 -0.0560  0.1921  0.2006
  321TMC3    C3 4821   0.427   3.464  16.828 -0.2004 -0.5154 -0.4881
  321TMC3    C4 4822   0.551   3.690  16.737  0.2632  0.4717 -0.1336
  321TMC3    C5 4823   0.547   3.664  16.872  0.5174 -0.4983  1.0751
  321TMC3    C6 4824   0.480   3.555  16.912  0.4123  0.0429  0.8900
  321TMC3     C 4825   0.489   3.639  16.506 -0.6614  0.3645 -1.0447
  321TMC3     O 4826   0.574   3.719  16.474  0.3359 -0.3635  0.2802
  321TMC3     H 4827   0.380   3.426  16.624  0.8811 -0.2437  0.1118
  321TMC3    H1 4828   0.614   3.771  16.701 -1.6147  0.5523 -3.2375
  321TMC3    H2 4829   0.477   3.529  17.017 -0.6670 -0.4917  0.7213
  321TMC3    C7 4830   0.686   3.672  16.919  0.6793  0.1732  0.2813
  321TMC3    C8 4831   0.463   3.332  16.866  0.1111 -0.2869 -0.0618
  321TMC3    O1 4832   0.749   3.777  16.891  0.1986 -0.2242 -0.3852
  321TMC3    O2 4833   0.538   3.325  16.958 -0.4088 -0.5708  0.1625
  322MPD2     C 4834   4.170   4.595  13.648 -0.7430  0.1196 -0.0337
  322MPD2    C1 4835   4.226   4.521  13.745 -0.2870  0.1058 -0.0557
  322MPD2    C2 4836   4.249   4.386  13.725  0.3155  0.2488 -0.0005
  322MPD2    C3 4837   4.236   4.334  13.599  0.6699 -0.1039 -1.4533
  322MPD2    C4 4838   4.193   4.412  13.496  0.4553  0.7229  0.3653
  322MPD2    C5 4839   4.147   4.539  13.527 -0.2409  0.3754  0.6101
  322MPD2     H 4840   4.279   4.319  13.806 -0.5188  1.3248  1.2017
  322MPD2    H1 4841   4.182   4.371  13.397  3.0811  0.1876  0.2741
  322MPD2    H2 4842   4.134   4.696  13.664  1.6294  1.3113 -2.2105
  322MPD2    H3 4843   4.107   4.594  13.443 -1.5092  0.2773  1.1419
  322MPD2     N 4844   4.281   4.202  13.573 -0.1378 -0.0669 -0.6903
  322MPD2    H5 4845   4.302   4.138  13.649  0.1687 -0.7248 -1.3263
  322MPD2    N1 4846   4.256   4.580  13.871 -0.6899 -0.6605 -0.6575
  322MPD2    H7 4847   4.237   4.679  13.885 -1.3430 -0.6580 -1.5169
  323TMC3    C1 4848   4.373   4.605  14.065  0.0951 -0.1290  0.1896
  323TMC3    C2 4849   4.417   0.003  14.018 -0.2545 -0.3198  0.2037
  323TMC3    C3 4850   4.523   0.069  14.080  0.0525 -0.7222  0.2327
  323TMC3    C4 4851   4.450   4.537  14.152  0.6139  0.3276 -0.0754
  323TMC3    C5 4852   4.571   4.597  14.191 -0.0877  0.7190  0.6212
  323TMC3    C6 4853   4.611   4.722  14.162 -0.3305  0.3864  0.2216
  323TMC3     C 4854   4.297   4.523  13.978 -0.0438  0.3461 -0.1725
  323TMC3     O 4855   4.304   4.400  13.998  0.2830 -0.1490 -0.0480
  323TMC3     H 4856   4.363   0.054  13.939  1.0667 -0.9738 -1.1113
  323TMC3    H1 4857   4.414   4.441  14.187  1.2868  0.7685  1.7899
  323TMC3    H2 4858   4.711   0.030  14.191  0.3649 -1.8278  0.1626
  323TMC3    C7 4859   4.672   4.507  14.245 -0.0556 -0.5098 -0.0404
  323TMC3    C8 4860   4.589   0.180  14.011 -0.0819  0.0479  0.3940
  323TMC3    O1 4861   0.063   4.531  14.218 -0.1238  0.0937 -0.4883
  323TMC3    O2 4862   4.697   0.215  14.053 -0.4273  0.7962 -0.5710
  324MPD2     C 4863   1.030   0.481  14.256  0.1696 -0.9026  0.4197
  324MPD2    C1 4864   1.073   0.610  14.270  0.7709 -0.1858 -0.3242
  324MPD2    C2 4865   0.984   0.706  14.313 -0.3533  0.2215 -0.1419
  324MPD2    C3 4866   0.849   0.678  14.340 -0.2414  1.1538 -0.1335
  324MPD2    C4 4867   0.812   0.553  14.313 -0.0148  0.0967 -0.8473
  324MPD2    C5 4868   0.899   0.452  14.277 -0.2510  0.0925  0.1516
  324MPD2     H 4869   1.022   0.803  14.342 -0.5886  0.9834 -2.3720
  324MPD2    H1 4870   0.714   0.518  14.343 -0.2481  0.5808 -1.0483
  324MPD2    H2 4871   1.099   0.406  14.219  1.2332  0.5520 -0.5622
  324MPD2    H3 4872   0.865   0.353  14.249 -2.5792  1.6523 -2.4743
  324MPD2     N 4873   0.749   0.776  14.388 -0.5976  0.8341 -0.0007
  324MPD2    H5 4874   0.657   0.737  14.407  0.9523 -2.8897 -0.1999
  324MPD2    N1 4875   1.209   0.652  14.251 -0.6054 -0.0649 -0.4989
  324MPD2    H7 4876   1.228   0.751  14.241 -1.5769  0.1286 -0.4153
  325TMC3    C1 4877   0.659   0.975  14.467  1.2291  0.0847 -0.0633
  325TMC3    C2 4878   0.558   0.902  14.515  0.0610 -0.0970 -1.1003
  325TMC3    C3 4879   0.439   0.967  14.530 -0.7426  0.1391  0.1662
  325TMC3    C4 4880   0.650   1.106  14.418  0.3423  0.0272  0.0161
  325TMC3    C5 4881   0.529   1.170  14.443  0.2869  0.6803  0.2558
  325TMC3    C6 4882   0.424   1.097  14.492 -0.6828  0.2854 -0.4697
  325TMC3     C 4883   0.769   0.908  14.405 -0.0134  0.1123 -0.4163
  325TMC3     O 4884   0.871   0.979  14.387  0.7513  0.6119 -0.2138
  325TMC3     H 4885   0.565   0.803  14.559  0.5136  1.2158  1.7750
  325TMC3    H1 4886   0.733   1.157  14.371 -0.7234 -0.1249 -2.0272
  325TMC3    H2 4887   0.327   1.144  14.495 -1.6707 -1.6720 -1.5812
  325TMC3    C7 4888   0.517   1.304  14.393 -0.6591  0.2021  0.4555
  325TMC3    C8 4889   0.321   0.886  14.531 -0.2063 -0.3969 -0.1910
  325TMC3    O1 4890   0.602   1.351  14.322  0.2232 -0.0814  0.3398
  325TMC3    O2 4891   0.327   0.765  14.502 -0.4397 -0.7394  0.5022
  326MPD2     C 4892   2.014   1.693  11.533  0.4960 -0.0765 -0.2964
  326MPD2    C1 4893   1.950   1.710  11.413 -0.4685  0.4375  1.2409
  326MPD2    C2 4894   2.027   1.743  11.299  0.0876  0.3965 -0.4581
  326MPD2    C3 4895   2.165   1.771  11.314 -0.5491 -0.0646 -0.2132
  326MPD2    C4 4896   2.226   1.738  11.439  0.5422 -1.0383 -0.1843
  326MPD2    C5 4897   2.150   1.699  11.547  0.0447 -0.0605 -0.5304
  326MPD2     H 4898   1.967   1.760  11.210 -0.6085  1.1579  0.1611
  326MPD2    H1 4899   2.323   1.773  11.471 -0.5994  1.2556  0.8361
  326MPD2    H2 4900   1.962   1.665  11.624  0.0255  0.0403 -0.5333
  326MPD2    H3 4901   2.199   1.676  11.641  2.2082 -2.6548 -2.3226
  326MPD2     N 4902   2.240   1.824  11.207  0.4601 -0.6598 -0.4017
  326MPD2    H5 4903   2.337   1.847  11.228  0.6422 -1.8359  0.0354
  326MPD2    N1 4904   1.810   1.706  11.391 -0.0235  0.7294  0.2544
  326MPD2    H7 4905   1.781   1.752  11.306 -0.9345  2.3641  1.4392
  327TMC3    C1 4906   1.595   1.669  11.398 -0.0069 -0.2618 -0.1736
  327TMC3    C2 4907   1.553   1.786  11.345  0.0214  0.2421 -0.4251
  327TMC3    C3 4908   1.479   1.777  11.231  0.0237 -0.3794 -0.1268
  327TMC3    C4 4909   1.588   1.556  11.326 -0.4573  0.2631  0.0964
  327TMC3    C5 4910   1.548   1.566  11.196  0.1183 -0.5594  0.1781
  327TMC3    C6 4911   1.465   1.667  11.163  0.4822 -0.0442  0.2078
  327TMC3     C 4912   1.714   1.676  11.480 -0.0458 -0.1282 -0.3068
  327TMC3     O 4913   1.719   1.609  11.580  0.1131 -0.2275 -0.3558
  327TMC3     H 4914   1.562   1.877  11.403 -0.7900  0.9704 -1.4402
  327TMC3    H1 4915   1.638   1.468  11.365 -2.7208  0.0105  2.4561
  327TMC3    H2 4916   1.425   1.674  11.063  1.3959  1.9356 -0.0356
  327TMC3    C7 4917   1.634   1.510  11.091 -0.1064 -0.3465  0.5590
  327TMC3    C8 4918   1.445   1.900  11.157 -0.2169 -0.1499 -0.2551
  327TMC3    O1 4919   1.609   1.539  10.976 -0.4191 -0.4300 -0.3961
  327TMC3    O2 4920   1.438   1.892  11.032  0.1522  0.3096 -0.1324
  328MPD2     C 4921   0.254   3.058  17.114 -0.5552 -0.3998  0.3997
  328MPD2    C1 4922   0.208   2.937  17.168  0.9767  0.4712  0.4145
  328MPD2    C2 4923   0.082   2.886  17.127 -0.0701 -0.9304  0.4048
  328MPD2    C3 4924   0.012   2.946  17.026  0.0953  0.3395  0.0104
  328MPD2    C4 4925   0.063   3.063  16.974  0.3022  0.2800 -0.0471
  328MPD2    C5 4926   0.178   3.124  17.019 -0.4748  0.3654  0.4554
  328MPD2     H 4927   0.045   2.788  17.156  0.5022 -1.5609 -0.9631
  328MPD2    H1 4928   0.014   3.112  16.891  0.7480  0.7211 -0.0492
  328MPD2    H2 4929   0.354   3.096  17.130 -0.6260  0.5228 -1.3898
  328MPD2    H3 4930   0.214   3.217  16.978  3.0857 -1.0486  0.3493
  328MPD2     N 4931   4.621   2.888  16.967 -0.0753 -0.2664 -0.1147
  328MPD2    H5 4932   4.576   2.931  16.886 -0.6204  1.2217  0.9812
  328MPD2    N1 4933   0.287   2.867  17.261 -0.1573  0.5948 -0.6513
  328MPD2    H7 4934   0.383   2.901  17.268  1.6850 -4.5318 -1.2263
  329TMC3    C1 4935   0.350   2.703  17.414  0.0978 -0.0276  0.0073
  329TMC3    C2 4936   0.316   2.645  17.532 -0.3078 -0.3302 -0.8206
  329TMC3    C3 4937   0.413   2.608  17.625  0.2239 -0.0717 -0.1613
  329TMC3    C4 4938   0.484   2.730  17.386 -0.5075  0.5833  0.2985
  329TMC3    C5 4939   0.580   2.685  17.472  0.3193 -0.1136  0.0529
  329TMC3    C6 4940   0.548   2.622  17.590  0.2418 -0.5040 -0.7102
  329TMC3     C 4941   0.247   2.752  17.331  0.5638  0.9080  0.2607
  329TMC3     O 4942   0.140   2.690  17.346 -0.3393  0.5156  0.0674
  329TMC3     H 4943   0.212   2.629  17.559 -0.6098 -0.1435 -1.8963
  329TMC3    H1 4944   0.509   2.771  17.289  0.9796  3.0170  1.7296
  329TMC3    H2 4945   0.625   2.592  17.661  1.2366  1.1637 -1.1042
  329TMC3    C7 4946   0.717   2.716  17.442  0.0829 -0.3777 -0.7450
  329TMC3    C8 4947   0.386   2.574   0.066  0.3404 -0.0820 -0.0806
  329TMC3    O1 4948   0.727   2.815  17.374 -0.6834  0.2673 -0.2606
  329TMC3    O2 4949   0.446   2.629   0.156  0.1198 -0.3285  0.2956
  330TMC3    C1 4950   2.532   0.840   9.892  0.1705  0.0378 -0.2149
  330TMC3    C2 4951   2.439   0.743   9.927 -0.3880  0.4843 -0.4085
  330TMC3    C3 4952   2.480   0.644  10.014 -0.0812 -0.2327  0.6596
  330TMC3    C4 4953   2.660   0.828   9.936  0.0575  0.5347 -0.0827
  330TMC3    C5 4954   2.692   0.740  10.032 -0.0971 -0.5777  0.9158
  330TMC3    C6 4955   2.599   0.648  10.072 -0.0045 -0.2699 -0.0528
  330TMC3     C 4956   2.507   0.948   9.799 -0.3838  0.2648  0.0277
  330TMC3     O 4957   2.598   1.025   9.782  0.2514  0.0173  0.6919
  330TMC3     H 4958   2.350   0.732   9.866  0.6786 -0.5230 -1.7797
  330TMC3    H1 4959   2.732   0.901   9.902 -0.0997  1.0858  0.7736
  330TMC3    H2 4960   2.629   0.567  10.137 -2.8125 -1.2024  0.0737
  330TMC3    C7 4961   2.823   0.753  10.090  0.4793  0.6867  0.3064
  330TMC3    C8 4962   2.408   0.521  10.035 -0.2944  0.0614  0.2681
  330TMC3    O1 4963   2.900   0.819  10.031 -0.2696  0.3045  0.3871
  330TMC3    O2 4964   2.429   0.454  10.131 -0.2001 -0.3323  0.1423
  331MPD2     C 4965   0.075   0.427  12.733  0.0230 -0.1124  0.5555
  331MPD2    C1 4966   0.201   0.464  12.690  0.5015  0.3640  1.1020
  331MPD2    C2 4967   0.274   0.369  12.619  0.3537  0.2674 -0.1604
  331MPD2    C3 4968   0.239   0.237  12.607  0.2444  0.0783  0.3913
  331MPD2    C4 4969   0.122   0.197  12.667  0.6574 -0.0513 -0.2068
  331MPD2    C5 4970   0.039   0.297  12.725 -0.1805 -0.7687  1.3387
  331MPD2     H 4971   0.371   0.407  12.591 -0.9584  2.1088 -2.1628
  331MPD2    H1 4972   0.087   0.095  12.659 -1.4243  0.6151  0.4406
  331MPD2    H2 4973   0.010   0.493  12.790  2.4019  0.7217  2.3344
  331MPD2    H3 4974   4.671   0.259  12.770 -0.3832  0.7131  2.1838
  331MPD2     N 4975   0.321   0.149  12.538  0.2509 -0.3971 -0.1231
  331MPD2    H5 4976   0.303   0.050  12.546  1.6520 -0.7755 -1.6893
  331MPD2    N1 4977   0.240   0.596  12.692  0.8381 -0.0240 -0.5719
  331MPD2    H7 4978   0.169   0.666  12.710 -0.8869 -1.9612  0.0347
  332TMC3    C1 4979   0.484   0.073  12.392  0.2426 -0.4760 -0.0157
  332TMC3    C2 4980   0.543   0.128  12.278 -0.6212 -0.8406  0.5549
  332TMC3    C3 4981   0.683   0.135  12.275  0.1423 -0.2291  0.5422
  332TMC3    C4 4982   0.550   0.016  12.491  0.8299  0.5009 -0.0662
  332TMC3    C5 4983   0.681   0.034  12.490 -0.7698  0.1370 -0.5612
  332TMC3    C6 4984   0.749   0.087  12.387  0.3266 -0.3810  0.3033
  332TMC3     C 4985   0.406   0.188  12.442 -0.4620  0.2507 -0.0654
  332TMC3     O 4986   0.456   0.300  12.418 -0.1524 -0.6079  0.7240
  332TMC3     H 4987   0.487   0.181  12.201  0.9928 -1.0682 -0.7946
  332TMC3    H1 4988   0.504   4.673  12.564 -1.1927  1.5481 -0.4098
  332TMC3    H2 4989   0.855   0.068  12.388  0.9134  2.7537 -1.3665
  332TMC3    C7 4990   0.755   4.675  12.584 -0.1047 -0.2475  0.1733
  332TMC3    C8 4991   0.761   0.237  12.198  0.2276  0.5628  0.4665
  332TMC3    O1 4992   0.703   4.573  12.630  0.3196 -0.5399 -0.0231
  332TMC3    O2 4993   0.866   0.268  12.256  0.2280 -0.1532 -0.1215
  333MPD2     C 4994   0.892   0.180  11.574 -0.0644 -0.5920 -0.6964
  333MPD2    C1 4995   0.921   0.064  11.503  0.1084  0.0741  0.4206
  333MPD2    C2 4996   0.870   4.668  11.559 -0.1493  0.4518 -0.0197
  333MPD2    C3 4997   0.790   4.667  11.673 -0.1559 -0.1199  0.2208
  333MPD2    C4 4998   0.755   0.064  11.729 -0.1330  0.2411 -0.3461
  333MPD2    C5 4999   0.810   0.180  11.681  0.0768 -0.4143  0.4610
  333MPD2     H 5000   0.897   4.575  11.512  0.6851  0.6668  0.0338
  333MPD2    H1 5001   0.695   0.074  11.819  1.5456 -0.2798  0.8384
  333MPD2    H2 5002   0.926   0.275  11.536  2.1244 -1.2819 -0.4619
  333MPD2    H3 5003   0.789   0.280  11.717  0.5540 -0.8258  1.8739
  333MPD2     N 5004   0.751   4.541  11.727 -0.2277  0.3513 -0.2861
  333MPD2    H5 5005   0.754   4.459  11.666  0.0331 -0.9538  1.4900
  333MPD2    N1 5006   1.015   0.073  11.393 -0.0107  0.4831  0.9439
  333MPD2    H7 5007   1.046   0.165  11.365 -1.9172  0.6322 -0.6446
  334TMC3    C1 5008   1.162   0.003  11.222 -0.1350 -0.4127 -0.1151
  334TMC3    C2 5009   1.226   4.628  11.144 -0.4391 -0.5419  0.2877
  334TMC3    C3 5010   1.292   4.653  11.028 -0.6650  0.3410 -0.6014
  334TMC3    C4 5011   1.164   0.131  11.171 -0.1356  0.2176  0.3690
  334TMC3    C5 5012   1.208   0.149  11.048 -0.2664 -0.1320 -0.2470
  334TMC3    C6 5013   1.288   0.058  10.978  0.3187  0.1792  0.2962
  334TMC3     C 5014   1.082   4.689  11.338 -0.6430 -0.2639 -0.2367
  334TMC3     O 5015   1.084   4.570  11.372 -0.4233  0.5957 -0.4877
  334TMC3     H 5016   1.210   4.529  11.187 -0.8890  0.0881  1.5799
  334TMC3    H1 5017   1.114   0.223  11.197 -1.5080 -0.6866  0.9554
  334TMC3    H2 5018   1.334   0.077  10.883 -1.0430  0.5622 -0.2943
  334TMC3    C7 5019   1.206   0.283  10.995 -0.3525  0.2568 -0.3077
  334TMC3    C8 5020   1.374   4.556  10.960 -0.5355 -0.4440  0.1948
  334TMC3    O1 5021   1.209   0.376  11.075  0.2331 -0.2068 -0.1830
  334TMC3    O2 5022   1.329   4.445  10.944  0.6503 -0.2074 -0.3209
  335TMC3    C1 5023   1.202   2.291  17.177  0.2078  0.2428  0.8295
  335TMC3    C2 5024   1.071   2.321  17.171 -0.2851  0.3167  0.2050
  335TMC3    C3 5025   1.037   2.377  17.047 -0.0549  0.8049 -0.6244
  335TMC3    C4 5026   1.290   2.318  17.075 -0.5413  0.5301  0.2010
  335TMC3    C5 5027   1.249   2.359  16.954 -0.2752 -0.4614 -0.1675
  335TMC3    C6 5028   1.118   2.394  16.942  0.4203 -0.5845 -0.7172
  335TMC3     C 5029   1.236   2.196  17.282  0.4285  0.2141 -0.4510
  335TMC3     O 5030   1.166   2.182  17.379  0.0891 -0.0271  0.1897
  335TMC3     H 5031   0.997   2.281  17.239 -1.5600 -1.0296 -1.9750
  335TMC3    H1 5032   1.394   2.289  17.079 -0.9813 -0.9991  0.4981
  335TMC3    H2 5033   1.069   2.402  16.846  1.6731 -2.0781 -1.4885
  335TMC3    C7 5034   1.343   2.357  16.839 -0.3936  0.1133 -0.5817
  335TMC3    C8 5035   0.903   2.349  17.011  0.3405 -0.4934  0.6038
  335TMC3    O1 5036   1.450   2.300  16.861  0.4936 -0.1674  0.3865
  335TMC3    O2 5037   0.845   2.436  16.949  0.3141 -0.3135 -0.3695
  336MPD2     C 5038   0.124   4.574  16.333 -0.1215  0.1220  0.4190
  336MPD2    C1 5039   0.157   4.593  16.197  0.0826  0.4322  0.2084
  336MPD2    C2 5040   0.235   4.492  16.131 -0.0712  0.0647  0.1438
  336MPD2    C3 5041   0.273   4.384  16.210 -0.6363 -0.3597  0.3842
  336MPD2    C4 5042   0.244   4.378  16.342 -0.2358 -0.7368  0.0934
  336MPD2    C5 5043   0.171   4.473  16.405  0.4448  0.0157 -0.4431
  336MPD2     H 5044   0.256   4.499  16.025  3.5664  2.0273  0.9954
  336MPD2    H1 5045   0.283   4.293  16.396 -3.7522 -1.1524  2.0381
  336MPD2    H2 5046   0.058   4.637  16.392 -0.3587 -1.8832  2.3125
  336MPD2    H3 5047   0.157   4.467  16.512 -1.0969 -0.6609 -0.6902
  336MPD2     N 5048   0.330   4.268  16.155 -0.7409 -0.6531  0.6641
  336MPD2    H5 5049   0.349   4.194  16.221 -0.2018 -1.0647  0.0376
  336MPD2    N1 5050   0.100   4.700  16.125  0.2555 -0.0619  0.2253
  336MPD2    H7 5051   0.131   4.714  16.030 -1.3593  0.0541 -0.2923
  337TMC3    C1 5052   4.699   0.186  16.088 -0.1860 -0.4799 -0.1954
  337TMC3    C2 5053   4.580   0.240  16.113  0.0490  0.7200  0.1124
  337TMC3    C3 5054   4.505   0.288  16.015 -0.5851 -0.6127 -0.6179
  337TMC3    C4 5055   0.026   0.195  15.962 -0.0500  0.7731 -0.1850
  337TMC3    C5 5056   4.671   0.250  15.862 -0.2410  0.6807 -0.6365
  337TMC3    C6 5057   4.550   0.294  15.885  0.3719  0.0758  0.0274
  337TMC3     C 5058   0.012   0.073  16.181 -0.4640 -0.2807  0.0106
  337TMC3     O 5059   4.684   0.083  16.292  0.3113  0.3721 -0.0416
  337TMC3     H 5060   4.533   0.221  16.209  0.3461 -0.5329  0.0152
  337TMC3    H1 5061   0.115   0.140  15.935 -0.4288 -1.3764  2.8969
  337TMC3    H2 5062   4.493   0.328  15.800  0.9994 -1.4544 -0.9886
  337TMC3    C7 5063   0.005   0.280  15.729 -0.2450  0.8446  0.4400
  337TMC3    C8 5064   4.364   0.325  16.034  0.6262  0.5534 -0.4277
  337TMC3    O1 5065   4.653   0.268  15.631  0.3604 -0.1128  0.6600
  337TMC3    O2 5066   4.328   0.372  16.142 -0.4256 -0.1236  0.4590
  338MPD2     C 5067   0.979   3.674   0.781  0.3238  0.3140 -0.1367
  338MPD2    C1 5068   0.939   3.780   0.711  0.0919 -0.4934  0.6119
  338MPD2    C2 5069   0.952   3.909   0.769  0.3592  0.6252 -0.0948
  338MPD2    C3 5070   1.020   3.925   0.888 -0.2042  0.5629 -0.6878
  338MPD2    C4 5071   1.047   3.808   0.960 -0.2671  0.1915  0.3595
  338MPD2    C5 5072   1.029   3.687   0.907  0.1141 -0.2485  0.0134
  338MPD2     H 5073   0.922   3.993   0.708 -0.2551  1.7184  1.7129
  338MPD2    H1 5074   1.106   3.822   1.050 -0.0216 -0.9212  0.3759
  338MPD2    H2 5075   0.976   3.572   0.745 -0.3673  0.7670 -1.3663
  338MPD2    H3 5076   1.075   3.606   0.962  2.7243  1.2562  0.0538
  338MPD2     N 5077   1.050   4.051   0.938 -0.7748 -0.0389  0.2238
  338MPD2    H5 5078   1.033   4.125   0.871 -1.1203  0.3616  0.7547
  338MPD2    N1 5079   0.879   3.770   0.584 -0.2679  0.7025  0.3814
  338MPD2    H7 5080   0.847   3.858   0.544  2.4927  0.6090 -2.0752
  339TMC3    C1 5081   1.104   4.232   1.091  0.0009  0.2764  0.3214
  339TMC3    C2 5082   1.146   4.272   1.216  0.3111  0.4039  0.1591
  339TMC3    C3 5083   1.089   4.392   1.269 -0.3170 -0.2661 -0.1312
  339TMC3    C4 5084   1.022   4.314   1.020 -0.0829  0.2260  0.2382
  339TMC3    C5 5085   0.965   4.426   1.077 -0.4679  0.8151  0.1713
  339TMC3    C6 5086   1.002   4.472   1.201 -0.3056  0.7244  0.3052
  339TMC3     C 5087   1.102   4.093   1.059  0.4072 -0.4548 -0.6095
  339TMC3     O 5088   1.133   4.019   1.151  0.6246 -0.4839 -0.3971
  339TMC3     H 5089   1.199   4.207   1.285 -0.0334 -0.4617 -0.3902
  339TMC3    H1 5090   0.991   4.286   0.920  1.1432 -0.1403 -0.0309
  339TMC3    H2 5091   0.964   4.561   1.250  0.6163  2.2714 -1.8006
  339TMC3    C7 5092   0.867   4.496   1.000  0.3921  0.0373 -0.4125
  339TMC3    C8 5093   1.123   4.415   1.410  0.1662 -0.7351  0.0279
  339TMC3    O1 5094   0.828   4.597   1.052  0.7783 -0.1776 -0.0740
  339TMC3    O2 5095   1.237   4.369   1.440  0.1500  0.1606  0.1290
  340MPD2     C 5096   0.837   1.237   9.895 -0.2684 -0.8305  0.2196
  340MPD2    C1 5097   0.892   1.128   9.969 -0.1975  0.2755 -0.7071
  340MPD2    C2 5098   0.991   1.159  10.059 -0.2960 -0.3331 -0.3721
  340MPD2    C3 5099   1.036   1.290  10.072  0.3860 -0.5917 -0.0206
  340MPD2    C4 5100   0.998   1.387   9.977  0.8831 -0.0861  0.8168
  340MPD2    C5 5101   0.899   1.359   9.887  0.3280  0.0677  0.5040
  340MPD2     H 5102   1.041   1.082  10.117  0.5712  0.0535 -0.6008
  340MPD2    H1 5103   1.034   1.489   9.981  0.3298  0.1143  0.6874
  340MPD2    H2 5104   0.756   1.219   9.825 -0.5009  1.2053 -0.0339
  340MPD2    H3 5105   0.866   1.440   9.823 -2.4536 -1.2541  0.2813
  340MPD2     N 5106   1.125   1.332  10.168 -0.2264  0.0885  0.0529
  340MPD2    H5 5107   1.164   1.426  10.167 -1.7432  0.7171  1.0577
  340MPD2    N1 5108   0.829   0.999   9.949 -0.4185  0.0646  0.4842
  340MPD2    H7 5109   0.757   0.994   9.878 -1.7655  1.8573  1.7114
  341TMC3    C1 5110   0.782   0.777   9.946  0.0383 -0.1340  0.2801
  341TMC3    C2 5111   0.647   0.799   9.928 -0.0107  0.1449  0.0680
  341TMC3    C3 5112   0.572   0.694   9.897 -0.4069  0.2091 -0.6096
  341TMC3    C4 5113   0.835   0.652   9.928 -0.1951  1.4616 -0.4705
  341TMC3    C5 5114   0.754   0.545   9.887  0.4723 -0.4490 -0.1295
  341TMC3    C6 5115   0.618   0.569   9.866  0.0717 -0.1324  0.3375
  341TMC3     C 5116   0.866   0.875   9.998  0.1815  0.1679 -0.3269
  341TMC3     O 5117   0.953   0.847  10.082 -0.0348  0.8287 -0.3274
  341TMC3     H 5118   0.604   0.897   9.948  0.4123  0.2430  0.5233
  341TMC3    H1 5119   0.939   0.629   9.950 -0.4906 -0.3922 -1.0412
  341TMC3    H2 5120   0.547   0.500   9.823 -0.2086  1.6987 -2.1411
  341TMC3    C7 5121   0.829   0.421   9.855 -0.1732 -0.8060 -0.1015
  341TMC3    C8 5122   0.427   0.698   9.923  0.2656  0.1544  0.1076
  341TMC3    O1 5123   0.926   0.390   9.925  0.0344  0.1079 -0.1884
  341TMC3    O2 5124   0.360   0.635   9.848 -0.0843 -0.2773  0.1282
  342MPD2     C 5125   3.395   4.696   0.093 -0.0761  0.6157 -0.1753
  342MPD2    C1 5126   3.447   0.008  17.667  0.7334 -0.1705  0.6435
  342MPD2    C2 5127   3.453   0.143  17.632  1.0375 -0.4133  0.4197
  342MPD2    C3 5128   3.404   0.237   0.026 -0.4531 -0.7527  0.4289
  342MPD2    C4 5129   3.339   0.194   0.146 -0.4779  0.0012 -0.1071
  342MPD2    C5 5130   3.346   0.065   0.185 -0.1235  0.1835 -0.3146
  342MPD2     H 5131   3.475   0.161  17.527  0.0308  0.1704  0.3080
  342MPD2    H1 5132   3.296   0.262   0.219 -0.6437 -1.9323  1.5912
  342MPD2    H2 5133   3.396   4.592   0.126  2.5739  1.0400  1.0791
  342MPD2    H3 5134   3.314   0.034   0.284  0.8744 -0.0640 -0.0673
  342MPD2     N 5135   3.397   0.375  17.692 -0.8025  0.2500 -0.1293
  342MPD2    H5 5136   3.353   0.440   0.062  1.8753 -0.0058  1.9441
  342MPD2    N1 5137   3.492   4.635  17.576 -0.3126 -0.0172 -0.2470
  342MPD2    H7 5138   3.518   4.672  17.485 -0.8810  0.1269 -0.3493
  343TMC3    C1 5139   3.531   4.434  17.464  0.8381  0.2804  0.7893
  343TMC3    C2 5140   3.600   4.497  17.361  0.1855  0.1596 -0.3118
  343TMC3    C3 5141   3.629   4.417  17.252  1.2162  0.3819 -0.7239
  343TMC3    C4 5142   3.486   4.305  17.454  0.1271  0.4680  0.1100
  343TMC3    C5 5143   3.510   4.239  17.338  0.1579  0.0577  0.5492
  343TMC3    C6 5144   3.593   4.286  17.237 -0.7115 -0.3809  0.3415
  343TMC3     C 5145   3.505   4.502  17.589  0.3885  0.5510  0.6557
  343TMC3     O 5146   3.496   4.427  17.687 -0.2982  0.3063 -0.3773
  343TMC3     H 5147   3.629   4.602  17.363  0.9273  0.0012 -2.9741
  343TMC3    H1 5148   3.419   4.265  17.529  1.2676 -0.0983  0.8350
  343TMC3    H2 5149   3.620   4.216  17.159  0.4029  0.7365 -0.2721
  343TMC3    C7 5150   3.440   4.115  17.314  0.3078 -1.2283  0.5809
  343TMC3    C8 5151   3.705   4.484  17.152  0.0602  0.0283 -0.0501
  343TMC3    O1 5152   3.380   4.110  17.210 -0.0524 -0.2424 -0.0864
  343TMC3    O2 5153   3.706   4.607  17.149 -0.0096  0.0510 -0.4204
  344MPD2     C 5154   4.107   3.663  10.726  0.3823 -0.3901 -0.2011
  344MPD2    C1 5155   4.066   3.740  10.830  0.1638 -0.6699 -0.6480
  344MPD2    C2 5156   4.130   3.861  10.869  0.0323 -0.1363 -0.4618
  344MPD2    C3 5157   4.226   3.904  10.784 -0.1873  0.4327 -0.2260
  344MPD2    C4 5158   4.266   3.826  10.675  0.4240  0.0003  0.6524
  344MPD2    C5 5159   4.211   3.701  10.651  0.4289 -0.3968  0.0970
  344MPD2     H 5160   4.101   3.919  10.956 -0.1365  0.0650 -0.6503
  344MPD2    H1 5161   4.347   3.856  10.610 -0.0218  1.3335  0.7291
  344MPD2    H2 5162   4.066   3.567  10.699 -1.1247 -0.2124  1.4463
  344MPD2    H3 5163   4.254   3.637  10.575 -1.3064  0.7093 -1.8092
  344MPD2     N 5164   4.297   4.027  10.790 -0.6556 -0.1773 -0.5228
  344MPD2    H5 5165   4.363   4.048  10.716 -0.6247 -0.2378 -0.5130
  344MPD2    N1 5166   3.956   3.695  10.899  0.2983 -0.2832 -1.4041
  344MPD2    H7 5167   3.949   3.724  10.996 -0.7491 -0.2396 -1.4927
  345TMC3    C1 5168   4.315   4.257  10.827  0.0803  0.1946 -0.4679
  345TMC3    C2 5169   4.350   4.358  10.913  0.3261 -0.3547  0.1211
  345TMC3    C3 5170   4.357   4.486  10.859 -0.3808  0.0961  0.2260
  345TMC3    C4 5171   4.284   4.281  10.695  0.1814  0.0802 -0.4168
  345TMC3    C5 5172   4.294   4.411  10.652 -0.8073 -0.3609 -0.4381
  345TMC3    C6 5173   4.318   4.519  10.733 -0.2995  0.2028  0.4056
  345TMC3     C 5174   4.265   4.129  10.880 -0.0211  0.0474  0.4977
  345TMC3     O 5175   4.206   4.126  10.985  0.0619 -0.5030 -0.0894
  345TMC3     H 5176   4.384   4.331  11.013 -1.4834 -1.5509  0.4092
  345TMC3    H1 5177   4.297   4.206  10.618  0.9521 -0.5748  0.3459
  345TMC3    H2 5178   4.332   4.619  10.694 -2.8454  0.3681 -0.0623
  345TMC3    C7 5179   4.263   4.437  10.511  0.6470  0.1320 -0.3318
  345TMC3    C8 5180   4.434   4.591  10.926  0.7045  0.8819  0.3551
  345TMC3    O1 5181   4.320   4.538  10.471  0.1476  0.4021 -0.1599
  345TMC3    O2 5182   4.427   4.706  10.882  0.0171 -0.3336 -0.2995
  346MPD2     C 5183   4.186   1.449  14.088 -0.2309  0.7566  0.1981
  346MPD2    C1 5184   4.270   1.353  14.139 -0.6174 -0.3897  0.4977
  346MPD2    C2 5185   4.338   1.378  14.254 -0.1048 -0.9640 -0.3414
  346MPD2    C3 5186   4.313   1.494  14.324  0.5119 -0.2183  0.1445
  346MPD2    C4 5187   4.241   1.601  14.260 -0.1795 -0.7803  0.2555
  346MPD2    C5 5188   4.183   1.566  14.145  0.5042  0.3262  0.6945
  346MPD2     H 5189   4.413   1.306  14.285 -1.7995 -2.3722  0.4409
  346MPD2    H1 5190   4.227   1.702  14.299  0.7842  0.2251 -2.0264
  346MPD2    H2 5191   4.136   1.434  13.993  2.7164 -0.6101 -1.1386
  346MPD2    H3 5192   4.128   1.649  14.102 -1.7747 -2.9114 -2.5833
  346MPD2     N 5193   4.384   1.519  14.443 -0.1712  0.2770  0.1968
  346MPD2    H5 5194   4.473   1.477  14.466  0.2127  0.4808 -0.9599
  346MPD2    N1 5195   4.283   1.232  14.071 -0.0871  0.9451 -1.2899
  346MPD2    H7 5196   4.361   1.170  14.090 -1.5565  0.5153  3.3008
  347TMC3    C1 5197   4.429   1.635  14.643  0.1547  0.1153 -0.3090
  347TMC3    C2 5198   4.556   1.656  14.608  0.1316 -0.2047 -0.8082
  347TMC3    C3 5199   4.647   1.678  14.708  0.9308  0.4211  0.1860
  347TMC3    C4 5200   4.393   1.626  14.774  0.2398  0.1465  0.1712
  347TMC3    C5 5201   4.486   1.644  14.874  0.1855  0.2275 -0.2809
  347TMC3    C6 5202   4.612   1.676  14.836  0.4766  0.6565 -0.0081
  347TMC3     C 5203   4.334   1.605  14.540  0.3699  0.2136  0.1266
  347TMC3     O 5204   4.217   1.639  14.557  0.0396  0.0867  0.4860
  347TMC3     H 5205   4.596   1.649  14.507  0.9415 -1.1914 -0.4166
  347TMC3    H1 5206   4.291   1.595  14.793  0.4602  0.8550  2.5690
  347TMC3    H2 5207   4.690   1.697  14.908  0.4363  1.1305 -0.1053
  347TMC3    C7 5208   4.438   1.671  15.006 -0.1050 -1.0772  0.0966
  347TMC3    C8 5209   0.062   1.652  14.675  0.0347  0.4037  0.2138
  347TMC3    O1 5210   4.334   1.626  15.049 -0.5057 -1.0579 -0.3076
  347TMC3    O2 5211   0.117   1.573  14.754  0.4754  0.2136 -0.1512
  348MPD2     C 5212   2.615   0.765  12.010  0.3940 -0.1793 -0.3309
  348MPD2    C1 5213   2.744   0.800  11.982 -0.1847 -0.1738  0.0138
  348MPD2    C2 5214   2.781   0.849  11.859 -0.4043 -0.3754  0.2242
  348MPD2    C3 5215   2.693   0.855  11.754  0.0363 -0.0451 -0.2985
  348MPD2    C4 5216   2.564   0.806  11.782  0.1056 -0.6441 -0.2609
  348MPD2    C5 5217   2.528   0.762  11.906 -0.2264  0.2176 -0.2547
  348MPD2     H 5218   2.886   0.875  11.857 -0.7674  1.1236  1.4334
  348MPD2    H1 5219   2.486   0.807  11.707 -0.7767  0.8946  0.6813
  348MPD2    H2 5220   2.585   0.720  12.103  1.0880  0.0314 -0.0050
  348MPD2    H3 5221   2.434   0.715  11.932 -1.0736  1.2590 -1.4360
  348MPD2     N 5222   2.740   0.902  11.630  0.8374 -0.5064 -0.4559
  348MPD2    H5 5223   2.833   0.942  11.628  0.0582  1.3267  0.2121
  348MPD2    N1 5224   2.851   0.795  12.079  0.2882  0.0764 -0.0405
  348MPD2    H7 5225   2.941   0.834  12.052  1.2561  0.0743  3.1841
  349TMC3    C1 5226   2.972   0.726  12.260  0.3443 -0.7916  0.6236
  349TMC3    C2 5227   2.981   0.607  12.331 -0.1504 -0.2504  0.3780
  349TMC3    C3 5228   3.093   0.532  12.303  0.6232  0.0628  0.0237
  349TMC3    C4 5229   3.080   0.768  12.188  0.1326  0.0040  0.4129
  349TMC3    C5 5230   3.191   0.701  12.179  0.0880  0.1955  0.1981
  349TMC3    C6 5231   3.206   0.576  12.236 -0.1892  0.4611  0.2743
  349TMC3     C 5232   2.843   0.737  12.202  0.4786 -0.1439  0.3470
  349TMC3     O 5233   2.758   0.665  12.250 -0.1339 -0.0212  0.2848
  349TMC3     H 5234   2.897   0.566  12.386 -0.1312 -0.6308  0.1219
  349TMC3    H1 5235   3.072   0.856  12.126  0.5899  1.3172  2.2114
  349TMC3    H2 5236   3.302   0.525  12.232 -0.5366 -0.2400  0.8292
  349TMC3    C7 5237   3.259   0.713  12.054  0.9065  0.4924  0.2398
  349TMC3    C8 5238   3.105   0.406  12.377 -0.7306 -0.4722 -0.4503
  349TMC3    O1 5239   3.264   0.611  11.982 -0.4165 -0.2327  0.4770
  349TMC3    O2 5240   3.056   0.388  12.488  0.0116  0.3923  0.4390
  350MPD2     C 5241   1.902   3.335   9.537 -0.8414 -0.0258  0.0358
  350MPD2    C1 5242   1.967   3.222   9.581  0.4111  0.5002  0.3852
  350MPD2    C2 5243   2.084   3.237   9.652  0.2128 -0.2009  1.0308
  350MPD2    C3 5244   2.138   3.364   9.664  0.6070  0.5640 -0.3838
  350MPD2    C4 5245   2.067   3.478   9.624 -0.4328  0.4301 -0.6773
  350MPD2    C5 5246   1.946   3.463   9.563 -0.2415 -0.4987  0.3375
  350MPD2     H 5247   2.128   3.144   9.687 -0.9421 -0.6558  1.2646
  350MPD2    H1 5248   2.090   3.579   9.654 -1.9566  0.2658  1.0526
  350MPD2    H2 5249   1.806   3.335   9.487 -0.1995 -1.6615 -1.2071
  350MPD2    H3 5250   1.889   3.552   9.542 -0.0900 -0.5994 -0.4795
  350MPD2     N 5251   2.256   3.379   9.733 -0.3899 -0.8642  0.2526
  350MPD2    H5 5252   2.293   3.294   9.772 -0.3095 -1.9119 -2.1048
  350MPD2    N1 5253   1.911   3.094   9.564 -0.3841  0.4457  0.0940
  350MPD2    H7 5254   1.945   3.024   9.628  0.0481 -1.1853 -1.9212
  351TMC3    C1 5255   1.774   2.934   9.494 -0.5506  0.8762  0.1300
  351TMC3    C2 5256   1.865   2.843   9.528 -0.5596  0.7070  0.6016
  351TMC3    C3 5257   1.821   2.715   9.531 -0.1964 -0.1875  0.3213
  351TMC3    C4 5258   1.643   2.906   9.480 -0.1661  0.2993  0.1133
  351TMC3    C5 5259   1.595   2.777   9.481 -0.0477  0.9292 -0.2308
  351TMC3    C6 5260   1.681   2.677   9.525 -0.3773 -0.6416 -0.8668
  351TMC3     C 5261   1.808   3.069   9.484 -0.2452 -0.0986 -0.1594
  351TMC3     O 5262   1.732   3.132   9.414  0.2149 -0.6514  0.0908
  351TMC3     H 5263   1.969   2.865   9.510 -1.0138  1.7907 -0.6931
  351TMC3    H1 5264   1.565   2.980   9.463 -0.2645  0.6603  2.1729
  351TMC3    H2 5265   1.640   2.578   9.542 -0.9152 -0.1720  0.5842
  351TMC3    C7 5266   1.458   2.754   9.518 -0.2138  0.5367 -0.2003
  351TMC3    C8 5267   1.926   2.622   9.574  0.4509  0.6674  0.3376
  351TMC3    O1 5268   1.401   2.856   9.555 -0.1432 -1.0664 -0.3713
  351TMC3    O2 5269   2.032   2.635   9.515  0.1671 -0.2576 -0.3825
  352MPD2     C 5270   0.137   0.617   1.460 -0.6042  0.7019  0.2032
  352MPD2    C1 5271   0.269   0.664   1.446 -0.2793 -0.0598  0.1147
  352MPD2    C2 5272   0.353   0.639   1.551 -0.6783  0.1800 -0.3810
  352MPD2    C3 5273   0.320   0.559   1.660  0.0625 -0.4021  0.4207
  352MPD2    C4 5274   0.184   0.521   1.672  0.5414 -0.1180 -0.4385
  352MPD2    C5 5275   0.099   0.551   1.571  1.0211  0.2683 -0.2549
  352MPD2     H 5276   0.454   0.678   1.545 -0.6946  0.2882 -0.0035
  352MPD2    H1 5277   0.142   0.462   1.753 -1.7725 -0.3206 -1.7959
  352MPD2    H2 5278   0.061   0.653   1.391 -2.0136  1.5689  2.2189
  352MPD2    H3 5279   4.720   0.516   1.586  1.4736 -0.8942  0.1263
  352MPD2     N 5280   0.420   0.524   1.759 -0.5371  0.5677  0.1934
  352MPD2    H5 5281   0.381   0.471   1.837 -0.7368  1.7379  0.8916
  352MPD2    N1 5282   0.303   0.734   1.326  0.4507  0.8261 -0.1697
  352MPD2    H7 5283   0.235   0.741   1.251 -0.7445  0.8142  0.9278
  353TMC3    C1 5284   0.627   0.443   1.832 -0.3934  0.3170 -0.3775
  353TMC3    C2 5285   0.753   0.465   1.875 -0.5567 -0.3279  0.3950
  353TMC3    C3 5286   0.833   0.355   1.892  0.2119  0.5017  0.4421
  353TMC3    C4 5287   0.590   0.313   1.805  0.0424 -0.0268  0.0439
  353TMC3    C5 5288   0.677   0.205   1.805 -0.5903 -0.2812  0.1202
  353TMC3    C6 5289   0.799   0.224   1.864  0.6487 -0.2211 -0.1638
  353TMC3     C 5290   0.558   0.551   1.765 -0.2041 -0.9344 -0.1097
  353TMC3     O 5291   0.622   0.638   1.707  0.2713 -0.0727  0.2788
  353TMC3     H 5292   0.788   0.568   1.886 -0.5421  0.0876 -3.5742
  353TMC3    H1 5293   0.491   0.285   1.769  0.8494  0.7033 -2.7863
  353TMC3    H2 5294   0.864   0.138   1.874 -0.7560 -1.2936 -0.2626
  353TMC3    C7 5295   0.658   0.120   1.686 -0.6466 -0.3058 -0.2446
  353TMC3    C8 5296   0.971   0.393   1.883  0.2171 -0.5199  0.8493
  353TMC3    O1 5297   0.752   0.124   1.610  0.2296  0.6352 -0.0750
  353TMC3    O2 5298   1.014   0.495   1.939  0.1297  0.8633 -0.0183
  354TMC3    C1 5299   2.430   2.297  13.699  0.4102 -0.3615  0.7131
  354TMC3    C2 5300   2.390   2.415  13.651  0.4352  0.2196  0.1865
  354TMC3    C3 5301   2.464   2.470  13.547  0.3515 -0.8462 -0.0272
  354TMC3    C4 5302   2.534   2.225  13.649 -0.7485 -0.3749  0.2851
  354TMC3    C5 5303   2.594   2.272  13.531  0.2313 -0.2832 -1.0423
  354TMC3    C6 5304   2.561   2.399  13.479  0.3639 -0.2535  0.2473
  354TMC3     C 5305   2.351   2.249  13.808  0.1268  0.2860 -0.2381
  354TMC3     O 5306   2.243   2.292  13.825 -0.1833  0.1969 -0.1778
  354TMC3     H 5307   2.315   2.475  13.701 -0.6646 -0.8075 -0.2501
  354TMC3    H1 5308   2.546   2.121  13.675 -0.7842 -0.7847 -1.3581
  354TMC3    H2 5309   2.612   2.437  13.392  0.3314 -3.1201 -1.0352
  354TMC3    C7 5310   2.648   2.171  13.448 -0.1727  0.6359 -0.7287
  354TMC3    C8 5311   2.416   2.588  13.486 -0.9283  0.4780 -0.1797
  354TMC3    O1 5312   2.686   2.069  13.503  0.1444  0.4062  0.1253
  354TMC3    O2 5313   2.328   2.647  13.552 -0.3047  0.8184  0.1032
  355MPD2     C 5314   1.960   2.790  11.604 -0.2425  0.0491  0.6281
  355MPD2    C1 5315   2.028   2.846  11.501 -0.1937  0.8986 -1.0283
  355MPD2    C2 5316   2.168   2.851  11.516  0.3459  0.2209 -0.8850
  355MPD2    C3 5317   2.230   2.822  11.638  0.3195  0.7622 -0.1497
  355MPD2    C4 5318   2.152   2.779  11.749  0.5150 -0.0816  0.6960
  355MPD2    C5 5319   2.022   2.757  11.722  0.3654  0.1129 -0.5903
  355MPD2     H 5320   2.223   2.863  11.423  0.8076 -0.1079 -0.6573
  355MPD2    H1 5321   2.199   2.764  11.845  1.5949  1.0297  0.3430
  355MPD2    H2 5322   1.858   2.757  11.593  0.4478 -1.6480 -0.7264
  355MPD2    H3 5323   1.957   2.730  11.804  0.5279 -1.4548 -0.9752
  355MPD2     N 5324   2.367   2.844  11.657 -0.1436  0.4486 -0.1504
  355MPD2    H5 5325   2.405   2.849  11.751  2.4888 -3.8205 -0.9994
  355MPD2    N1 5326   1.952   2.869  11.384 -0.6008  0.0332  0.0481
  355MPD2    H7 5327   1.857   2.833  11.394 -0.2075 -0.7106  1.1617
  356TMC3    C1 5328   2.591   2.889  11.609  0.3545 -0.2181  0.2310
  356TMC3    C2 5329   2.692   2.892  11.518  0.4271  0.5330  0.0575
  356TMC3    C3 5330   2.807   2.944  11.565  0.1223  0.0103 -0.2351
  356TMC3    C4 5331   2.589   2.960  11.724 -0.0157 -0.1591  0.1141
  356TMC3    C5 5332   2.708   3.016  11.768  0.2668  0.6028  0.1035
  356TMC3    C6 5333   2.817   3.004  11.686 -0.4055 -0.9817  0.3149
  356TMC3     C 5334   2.458   2.861  11.553  0.1388 -0.8352  0.6251
  356TMC3     O 5335   2.452   2.846  11.432 -0.2718 -0.3295  0.1241
  356TMC3     H 5336   2.678   2.834  11.427 -0.5339 -1.2710  1.3537
  356TMC3    H1 5337   2.512   2.955  11.800  2.8439 -0.7772  3.0127
  356TMC3    H2 5338   2.914   3.023  11.731 -0.2878 -0.3509 -0.2093
  356TMC3    C7 5339   2.738   2.987  11.905  0.7809 -0.3861 -0.0330
  356TMC3    C8 5340   2.920   2.944  11.473 -0.2568  0.3399  0.1624
  356TMC3    O1 5341   2.705   2.877  11.951 -0.5310 -0.3390 -0.6434
  356TMC3    O2 5342   2.923   2.873  11.370 -0.3077  0.0406  0.2699
  357MPD2     C 5343   2.982   1.867   1.709  0.0424 -0.1947  0.0202
  357MPD2    C1 5344   3.126   1.855   1.686  0.8864  0.2773 -0.1634
  357MPD2    C2 5345   3.190   1.736   1.722 -0.2965 -0.0023 -0.4725
  357MPD2    C3 5346   3.125   1.638   1.785  0.3075 -0.0827  0.5090
  357MPD2    C4 5347   2.989   1.656   1.805  0.2410 -0.1753 -1.3056
  357MPD2    C5 5348   2.915   1.760   1.763 -0.0130  0.6507  0.3006
  357MPD2     H 5349   3.294   1.726   1.693 -0.0761 -3.6606  1.6746
  357MPD2    H1 5350   2.947   1.563   1.842  0.7221  0.8726  1.8478
  357MPD2    H2 5351   2.929   1.957   1.683  1.2619  0.7993  0.9795
  357MPD2    H3 5352   2.807   1.760   1.777  0.4244 -0.6504  3.6170
  357MPD2     N 5353   3.192   1.516   1.828 -0.2902  0.4408 -0.5586
  357MPD2    H5 5354   3.128   1.445   1.863  3.0022 -0.6244  3.3385
  357MPD2    N1 5355   3.196   1.964   1.628 -0.2444 -0.0884 -0.1092
  357MPD2    H7 5356   3.142   2.048   1.617 -0.4925 -0.2793 -0.3642
  358TMC3    C1 5357   3.386   2.096   1.549  0.5849 -0.4488 -0.7058
  358TMC3    C2 5358   3.298   2.169   1.477 -0.5546  0.2733  0.1690
  358TMC3    C3 5359   3.350   2.292   1.443 -0.8877  0.7847  0.7850
  358TMC3    C4 5360   3.518   2.125   1.581  0.5495 -0.3887 -0.4056
  358TMC3    C5 5361   3.565   2.247   1.537 -0.6451 -0.4504  0.2229
  358TMC3    C6 5362   3.475   2.329   1.483 -0.5205  0.3984 -0.2238
  358TMC3     C 5363   3.329   1.969   1.602 -0.2808 -0.0158 -0.2693
  358TMC3     O 5364   3.414   1.886   1.628 -0.2741  0.4712  0.3211
  358TMC3     H 5365   3.198   2.134   1.452  0.7051 -2.2599 -1.3719
  358TMC3    H1 5366   3.588   2.061   1.635 -1.7887 -2.0798  0.6027
  358TMC3    H2 5367   3.508   2.425   1.447 -0.4810  0.6241  0.4138
  358TMC3    C7 5368   3.707   2.279   1.548  0.0653 -0.0446 -0.1368
  358TMC3    C8 5369   3.264   2.390   1.381  0.7166  0.5629 -0.2162
  358TMC3    O1 5370   3.774   2.203   1.618 -0.3580 -0.2953 -0.5560
  358TMC3    O2 5371   3.323   2.472   1.312  0.0381 -0.2268 -0.4138
  359MPD2     C 5372   2.842   1.788  12.617  0.2124 -0.2051 -0.3329
  359MPD2    C1 5373   2.765   1.793  12.502  0.1911  0.8485  0.2796
  359MPD2    C2 5374   2.623   1.791  12.522 -0.3270  0.5463  0.3875
  359MPD2    C3 5375   2.570   1.770  12.653 -0.4454  0.2103  0.2266
  359MPD2    C4 5376   2.654   1.763  12.763 -0.2948  0.1570 -0.3957
  359MPD2    C5 5377   2.788   1.778  12.740 -0.2986 -0.9252  0.6676
  359MPD2     H 5378   2.562   1.781  12.433 -0.5004  0.9970  0.4547
  359MPD2    H1 5379   2.612   1.758  12.862 -0.1944 -0.7936 -0.4030
  359MPD2    H2 5380   2.949   1.774  12.613  0.3213  0.8330 -0.9084
  359MPD2    H3 5381   2.859   1.766  12.822  0.5801 -1.2407 -0.1363
  359MPD2     N 5382   2.430   1.750  12.683  0.2864  0.2564 -0.1141
  359MPD2    H5 5383   2.400   1.716  12.774 -0.7262 -0.3826 -0.6818
  359MPD2    N1 5384   2.815   1.801  12.365 -0.5554  0.5680 -0.5596
  359MPD2    H7 5385   2.759   1.799  12.280  0.1481  0.9857 -1.0254
  360TMC3    C1 5386   2.969   1.785  12.190  0.5206  0.4184 -1.2829
  360TMC3    C2 5387   3.096   1.824  12.162  0.1532  0.5703 -0.1324
  360TMC3    C3 5388   3.157   1.789  12.048  0.4312  0.2009  0.4957
  360TMC3    C4 5389   2.910   1.686  12.119 -0.2563  0.6361  0.2761
  360TMC3    C5 5390   2.989   1.636  12.019 -0.2911 -0.0751  0.1344
  360TMC3    C6 5391   3.107   1.684  11.975  0.0553  0.3304 -0.7117
  360TMC3     C 5392   2.944   1.788  12.332 -0.6956 -0.0326 -0.0277
  360TMC3     O 5393   3.043   1.782  12.406 -0.8548 -0.3017  0.2674
  360TMC3     H 5394   3.139   1.894  12.233 -2.1221 -0.3189  2.1274
  360TMC3    H1 5395   2.818   1.640  12.154  0.5709 -1.6854 -0.5779
  360TMC3    H2 5396   3.154   1.644  11.886 -1.2940 -1.5526 -0.5591
  360TMC3    C7 5397   2.936   1.540  11.929 -0.7735  0.3173 -0.5315
  360TMC3    C8 5398   3.294   1.818  12.015 -0.2645 -0.3956  0.2563
  360TMC3    O1 5399   2.973   1.539  11.812 -0.2229  0.1986 -0.2316
  360TMC3    O2 5400   3.366   1.818  12.114  1.3814 -0.0819 -0.4237
  361MPD2     C 5401   4.135   1.292  17.663  0.1873  0.7749  0.5317
  361MPD2    C1 5402   4.088   1.189  17.580  0.2080  0.4991  0.2585
  361MPD2    C2 5403   4.169   1.079  17.556 -0.2169 -0.6307 -0.4201
  361MPD2    C3 5404   4.297   1.063  17.618  0.8793  0.4041 -0.0566
  361MPD2    C4 5405   4.326   1.155   0.018 -0.1795 -0.0711  0.4776
  361MPD2    C5 5406   4.254   1.267   0.036  0.4700  0.0241 -0.7222
  361MPD2     H 5407   4.133   0.999  17.493  0.2804 -1.8747  0.8827
  361MPD2    H1 5408   4.423   1.149   0.067  0.1399 -2.3153 -0.4248
  361MPD2    H2 5409   4.080   1.385  17.666  0.0886  0.7397 -0.1944
  361MPD2    H3 5410   4.296   1.340   0.105 -0.4772 -0.9842  0.9119
  361MPD2     N 5411   4.387   0.966  17.593 -1.2223 -0.6485 -0.3119
  361MPD2    H5 5412   4.451   0.945  17.669 -1.9847 -1.9145 -0.0163
  361MPD2    N1 5413   3.959   1.193  17.530 -0.2652 -0.0529  0.9661
  361MPD2    H7 5414   3.930   1.111  17.477  0.3668 -0.6394  1.5346
  362TMC3    C1 5415   3.726   1.236  17.531 -0.4971  0.4534  0.4248
  362TMC3    C2 5416   3.619   1.283  17.598 -0.1533 -0.4185  0.5003
  362TMC3    C3 5417   3.497   1.239  17.567  0.1394  0.3689 -0.2694
  362TMC3    C4 5418   3.708   1.180  17.411 -0.1477  0.0243 -0.1617
  362TMC3    C5 5419   3.577   1.177  17.362 -0.3842 -0.3211  0.8194
  362TMC3    C6 5420   3.472   1.181  17.445  0.1366 -0.4503  0.0954
  362TMC3     C 5421   3.857   1.276  17.580 -0.2227 -0.3515 -0.9063
  362TMC3     O 5422   3.857   1.377  17.647 -0.1428  0.4086  0.4658
  362TMC3     H 5423   3.629   1.325   0.004  0.9351 -0.8657  0.5883
  362TMC3    H1 5424   3.799   1.169  17.353  0.8806  1.1776  1.2534
  362TMC3    H2 5425   3.370   1.153  17.421  0.0885  1.0973 -1.5344
  362TMC3    C7 5426   3.562   1.232  17.227 -0.3754  0.1971 -0.2684
  362TMC3    C8 5427   3.376   1.299  17.626 -0.0538 -0.2638  0.2265
  362TMC3    O1 5428   3.666   1.258  17.169 -0.1468 -0.0178 -0.5200
  362TMC3    O2 5429   3.272   1.236  17.598 -0.2286  0.2961 -0.0894
  363TMC3    C1 5430   2.405   3.356   9.314 -0.6575  0.9059  0.4099
  363TMC3    C2 5431   2.410   3.236   9.361 -0.4978  0.1855 -0.0882
  363TMC3    C3 5432   2.298   3.166   9.360  0.7867  0.3830  0.5417
  363TMC3    C4 5433   2.291   3.407   9.247 -0.1648 -0.2339  0.1095
  363TMC3    C5 5434   2.182   3.326   9.229  0.5130  0.2159 -0.4219
  363TMC3    C6 5435   2.186   3.202   9.290  0.2467  0.2503  0.0299
  363TMC3     C 5436   2.531   3.420   9.269  0.3034  0.0163  0.4919
  363TMC3     O 5437   2.627   3.344   9.249  0.8846  0.2170  0.0420
  363TMC3     H 5438   2.494   3.210   9.425  0.3385  2.5577 -0.1917
  363TMC3    H1 5439   2.302   3.490   9.178  0.7338 -0.5604 -0.1376
  363TMC3    H2 5440   2.094   3.146   9.282  0.8282 -0.5575 -1.0720
  363TMC3    C7 5441   2.056   3.389   9.207 -0.6186  0.0210 -0.1666
  363TMC3    C8 5442   2.287   3.038   9.429  0.0360  0.0845  0.1271
  363TMC3    O1 5443   1.958   3.314   9.190  0.6106  0.5043 -0.6347
  363TMC3    O2 5444   2.179   2.991   9.422  0.1192  0.0174 -0.0999
  364MPD2     C 5445   1.224   2.345  11.106 -0.3210  0.2661 -0.0117
  364MPD2    C1 5446   1.308   2.285  11.016 -0.0712 -0.0506  0.0586
  364MPD2    C2 5447   1.377   2.176  11.060  0.0611 -0.4694  0.4251
  364MPD2    C3 5448   1.350   2.123  11.191  0.0399  0.4924 -0.1381
  364MPD2    C4 5449   1.268   2.195  11.275 -0.4750 -0.1833  0.3642
  364MPD2    C5 5450   1.206   2.304  11.229  0.0125 -0.0084 -0.4654
  364MPD2     H 5451   1.449   2.127  10.995  0.8274 -1.0570  1.7195
  364MPD2    H1 5452   1.249   2.168  11.379  1.7849  0.0533  0.8203
  364MPD2    H2 5453   1.167   2.434  11.081 -0.9639 -0.3531 -0.7496
  364MPD2    H3 5454   1.153   2.367  11.299  0.0195  0.5166 -0.9421
  364MPD2     N 5455   1.401   2.000  11.240 -0.2340 -0.1263  0.0266
  364MPD2    H5 5456   1.395   1.968  11.335  0.0926 -1.3201 -0.3649
  364MPD2    N1 5457   1.317   2.341  10.884  0.7009  0.2472 -0.3327
  364MPD2    H7 5458   1.278   2.433  10.868 -0.0052 -0.1120 -0.6877
  365TMC3    C1 5459   1.393   2.368  10.669 -0.5066 -0.1627 -0.7779
  365TMC3    C2 5460   1.435   2.311  10.549  0.0139  0.4421  0.3934
  365TMC3    C3 5461   1.457   2.393  10.446  0.2025  0.3610 -0.0385
  365TMC3    C4 5462   1.401   2.503  10.693 -0.0482 -0.0080  0.1572
  365TMC3    C5 5463   1.433   2.590  10.591 -1.0167  0.3405 -0.0126
  365TMC3    C6 5464   1.453   2.534  10.465 -0.5377  0.1996 -0.5844
  365TMC3     C 5465   1.373   2.275  10.778 -0.0170 -0.2848  0.0892
  365TMC3     O 5466   1.417   2.158  10.765 -0.3809  0.1938  0.7584
  365TMC3     H 5467   1.419   2.204  10.544  1.2242  0.2551  0.6865
  365TMC3    H1 5468   1.399   2.543  10.794  2.1462 -1.0870  0.6049
  365TMC3    H2 5469   1.466   2.603  10.383  0.3839  2.2638  1.2866
  365TMC3    C7 5470   1.448   2.736  10.599 -0.5036  0.4583 -0.1247
  365TMC3    C8 5471   1.506   2.349  10.320  0.7199  0.8109  0.1856
  365TMC3    O1 5472   1.481   2.797  10.498  0.4799 -0.7855  0.1824
  365TMC3    O2 5473   1.502   2.426  10.225 -0.3040 -0.6474 -0.0035
  366MPD2     C 5474   4.576   3.649  15.086 -0.7260  0.1645  0.1468
  366MPD2    C1 5475   4.684   3.723  15.046  0.5334 -0.4289 -0.3711
  366MPD2    C2 5476   0.080   3.657  15.029  0.1195  0.0985  0.4513
  366MPD2    C3 5477   0.093   3.521  15.055  0.0849 -0.3994 -1.1305
  366MPD2    C4 5478   4.700   3.453  15.094 -0.4278 -0.4027  0.3024
  366MPD2    C5 5479   4.582   3.516  15.109  0.1109  0.2874  0.0378
  366MPD2     H 5480   0.155   3.724  14.987  1.5551 -1.5146  0.4513
  366MPD2    H1 5481   4.700   3.345  15.110 -1.6679 -0.3167  0.8872
  366MPD2    H2 5482   4.475   3.689  15.079 -0.7609  0.0170 -0.2195
  366MPD2    H3 5483   4.496   3.456  15.138  0.1369  0.5824  0.7238
  366MPD2     N 5484   0.209   3.454  15.015  0.2636 -0.2822 -0.3726
  366MPD2    H5 5485   0.292   3.501  14.981 -0.6756  0.8192 -1.1379
  366MPD2    N1 5486   4.671   3.862  15.034 -0.2339  0.3821 -0.2813
  366MPD2    H7 5487   0.031   3.915  15.010  0.7620 -0.8056  0.5503
  367TMC3    C1 5488   4.579   4.075  15.060  0.1496 -1.0228  0.4227
  367TMC3    C2 5489   4.689   4.120  15.130  0.6018 -0.0548  0.2725
  367TMC3    C3 5490   4.691   4.240  15.193 -0.9943 -0.1253  0.4574
  367TMC3    C4 5491   4.466   4.148  15.056  0.4467 -0.0227 -0.2946
  367TMC3    C5 5492   4.468   4.266  15.123 -0.2031 -0.2931 -0.5181
  367TMC3    C6 5493   4.577   4.317  15.193  0.9259  0.0659 -0.4500
  367TMC3     C 5494   4.556   3.934  15.052 -1.0969  0.3381  0.2896
  367TMC3     O 5495   4.438   3.891  15.042 -0.3161 -0.3249 -0.8787
  367TMC3     H 5496   0.042   4.048  15.158 -1.1143 -1.2161  2.0106
  367TMC3    H1 5497   4.385   4.115  14.993  0.0357 -0.7014  0.5985
  367TMC3    H2 5498   4.563   4.402  15.259 -0.5416 -1.2701  0.9368
  367TMC3    C7 5499   4.355   4.355  15.111 -0.3077  0.6668 -0.3255
  367TMC3    C8 5500   0.081   4.282  15.266  0.3278  0.4058 -0.7759
  367TMC3    O1 5501   4.350   4.451  15.188  0.1379  0.0599 -0.0699
  367TMC3    O2 5502   0.170   4.203  15.296  0.1164  0.0007  0.3750
  368MPD2     C 5503   0.727   1.165  13.615  0.0118 -0.0889  0.3269
  368MPD2    C1 5504   0.722   1.209  13.483  0.0040  0.1752 -0.3597
  368MPD2    C2 5505   0.842   1.246  13.431  0.0389 -0.3530  0.0474
  368MPD2    C3 5506   0.967   1.237  13.493  0.1133  0.7780  0.4928
  368MPD2    C4 5507   0.967   1.183  13.622 -0.7802  1.2232 -0.3091
  368MPD2    C5 5508   0.845   1.155  13.678  0.4238 -0.4933  0.4747
  368MPD2     H 5509   0.842   1.272  13.325 -1.3650 -0.0644  0.1150
  368MPD2    H1 5510   1.061   1.176  13.674 -1.6939  0.6426  1.2623
  368MPD2    H2 5511   0.646   1.137  13.681 -1.4391  1.5945 -0.7654
  368MPD2    H3 5512   0.842   1.123  13.781  2.0883 -1.0919  0.3430
  368MPD2     N 5513   1.090   1.259  13.434  0.5719  0.1792  0.2020
  368MPD2    H5 5514   1.175   1.215  13.469  0.7273 -0.4747 -0.9962
  368MPD2    N1 5515   0.599   1.218  13.416  0.3021 -0.0095  0.8969
  368MPD2    H7 5516   0.521   1.194  13.477 -0.5963 -0.6738 -0.5078
  369TMC3    C1 5517   0.431   1.259  13.247 -0.3043 -1.3155  0.0153
  369TMC3    C2 5518   0.407   1.318  13.126 -0.1477  0.1024 -0.3933
  369TMC3    C3 5519   0.275   1.333  13.094  0.3244  0.0978 -0.2735
  369TMC3    C4 5520   0.329   1.198  13.319 -0.2222  0.4372 -0.6219
  369TMC3    C5 5521   0.200   1.206  13.280 -0.0236 -0.1647 -0.8864
  369TMC3    C6 5522   0.170   1.271  13.164 -0.5917 -0.0523  0.6092
  369TMC3     C 5523   0.574   1.255  13.288  0.1025  0.0060  0.1146
  369TMC3     O 5524   0.656   1.300  13.207  0.8943  0.2337 -0.5671
  369TMC3     H 5525   0.494   1.331  13.064  1.4469  1.2005  2.0574
  369TMC3    H1 5526   0.354   1.147  13.411 -4.0335  1.5182  1.0092
  369TMC3    H2 5527   0.069   1.296  13.135 -0.2183  0.6198 -0.1360
  369TMC3    C7 5528   0.101   1.153  13.373  0.3064 -0.7622 -0.5534
  369TMC3    C8 5529   0.252   1.375  12.958  0.7977  0.3354 -0.2464
  369TMC3    O1 5530   0.137   1.156  13.489  0.6067  0.2323  0.1965
  369TMC3    O2 5531   0.141   1.361  12.916  0.5880  0.0561  0.4076
  370TMC3    C1 5532   0.834   1.736  16.304  0.5384  0.1712  0.6615
  370TMC3    C2 5533   0.825   1.774  16.433  0.3503 -0.7933 -0.1965
  370TMC3    C3 5534   0.719   1.733  16.510 -0.4467  0.2859  0.1759
  370TMC3    C4 5535   0.744   1.647  16.249  0.4052 -0.5532 -0.4207
  370TMC3    C5 5536   0.629   1.624  16.324 -0.1262  0.0466  0.3468
  370TMC3    C6 5537   0.614   1.666  16.452 -0.1684 -0.3822 -0.0034
  370TMC3     C 5538   0.952   1.765  16.222  0.5342 -0.0534 -0.6483
  370TMC3     O 5539   0.970   1.694  16.120  0.2001 -0.5958  0.7399
  370TMC3     H 5540   0.899   1.838  16.480 -0.2990 -0.9315  1.0432
  370TMC3    H1 5541   0.741   1.626  16.143  1.0305 -1.6585 -0.2181
  370TMC3    H2 5542   0.533   1.639  16.519 -2.7094  0.9335 -2.5714
  370TMC3    C7 5543   0.562   1.495  16.315  0.1654  0.1839  0.5251
  370TMC3    C8 5544   0.734   1.694  16.653  0.0375  0.2451  0.0688
  370TMC3    O1 5545   0.451   1.488  16.363  0.2362 -0.6947  0.5825
  370TMC3    O2 5546   0.648   1.617  16.693  0.3726 -0.2649  0.2057
  371TMC3    C1 5547   1.450   4.359  15.543  0.2617 -0.3305  0.0956
  371TMC3    C2 5548   1.330   4.419  15.565 -0.5071  0.4818  0.5113
  371TMC3    C3 5549   1.328   4.559  15.563 -0.4930  0.2789 -1.0748
  371TMC3    C4 5550   1.563   4.426  15.506 -0.2112  0.3265 -0.4579
  371TMC3    C5 5551   1.555   4.568  15.511  0.1745 -0.0064  0.3080
  371TMC3    C6 5552   1.436   4.632  15.536  0.0129 -0.3257 -0.0455
  371TMC3     C 5553   1.475   4.224  15.578  0.5289  0.6965 -0.3411
  371TMC3     O 5554   1.566   4.172  15.513 -0.3846  0.3528 -0.1991
  371TMC3     H 5555   1.245   4.355  15.585  0.2364 -1.0215 -1.1419
  371TMC3    H1 5556   1.662   4.383  15.496 -0.1000  0.6236 -0.6263
  371TMC3    H2 5557   1.431   0.017  15.547  1.6772 -0.3780  1.0697
  371TMC3    C7 5558   1.663   4.653  15.469  0.5647 -0.3035 -0.0674
  371TMC3    C8 5559   1.196   4.605  15.531  0.5811 -0.1619 -0.0959
  371TMC3    O1 5560   1.645   0.054  15.477 -0.2917 -0.7723 -0.0156
  371TMC3    O2 5561   1.122   4.544  15.456  0.8428  0.2564 -0.1560
  372MPD2     C 5562   2.417   1.438  13.753  0.3441  0.4705  0.2308
  372MPD2    C1 5563   2.404   1.333  13.835  0.0429  0.4047  0.1070
  372MPD2    C2 5564   2.280   1.264  13.848  0.4393  0.6634  0.2242
  372MPD2    C3 5565   2.177   1.296  13.757  0.5367 -0.0219 -0.2472
  372MPD2    C4 5566   2.205   1.391  13.662 -0.3564  0.3172 -0.1074
  372MPD2    C5 5567   2.317   1.467  13.665 -0.1569 -0.2233 -0.8073
  372MPD2     H 5568   2.268   1.192  13.929  1.4300 -0.6100 -0.7708
  372MPD2    H1 5569   2.134   1.424  13.587 -0.7791 -0.6000 -0.1120
  372MPD2    H2 5570   2.510   1.494  13.747 -0.7044  2.2749  0.9166
  372MPD2    H3 5571   2.325   1.551  13.597 -0.8988 -0.2455 -0.9238
  372MPD2     N 5572   2.073   1.201  13.752  0.1857  0.4571 -0.9390
  372MPD2    H5 5573   2.064   1.126  13.820  0.5821 -0.4123 -1.8492
  372MPD2    N1 5574   2.508   1.281  13.919  0.0587  0.5776 -0.2143
  372MPD2    H7 5575   2.482   1.210  13.986  0.0506  0.0444 -0.7800
  373TMC3    C1 5576   1.891   1.070  13.656  0.5546  0.1641 -0.4513
  373TMC3    C2 5577   1.834   1.029  13.773  0.0482 -0.1624 -0.7716
  373TMC3    C3 5578   1.760   0.914  13.770 -0.4183  0.0089 -0.0457
  373TMC3    C4 5579   1.870   1.000  13.536 -0.3090  0.0543 -0.3644
  373TMC3    C5 5580   1.794   0.887  13.534 -0.0707  0.3125 -0.0508
  373TMC3    C6 5581   1.744   0.840  13.652  0.2925  0.3858  0.3373
  373TMC3     C 5582   1.980   1.185  13.653 -0.0212 -1.1104  0.6626
  373TMC3     O 5583   1.968   1.248  13.547 -0.2025  0.2212  0.5808
  373TMC3     H 5584   1.848   1.083  13.865  0.0477 -0.2756 -0.7057
  373TMC3    H1 5585   1.887   1.049  13.442  0.2690 -0.6149 -0.6059
  373TMC3    H2 5586   1.687   0.747  13.654 -0.0630  0.6048  0.4532
  373TMC3    C7 5587   1.816   0.783  13.428 -0.3610 -1.2119 -0.4582
  373TMC3    C8 5588   1.757   0.846  13.900  0.4789 -0.5271  0.4718
  373TMC3    O1 5589   1.921   0.787  13.362  0.3909  0.0486  0.1975
  373TMC3    O2 5590   1.824   0.903  13.987 -0.1305 -0.7339  0.0252
  374TMC3    C1 5591   1.547   0.746   9.811  0.0326  0.2778  0.0382
  374TMC3    C2 5592   1.644   0.845   9.832  0.0503  0.2037  0.3976
  374TMC3    C3 5593   1.604   0.971   9.801  0.6844 -0.1594 -0.7988
  374TMC3    C4 5594   1.420   0.771   9.769 -0.3127 -0.1371 -0.5392
  374TMC3    C5 5595   1.386   0.906   9.759  0.1146  0.4744  0.1514
  374TMC3    C6 5596   1.475   1.008   9.773 -0.8406 -0.5860  0.2833
  374TMC3     C 5597   1.569   0.619   9.873  0.0922  0.1041 -0.1597
  374TMC3     O 5598   1.490   0.528   9.842 -0.3720  0.7422 -0.1210
  374TMC3     H 5599   1.738   0.822   9.879  0.7465  0.9351 -0.6414
  374TMC3    H1 5600   1.341   0.697   9.775  0.3879 -0.8878 -0.6045
  374TMC3    H2 5601   1.436   1.106   9.750 -1.4380 -1.2797 -1.6557
  374TMC3    C7 5602   1.253   0.935   9.705  0.3522 -0.2240 -0.3794
  374TMC3    C8 5603   1.681   1.089   9.834  0.6291  0.3669  0.6826
  374TMC3    O1 5604   1.208   1.046   9.717  0.1037 -0.4861 -0.3404
  374TMC3    O2 5605   1.635   1.198   9.801 -0.1248 -0.0282  0.4328
  375MPD2     C 5606   2.275   2.002  16.676  0.0333  0.1334  0.0871
  375MPD2    C1 5607   2.210   1.924  16.585 -0.1980  1.2965 -0.2133
  375MPD2    C2 5608   2.291   1.815  16.550 -0.1258 -0.2247  0.2546
  375MPD2    C3 5609   2.414   1.778  16.595  0.2121  0.6219 -0.5327
  375MPD2    C4 5610   2.467   1.854  16.692 -0.0212 -0.0421 -0.7890
  375MPD2    C5 5611   2.396   1.968  16.731  0.3623 -0.2465  0.2648
  375MPD2     H 5612   2.241   1.757  16.473  1.6416 -1.6643  0.1835
  375MPD2    H1 5613   2.565   1.840  16.737 -0.5925 -0.4555  0.3174
  375MPD2    H2 5614   2.231   2.095  16.710 -2.9431 -0.0973 -3.1463
  375MPD2    H3 5615   2.448   2.031  16.801  0.8325  1.1929 -1.3904
  375MPD2     N 5616   2.480   1.665  16.551 -0.0677 -0.0730 -0.0706
  375MPD2    H5 5617   2.558   1.637  16.609  0.2589  3.9218  1.4066
  375MPD2    N1 5618   2.084   1.940  16.521 -0.5631  0.2003  0.5606
  375MPD2    H7 5619   2.053   1.870  16.454  2.1265  1.5763 -2.1331
  376TMC3    C1 5620   2.544   1.482  16.413 -0.1707  0.2271  0.5831
  376TMC3    C2 5621   2.667   1.478  16.476 -0.4013  0.5846 -0.5367
  376TMC3    C3 5622   2.773   1.408  16.419 -0.0327  0.2495 -0.2514
  376TMC3    C4 5623   2.528   1.410  16.300 -0.2050  0.2801  0.4252
  376TMC3    C5 5624   2.635   1.342  16.254 -0.0244 -0.1676  0.4619
  376TMC3    C6 5625   2.760   1.334  16.307 -0.1626  0.1155 -0.2872
  376TMC3     C 5626   2.441   1.580  16.447 -0.5928 -0.3574 -0.3775
  376TMC3     O 5627   2.343   1.578  16.368  0.1993  0.0663  0.4252
  376TMC3     H 5628   2.682   1.517  16.576  0.2134 -2.5083  0.5571
  376TMC3    H1 5629   2.428   1.404  16.257  0.0845  1.8986 -0.4608
  376TMC3    H2 5630   2.848   1.281  16.274 -1.1366 -2.6679  1.5434
  376TMC3    C7 5631   2.630   1.293  16.114  0.1310 -0.0130  0.5822
  376TMC3    C8 5632   2.897   1.468  16.432 -0.0681  0.0726 -0.7897
  376TMC3    O1 5633   2.693   1.194  16.093  0.7614 -0.1440  0.0135
  376TMC3    O2 5634   2.956   1.490  16.326  0.0645  0.1301  0.5192
  377MPD2     C 5635   4.626   0.825  11.811 -0.8213 -0.0790 -0.5915
  377MPD2    C1 5636   4.638   0.913  11.922 -0.3219 -0.3189  0.6256
  377MPD2    C2 5637   4.576   0.897  12.039 -0.0740 -0.1230 -0.1578
  377MPD2    C3 5638   4.495   0.784  12.054 -0.1658 -0.2717 -0.2609
  377MPD2    C4 5639   4.479   0.690  11.951  0.5193  0.9690  0.4117
  377MPD2    C5 5640   4.547   0.713  11.831 -0.3067  0.0060  0.1212
  377MPD2     H 5641   4.591   0.967  12.121 -1.7272  0.0053  0.0312
  377MPD2    H1 5642   4.412   0.605  11.950  1.3339  0.3381 -0.5635
  377MPD2    H2 5643   4.678   0.822  11.716 -1.9028 -0.4150 -1.1677
  377MPD2    H3 5644   4.532   0.629  11.765 -0.7728  0.4952 -0.3948
  377MPD2     N 5645   4.432   0.773  12.175 -0.0685 -0.1903  0.0602
  377MPD2    H5 5646   4.440   0.847  12.243  1.0635 -1.5907  1.4371
  377MPD2    N1 5647   0.011   1.015  11.901  0.3066 -0.6074 -0.0731
  377MPD2    H7 5648   0.087   1.006  11.835  0.3072  0.2989 -0.1907
  378TMC3    C1 5649   0.349   1.261  11.911 -0.7953 -0.1671 -0.7191
  378TMC3    C2 5650   0.227   1.208  11.892  0.4954  0.0048  0.2970
  378TMC3    C3 5651   0.154   1.177  12.004 -0.0096 -0.1010  0.2608
  378TMC3    C4 5652   0.412   1.283  12.037  0.6014 -0.2363 -0.1636
  378TMC3    C5 5653   0.323   1.264  12.143  0.1552 -0.2393 -0.1281
  378TMC3    C6 5654   0.196   1.207  12.129 -1.2862  0.0828  0.7639
  378TMC3     C 5655   0.420   1.288  11.788  0.1816 -0.5044 -0.7994
  378TMC3     O 5656   0.349   1.332  11.701 -0.2905 -0.7873 -0.3807
  378TMC3     H 5657   0.191   1.186  11.792  0.1885  1.9027 -0.0132
  378TMC3    H1 5658   0.502   1.343  12.041  1.6097 -1.6771 -1.4946
  378TMC3    H2 5659   0.143   1.150  12.204 -2.6874 -0.0730 -0.3412
  378TMC3    C7 5660   0.367   1.271  12.279 -0.4693 -0.4517  0.9721
  378TMC3    C8 5661   0.023   1.122  11.989  0.6174 -0.9758 -0.1631
  378TMC3    O1 5662   0.286   1.243  12.369  0.2317 -0.3196 -0.0395
  378TMC3    O2 5663   4.669   1.163  12.073  0.0948 -0.0925 -0.5788
  379MPD2     C 5664   0.587   4.460  16.314  0.0744  0.1204  0.1530
  379MPD2    C1 5665   0.702   4.418  16.250  0.7269 -0.0429  0.0938
  379MPD2    C2 5666   0.803   4.357  16.324 -0.5631  0.3033 -0.2483
  379MPD2    C3 5667   0.785   4.332  16.454 -0.2182 -0.2927 -0.4037
  379MPD2    C4 5668   0.657   4.355  16.509 -0.7765 -0.7858 -0.0278
  379MPD2    C5 5669   0.566   4.432  16.447 -0.2110  0.8395  0.8694
  379MPD2     H 5670   0.901   4.345  16.281  0.0201  0.9091  0.9141
  379MPD2    H1 5671   0.636   4.340  16.615 -0.9111  0.5037  0.1253
  379MPD2    H2 5672   0.504   4.502  16.258 -0.4928 -0.8277  0.2785
  379MPD2    H3 5673   0.475   4.473  16.489 -2.3159 -0.9854 -1.9886
  379MPD2     N 5674   0.878   4.263  16.533 -0.1571  0.3632  0.2903
  379MPD2    H5 5675   0.845   4.238  16.626  0.3084  0.6881  0.5417
  379MPD2    N1 5676   0.718   4.443  16.111 -0.3397 -0.1477 -0.1593
  379MPD2    H7 5677   0.642   4.488  16.062 -0.2277 -3.0970 -3.0442
  380TMC3    C1 5678   0.791   4.406  15.884 -0.3300  0.1296 -0.5849
  380TMC3    C2 5679   0.867   4.321  15.807  1.1296 -0.7415 -0.5533
  380TMC3    C3 5680   0.834   4.325  15.674 -0.5073 -0.2179  0.3122
  380TMC3    C4 5681   0.690   4.484  15.843 -0.5482  0.3170 -0.3056
  380TMC3    C5 5682   0.666   4.482  15.709  0.0871  0.2924  1.1224
  380TMC3    C6 5683   0.740   4.403  15.619 -0.2668  0.2103  0.0181
  380TMC3     C 5684   0.823   4.400  16.027 -0.2050 -0.5872  0.0263
  380TMC3     O 5685   0.913   4.324  16.055 -0.2789  0.2344  0.2017
  380TMC3     H 5686   0.954   4.267  15.840  2.6675  0.8426 -2.0242
  380TMC3    H1 5687   0.632   4.558  15.897 -2.6164 -0.9372 -0.7943
  380TMC3    H2 5688   0.722   4.393  15.512 -0.9614  1.7084 -0.0105
  380TMC3    C7 5689   0.538   4.547  15.670  0.1738  0.2163 -0.1768
  380TMC3    C8 5690   0.897   4.234  15.577 -0.0164  0.9404  0.5630
  380TMC3    O1 5691   0.503   4.651  15.733 -0.2113 -0.4544 -0.0624
  380TMC3    O2 5692   0.894   4.275  15.463 -0.0289 -0.3102 -0.0909
  381TMC3    C1 5693   0.556   0.686  16.285  0.3885 -0.2915  0.3285
  381TMC3    C2 5694   0.661   0.776  16.267  0.2412 -0.7343 -0.4687
  381TMC3    C3 5695   0.665   0.883  16.352  0.0483 -0.0754 -0.2473
  381TMC3    C4 5696   0.468   0.690  16.392  0.1007  0.7016 -0.7039
  381TMC3    C5 5697   0.486   0.800  16.483  0.2220 -0.1160 -0.0931
  381TMC3    C6 5698   0.584   0.895  16.459  0.1479 -0.3253 -0.2243
  381TMC3     C 5699   0.568   0.563  16.207  0.0253  0.1562 -0.3737
  381TMC3     O 5700   0.659   0.557  16.129 -0.0729  0.0966 -0.2150
  381TMC3     H 5701   0.732   0.778  16.185  2.1500 -0.3873  1.1793
  381TMC3    H1 5702   0.390   0.616  16.407  2.6817 -1.7331  0.7528
  381TMC3    H2 5703   0.617   0.950  16.547 -1.0320  0.3079 -0.1847
  381TMC3    C7 5704   0.422   0.793  16.613 -0.3759  0.4499 -0.5912
  381TMC3    C8 5705   0.781   0.964  16.344 -1.0012  0.7272 -0.1243
  381TMC3    O1 5706   0.383   0.688  16.657 -0.5321 -0.1219  0.2512
  381TMC3    O2 5707   0.851   0.939  16.244  0.6167  0.0939  0.1392
  382MPD2     C 5708   0.042   3.625  16.456  0.0864  0.1106  0.3823
  382MPD2    C1 5709   0.103   3.668  16.566 -0.2201 -0.3995  0.3048
  382MPD2    C2 5710   0.079   3.598  16.681 -0.2804  0.1601 -0.7950
  382MPD2    C3 5711   4.704   3.498  16.685  1.1740  0.3292 -0.0224
  382MPD2    C4 5712   4.637   3.462  16.570 -0.6354  0.8786 -0.0600
  382MPD2    C5 5713   4.682   3.521  16.455  0.0384  0.0786  0.7584
  382MPD2     H 5714   0.130   3.610  16.776  0.8031  0.7628 -1.4483
  382MPD2    H1 5715   4.568   3.379  16.562  0.9001 -0.4127 -0.0064
  382MPD2    H2 5716   0.065   3.674  16.362 -0.6923  1.1920  0.7412
  382MPD2    H3 5717   4.629   3.500  16.363  0.2403 -0.3739  0.7438
  382MPD2     N 5718   4.658   3.437  16.809  0.5458  0.3251  0.7791
  382MPD2    H5 5719   4.576   3.377  16.804  0.9888 -0.2065 -0.1496
  382MPD2    N1 5720   0.186   3.784  16.586  0.8086  0.2554  0.1658
  382MPD2    H7 5721   0.203   3.807  16.683 -1.4457 -1.5519  0.9955
  383TMC3    C1 5722   4.628   3.407  17.041  0.8914 -1.3381  0.1422
  383TMC3    C2 5723   4.555   3.289  17.022  0.0299 -0.3990 -0.5789
  383TMC3    C3 5724   4.493   3.233  17.130 -0.4337  0.5190  0.2297
  383TMC3    C4 5725   4.646   3.462  17.162  0.4104 -0.8899  1.2305
  383TMC3    C5 5726   4.584   3.399  17.268  0.2030  0.0055 -1.0102
  383TMC3    C6 5727   4.513   3.282  17.253  0.0013 -0.3406  0.8366
  383TMC3     C 5728   4.712   3.459  16.937  0.1098  0.6372 -0.3306
  383TMC3     O 5729   0.074   3.538  16.970 -0.1206  0.3892  0.0916
  383TMC3     H 5730   4.526   3.255  16.923  0.9519 -1.2728 -0.5513
  383TMC3    H1 5731   4.701   3.555  17.169  1.1063 -1.2817  0.9924
  383TMC3    H2 5732   4.459   3.243  17.339 -1.2040 -3.3486 -1.2821
  383TMC3    C7 5733   4.586   3.457  17.400  0.2514  0.0496  0.1664
  383TMC3    C8 5734   4.385   3.137  17.102  0.3721 -0.3453 -0.7071
  383TMC3    O1 5735   4.574   3.378  17.494 -0.5894 -0.5443 -0.2795
  383TMC3    O2 5736   4.332   3.139  16.990  0.1725 -0.0699  0.6619
  384MPD2     C 5737   1.332   4.457  11.985  0.4298 -0.8106 -0.3153
  384MPD2    C1 5738   1.347   4.340  12.062 -0.1088 -0.6421  0.2540
  384MPD2    C2 5739   1.391   4.228  12.003  0.1473  0.6834  0.5912
  384MPD2    C3 5740   1.435   4.231  11.868  0.5532  0.0465 -0.0564
  384MPD2    C4 5741   1.435   4.350  11.800 -0.3616  0.2546  0.4802
  384MPD2    C5 5742   1.386   4.465  11.859  0.3244  0.4615 -0.1980
  384MPD2     H 5743   1.415   4.141  12.063  2.6436  0.4444 -0.7297
  384MPD2    H1 5744   1.473   4.351  11.699 -1.4874 -0.9357  0.0478
  384MPD2    H2 5745   1.276   4.542  12.022  1.3113 -0.7441  0.8755
  384MPD2    H3 5746   1.384   4.564  11.817 -0.3584  0.7514  0.5291
  384MPD2     N 5747   1.497   4.119  11.814  0.2082 -0.0075 -0.5815
  384MPD2    H5 5748   1.573   4.146  11.753 -0.8730 -0.5199 -2.1380
  384MPD2    N1 5749   1.310   4.331  12.199  0.9448 -0.1850  0.3395
  384MPD2    H7 5750   1.302   4.236  12.233  1.1436  0.3099  1.7785
  385TMC3    C1 5751   1.606   3.903  11.859  0.7475 -0.2454 -0.2303
  385TMC3    C2 5752   1.571   3.765  11.855 -0.0728 -0.7399  0.0962
  385TMC3    C3 5753   1.637   3.682  11.942 -0.4507 -0.1789  1.2847
  385TMC3    C4 5754   1.706   3.942  11.941  0.4892 -0.7591  0.9820
  385TMC3    C5 5755   1.759   3.860  12.034  0.0747  0.5985  0.5176
  385TMC3    C6 5756   1.735   3.726  12.031  0.6197  0.1558  0.4668
  385TMC3     C 5757   1.484   3.993  11.866  1.3990  0.0838 -0.1767
  385TMC3     O 5758   1.392   3.938  11.926 -0.1475 -0.0563  0.1737
  385TMC3     H 5759   1.487   3.727  11.798 -0.0041 -2.3710  1.0922
  385TMC3    H1 5760   1.711   4.046  11.973 -0.8605 -0.6431  0.8036
  385TMC3    H2 5761   1.790   3.664  12.100  0.9959 -1.3867 -1.2213
  385TMC3    C7 5762   1.729   3.917  12.162 -0.3735 -0.6374  0.2028
  385TMC3    C8 5763   1.584   3.552  11.969 -0.4423  0.0914 -0.2226
  385TMC3    O1 5764   1.610   3.933  12.190  0.3669 -0.4658  1.1412
  385TMC3    O2 5765   1.589   3.513  12.083 -0.0039  0.1103  0.4060
  386TMC3    C1 5766   1.040   1.828  11.806 -0.4096  0.1440 -0.3738
  386TMC3    C2 5767   1.111   1.767  11.700  1.0297  0.4792  0.0430
  386TMC3    C3 5768   1.035   1.706  11.604 -0.6577 -0.3106  0.8819
  386TMC3    C4 5769   0.902   1.815  11.805 -0.6787 -0.7528  0.4214
  386TMC3    C5 5770   0.833   1.747  11.707  0.1869 -0.4372  0.4930
  386TMC3    C6 5771   0.898   1.700  11.595  0.0205  0.8733 -0.6696
  386TMC3     C 5772   1.117   1.876  11.923 -0.4246  0.3163  0.6739
  386TMC3     O 5773   1.068   1.961  11.998 -0.1953 -0.7108  0.3691
  386TMC3     H 5774   1.218   1.780  11.690  0.9721 -1.0103 -2.3984
  386TMC3    H1 5775   0.835   1.853  11.882  0.8385  2.4190  0.1521
  386TMC3    H2 5776   0.855   1.619  11.536  0.5971 -1.4588  2.1472
  386TMC3    C7 5777   0.698   1.700  11.741 -0.3153 -0.3702  0.0183
  386TMC3    C8 5778   1.093   1.627  11.497  0.1176  0.3059 -0.0242
  386TMC3    O1 5779   0.669   1.695  11.861  1.6578  0.0685  0.1161
  386TMC3    O2 5780   1.027   1.621  11.393 -0.8649 -0.2497  0.2341
  387MPD2     C 5781   3.522   0.623   9.508 -0.5943 -1.1344  0.0323
  387MPD2    C1 5782   3.624   0.688   9.574 -0.0267 -0.5575  0.6109
  387MPD2    C2 5783   3.737   0.615   9.608  0.0567 -0.2225 -0.0548
  387MPD2    C3 5784   3.757   0.482   9.580 -0.5337  0.5196 -0.8797
  387MPD2    C4 5785   3.655   0.415   9.516  0.2701  0.0132  0.2943
  387MPD2    C5 5786   3.535   0.485   9.481  0.3132 -0.0573  0.5047
  387MPD2     H 5787   3.811   0.675   9.660  2.1233 -3.4381  0.7117
  387MPD2    H1 5788   3.672   0.311   9.494  0.7730  0.2010 -0.2110
  387MPD2    H2 5789   3.423   0.666   9.495 -1.6870 -2.3935  4.0024
  387MPD2    H3 5790   3.461   0.434   9.420 -0.1029  2.3822 -1.0063
  387MPD2     N 5791   3.870   0.422   9.640 -0.2460 -0.0227 -0.5066
  387MPD2    H5 5792   3.929   0.478   9.701 -0.6385  0.8273 -0.9046
  387MPD2    N1 5793   3.612   0.815   9.634  0.0936 -0.4977 -0.2809
  387MPD2    H7 5794   3.686   0.836   9.700  0.3850 -0.6572 -0.5593
  388TMC3    C1 5795   3.527   1.016   9.710 -0.4535 -0.1042  0.1471
  388TMC3    C2 5796   3.515   1.144   9.662 -0.2145  0.2623 -0.0456
  388TMC3    C3 5797   3.551   1.241   9.752  0.2608  0.4685  0.1834
  388TMC3    C4 5798   3.591   0.981   9.826  0.7210  0.0702  0.4852
  388TMC3    C5 5799   3.625   1.084   9.914  0.0776 -0.5545 -0.1114
  388TMC3    C6 5800   3.602   1.210   9.880  0.1781  0.4235 -0.0039
  388TMC3     C 5801   3.508   0.906   9.623  0.4912  0.1206 -0.5148
  388TMC3     O 5802   3.422   0.901   9.535 -0.3831 -0.0752 -0.3467
  388TMC3     H 5803   3.479   1.161   9.561 -3.1239 -1.3479  0.7361
  388TMC3    H1 5804   3.591   0.880   9.867 -3.3924 -0.5330 -0.9423
  388TMC3    H2 5805   3.621   1.282   9.958 -1.5365 -1.7188  2.3895
  388TMC3    C7 5806   3.704   1.044  10.031  0.0227 -0.4319  0.4190
  388TMC3    C8 5807   3.481   1.361   9.722 -0.5086 -0.6490  0.1797
  388TMC3    O1 5808   3.701   1.122  10.128 -0.0562  0.8755  0.2030
  388TMC3    O2 5809   3.381   1.352   9.653 -0.9128  0.3913 -0.3409
  389MPD2     C 5810   3.324   4.204  10.996  0.2708  0.3063  1.0334
  389MPD2    C1 5811   3.273   4.087  10.945 -0.4634 -1.4730 -0.1539
  389MPD2    C2 5812   3.243   3.978  11.032  0.5989 -0.5315  0.2853
  389MPD2    C3 5813   3.258   4.000  11.167 -0.2589  0.6019 -0.3791
  389MPD2    C4 5814   3.310   4.119  11.223 -0.2134  0.4000  0.1671
  389MPD2    C5 5815   3.351   4.220  11.135  0.6841 -0.7566 -0.1136
  389MPD2     H 5816   3.201   3.886  10.992  1.0544 -0.7404  0.2946
  389MPD2    H1 5817   3.325   4.136  11.328  1.3889 -0.8142  0.1348
  389MPD2    H2 5818   3.358   4.284  10.932 -1.0236  2.9358  3.5935
  389MPD2    H3 5819   3.398   4.313  11.165 -1.2130 -0.1722  1.0328
  389MPD2     N 5820   3.223   3.911  11.271  0.3620 -0.1084  0.1745
  389MPD2    H5 5821   3.243   3.955  11.361  0.5453 -1.0619  0.5980
  389MPD2    N1 5822   3.276   4.070  10.805  0.2986 -0.1533  0.4000
  389MPD2    H7 5823   3.331   4.143  10.761  0.7132 -0.1020  1.0037
  390TMC3    C1 5824   3.119   3.740  11.393  0.7677 -0.4325 -0.1921
  390TMC3    C2 5825   3.083   3.614  11.404 -0.0181 -0.0958  0.1736
  390TMC3    C3 5826   3.025   3.572  11.522 -0.2037 -0.4617  0.5915
  390TMC3    C4 5827   3.104   3.834  11.491 -0.0611 -1.2526  0.0734
  390TMC3    C5 5828   3.042   3.786  11.612  0.3493  0.1664  0.3096
  390TMC3    C6 5829   3.010   3.652  11.630  0.5202  0.2503  0.2703
  390TMC3     C 5830   3.160   3.792  11.260  0.2926 -0.9742 -0.1698
  390TMC3     O 5831   3.160   3.718  11.165  0.5438  0.5570  0.0896
  390TMC3     H 5832   3.088   3.552  11.315  0.6494  1.2587 -0.7319
  390TMC3    H1 5833   3.116   3.941  11.480  0.4837 -1.1727  1.5694
  390TMC3    H2 5834   2.965   3.630  11.726  0.7086 -0.7305  0.1372
  390TMC3    C7 5835   2.964   3.876  11.700  0.4350 -0.6753 -0.0695
  390TMC3    C8 5836   2.920   3.467  11.498  0.3329  0.1779  0.1584
  390TMC3    O1 5837   3.028   3.948  11.777 -0.4632  0.0323  0.4310
  390TMC3    O2 5838   2.898   3.435  11.384  0.2141  0.4025 -0.2183
  391MPD2     C 5839   2.648   0.612  10.877  0.3234  0.1582  0.1844
  391MPD2    C1 5840   2.661   0.745  10.894  0.2458  0.3101  0.4806
  391MPD2    C2 5841   2.629   0.823  10.780  0.1182 -0.3770  0.2220
  391MPD2    C3 5842   2.596   0.773  10.656  0.7691  0.1155 -0.2189
  391MPD2    C4 5843   2.593   0.639  10.645 -0.2600 -0.3063 -0.3894
  391MPD2    C5 5844   2.623   0.555  10.753 -0.1528  0.2770  0.6386
  391MPD2     H 5845   2.630   0.931  10.794 -1.5054 -0.5516  1.6380
  391MPD2    H1 5846   2.569   0.598  10.547 -0.1700 -0.5805 -0.2956
  391MPD2    H2 5847   2.654   0.540  10.958 -1.4329 -0.2512 -0.0389
  391MPD2    H3 5848   2.623   0.446  10.748  1.2551  0.3268 -0.3154
  391MPD2     N 5849   2.567   0.867  10.553 -0.3841 -0.5670 -0.2844
  391MPD2    H5 5850   2.580   0.964  10.579 -0.6294  0.5278 -4.2191
  391MPD2    N1 5851   2.706   0.796  11.018 -1.0384 -0.3930  0.1212
  391MPD2    H7 5852   2.692   0.734  11.098 -1.2111  2.9428  2.6792
  392TMC3    C1 5853   2.540   0.943  10.334  0.0566  0.1104  0.4157
  392TMC3    C2 5854   2.455   0.940  10.224 -0.5009 -0.1191 -0.9243
  392TMC3    C3 5855   2.419   1.064  10.167  0.5488 -0.1376 -0.4549
  392TMC3    C4 5856   2.605   1.056  10.372  0.7984 -0.7562  0.0580
  392TMC3    C5 5857   2.577   1.168  10.303 -0.1780 -0.1162 -0.2176
  392TMC3    C6 5858   2.486   1.178  10.204 -0.3486  0.7648  0.3998
  392TMC3     C 5859   2.536   0.830  10.421 -0.6243 -0.6063  0.5185
  392TMC3     O 5860   2.511   0.721  10.373  0.1198  0.1476  0.0747
  392TMC3     H 5861   2.402   0.852  10.190 -0.9341 -0.4678  0.6637
  392TMC3    H1 5862   2.686   1.057  10.445  1.3667 -0.4134 -0.5781
  392TMC3    H2 5863   2.450   1.277  10.176  0.5232  1.5524  2.0548
  392TMC3    C7 5864   2.679   1.279  10.313  0.0115 -0.2732  0.2092
  392TMC3    C8 5865   2.293   1.072  10.090  0.3087  0.2651  0.4476
  392TMC3    O1 5866   2.726   1.305  10.428 -0.2247 -0.4000 -0.0698
  392TMC3    O2 5867   2.245   0.961  10.071 -0.7691  0.3963  0.4960
  393TMC3    C1 5868   1.604   3.775  10.550 -0.4492 -0.0830  0.6218
  393TMC3    C2 5869   1.489   3.768  10.620  0.4005  0.0493  0.4623
  393TMC3    C3 5870   1.472   3.655  10.695  0.2511 -0.0121  0.3445
  393TMC3    C4 5871   1.693   3.673  10.539  0.0226 -0.0015 -0.1300
  393TMC3    C5 5872   1.674   3.575  10.635 -0.0251 -0.7807 -0.3574
  393TMC3    C6 5873   1.563   3.558  10.711  0.4968  0.1855 -0.2788
  393TMC3     C 5874   1.612   3.876  10.447  0.4006  0.1899 -0.4855
  393TMC3     O 5875   1.504   3.912  10.403 -0.2192  0.0425  0.1153
  393TMC3     H 5876   1.420   3.850  10.630 -1.4784 -1.4675 -0.0595
  393TMC3    H1 5877   1.788   3.686  10.488  0.3100 -0.3978  0.3015
  393TMC3    H2 5878   1.555   3.473  10.778 -0.6397 -0.0397 -0.7160
  393TMC3    C7 5879   1.784   3.494  10.670  0.0815  0.1952 -0.3016
  393TMC3    C8 5880   1.365   3.665  10.782 -0.1848  0.8400  0.0468
  393TMC3    O1 5881   1.789   3.445  10.782 -0.4453  0.3365 -0.6590
  393TMC3    O2 5882   1.337   3.754  10.857 -0.1863  0.1284 -0.1991
  394TMC3    C1 5883   3.292   3.962  10.598  0.3529 -0.5347 -0.4536
  394TMC3    C2 5884   3.215   3.917  10.499 -0.4446 -0.0166  0.6070
  394TMC3    C3 5885   3.249   3.938  10.373 -0.2719 -0.0352  0.4746
  394TMC3    C4 5886   3.416   4.013  10.570 -0.2434 -0.7441  0.3972
  394TMC3    C5 5887   3.456   4.018  10.443  0.2251  0.3835  0.1335
  394TMC3    C6 5888   3.371   3.990  10.344 -0.1147 -0.0590  0.5054
  394TMC3     C 5889   3.244   3.956  10.731 -0.4190  0.1747  0.2112
  394TMC3     O 5890   3.169   3.864  10.763  0.6216  0.1557  0.4950
  394TMC3     H 5891   3.118   3.885  10.536  0.2399 -2.6429  0.0931
  394TMC3    H1 5892   3.479   4.048  10.651  1.0630 -2.5231  0.1516
  394TMC3    H2 5893   3.400   4.002  10.241  2.2328  0.0582  1.1892
  394TMC3    C7 5894   3.580   4.091  10.418  0.1820 -0.9456  0.1227
  394TMC3    C8 5895   3.203   3.849  10.267 -0.1168  0.1566 -0.1430
  394TMC3    O1 5896   3.583   4.166  10.321 -0.3588  0.5303 -0.8226
  394TMC3    O2 5897   3.222   3.889  10.154 -0.0926 -0.2695  0.0667
  395TMC3    C1 5898   2.894   1.680  14.604  0.2806  1.1095  0.1373
  395TMC3    C2 5899   2.803   1.641  14.705  0.7245  0.0613 -0.0888
  395TMC3    C3 5900   2.803   1.716  14.822  0.7064  0.5832  0.6022
  395TMC3    C4 5901   2.956   1.808  14.613 -0.4098 -0.1258 -0.0459
  395TMC3    C5 5902   2.948   1.877  14.739  0.0899 -0.6739  0.5687
  395TMC3    C6 5903   2.864   1.838  14.836  0.5145 -0.0554 -0.5494
  395TMC3     C 5904   3.006   1.584  14.601 -0.2508 -0.1754  0.2007
  395TMC3     O 5905   3.116   1.638  14.605 -0.3006 -0.0728  0.5756
  395TMC3     H 5906   2.763   1.541  14.695  2.5493 -0.7273  0.4662
  395TMC3    H1 5907   3.027   1.846  14.541  1.6283 -1.3270  1.3599
  395TMC3    H2 5908   2.874   1.894  14.929  1.5337  0.4310 -0.9472
  395TMC3    C7 5909   3.067   1.932  14.788 -0.3191 -0.0739  0.4138
  395TMC3    C8 5910   2.820   1.644  14.947  0.8273 -0.5700  0.6552
  395TMC3    O1 5911   3.058   2.024  14.873 -0.0947  1.0882 -0.2974
  395TMC3    O2 5912   2.870   1.702  15.038  0.3395 -0.5988  0.1442
  396MPD2     C 5913   2.810   2.892  16.994  0.2688 -0.5128  0.0777
  396MPD2    C1 5914   2.902   2.984  17.011 -0.0207 -0.2872 -0.7818
  396MPD2    C2 5915   2.910   3.087  16.916 -0.7969 -0.3064 -0.1007
  396MPD2    C3 5916   2.812   3.099  16.814  0.7005  0.5293  0.3341
  396MPD2    C4 5917   2.707   3.009  16.805 -0.0825  0.1460 -0.3600
  396MPD2    C5 5918   2.707   2.904  16.894 -0.9709 -0.1780  0.0757
  396MPD2     H 5919   2.994   3.153  16.900  0.3471 -2.0570 -1.3775
  396MPD2    H1 5920   2.620   3.016  16.741 -1.2688  1.5675  1.3926
  396MPD2    H2 5921   2.809   2.813  17.068  0.4272  0.3216  0.9828
  396MPD2    H3 5922   2.629   2.829  16.884 -0.2702 -0.8189 -0.6086
  396MPD2     N 5923   2.821   3.210  16.728  0.1620  0.4576 -0.1085
  396MPD2    H5 5924   2.885   3.284  16.754 -0.4467  0.5581  1.1048
  396MPD2    N1 5925   2.999   2.976  17.110 -0.5949 -0.2341  0.4052
  396MPD2    H7 5926   2.992   2.911  17.187 -0.4276  0.0659  0.6716
  397TMC3    C1 5927   3.176   3.045  17.250  0.0418  0.3062 -0.1675
  397TMC3    C2 5928   3.310   3.054  17.225  0.5903 -1.0894  0.6887
  397TMC3    C3 5929   3.390   2.945  17.250  0.2345 -0.5497  0.2774
  397TMC3    C4 5930   3.134   2.938  17.324 -0.2080 -0.1075  0.5775
  397TMC3    C5 5931   3.222   2.853  17.383 -0.7850 -1.0616 -0.3345
  397TMC3    C6 5932   3.345   2.848  17.338 -0.3005  0.5042 -0.0314
  397TMC3     C 5933   3.097   3.072  17.132  0.2105  0.3249  1.1078
  397TMC3     O 5934   3.125   3.175  17.077  0.0775  0.2628 -0.3319
  397TMC3     H 5935   3.342   3.134  17.159 -0.0553  0.4160  2.2296
  397TMC3    H1 5936   3.030   2.934  17.354 -0.6821 -0.0877 -1.0616
  397TMC3    H2 5937   3.412   2.769  17.371 -1.8275  0.1000  2.1162
  397TMC3    C7 5938   3.175   2.774  17.496  0.2823 -0.1791  0.3438
  397TMC3    C8 5939   3.532   2.972  17.266 -0.0644  0.3435  0.3917
  397TMC3    O1 5940   3.055   2.758  17.489  0.1749 -0.5254 -0.5515
  397TMC3    O2 5941   3.574   2.923  17.368 -0.0654 -0.3029 -0.3446
  398MPD2     C 5942   0.924   3.921   0.107  0.3393 -0.0239  0.4426
  398MPD2    C1 5943   0.991   3.801   0.101 -1.1766  0.0896  0.1077
  398MPD2    C2 5944   1.083   3.769   0.200  0.4432 -0.3134  0.1686
  398MPD2    C3 5945   1.113   3.863   0.297  0.5463  0.8436 -0.5975
  398MPD2    C4 5946   1.048   3.986   0.294  0.5126  0.2275 -0.6203
  398MPD2    C5 5947   0.957   4.016   0.198  0.8757 -0.7370  0.0803
  398MPD2     H 5948   1.139   3.676   0.204 -3.0789 -2.3554  1.3701
  398MPD2    H1 5949   1.067   4.061   0.370  4.0455 -0.7607 -0.5515
  398MPD2    H2 5950   0.844   3.948   0.039 -1.0915  0.2116  2.2158
  398MPD2    H3 5951   0.919   4.117   0.192  1.4348 -0.5440 -0.2296
  398MPD2     N 5952   1.206   3.829   0.405 -0.1404 -0.9175 -0.1640
  398MPD2    H5 5953   1.212   3.727   0.405 -0.0172 -0.9106 -0.7968
  398MPD2    N1 5954   0.969   3.701   0.002  0.1948  0.1760 -0.2641
  398MPD2    H7 5955   1.025   3.617   0.014  2.6741  1.7131 -1.0301
  399TMC3    C1 5956   0.931   3.597  17.491  0.0573 -0.4257 -0.1517
  399TMC3    C2 5957   1.045   3.527  17.525  0.1662 -0.7341  1.0297
  399TMC3    C3 5958   1.039   3.393  17.504 -0.3166  0.8000 -0.0552
  399TMC3    C4 5959   0.820   3.535  17.429  0.3977 -0.0663  1.1248
  399TMC3    C5 5960   0.818   3.401  17.419 -0.0360  0.4183  0.0932
  399TMC3    C6 5961   0.928   3.331  17.453 -0.3652  0.0658  0.7871
  399TMC3     C 5962   0.893   3.704  17.584  0.2097 -0.0215 -0.1154
  399TMC3     O 5963   0.800   3.774  17.554 -0.0556 -0.8143 -0.0740
  399TMC3     H 5964   1.132   3.573  17.572  0.3338 -0.1021  0.0954
  399TMC3    H1 5965   0.738   3.601  17.404  1.8690  0.3126 -2.7874
  399TMC3    H2 5966   0.918   3.223  17.453  1.1829 -0.0874 -0.9641
  399TMC3    C7 5967   0.694   3.327  17.376  0.6916  0.2689 -0.1621
  399TMC3    C8 5968   1.121   3.323  17.606 -0.5252 -1.2026  0.1173
  399TMC3    O1 5969   0.711   3.204  17.363  0.3188  0.5974  0.5126
  399TMC3    O2 5970   1.137   3.375   0.025 -0.6290  0.1800 -0.4067
  400TMC3    C1 5971   4.430   2.751  16.939  0.2567 -0.6127 -0.4435
  400TMC3    C2 5972   4.346   2.657  16.989  0.5626  0.3060 -0.1732
  400TMC3    C3 5973   4.231   2.623  16.919 -0.5193 -1.3048  0.4716
  400TMC3    C4 5974   4.406   2.822  16.820 -0.1994  0.6633  0.3413
  400TMC3    C5 5975   4.287   2.792  16.764 -0.4566 -0.0015 -0.0582
  400TMC3    C6 5976   4.200   2.695  16.801 -0.1447  1.0384  0.3977
  400TMC3     C 5977   4.549   2.784  17.015 -0.7520 -0.4116 -0.7709
  400TMC3     O 5978   4.560   2.719  17.114 -0.3315  0.0073 -1.1429
  400TMC3     H 5979   4.376   2.586  17.066 -0.5367  0.5587  0.4956
  400TMC3    H1 5980   4.474   2.895  16.779 -0.0233  0.2500 -0.1003
  400TMC3    H2 5981   4.110   2.686  16.741  0.3967  2.0090 -0.5491
  400TMC3    C7 5982   4.261   2.864  16.649  0.3876  0.9802 -0.4647
  400TMC3    C8 5983   4.138   2.531  16.975 -0.2771 -0.1929  0.4319
  400TMC3    O1 5984   4.189   2.812  16.565 -0.3265  0.2862 -0.3846
  400TMC3    O2 5985   4.168   2.498  17.091 -0.4359 -0.0073  0.9938
  401MPD2     C 5986   2.484   0.898  17.685 -0.4575  0.0510 -0.0766
  401MPD2    C1 5987   2.434   0.865   0.109  0.3147  0.3407  0.3515
  401MPD2    C2 5988   2.417   0.732   0.137  0.0219 -0.1539  0.2963
  401MPD2    C3 5989   2.445   0.635   0.043 -0.1719  0.1852 -0.0826
  401MPD2    C4 5990   2.509   0.667  17.620 -0.2702 -0.3966 -0.4536
  401MPD2    C5 5991   2.516   0.800  17.593  0.5856 -0.1876  0.0643
  401MPD2     H 5992   2.376   0.708   0.234 -2.8400  2.3968 -0.2649
  401MPD2    H1 5993   2.543   0.600  17.542  2.2532 -0.1626  0.4287
  401MPD2    H2 5994   2.517   0.998  17.661 -0.2387  0.2310  0.9661
  401MPD2    H3 5995   2.569   0.825  17.501 -1.0876  0.6463 -0.6735
  401MPD2     N 5996   2.435   0.503   0.084 -0.5610 -0.1042 -0.0080
  401MPD2    H5 5997   2.386   0.488   0.172 -0.1319 -1.2669  0.0309
  401MPD2    N1 5998   2.405   0.963   0.207  0.3293  0.4711  0.4142
  401MPD2    H7 5999   2.399   0.932   0.304  1.0015  1.0863  0.6554
  402TMC3    C1 6000   2.477   0.279   0.118  0.9416  0.1156 -0.0876
  402TMC3    C2 6001   2.472   0.302   0.260 -0.2465 -0.4672  0.5904
  402TMC3    C3 6002   2.484   0.190   0.338 -0.1372  0.3449  0.7204
  402TMC3    C4 6003   2.498   0.153   0.061 -0.0245  0.1153  0.2949
  402TMC3    C5 6004   2.512   0.047   0.150 -0.0172 -0.2555  0.1558
  402TMC3    C6 6005   2.512   0.066   0.289  0.1868  0.1401  0.2202
  402TMC3     C 6006   2.471   0.390   0.018  0.3332  0.9011  0.5864
  402TMC3     O 6007   2.519   0.376  17.602 -0.0062  0.0784  0.6707
  402TMC3     H 6008   2.475   0.400   0.307  0.5832 -0.6781  0.9686
  402TMC3    H1 6009   2.484   0.144  17.648 -0.9020  1.3300  0.2984
  402TMC3    H2 6010   2.529   4.707   0.357  1.7862 -0.0272 -0.3913
  402TMC3    C7 6011   2.493   4.641   0.105 -0.8824 -0.0659 -0.2770
  402TMC3    C8 6012   2.470   0.204   0.487 -0.6743 -0.0621  0.0614
  402TMC3    O1 6013   2.418   4.634   0.006 -0.1685  0.9678 -0.0761
  402TMC3    O2 6014   2.531   0.119   0.555  0.5129 -0.4160 -0.3162
  403MPD2     C 6015   0.741   4.062  13.147 -0.7341  0.0583  0.4759
  403MPD2    C1 6016   0.847   3.982  13.164 -0.0133  0.3289  0.0548
  403MPD2    C2 6017   0.961   4.037  13.213 -0.6453 -0.1611  0.0144
  403MPD2    C3 6018   0.964   4.168  13.254  0.3391  0.1278 -0.2671
  403MPD2    C4 6019   0.848   4.247  13.241 -0.2402  0.4340 -0.5397
  403MPD2    C5 6020   0.743   4.190  13.187 -0.4006 -1.0112 -0.1071
  403MPD2     H 6021   1.048   3.974  13.231 -1.2049 -1.0726 -0.4126
  403MPD2    H1 6022   0.846   4.351  13.272  1.3721 -0.3420  2.2030
  403MPD2    H2 6023   0.649   4.031  13.098 -0.8925  0.5245  0.4799
  403MPD2    H3 6024   0.647   4.238  13.175  0.1343  0.0147 -0.2840
  403MPD2     N 6025   1.091   4.208  13.308 -0.4126  0.3502  0.0123
  403MPD2    H5 6026   1.166   4.141  13.303  0.0645  0.8491  0.4694
  403MPD2    N1 6027   0.826   3.843  13.143 -0.1335  0.1803  0.6912
  403MPD2    H7 6028   0.738   3.816  13.101  0.3671 -0.3566 -0.0121
  404TMC3    C1 6029   0.851   3.614  13.181 -0.7084 -0.4291  0.2503
  404TMC3    C2 6030   0.883   3.513  13.270  0.1561 -0.3656 -0.2792
  404TMC3    C3 6031   0.870   3.386  13.222 -0.5454 -0.1249  0.5592
  404TMC3    C4 6032   0.801   3.591  13.059 -0.1532  0.8138  0.7370
  404TMC3    C5 6033   0.782   3.460  13.010 -0.5066 -0.0946 -0.1492
  404TMC3    C6 6034   0.816   3.352  13.093 -0.6210 -0.1962 -0.4281
  404TMC3     C 6035   0.903   3.744  13.207 -0.6361 -0.1722  0.2481
  404TMC3     O 6036   1.002   3.755  13.280 -0.3444  0.0466  0.6820
  404TMC3     H 6037   0.928   3.534  13.366  0.4846 -1.0649 -0.2786
  404TMC3    H1 6038   0.793   3.673  12.989 -0.6580 -0.3113 -0.5226
  404TMC3    H2 6039   0.808   3.246  13.073  0.2082 -0.5890  1.2953
  404TMC3    C7 6040   0.811   3.454  12.869  0.3168 -0.0527  0.2045
  404TMC3    C8 6041   0.886   3.273  13.311 -0.6042  0.4534  0.6826
  404TMC3    O1 6042   0.852   3.552  12.825  0.5326  0.2608 -0.1186
  404TMC3    O2 6043   0.885   3.161  13.258  0.1665 -0.2176 -0.1273
  405MPD2     C 6044   1.470   0.032  14.834 -0.1502 -0.1182 -0.2545
  405MPD2    C1 6045   1.535   0.044  14.718  0.0933  0.6417 -0.7656
  405MPD2    C2 6046   1.453   0.047  14.601 -0.4246 -0.0135 -0.6171
  405MPD2    C3 6047   1.319   0.034  14.607 -0.5437 -0.3397  0.3330
  405MPD2    C4 6048   1.261   0.002  14.730 -0.0188 -0.3434  0.1208
  405MPD2    C5 6049   1.333   0.015  14.845  0.0908 -0.3594 -0.4292
  405MPD2     H 6050   1.499   0.046  14.503 -1.4601  0.5481 -1.0985
  405MPD2    H1 6051   1.153   4.715  14.733 -0.0819 -0.0700 -1.4197
  405MPD2    H2 6052   1.522   0.015  14.927 -0.1029  1.3814 -0.0101
  405MPD2    H3 6053   1.289   0.002  14.943  0.9787  0.8003  0.1305
  405MPD2     N 6054   1.255   0.041  14.485  0.0215 -0.7872  0.2116
  405MPD2    H5 6055   1.307   0.067  14.401  0.6200  1.1442  1.1870
  405MPD2    N1 6056   1.675   0.049  14.719  0.2703 -0.0519 -0.2864
  405MPD2    H7 6057   1.720   0.007  14.800 -1.9331 -0.7327  0.5848
  406TMC3    C1 6058   0.989   0.066  14.131 -0.4096  0.2702 -0.1876
  406TMC3    C2 6059   1.102   0.088  14.057 -0.2570 -0.5369  0.7891
  406TMC3    C3 6060   1.222   0.064  14.113 -0.0391 -0.2131  0.0083
  406TMC3    C4 6061   0.992   0.040  14.265 -0.7594  0.2160 -0.2423
  406TMC3    C5 6062   1.117   0.000  14.314  0.3880  0.2147 -0.4575
  406TMC3    C6 6063   1.236   0.006  14.242 -0.5232  0.0474 -0.0166
  406TMC3     C 6064   0.854   0.070  14.071  0.0277 -0.5800 -0.3248
  406TMC3     O 6065   0.831   0.133  13.970 -0.9632  0.0617 -0.0245
  406TMC3     H 6066   1.093   0.114  13.952 -1.7750  1.6174  1.4506
  406TMC3    H1 6067   0.902   0.029  14.325 -1.5983  0.1332 -1.5114
  406TMC3    H2 6068   1.321   4.674  14.279  0.1444  0.8115 -0.3959
  406TMC3    C7 6069   1.136   4.720  14.454 -0.1374  0.1469  0.3811
  406TMC3    C8 6070   1.335   0.048  14.027  0.0988  0.6673 -0.6158
  406TMC3    O1 6071   1.050   4.673  14.527 -0.0619  0.3182 -0.4053
  406TMC3    O2 6072   1.315   0.024  13.910  0.2434 -0.1533 -0.2629
  407MPD2     C 6073   3.223   0.913   9.779  0.0842 -0.9789  0.0504
  407MPD2    C1 6074   3.192   1.038   9.730 -0.0247  0.0731 -0.3602
  407MPD2    C2 6075   3.210   1.145   9.818  0.0141  0.6489 -0.0839
  407MPD2    C3 6076   3.269   1.128   9.942 -0.1854 -0.5695 -0.4010
  407MPD2    C4 6077   3.294   1.000   9.987 -0.2005 -0.1120  0.2118
  407MPD2    C5 6078   3.275   0.892   9.904 -0.2234 -1.0504  0.6552
  407MPD2     H 6079   3.192   1.245   9.782 -0.1843  0.6858  0.1159
  407MPD2    H1 6080   3.323   0.991  10.091 -0.5428 -0.6745  0.2616
  407MPD2    H2 6081   3.204   0.824   9.721 -1.0537 -0.8671  0.2556
  407MPD2    H3 6082   3.283   0.791   9.941 -0.2569 -1.7178 -1.1907
  407MPD2     N 6083   3.290   1.236  10.030 -0.7907  0.2159 -0.3657
  407MPD2    H5 6084   3.346   1.213  10.111 -0.4457  0.1980 -0.6092
  407MPD2    N1 6085   3.132   1.050   9.608 -0.0550 -0.2938 -0.2213
  407MPD2    H7 6086   3.117   1.146   9.576  1.3526 -0.5395 -1.6436
  408TMC3    C1 6087   3.067   1.016   9.393  0.4436 -0.1515 -0.5881
  408TMC3    C2 6088   3.133   1.127   9.352  0.5068  0.4118 -0.1005
  408TMC3    C3 6089   3.080   1.197   9.249 -1.2283  0.0702  0.7837
  408TMC3    C4 6090   2.963   0.967   9.322 -0.1847  0.6655  0.0907
  408TMC3    C5 6091   2.911   1.049   9.223 -0.9350  0.9674  0.9723
  408TMC3    C6 6092   2.966   1.171   9.187  0.7645  0.5490 -0.1336
  408TMC3     C 6093   3.092   0.956   9.522  0.6833 -0.1152  1.0824
  408TMC3     O 6094   3.065   0.841   9.543  0.4379 -0.0856 -0.2224
  408TMC3     H 6095   3.219   1.156   9.412  0.3302  1.4729 -0.3781
  408TMC3    H1 6096   2.901   0.893   9.371  0.6131 -0.4991 -0.6779
  408TMC3    H2 6097   2.915   1.239   9.120  1.2899  0.5844 -0.5028
  408TMC3    C7 6098   2.792   1.010   9.148 -0.2591  0.1046 -0.3736
  408TMC3    C8 6099   3.135   1.335   9.229 -0.0067  0.5157  0.3785
  408TMC3    O1 6100   2.736   1.090   9.078 -0.1587  0.5768  0.1426
  408TMC3    O2 6101   3.062   1.415   9.171  0.2872  0.3056  0.0444
  409MPD2     C 6102   3.113   2.465  17.293 -0.2508 -0.0734 -0.3369
  409MPD2    C1 6103   3.244   2.434  17.308 -0.0235  0.7315 -0.9789
  409MPD2    C2 6104   3.337   2.491  17.224 -0.1955  0.3925 -0.6746
  409MPD2    C3 6105   3.294   2.581  17.127 -0.2097  0.0072 -0.2061
  409MPD2    C4 6106   3.162   2.606  17.106  0.3979  0.1610  0.3369
  409MPD2    C5 6107   3.077   2.543  17.185 -0.0860 -0.5801 -0.5970
  409MPD2     H 6108   3.441   2.462  17.235 -0.0469  0.8368 -0.9238
  409MPD2    H1 6109   3.129   2.676  17.031  0.5116 -1.8465 -1.5899
  409MPD2    H2 6110   3.033   2.430  17.358  0.7971  1.4080  1.7446
  409MPD2    H3 6111   2.973   2.567  17.164 -0.1146 -0.9180 -0.8320
  409MPD2     N 6112   3.385   2.645  17.037  0.2588  0.0822  0.6186
  409MPD2    H5 6113   3.332   2.687  16.960  1.2293  0.1579 -0.0027
  409MPD2    N1 6114   3.298   2.360  17.418  0.2865 -0.4658  0.2074
  409MPD2    H7 6115   3.398   2.343  17.423  0.4202  0.5646  0.9875
  410TMC3    C1 6116   3.600   2.726  16.960  0.0378  0.7114  0.4803
  410TMC3    C2 6117   3.716   2.774  17.006 -0.7537  0.2660 -0.2188
  410TMC3    C3 6118   3.797   2.834  16.919 -0.1190 -0.9445  0.1622
  410TMC3    C4 6119   3.564   2.729  16.831 -0.2784  0.0847  0.1987
  410TMC3    C5 6120   3.643   2.804  16.748 -0.8652  0.6791  0.3606
  410TMC3    C6 6121   3.762   2.858  16.794  0.0334 -0.2281  0.3222
  410TMC3     C 6122   3.524   2.664  17.063 -0.4129  0.0110 -0.0441
  410TMC3     O 6123   3.586   2.644  17.163  0.4684  0.4051  0.2383
  410TMC3     H 6124   3.732   2.805  17.109  2.6703 -1.2357 -0.2781
  410TMC3    H1 6125   3.469   2.681  16.810 -0.3702  1.5304 -2.8209
  410TMC3    H2 6126   3.824   2.927  16.737 -1.3972  2.2686  1.7698
  410TMC3    C7 6127   3.601   2.806  16.609 -0.6235  1.4071  0.2790
  410TMC3    C8 6128   3.923   2.887  16.969  0.1183  0.2415  0.8798
  410TMC3    O1 6129   3.509   2.735  16.577 -0.1417  0.3967  0.3214
  410TMC3    O2 6130   3.970   2.983  16.903 -0.0868  0.2917 -0.5115
  411MPD2     C 6131   3.960   2.693  14.644 -0.4015 -0.0979 -0.2800
  411MPD2    C1 6132   3.832   2.737  14.622  0.2113  1.2292 -0.4794
  411MPD2    C2 6133   3.727   2.646  14.640  0.2430  0.5208  0.1996
  411MPD2    C3 6134   3.757   2.524  14.688 -0.0199  0.3199  0.2367
  411MPD2    C4 6135   3.887   2.480  14.713 -0.3474  1.0711 -0.2553
  411MPD2    C5 6136   3.995   2.560  14.683  0.2027 -0.6545  0.7255
  411MPD2     H 6137   3.628   2.682  14.615 -0.3529 -1.6013 -0.5200
  411MPD2    H1 6138   3.912   2.377  14.735  0.2159  1.4241  0.7354
  411MPD2    H2 6139   4.043   2.760  14.626 -0.1107 -0.7151 -1.2437
  411MPD2    H3 6140   4.096   2.526  14.664  0.8113  0.8202  1.3342
  411MPD2     N 6141   3.654   2.418  14.701 -0.4256 -0.3685  0.5488
  411MPD2    H5 6142   3.681   2.322  14.720 -0.9480 -0.4342  0.9521
  411MPD2    N1 6143   3.811   2.864  14.572 -0.1567 -0.0661 -0.7850
  411MPD2    H7 6144   3.867   2.942  14.605  1.2277 -1.4122  0.0513
  412TMC3    C1 6145   3.445   2.322  14.650  0.3373 -0.0536 -0.3649
  412TMC3    C2 6146   3.312   2.321  14.672 -0.1153  0.4449 -0.5413
  412TMC3    C3 6147   3.243   2.207  14.633 -0.3375  0.1040 -0.0299
  412TMC3    C4 6148   3.512   2.233  14.567  0.1298 -0.2631 -0.2999
  412TMC3    C5 6149   3.432   2.126  14.530 -0.1947 -0.0979 -0.4602
  412TMC3    C6 6150   3.306   2.107  14.573 -0.1298  0.0395 -1.2272
  412TMC3     C 6151   3.520   2.444  14.682  0.5250  0.6392 -0.0267
  412TMC3     O 6152   3.451   2.541  14.713  0.2885  0.2607  0.4491
  412TMC3     H 6153   3.266   2.398  14.733 -0.4343 -0.0769 -0.1271
  412TMC3    H1 6154   3.614   2.251  14.534 -0.4060  0.8194 -1.3367
  412TMC3    H2 6155   3.257   2.015  14.545 -0.2687 -0.6251  1.2458
  412TMC3    C7 6156   3.434   2.096  14.387  0.3052 -0.0182  0.4182
  412TMC3    C8 6157   3.104   2.221  14.592 -0.3226  0.3540 -0.3199
  412TMC3    O1 6158   3.322   2.078  14.339  0.3779  0.6246  0.7590
  412TMC3    O2 6159   3.031   2.300  14.654 -0.2108 -0.2820 -0.1487
  413MPD2     C 6160   0.338   0.932  15.551  0.1820 -0.2888  0.0416
  413MPD2    C1 6161   0.307   0.926  15.419  0.0226  0.3399  0.0801
  413MPD2    C2 6162   0.393   0.853  15.341  0.2331  0.0862  0.1875
  413MPD2    C3 6163   0.492   0.769  15.390 -0.7775  0.0189  0.1533
  413MPD2    C4 6164   0.518   0.771  15.521  0.5946 -0.4833 -0.0341
  413MPD2    C5 6165   0.450   0.868  15.597  0.1557  0.5792  0.4359
  413MPD2     H 6166   0.372   0.848  15.235 -1.3964  2.7473  0.3770
  413MPD2    H1 6167   0.598   0.716  15.567  1.0915  2.1840  2.2897
  413MPD2    H2 6168   0.277   0.991  15.618 -2.0274 -0.3122 -1.9491
  413MPD2    H3 6169   0.477   0.872  15.702  0.4333  0.9183  0.3506
  413MPD2     N 6170   0.556   0.678  15.302 -0.4661 -0.0773  0.5370
  413MPD2    H5 6171   0.526   0.681  15.206  0.2319 -2.9789  0.2190
  413MPD2    N1 6172   0.189   0.988  15.376  0.2756 -0.5462  0.2167
  413MPD2    H7 6173   0.117   1.018  15.441  1.4225  1.9725  0.3651
  414TMC3    C1 6174   0.690   0.507  15.228  0.6981  0.3663  0.4110
  414TMC3    C2 6175   0.769   0.402  15.267  0.6678  0.2466  0.2951
  414TMC3    C3 6176   0.783   0.299  15.180  0.1581 -0.3378  0.5965
  414TMC3    C4 6177   0.629   0.515  15.107  0.2417  0.1793  0.0828
  414TMC3    C5 6178   0.656   0.411  15.022 -0.9774  0.3026  0.3322
  414TMC3    C6 6179   0.727   0.297  15.057 -0.1940 -0.8460  0.9430
  414TMC3     C 6180   0.658   0.594  15.333  0.0714 -0.8459 -0.2502
  414TMC3     O 6181   0.718   0.581  15.439  0.0871 -1.1268 -0.3525
  414TMC3     H 6182   0.792   0.387  15.372  2.5949 -2.7339 -0.5436
  414TMC3    H1 6183   0.597   0.609  15.063 -1.5476 -0.2115  0.5457
  414TMC3    H2 6184   0.739   0.214  14.989 -2.9251 -0.1695 -0.3723
  414TMC3    C7 6185   0.606   0.433  14.887 -0.9014  0.9795  0.0743
  414TMC3    C8 6186   0.893   0.205  15.198  0.0394 -0.2682  0.2471
  414TMC3    O1 6187   0.501   0.489  14.878 -0.1400  0.1403 -0.1686
  414TMC3    O2 6188   0.882   0.098  15.132 -0.0085 -0.3860 -0.8625
  415TMC3    C1 6189   0.719   3.129   9.857  0.3541 -0.6742  0.4330
  415TMC3    C2 6190   0.839   3.181   9.818 -1.3457 -0.0264 -0.7580
  415TMC3    C3 6191   0.879   3.130   9.698 -0.0619 -0.0273  0.2084
  415TMC3    C4 6192   0.637   3.046   9.785  0.1823 -0.2223 -0.1335
  415TMC3    C5 6193   0.688   2.992   9.671 -0.1023 -0.5950  0.4517
  415TMC3    C6 6194   0.805   3.036   9.620  0.6479 -0.3418  0.6257
  415TMC3     C 6195   0.676   3.154   9.996  0.6292  1.4511 -0.1675
  415TMC3     O 6196   0.565   3.111  10.023 -0.4430 -0.5363  0.3167
  415TMC3     H 6197   0.894   3.252   9.879  0.1972 -2.2798  0.4711
  415TMC3    H1 6198   0.545   3.010   9.830 -0.5302 -2.0047 -3.0004
  415TMC3    H2 6199   0.847   2.991   9.530 -0.3009 -1.1383  0.5851
  415TMC3    C7 6200   0.617   2.878   9.600 -0.0605  0.0533 -0.3743
  415TMC3    C8 6201   1.020   3.124   9.673  0.1356  0.0113 -0.0441
  415TMC3    O1 6202   0.622   2.869   9.475  0.1361 -0.2408 -0.2377
  415TMC3    O2 6203   1.060   3.035   9.596  0.7521 -0.1629 -0.1283
  416MPD2     C 6204   2.823   2.140  11.523 -0.2061 -0.3284  0.1812
  416MPD2    C1 6205   2.694   2.119  11.487 -0.9012 -0.4932  0.1062
  416MPD2    C2 6206   2.659   2.023  11.399  0.4937 -0.6483 -0.5413
  416MPD2    C3 6207   2.763   1.930  11.366  0.0346 -0.7895 -0.3310
  416MPD2    C4 6208   2.895   1.955  11.390  0.4722 -0.4202 -0.1510
  416MPD2    C5 6209   2.921   2.058  11.475 -0.7793  0.2363  0.9711
  416MPD2     H 6210   2.559   2.002  11.365  0.2391  1.2638 -0.9419
  416MPD2    H1 6211   2.975   1.884  11.370 -0.1645 -1.7947  2.1937
  416MPD2    H2 6212   2.836   2.223  11.592  1.7366  1.1110 -1.9077
  416MPD2    H3 6213   3.023   2.072  11.509 -0.2495  0.1689 -0.6303
  416MPD2     N 6214   2.736   1.808  11.306  0.0881 -0.3623  0.2167
  416MPD2    H5 6215   2.807   1.735  11.306  0.2207 -0.2334  0.3253
  416MPD2    N1 6216   2.595   2.206  11.537 -0.3938 -0.5570 -0.1345
  416MPD2    H7 6217   2.627   2.287  11.589  2.0259 -0.9992 -0.9249
  417TMC3    C1 6218   2.392   2.307  11.567 -0.1559 -0.1859 -0.5523
  417TMC3    C2 6219   2.416   2.334  11.698  0.3088 -0.5402 -0.5163
  417TMC3    C3 6220   2.324   2.409  11.760 -0.3281  0.3918  0.0894
  417TMC3    C4 6221   2.283   2.344  11.500  0.0791 -0.4120 -0.7191
  417TMC3    C5 6222   2.184   2.403  11.570 -0.3024  0.6536 -0.1481
  417TMC3    C6 6223   2.209   2.442  11.699 -0.2476 -0.2314 -0.0082
  417TMC3     C 6224   2.462   2.199  11.504  0.1712  0.9930 -1.0900
  417TMC3     O 6225   2.391   2.121  11.447 -0.2346  0.2557 -0.3062
  417TMC3     H 6226   2.508   2.313  11.751 -0.9594 -0.7038  1.6274
  417TMC3    H1 6227   2.257   2.306  11.402  1.0668 -0.1800 -1.0646
  417TMC3    H2 6228   2.124   2.483  11.753 -0.1568  1.7996 -1.3951
  417TMC3    C7 6229   2.056   2.363  11.518 -0.0255  0.1773  0.4899
  417TMC3    C8 6230   2.345   2.464  11.892  0.4764  0.1782  0.0235
  417TMC3    O1 6231   2.034   2.240  11.513  0.8848 -0.2624 -0.1918
  417TMC3    O2 6232   2.267   2.549  11.930 -0.1332 -0.2216  0.6465
  418TMC3    C1 6233   1.562   3.775   0.608  0.8343 -0.2736 -0.6243
  418TMC3    C2 6234   1.482   3.876   0.554  0.1405 -0.6838  0.4078
  418TMC3    C3 6235   1.350   3.847   0.573 -0.3370 -0.1374  0.0219
  418TMC3    C4 6236   1.515   3.659   0.672 -0.3555  0.3837  0.5515
  418TMC3    C5 6237   1.387   3.643   0.684  0.2177  0.2490 -0.1284
  418TMC3    C6 6238   1.299   3.731   0.627 -0.5234 -0.5154 -0.3553
  418TMC3     C 6239   1.708   3.804   0.608  1.0385  0.0744 -0.4869
  418TMC3     O 6240   1.739   3.920   0.601 -0.1833  0.3202 -0.4305
  418TMC3     H 6241   1.517   3.976   0.528  0.4682 -1.0647 -0.5938
  418TMC3    H1 6242   1.590   3.583   0.692  0.3408  0.4986 -1.6155
  418TMC3    H2 6243   1.197   3.713   0.659  0.3345 -3.6604  0.5794
  418TMC3    C7 6244   1.336   3.506   0.697 -0.5652 -0.4495 -0.6531
  418TMC3    C8 6245   1.260   3.921   0.491  0.1716 -0.3582  0.0940
  418TMC3    O1 6246   1.229   3.480   0.638 -0.1269 -0.4051 -0.7167
  418TMC3    O2 6247   1.289   4.039   0.473 -0.1989  0.0765 -0.2928
  419MPD2     C 6248   4.569   1.869  12.287 -0.5582  0.5123 -0.0340
  419MPD2    C1 6249   4.589   2.005  12.275  0.1219  0.3049  0.2347
  419MPD2    C2 6250   4.555   2.090  12.382 -0.6501 -0.2067 -0.0365
  419MPD2    C3 6251   4.528   2.038  12.507  0.4989 -0.5260  0.4702
  419MPD2    C4 6252   4.508   1.901  12.520  0.1784  0.6242  0.1082
  419MPD2    C5 6253   4.537   1.823  12.412  0.8865 -0.4074  0.4971
  419MPD2     H 6254   4.575   2.196  12.375 -2.0713  0.2726  2.8871
  419MPD2    H1 6255   4.500   1.854  12.618  0.2107 -1.3886 -0.8687
  419MPD2    H2 6256   4.596   1.789  12.218 -1.0621  0.3786 -0.0768
  419MPD2    H3 6257   4.538   1.716  12.428  0.0005 -0.8346 -2.3056
  419MPD2     N 6258   4.505   2.124  12.613 -0.2033 -0.5698 -0.2013
  419MPD2    H5 6259   4.520   2.224  12.609 -1.8812 -0.3217 -0.3721
  419MPD2    N1 6260   4.647   2.059  12.161  0.7480 -0.6697  0.1105
  419MPD2    H7 6261   4.654   2.160  12.154 -1.3215 -0.4026  1.7174
  420TMC3    C1 6262   4.430   2.204  12.819 -0.3254 -0.1865  0.1714
  420TMC3    C2 6263   4.397   2.321  12.760 -0.6201  0.2054  0.9748
  420TMC3    C3 6264   4.354   2.423  12.845  0.5380  0.8049  0.7682
  420TMC3    C4 6265   4.425   2.179  12.959  0.0776 -0.5330  0.2193
  420TMC3    C5 6266   4.388   2.292  13.028  0.6761 -0.3320  0.4879
  420TMC3    C6 6267   4.348   2.412  12.978 -0.4929 -0.8764  0.6811
  420TMC3     C 6268   4.460   2.089  12.743  0.5571 -0.4852  0.2693
  420TMC3     O 6269   4.430   1.980  12.781 -0.0785  0.0042 -0.3612
  420TMC3     H 6270   4.389   2.332  12.652 -1.0650 -1.8949  0.8030
  420TMC3    H1 6271   4.458   2.082  12.995 -2.2701 -0.0557  3.6803
  420TMC3    H2 6272   4.311   2.489  13.044  1.2749 -0.0785  0.7420
  420TMC3    C7 6273   4.422   2.291  13.179  0.4593 -0.3697  0.0227
  420TMC3    C8 6274   4.317   2.550  12.791 -0.1715  0.6632  0.1332
  420TMC3    O1 6275   4.450   2.183  13.229 -0.0568 -0.4173 -0.0115
  420TMC3    O2 6276   4.244   2.615  12.867 -0.6546  0.0408 -0.5379
  421TMC3    C1 6277   1.264   4.333  13.398  0.0498  0.1316 -0.1608
  421TMC3    C2 6278   1.303   4.463  13.434 -0.0456 -0.4900 -0.2322
  421TMC3    C3 6279   1.433   4.492  13.413 -0.0534 -0.1930 -0.4126
  421TMC3    C4 6280   1.354   4.241  13.352  0.0831  0.2946  0.9118
  421TMC3    C5 6281   1.485   4.276  13.339 -0.4431  0.0708 -0.6644
  421TMC3    C6 6282   1.533   4.397  13.377  0.3383 -0.0139 -0.2268
  421TMC3     C 6283   1.120   4.306  13.398 -0.5417  0.2438  0.0300
  421TMC3     O 6284   1.049   4.394  13.453  0.0650 -0.4563  0.2483
  421TMC3     H 6285   1.231   4.543  13.450 -1.6018 -1.4644 -2.3414
  421TMC3    H1 6286   1.325   4.137  13.357 -0.4092  0.3704 -0.1950
  421TMC3    H2 6287   1.635   4.429  13.363  0.2410 -0.3198 -1.6035
  421TMC3    C7 6288   1.586   4.168  13.329 -0.2170 -0.1779 -0.2222
  421TMC3    C8 6289   1.484   4.600  13.480 -0.0960 -0.1583  0.4333
  421TMC3    O1 6290   1.697   4.195  13.372 -0.1134  0.3123 -0.4799
  421TMC3    O2 6291   1.587   4.582  13.544 -0.0529  0.0364 -0.5196
  422TMC3    C1 6292   3.687   0.121  12.674 -0.3963  1.3236  0.0291
  422TMC3    C2 6293   3.695   0.255  12.657 -0.2431 -0.2090  0.4001
  422TMC3    C3 6294   3.627   0.340  12.739 -0.9585  0.4999  0.4514
  422TMC3    C4 6295   3.612   0.065  12.777  0.1293  0.3857  0.5921
  422TMC3    C5 6296   3.538   0.154  12.857  0.4560 -0.0935  0.1602
  422TMC3    C6 6297   3.546   0.289  12.834  0.0932  0.7550  0.1051
  422TMC3     C 6298   3.720   0.069  12.550 -0.2722  0.0353  0.1999
  422TMC3     O 6299   3.712   0.144  12.454 -0.1826  0.5535 -0.4961
  422TMC3     H 6300   3.766   0.304  12.591  0.5417 -2.1652 -0.2203
  422TMC3    H1 6301   3.613   4.682  12.799  1.1243 -0.1755 -2.2422
  422TMC3    H2 6302   3.486   0.359  12.891  2.4236  2.2419  0.7660
  422TMC3    C7 6303   3.417   0.107  12.925 -0.0499  0.0622  0.9290
  422TMC3    C8 6304   3.606   0.470  12.685 -0.1034  0.2603 -0.2386
  422TMC3    O1 6305   3.426   0.006  12.992  0.8287  0.0339  0.6321
  422TMC3    O2 6306   3.595   0.559  12.769  0.2567  0.0981 -0.3496
  423MPD2     C 6307   0.936   1.132   0.824  1.7630  0.3490 -0.1533
  423MPD2    C1 6308   0.831   1.076   0.758 -0.1559 -0.3054 -0.4402
  423MPD2    C2 6309   0.843   1.060   0.617  0.0095  0.0002  1.3837
  423MPD2    C3 6310   0.936   1.127   0.546 -0.2671  0.0808  0.4525
  423MPD2    C4 6311   1.026   1.199   0.618  0.1699 -0.4891 -0.4049
  423MPD2    C5 6312   1.031   1.198   0.753 -0.1681 -0.0674  0.0366
  423MPD2     H 6313   0.763   1.004   0.570 -0.1159 -1.1332  2.9337
  423MPD2    H1 6314   1.106   1.257   0.574  1.0169  0.1176  1.9223
  423MPD2    H2 6315   0.934   1.129   0.932 -1.8515 -2.0407 -0.3176
  423MPD2    H3 6316   1.119   1.243   0.798 -0.4792  0.4811  0.0985
  423MPD2     N 6317   0.946   1.124   0.399  0.0703  0.0923  0.0014
  423MPD2    H5 6318   1.021   1.183   0.365 -0.5542  1.7892  1.5327
  423MPD2    N1 6319   0.717   1.015   0.821  0.4936 -0.3586  0.1293
  423MPD2    H7 6320   0.637   0.981   0.768  1.8357  1.3948 -3.0000
  424TMC3    C1 6321   0.568   0.952   1.003  0.5688 -0.2473  0.7816
  424TMC3    C2 6322   0.560   0.882   1.120 -0.1525  0.0676  0.5293
  424TMC3    C3 6323   0.437   0.832   1.158  0.7651 -0.3082  0.0138
  424TMC3    C4 6324   0.461   0.980   0.923 -0.5077  0.1903 -0.1416
  424TMC3    C5 6325   0.343   0.937   0.973  0.6359  0.2543 -0.0805
  424TMC3    C6 6326   0.327   0.870   1.087 -0.4619  0.2789 -0.6780
  424TMC3     C 6327   0.711   0.985   0.954  0.6911 -0.7146  0.6786
  424TMC3     O 6328   0.795   1.006   1.040 -0.4961  0.2726 -0.6546
  424TMC3     H 6329   0.648   0.841   1.167  0.0597 -1.3724 -1.0965
  424TMC3    H1 6330   0.471   1.044   0.836  2.1317 -0.7807 -0.5568
  424TMC3    H2 6331   0.225   0.843   1.112  0.1516 -0.5394  0.9518
  424TMC3    C7 6332   0.219   0.974   0.909  0.2967 -0.4353  0.2621
  424TMC3    C8 6333   0.428   0.787   1.298  0.8632  0.3509  0.1307
  424TMC3    O1 6334   0.135   0.884   0.899 -0.6674  0.7971 -0.4911
  424TMC3    O2 6335   0.529   0.774   1.368 -0.3278  0.1115  0.4991
  425MPD2     C 6336   4.071   0.594  17.512  0.2597 -0.0806  0.3755
  425MPD2    C1 6337   4.001   0.579  17.393  1.1200  0.0469  0.2025
  425MPD2    C2 6338   3.897   0.666  17.367 -0.1012  0.0293  0.1732
  425MPD2    C3 6339   3.858   0.763  17.458  0.2908  0.0267  0.1347
  425MPD2    C4 6340   3.940   0.790  17.569  0.0619  0.8845 -0.3870
  425MPD2    C5 6341   4.041   0.696  17.594 -0.2301  0.0170 -0.2074
  425MPD2     H 6342   3.836   0.659  17.277 -0.7173 -0.5022  0.6328
  425MPD2    H1 6343   3.920   0.873  17.636 -0.8985 -0.0253  0.4525
  425MPD2    H2 6344   4.151   0.524  17.529 -2.1380 -2.7340  0.7663
  425MPD2    H3 6345   4.108   0.709  17.678 -0.3145  0.0646 -0.1479
  425MPD2     N 6346   3.726   0.808  17.449 -0.7063 -0.5136  0.3797
  425MPD2    H5 6347   3.665   0.768  17.378 -0.0342 -0.5405 -0.1947
  425MPD2    N1 6348   4.032   0.468  17.309  0.3305  0.3395  0.1014
  425MPD2    H7 6349   4.100   0.403  17.347  0.1704  0.2535  0.2420
  426TMC3    C1 6350   4.046   0.345  17.112 -0.4126  0.8935 -0.3494
  426TMC3    C2 6351   4.097   0.338  16.981  0.8302  0.2208  0.2731
  426TMC3    C3 6352   4.154   0.224  16.938 -0.0201  0.6213 -0.5711
  426TMC3    C4 6353   4.048   0.236  17.196  0.5654  0.5076 -0.5988
  426TMC3    C5 6354   4.115   0.122  17.146  0.5355  1.0307 -0.8872
  426TMC3    C6 6355   4.168   0.114  17.018 -0.1655  0.6322  0.0881
  426TMC3     C 6356   4.017   0.470  17.175 -0.1439 -0.1548 -0.2202
  426TMC3     O 6357   3.983   0.559  17.098 -0.0020  0.2387  0.0245
  426TMC3     H 6358   4.104   0.431  16.925 -3.4491 -0.2502 -1.0565
  426TMC3    H1 6359   3.992   0.239  17.288  2.8571 -1.0605  0.8465
  426TMC3    H2 6360   4.205   0.020  16.978  1.1344  1.0499  0.3028
  426TMC3    C7 6361   4.099   4.714  17.220 -0.0028 -0.6125  0.1501
  426TMC3    C8 6362   4.166   0.204  16.791  0.8567  0.0985  0.1215
  426TMC3    O1 6363   4.176   4.621  17.202 -0.2329 -0.6983 -0.3914
  426TMC3    O2 6364   4.249   0.120  16.755 -0.1808  0.0509  0.6507
  427MPD2     C 6365   2.968   2.861  14.600  0.1561 -0.7031  0.7473
  427MPD2    C1 6366   2.919   2.782  14.701 -0.2411  0.4910 -0.4243
  427MPD2    C2 6367   2.782   2.761  14.714  0.1408 -0.0132  0.0626
  427MPD2    C3 6368   2.696   2.820  14.627  0.8547  0.3823  0.3061
  427MPD2    C4 6369   2.742   2.895  14.525 -0.7727  0.1109  0.4701
  427MPD2    C5 6370   2.879   2.915  14.507 -0.4213 -0.3770  0.4617
  427MPD2     H 6371   2.743   2.693  14.789 -0.6542  1.5903  1.1067
  427MPD2    H1 6372   2.674   2.949  14.460 -0.7056 -0.8563 -0.3959
  427MPD2    H2 6373   3.072   2.887  14.587 -0.5765  1.3414 -1.0414
  427MPD2    H3 6374   2.905   2.984  14.427  1.2010 -0.9949  0.4544
  427MPD2     N 6375   2.549   2.804  14.636 -0.1992 -0.2777 -0.0137
  427MPD2    H5 6376   2.495   2.820  14.552 -0.6766  1.8175  0.7118
  427MPD2    N1 6377   3.014   2.712  14.772  0.3712  0.0944 -0.0510
  427MPD2    H7 6378   3.104   2.715  14.726 -0.9165  2.8022 -2.3588
  428TMC3    C1 6379   3.111   2.554  14.909  0.0754  1.0825 -0.0401
  428TMC3    C2 6380   3.093   2.426  14.963  0.0496  0.5324 -0.3356
  428TMC3    C3 6381   3.200   2.372  15.030  0.3835  1.0668 -0.5635
  428TMC3    C4 6382   3.220   2.630  14.939 -0.9389  0.7459 -0.1041
  428TMC3    C5 6383   3.326   2.564  15.005  0.0546  0.2665  0.0148
  428TMC3    C6 6384   3.311   2.438  15.054 -0.0847  0.4494 -1.2372
  428TMC3     C 6385   2.987   2.612  14.866 -0.4946 -0.2734  0.4572
  428TMC3     O 6386   2.884   2.571  14.918 -0.0418  0.0021 -0.0437
  428TMC3     H 6387   3.012   2.360  14.933  0.0370  1.3662 -2.1492
  428TMC3    H1 6388   3.236   2.731  14.901  1.2555  0.1761 -0.6851
  428TMC3    H2 6389   3.394   2.398  15.111 -0.9723 -2.9240 -2.3043
  428TMC3    C7 6390   3.439   2.635  15.059 -0.4238  0.4535 -0.2764
  428TMC3    C8 6391   3.189   2.244  15.104 -0.3870 -0.0305 -0.1821
  428TMC3    O1 6392   3.473   2.603  15.175 -0.6000  0.1186 -0.4400
  428TMC3    O2 6393   3.297   2.196  15.135  0.2192 -0.2967  0.3279
  429MPD2     C 6394   3.844   3.185  17.413 -0.0475  0.1747  0.5255
  429MPD2    C1 6395   3.979   3.205  17.415 -0.3319  0.6067  0.4465
  429MPD2    C2 6396   4.034   3.298  17.326 -0.1098  0.2230  0.5827
  429MPD2    C3 6397   3.961   3.386  17.249  0.4691  0.3623  0.2451
  429MPD2    C4 6398   3.826   3.362  17.259 -0.1993  0.9613 -0.2446
  429MPD2    C5 6399   3.766   3.268  17.342 -0.4208  0.2914  0.5931
  429MPD2     H 6400   4.140   3.299  17.308 -0.3965 -3.0321 -1.4424
  429MPD2    H1 6401   3.757   3.419  17.198 -1.8524 -1.4615 -0.6268
  429MPD2    H2 6402   3.795   3.108  17.471 -0.2905  0.4644  0.7076
  429MPD2    H3 6403   3.659   3.253  17.339 -0.3636  0.0986 -0.7676
  429MPD2     N 6404   4.021   3.481  17.159 -0.2024  0.0716 -0.4181
  429MPD2    H5 6405   4.121   3.495  17.165 -0.1115 -0.5437 -0.5280
  429MPD2    N1 6406   4.053   3.112  17.487  0.3347  0.4705  0.4108
  429MPD2    H7 6407   3.996   3.035  17.522 -0.8598  2.1976  2.2851
  430TMC3    C1 6408   4.044   3.631  16.979  0.0522  0.1241 -0.3208
  430TMC3    C2 6409   3.991   3.720  16.896 -0.5127  0.3137  0.1930
  430TMC3    C3 6410   4.048   3.743  16.770  0.6450 -0.8982 -0.1541
  430TMC3    C4 6411   4.160   3.567  16.949  0.1888 -0.6520 -0.0777
  430TMC3    C5 6412   4.214   3.601  16.828 -0.2145  0.2932  0.5852
  430TMC3    C6 6413   4.164   3.680  16.735 -0.1469  0.3695  0.3468
  430TMC3     C 6414   3.959   3.561  17.068 -0.2530 -0.2571  0.0342
  430TMC3     O 6415   3.838   3.580  17.050  0.1327 -0.4729 -0.3420
  430TMC3     H 6416   3.895   3.764  16.922 -2.2855 -2.1670 -2.0497
  430TMC3    H1 6417   4.221   3.501  17.008  0.9813 -0.5096 -0.7470
  430TMC3    H2 6418   4.221   3.714  16.649 -0.1950  1.2725  0.6744
  430TMC3    C7 6419   4.286   3.499  16.767  0.6820  0.2396 -1.0371
  430TMC3    C8 6420   3.958   3.747  16.657 -0.3987 -1.0909  0.0032
  430TMC3    O1 6421   4.380   3.441  16.829 -0.1774  0.2453  0.7332
  430TMC3    O2 6422   4.011   3.726  16.551 -0.4731 -0.8306 -0.5903
  431MPD2     C 6423   4.537   2.904  11.994 -0.1658 -0.1970 -0.3413
  431MPD2    C1 6424   4.669   2.875  11.994  0.4141  0.1957  1.0045
  431MPD2    C2 6425   4.699   2.743  11.988  0.0807 -0.2534  0.0952
  431MPD2    C3 6426   4.606   2.633  11.984  0.1477  0.0915 -0.1516
  431MPD2    C4 6427   4.473   2.668  11.999  0.2570 -0.6230  0.7288
  431MPD2    C5 6428   4.443   2.802  11.999 -0.3908 -1.0885  0.5516
  431MPD2     H 6429   0.080   2.714  11.994  0.4820  0.9182 -1.1418
  431MPD2    H1 6430   4.391   2.597  12.007 -2.0791  2.0160 -0.1414
  431MPD2    H2 6431   4.502   3.005  12.016 -2.4113 -1.2523  0.9036
  431MPD2    H3 6432   4.337   2.823  12.011 -0.4018  0.6623 -2.4060
  431MPD2     N 6433   4.645   2.498  11.969 -0.9132  0.2908 -0.0683
  431MPD2    H5 6434   4.574   2.428  11.990 -1.2145  0.6264  0.0343
  431MPD2    N1 6435   0.040   2.977  12.019 -0.3852 -0.2690 -0.5992
  431MPD2    H7 6436   0.004   3.070  12.004 -1.8463 -0.5309  1.2739
  432TMC3    C1 6437   0.063   2.317  11.890 -0.0422  0.3189  0.1723
  432TMC3    C2 6438   0.177   2.285  11.829 -0.6035 -0.7484  0.2978
  432TMC3    C3 6439   0.213   2.155  11.828 -0.6368  0.3234  0.6199
  432TMC3    C4 6440   4.707   2.220  11.945  0.6397 -0.2272  0.3741
  432TMC3    C5 6441   0.016   2.087  11.937  0.1502  0.4059  0.4435
  432TMC3    C6 6442   0.133   2.048  11.873 -0.2892  0.1493  0.1834
  432TMC3     C 6443   0.040   2.461  11.904 -0.1686  0.3715  0.2751
  432TMC3     O 6444   0.128   2.527  11.850 -0.4926  0.5261 -0.3103
  432TMC3     H 6445   0.240   2.357  11.779  0.7727 -1.8814  0.4094
  432TMC3    H1 6446   4.621   2.253  12.003 -0.4880 -2.4680 -0.0229
  432TMC3    H2 6447   0.173   1.949  11.890 -1.7525 -0.3929  0.3911
  432TMC3    C7 6448   4.700   2.000  12.048 -0.0055  0.1962 -0.0166
  432TMC3    C8 6449   0.354   2.124  11.810  0.2393 -0.0294 -0.0218
  432TMC3    O1 6450   0.009   1.881  12.044 -0.3164 -0.0306  0.0852
  432TMC3    O2 6451   0.386   2.012  11.766 -0.4045  0.2428 -0.5677
  433MPD2     C 6452   3.336   1.351  10.508 -0.2814 -0.3644  0.7207
  433MPD2    C1 6453   3.414   1.261  10.587  0.2021  0.6514 -0.6958
  433MPD2    C2 6454   3.452   1.298  10.710 -0.5033  0.2240 -0.2429
  433MPD2    C3 6455   3.393   1.410  10.770 -0.1540 -0.4256 -0.0891
  433MPD2    C4 6456   3.319   1.501  10.691  0.4967  0.1097  0.1427
  433MPD2    C5 6457   3.287   1.461  10.565 -0.0202  0.4954 -0.4405
  433MPD2     H 6458   3.525   1.232  10.756 -0.6088 -1.4518 -2.4494
  433MPD2    H1 6459   3.278   1.592  10.734  1.0985  1.2652 -1.7165
  433MPD2    H2 6460   3.302   1.330  10.407  0.1933  1.3120  0.2196
  433MPD2    H3 6461   3.224   1.529  10.510 -1.5582 -0.5964 -0.0270
  433MPD2     N 6462   3.429   1.436  10.899 -0.5751  0.2750  0.2571
  433MPD2    H5 6463   3.471   1.359  10.950 -0.7249  1.5478  2.3096
  433MPD2    N1 6464   3.467   1.136  10.535  0.6363  0.4664  0.2809
  433MPD2    H7 6465   3.535   1.089  10.594 -1.2141  2.3720  3.9285
  434TMC3    C1 6466   3.509   0.942  10.414 -0.8638  0.3593 -0.0734
  434TMC3    C2 6467   3.549   0.875  10.525 -0.6575  0.1065  0.0924
  434TMC3    C3 6468   3.592   0.742  10.510 -0.3055  0.0562  0.0303
  434TMC3    C4 6469   3.515   0.882  10.291 -0.8167 -0.1508 -0.0374
  434TMC3    C5 6470   3.551   0.755  10.284  0.2628 -0.0496  0.1782
  434TMC3    C6 6471   3.602   0.682  10.388  0.1774 -0.4228 -0.0069
  434TMC3     C 6472   3.446   1.075  10.417  0.2296 -0.0057  0.1754
  434TMC3     O 6473   3.388   1.114  10.318 -0.1948  0.1539  0.0594
  434TMC3     H 6474   3.548   0.916  10.625  0.3997 -1.6459  0.8274
  434TMC3    H1 6475   3.488   0.936  10.201 -0.0816 -0.9166 -0.7192
  434TMC3    H2 6476   3.637   0.580  10.377  2.4034  0.2750  0.6393
  434TMC3    C7 6477   3.529   0.693  10.153  0.0622 -0.1009 -0.0299
  434TMC3    C8 6478   3.666   0.689  10.625 -0.4531 -0.0746  0.6888
  434TMC3    O1 6479   3.554   0.744  10.045  0.1576 -0.6093 -0.5724
  434TMC3    O2 6480   3.627   0.728  10.734 -0.1028 -0.2163  0.6694
  435MPD2     C 6481   0.597   1.197  15.613 -0.3879  0.3880 -0.3041
  435MPD2    C1 6482   0.623   1.299  15.704  0.0063 -0.3969  0.6218
  435MPD2    C2 6483   0.754   1.307  15.758  0.2032 -0.5556  0.6760
  435MPD2    C3 6484   0.858   1.225  15.727 -0.6878  0.7382 -0.1618
  435MPD2    C4 6485   0.825   1.115  15.645 -0.7277  0.6255 -0.2903
  435MPD2    C5 6486   0.700   1.107  15.591 -0.1495 -0.0312  0.4008
  435MPD2     H 6487   0.759   1.387  15.831  2.9961 -1.3142  1.2991
  435MPD2    H1 6488   0.892   1.036  15.614 -1.8522 -1.1189  1.7501
  435MPD2    H2 6489   0.500   1.187  15.565 -1.6852  4.2253  1.5255
  435MPD2    H3 6490   0.675   1.024  15.526  1.8523 -0.9807  0.8229
  435MPD2     N 6491   0.989   1.246  15.786  0.4452  0.5212  0.0443
  435MPD2    H5 6492   0.992   1.335  15.834 -1.1732  1.8959 -2.3901
  435MPD2    N1 6493   0.523   1.374  15.758  0.0600 -0.4702  1.0816
  435MPD2    H7 6494   0.552   1.448  15.821 -1.6993  1.1689 -0.0513
  436TMC3    C1 6495   0.282   1.591  16.011  1.2922 -0.0316  0.8234
  436TMC3    C2 6496   0.366   1.498  15.949  0.6050  0.4067  0.1292
  436TMC3    C3 6497   0.310   1.420  15.850  0.3917  0.1008  0.7410
  436TMC3    C4 6498   0.153   1.612  15.964  1.0395 -0.5526  0.3606
  436TMC3    C5 6499   0.099   1.521  15.874  0.7244  0.1435 -0.0672
  436TMC3    C6 6500   0.182   1.435  15.811 -0.1393 -0.2081  0.1730
  436TMC3     C 6501   0.355   1.695  16.076  0.7694  0.6570  0.3422
  436TMC3     O 6502   0.472   1.707  16.049  0.2631  0.3060  0.4698
  436TMC3     H 6503   0.464   1.478  15.991 -0.3247 -1.6632  1.2832
  436TMC3    H1 6504   0.089   1.689  16.006  1.5962  0.2194 -0.1998
  436TMC3    H2 6505   0.142   1.373  15.732 -0.5536 -0.4767  0.5974
  436TMC3    C7 6506   4.676   1.529  15.842  0.6227  0.5905 -0.4947
  436TMC3    C8 6507   0.393   1.342  15.761 -0.6967 -0.5772 -0.5242
  436TMC3    O1 6508   4.639   1.437  15.778 -0.0491  0.4723  0.0826
  436TMC3    O2 6509   0.329   1.261  15.699  0.4751 -0.0866  0.2581
  437TMC3    C1 6510   4.193   3.579  12.670  0.6239  0.4226 -0.1937
  437TMC3    C2 6511   4.107   3.675  12.722 -0.4401  0.2915 -0.0299
  437TMC3    C3 6512   4.067   3.778  12.643 -0.2143 -0.3413  0.2158
  437TMC3    C4 6513   4.247   3.593  12.548 -0.0478  0.5312 -0.0032
  437TMC3    C5 6514   4.204   3.695  12.469 -0.3829  0.3513 -0.0316
  437TMC3    C6 6515   4.111   3.789  12.512  0.6340 -0.0415  0.1949
  437TMC3     C 6516   4.241   3.463  12.758 -0.1037  0.6398  0.1207
  437TMC3     O 6517   4.214   3.476  12.880  0.2340 -0.0453  0.1304
  437TMC3     H 6518   4.073   3.663  12.824  2.0624 -0.7890  0.6868
  437TMC3    H1 6519   4.307   3.511  12.511 -2.8677 -1.0126 -1.2015
  437TMC3    H2 6520   4.067   3.852  12.436 -1.0006 -1.6021 -0.1576
  437TMC3    C7 6521   4.273   3.717  12.344 -0.3732 -0.1950  0.2210
  437TMC3    C8 6522   3.977   3.871  12.712  0.8890  0.6312  0.1003
  437TMC3    O1 6523   4.222   3.801  12.269  0.4700 -0.5061  0.4265
  437TMC3    O2 6524   3.970   3.864  12.835 -0.2353 -0.4306  0.1939
  438MPD2     C 6525   1.590   4.236  16.631  0.1025  0.6079  0.4152
  438MPD2    C1 6526   1.693   4.166  16.694  0.1953  0.2069  0.0236
  438MPD2    C2 6527   1.695   4.170  16.829  0.5928  1.1041 -0.3586
  438MPD2    C3 6528   1.609   4.242  16.909  0.6903  0.3829  0.3838
  438MPD2    C4 6529   1.524   4.327  16.837  0.3676  0.1819 -0.0543
  438MPD2    C5 6530   1.511   4.319  16.702  0.3698 -0.5140 -0.5460
  438MPD2     H 6531   1.765   4.106  16.882 -0.7484  0.7124  0.9214
  438MPD2    H1 6532   1.450   4.389  16.887 -0.0973 -1.6471  1.5726
  438MPD2    H2 6533   1.582   4.240  16.523 -0.5837  0.8073  0.4754
  438MPD2    H3 6534   1.437   4.377  16.649 -2.1261 -0.8776  2.5001
  438MPD2     N 6535   1.605   4.248  17.047 -0.0419  0.1280 -0.3060
  438MPD2    H5 6536   1.543   4.312  17.095  0.7155  1.8162 -1.6013
  438MPD2    N1 6537   1.788   4.083  16.628  0.1067  0.3444 -0.7928
  438MPD2    H7 6538   1.858   4.041  16.688 -1.5335 -1.7409 -0.3459
  439TMC3    C1 6539   1.887   3.968  16.448  0.3488 -0.7399  0.4920
  439TMC3    C2 6540   1.880   3.936  16.321  0.3201 -0.1306  0.6937
  439TMC3    C3 6541   1.988   3.871  16.266  0.1714 -0.0830 -0.0930
  439TMC3    C4 6542   1.994   3.941  16.530  0.5478  0.5661 -0.0359
  439TMC3    C5 6543   2.105   3.880  16.474 -0.0691  0.1613 -0.3673
  439TMC3    C6 6544   2.094   3.843  16.342  0.2123 -0.0472  0.0449
  439TMC3     C 6545   1.780   4.049  16.492 -0.2074  0.2454 -0.1208
  439TMC3     O 6546   1.698   4.080  16.410  0.1137 -0.5807  0.2156
  439TMC3     H 6547   1.793   3.954  16.258  1.4189  0.4450 -0.6512
  439TMC3    H1 6548   1.991   3.960  16.637 -1.4839 -0.2084  0.0533
  439TMC3    H2 6549   2.182   3.793  16.303 -0.9283  0.3811 -3.0604
  439TMC3    C7 6550   2.230   3.883  16.550  0.0622 -0.2371  0.2723
  439TMC3    C8 6551   1.999   3.821  16.129 -0.0985  1.4870  0.2005
  439TMC3    O1 6552   2.234   3.813  16.651  0.5058  0.0016  0.2845
  439TMC3    O2 6553   2.085   3.733  16.106 -0.0316 -0.4774 -0.3597
  440MPD2     C 6554   1.346   4.405  14.343 -0.0197  0.2696  0.0533
  440MPD2    C1 6555   1.270   4.353  14.443  0.5276  0.4903  1.1223
  440MPD2    C2 6556   1.325   4.331  14.565  0.6449 -0.6357 -0.6018
  440MPD2    C3 6557   1.452   4.379  14.598 -0.0748 -0.8335 -0.9727
  440MPD2    C4 6558   1.520   4.449  14.501 -0.2382  1.3697  0.6779
  440MPD2    C5 6559   1.470   4.453  14.376 -0.1302  0.2366  0.0087
  440MPD2     H 6560   1.260   4.297  14.645  1.0417  1.1594  0.4879
  440MPD2    H1 6561   1.620   4.485  14.521  0.6491  0.3074 -1.7769
  440MPD2    H2 6562   1.298   4.431  14.250  1.7564 -0.1966 -0.9992
  440MPD2    H3 6563   1.525   4.510  14.302  0.7836 -0.7705 -0.0748
  440MPD2     N 6564   1.501   4.378  14.733 -0.2393  0.3639  0.3365
  440MPD2    H5 6565   1.595   4.417  14.742 -0.1905  0.4688 -0.6345
  440MPD2    N1 6566   1.133   4.314  14.429  0.3337 -0.1001 -0.5109
  440MPD2    H7 6567   1.101   4.261  14.510  1.0760  0.0644 -0.1149
  441TMC3    C1 6568   1.503   4.305  14.964  0.4532 -0.3501 -0.4511
  441TMC3    C2 6569   1.521   4.441  14.994 -0.2486  0.3815 -0.6672
  441TMC3    C3 6570   1.477   4.485  15.113 -0.2895  0.1202  0.7574
  441TMC3    C4 6571   1.443   4.220  15.057  0.3683  0.2864 -0.0618
  441TMC3    C5 6572   1.395   4.275  15.171 -0.8392  0.2260  0.4903
  441TMC3    C6 6573   1.407   4.405  15.200  0.4190 -0.6320 -0.2090
  441TMC3     C 6574   1.454   4.287  14.826 -0.2509  0.1422 -0.0462
  441TMC3     O 6575   1.356   4.217  14.821  0.3538  0.4319 -0.1384
  441TMC3     H 6576   1.569   4.509  14.925  1.2218 -0.1219 -0.1438
  441TMC3    H1 6577   1.429   4.115  15.032  1.4091 -0.0778  0.9100
  441TMC3    H2 6578   1.373   4.441  15.297  2.0568  1.3894 -0.3814
  441TMC3    C7 6579   1.274   4.217  15.229 -0.1531 -0.4200 -0.1495
  441TMC3    C8 6580   1.471   4.621  15.148 -0.7857  0.3333 -0.4210
  441TMC3    O1 6581   1.196   4.302  15.266 -0.0357 -0.8176  0.1666
  441TMC3    O2 6582   1.581   4.664  15.183  0.7315  0.2228  0.0748
  442MPD2     C 6583   3.571   4.225  16.709  0.2820 -0.7078  0.1333
  442MPD2    C1 6584   3.486   4.335  16.687 -0.1896  0.1323  0.5669
  442MPD2    C2 6585   3.460   4.385  16.557  0.2792 -0.5530 -0.8968
  442MPD2    C3 6586   3.520   4.326  16.440 -0.4836  0.3349  0.2623
  442MPD2    C4 6587   3.609   4.229  16.470 -0.3739 -0.2218  0.0766
  442MPD2    C5 6588   3.631   4.176  16.596  0.4554 -0.7621 -0.0287
  442MPD2     H 6589   3.395   4.471  16.548  0.8248  0.0860  1.2328
  442MPD2    H1 6590   3.675   4.192  16.392 -2.2718  0.4166 -1.8365
  442MPD2    H2 6591   3.574   4.171  16.803  0.3949 -0.4927  0.2537
  442MPD2    H3 6592   3.696   4.091  16.609  0.0998 -0.5506  2.9888
  442MPD2     N 6593   3.518   4.370  16.306 -0.2116  0.0223  0.3577
  442MPD2    H5 6594   3.580   4.324  16.240  2.3530  1.9579  1.4398
  442MPD2    N1 6595   3.425   4.404  16.790  0.5287 -0.3906  0.0057
  442MPD2    H7 6596   3.378   4.493  16.777 -1.6409 -1.5428  0.0910
  443TMC3    C1 6597   3.338   4.443  17.002  0.1772  0.8252 -0.3001
  443TMC3    C2 6598   3.354   4.579  16.974 -0.3959 -0.0511 -0.0739
  443TMC3    C3 6599   3.258   4.671  17.016  0.0429 -0.1600 -0.1826
  443TMC3    C4 6600   3.241   4.391  17.082  0.7134  0.2223 -0.2126
  443TMC3    C5 6601   3.147   4.485  17.125 -0.1100 -1.0399 -0.4797
  443TMC3    C6 6602   3.153   4.613  17.084 -1.0158 -0.8188 -0.2770
  443TMC3     C 6603   3.413   4.352  16.918  0.0469  0.6247 -0.1426
  443TMC3     O 6604   3.445   4.243  16.967  0.0461 -0.4646 -0.3549
  443TMC3     H 6605   3.432   4.617  16.910  0.7055 -0.8126  0.8184
  443TMC3    H1 6606   3.240   4.286  17.107  0.6837  1.0056  3.1205
  443TMC3    H2 6607   3.075   4.681  17.117 -0.2626 -0.0807 -0.0116
  443TMC3    C7 6608   3.012   4.446  17.151 -0.0350 -0.2901 -0.3262
  443TMC3    C8 6609   3.211   0.023  16.902  0.1161  0.4119 -0.1324
  443TMC3    O1 6610   2.917   4.511  17.104  0.2349 -0.3494 -0.0986
  443TMC3    O2 6611   3.241   4.710  16.789 -0.2273 -0.5003  0.5944
  444MPD2     C 6612   3.848   4.580  16.909  0.5218  0.2739 -0.5434
  444MPD2    C1 6613   3.823   4.450  16.939 -0.2513  0.5264 -0.6020
  444MPD2    C2 6614   3.879   4.352  16.854 -0.2125  0.6647 -0.8591
  444MPD2    C3 6615   3.960   4.381  16.749  0.6137  0.6263  0.2761
  444MPD2    C4 6616   3.982   4.513  16.717  0.2555  0.3324 -0.2135
  444MPD2    C5 6617   3.935   4.609  16.800  0.1399 -0.9264  0.0207
  444MPD2     H 6618   3.849   4.249  16.872  1.4415  0.2108 -0.7012
  444MPD2    H1 6619   4.050   4.556  16.644 -1.1250  1.3038 -0.9367
  444MPD2    H2 6620   3.811   4.665  16.965 -0.4169 -0.9121  0.6224
  444MPD2    H3 6621   3.958   4.714  16.788  0.4610 -0.9589  0.3340
  444MPD2     N 6622   4.004   4.281  16.663 -0.2774  0.0127 -0.5336
  444MPD2    H5 6623   3.983   4.185  16.688  0.4591 -0.0826 -0.2823
  444MPD2    N1 6624   3.754   4.404  17.052 -0.2333 -0.0900 -0.2321
  444MPD2    H7 6625   3.736   4.305  17.063 -0.1625  0.0175  0.8478
  445TMC3    C1 6626   4.127   4.161  16.500  0.3792 -0.1117  0.3555
  445TMC3    C2 6627   4.011   4.110  16.442  0.6318  0.5460  0.5902
  445TMC3    C3 6628   4.032   4.017  16.341  0.3075  0.2595 -0.1263
  445TMC3    C4 6629   4.251   4.124  16.459 -0.0360  0.2433 -0.0127
  445TMC3    C5 6630   4.263   4.029  16.363  0.3539  0.1429 -0.1762
  445TMC3    C6 6631   4.155   3.968  16.303  0.3132 -0.2557 -0.0498
  445TMC3     C 6632   4.104   4.288  16.565 -0.2495  0.4352 -0.2179
  445TMC3     O 6633   4.192   4.370  16.545  0.0256 -0.2062  0.0399
  445TMC3     H 6634   3.913   4.147  16.472 -0.4420 -0.5332 -1.5393
  445TMC3    H1 6635   4.336   4.175  16.503 -1.1135  1.7768  0.2830
  445TMC3    H2 6636   4.173   3.895  16.225 -0.8126 -1.2788  0.6415
  445TMC3    C7 6637   4.391   3.982  16.324  0.1615  0.1583  0.7073
  445TMC3    C8 6638   3.923   3.982  16.259 -0.0116  0.6011 -0.0206
  445TMC3    O1 6639   4.486   4.052  16.348  0.5389 -0.4596 -0.2898
  445TMC3    O2 6640   3.829   4.057  16.261  0.4994 -0.1684  0.6502
  446MPD2     C 6641   3.401   0.530  11.230 -0.5793 -0.0326 -0.6646
  446MPD2    C1 6642   3.394   0.535  11.092 -0.3183  0.1199 -0.7280
  446MPD2    C2 6643   3.483   0.630  11.028  0.5148  0.4794  0.0668
  446MPD2    C3 6644   3.550   0.723  11.100 -0.5897 -0.3738  0.1384
  446MPD2    C4 6645   3.542   0.721  11.235  0.2357  0.6029 -0.2156
  446MPD2    C5 6646   3.458   0.632  11.301 -0.4704  0.3078 -0.1450
  446MPD2     H 6647   3.496   0.618  10.921 -0.9052 -3.6516  0.3377
  446MPD2    H1 6648   3.595   0.788  11.302 -0.0606  0.5719  0.0513
  446MPD2    H2 6649   3.337   0.463  11.286  0.2025 -0.5995 -0.4561
  446MPD2    H3 6650   3.447   0.642  11.408 -0.0338 -0.8689  0.0086
  446MPD2     N 6651   3.650   0.796  11.028  0.2349  0.3753 -0.1199
  446MPD2    H5 6652   3.672   0.774  10.931 -0.6882 -1.7391  0.1577
  446MPD2    N1 6653   3.333   0.440  11.009 -0.1651 -0.4477  0.0725
  446MPD2    H7 6654   3.341   0.455  10.909  0.6990  1.1864  0.3841
  447TMC3    C1 6655   3.845   0.916  10.992 -0.3458 -0.6841  0.5188
  447TMC3    C2 6656   3.793   0.976  10.883 -0.9693  0.3240  0.6775
  447TMC3    C3 6657   3.877   1.007  10.778 -0.2826 -0.1078  0.2487
  447TMC3    C4 6658   3.975   0.881  11.006  0.2659  0.4298 -0.5633
  447TMC3    C5 6659   4.059   0.912  10.893  0.0102 -0.2690  0.0667
  447TMC3    C6 6660   4.016   0.980  10.784  0.0537  0.7290  0.3941
  447TMC3     C 6661   3.749   0.869  11.089 -0.6901 -0.0671 -0.2251
  447TMC3     O 6662   3.800   0.851  11.198  0.4014 -0.0220 -0.2414
  447TMC3     H 6663   3.689   1.000  10.866 -1.0703 -0.0457  0.7763
  447TMC3    H1 6664   4.021   0.847  11.098 -0.8456 -1.5841 -0.7677
  447TMC3    H2 6665   4.088   1.004  10.708  1.4892  2.1749  2.2064
  447TMC3    C7 6666   4.204   0.899  10.923  0.6793 -0.3990 -0.8219
  447TMC3    C8 6667   3.826   1.075  10.668  0.5108  0.9715 -0.0379
  447TMC3    O1 6668   4.237   0.848  11.028 -0.1435  0.1491  0.2888
  447TMC3    O2 6669   3.706   1.082  10.650  0.1416 -0.5782 -0.0033
  448TMC3    C1 6670   1.910   0.947  16.770 -0.6207  0.1886 -0.6856
  448TMC3    C2 6671   1.831   0.844  16.721  0.3841  0.5668  0.2376
  448TMC3    C3 6672   1.798   0.742  16.806 -0.6085  0.2206 -0.1532
  448TMC3    C4 6673   1.953   0.946  16.900  0.7067 -0.0979  0.9166
  448TMC3    C5 6674   1.907   0.851  16.984 -0.2262  0.1930  0.3606
  448TMC3    C6 6675   1.831   0.751  16.937  0.7466  0.3874  0.1277
  448TMC3     C 6676   1.893   1.076  16.696  1.1608 -0.4385  0.7946
  448TMC3     O 6677   1.843   1.073  16.587 -0.2878 -0.1063  0.2672
  448TMC3     H 6678   1.795   0.854  16.619  3.2554  1.6845 -0.6482
  448TMC3    H1 6679   2.019   1.026  16.933 -2.0153  1.8138  1.7543
  448TMC3    H2 6680   1.813   0.667  17.004 -0.9010  0.6673  0.0467
  448TMC3    C7 6681   1.930   0.879  17.120 -0.2267  0.2246 -0.3735
  448TMC3    C8 6682   1.739   0.623  16.759 -0.0946 -0.9488  0.1175
  448TMC3    O1 6683   2.024   0.954  17.145 -0.4101 -0.5589  0.0901
  448TMC3    O2 6684   1.737   0.532  16.837 -0.0716  0.2818 -0.2983
  449MPD2     C 6685   4.168   3.887  14.207  0.3362  0.0406  0.2476
  449MPD2    C1 6686   4.065   3.964  14.261 -0.6452 -0.5656 -0.2302
  449MPD2    C2 6687   3.961   3.894  14.320  0.5414  0.6002 -0.0128
  449MPD2    C3 6688   3.959   3.760  14.320  0.0316 -0.3659 -0.2386
  449MPD2    C4 6689   4.070   3.686  14.278  0.0906  0.3455  0.9428
  449MPD2    C5 6690   4.176   3.752  14.224  0.3306 -0.3822 -0.5610
  449MPD2     H 6691   3.878   3.954  14.355 -0.8400 -0.7921 -0.8878
  449MPD2    H1 6692   4.076   3.578  14.279  1.2722  0.4176  1.8577
  449MPD2    H2 6693   4.251   3.926  14.149  2.2520 -4.4334  0.0480
  449MPD2    H3 6694   4.257   3.695  14.179 -1.6296 -1.7030 -2.4356
  449MPD2     N 6695   3.844   3.699  14.384  0.2737  0.1897 -0.4688
  449MPD2    H5 6696   3.760   3.749  14.410 -0.0303 -0.6868  0.2570
  449MPD2    N1 6697   4.038   4.101  14.237  0.3190  0.7042  0.5340
  449MPD2    H7 6698   3.946   4.139  14.256 -1.1757 -1.4844 -2.2697
  450TMC3    C1 6699   4.028   4.297  14.127  0.1575 -1.0196 -0.7868
  450TMC3    C2 6700   3.994   4.304  13.993  0.8979 -0.8088  0.0733
  450TMC3    C3 6701   3.866   4.324  13.949  1.3208  0.6768  0.4679
  450TMC3    C4 6702   3.922   4.310  14.216 -0.2958  0.9582  1.0144
  450TMC3    C5 6703   3.794   4.337  14.168  0.6184 -0.7405  0.5505
  450TMC3    C6 6704   3.765   4.338  14.036  0.1244 -0.4066 -0.3538
  450TMC3     C 6705   4.103   4.176  14.148 -0.8694  0.3828  0.4167
  450TMC3     O 6706   4.194   4.143  14.073  0.7641  0.6049  0.0099
  450TMC3     H 6707   4.068   4.287  13.915  1.1132 -0.4363  0.1977
  450TMC3    H1 6708   3.947   4.307  14.321 -0.2335  2.9190  1.0563
  450TMC3    H2 6709   3.662   4.340  14.002 -0.7074 -0.6405  2.1529
  450TMC3    C7 6710   3.704   4.271  14.256 -0.0274 -0.2648 -0.6804
  450TMC3    C8 6711   3.823   4.307  13.807  0.0213 -0.2537 -0.0397
  450TMC3    O1 6712   3.760   4.194  14.326 -0.0527  0.5354 -0.5365
  450TMC3    O2 6713   3.740   4.388  13.773 -0.0636  0.0868  0.4472
  451MPD2     C 6714   0.891   3.461   1.340 -0.5647 -0.8707 -0.3919
  451MPD2    C1 6715   0.828   3.453   1.224 -0.1960  0.0424 -0.0376
  451MPD2    C2 6716   0.783   3.328   1.182 -0.9939  0.4211  0.2153
  451MPD2    C3 6717   0.816   3.206   1.250  0.0445  0.0480 -0.0600
  451MPD2    C4 6718   0.894   3.227   1.363 -0.6046 -0.0744 -0.3891
  451MPD2    C5 6719   0.932   3.353   1.411  0.0532  0.0029  0.2208
  451MPD2     H 6720   0.709   3.317   1.103  0.6118  0.3267 -1.2860
  451MPD2    H1 6721   0.926   3.140   1.419 -1.5881 -0.4384 -0.3784
  451MPD2    H2 6722   0.918   3.561   1.375 -0.0915 -0.4487 -1.9303
  451MPD2    H3 6723   0.985   3.359   1.505 -1.0092 -2.1903  0.9594
  451MPD2     N 6724   0.774   3.072   1.212  0.2228  0.2152  0.1560
  451MPD2    H5 6725   0.829   3.001   1.258 -0.1163  0.3650  0.7950
  451MPD2    N1 6726   0.785   3.574   1.170 -0.2675  0.4172  0.6536
  451MPD2    H7 6727   0.786   3.661   1.222 -1.4437 -0.3698  1.9837
  452TMC3    C1 6728   0.668   2.910   1.068  0.8765 -0.4013  0.3855
  452TMC3    C2 6729   0.762   2.813   1.089 -1.0835 -0.0168 -0.7378
  452TMC3    C3 6730   0.717   2.684   1.048  0.7939  0.5253 -0.6005
  452TMC3    C4 6731   0.554   2.886   0.999 -0.4051 -0.8892 -0.0784
  452TMC3    C5 6732   0.532   2.762   0.948  0.3756  0.1124  0.2935
  452TMC3    C6 6733   0.616   2.658   0.963 -0.0986  0.0918  0.2123
  452TMC3     C 6734   0.688   3.052   1.104  0.4293 -0.0431 -0.2042
  452TMC3     O 6735   0.609   3.135   1.055 -0.1699  0.1179  0.4152
  452TMC3     H 6736   0.850   2.824   1.151 -0.3946  0.1796 -1.7443
  452TMC3    H1 6737   0.487   2.969   0.980 -0.1803 -0.9429 -1.1014
  452TMC3    H2 6738   0.603   2.562   0.913 -0.8424 -0.7010  1.9067
  452TMC3    C7 6739   0.428   2.748   0.847 -0.2730  0.1928  0.2642
  452TMC3    C8 6740   0.788   2.566   1.089  0.5386  0.0474  0.0970
  452TMC3    O1 6741   0.472   2.687   0.750 -0.3913  0.2143 -0.5331
  452TMC3    O2 6742   0.776   2.471   1.009 -0.1142 -0.7289  0.4880
  453TMC3    C1 6743   1.194   0.151  12.044 -0.5764  0.3667 -0.0407
  453TMC3    C2 6744   1.116   0.065  12.110 -0.0334  0.4553  0.0538
  453TMC3    C3 6745   1.037   4.701  12.033 -0.1729  0.2892 -0.6766
  453TMC3    C4 6746   1.208   0.160  11.907  0.3289  0.9033  0.2658
  453TMC3    C5 6747   1.122   0.089  11.834  0.4310 -0.3857 -0.4665
  453TMC3    C6 6748   1.044   4.712  11.888  0.4904 -0.6141 -0.9563
  453TMC3     C 6749   1.305   0.197  12.122 -0.0862 -0.3708 -0.6174
  453TMC3     O 6750   1.389   0.260  12.061  0.7533 -0.5429  0.0960
  453TMC3     H 6751   1.098   0.065  12.216 -0.9420 -1.5225 -0.0943
  453TMC3    H1 6752   1.269   0.237  11.861 -0.3098 -0.0158 -2.0964
  453TMC3    H2 6753   0.976   4.659  11.822  0.2501 -0.6060 -0.7149
  453TMC3    C7 6754   1.195   0.031  11.729  0.3265 -0.0743  0.0904
  453TMC3    C8 6755   0.975   4.582  12.086  0.2421  0.0700  0.1742
  453TMC3    O1 6756   1.187   4.636  11.717  0.3035 -0.2741  0.0382
  453TMC3    O2 6757   0.953   4.570  12.204 -0.4153 -0.1876  0.0786
  454MPD2     C 6758   4.719   4.167  15.782 -0.7411  0.3567  0.6016
  454MPD2    C1 6759   4.639   4.275  15.728 -0.1921 -0.4292  0.4125
  454MPD2    C2 6760   4.599   4.379  15.816  0.4052  0.7400  0.1108
  454MPD2    C3 6761   4.641   4.380  15.949 -0.0694 -0.4203 -0.1000
  454MPD2    C4 6762   0.004   4.278  15.988  0.1457 -0.3804  0.7684
  454MPD2    C5 6763   0.044   4.179  15.906  0.1463 -0.0046  0.2076
  454MPD2     H 6764   4.535   4.456  15.774  2.6776  2.1305 -0.8501
  454MPD2    H1 6765   0.044   4.274  16.089  0.3609  0.3035  0.7092
  454MPD2    H2 6766   0.024   4.090  15.711 -4.0014  0.0216 -0.3279
  454MPD2    H3 6767   0.114   4.107  15.946 -0.7305 -0.8424  0.2486
  454MPD2     N 6768   4.582   4.475  16.042  0.0172  0.0901 -0.0064
  454MPD2    H5 6769   4.606   4.443  16.135 -2.6047  0.5309  0.7942
  454MPD2    N1 6770   4.585   4.269  15.596  0.2385 -0.2724  0.2633
  454MPD2    H7 6771   4.531   4.350  15.566 -0.6518  0.0484  2.7161
  455TMC3    C1 6772   4.398   4.564  16.139  0.3754 -0.2485 -0.6138
  455TMC3    C2 6773   4.312   4.670  16.127  0.0730  0.6187  0.0708
  455TMC3    C3 6774   4.176   4.639  16.114 -0.5685 -0.2759 -0.2766
  455TMC3    C4 6775   4.355   4.434  16.153 -0.1686 -0.5821  0.3853
  455TMC3    C5 6776   4.220   4.405  16.133  0.4913  0.2503 -0.8962
  455TMC3    C6 6777   4.123   4.508  16.121 -0.4645  0.1297 -0.5397
  455TMC3     C 6778   4.485   4.567  16.026  0.6307 -0.0053 -0.3409
  455TMC3     O 6779   4.454   4.623  15.924 -0.3238  0.5064  0.5266
  455TMC3     H 6780   4.354   0.046  16.135 -0.6948  0.9675 -0.2717
  455TMC3    H1 6781   4.421   4.354  16.187  0.9727 -0.1809 -0.8741
  455TMC3    H2 6782   4.019   4.484  16.104 -0.6653  0.3559  0.3995
  455TMC3    C7 6783   4.185   4.293  16.050 -0.0385 -0.1988 -0.2583
  455TMC3    C8 6784   4.087   0.019  16.160 -0.3624  0.0613  0.1693
  455TMC3    O1 6785   4.066   4.254  16.048  0.4520  0.1077  0.1684
  455TMC3    O2 6786   3.976   0.028  16.109  0.0521 -0.2556  0.0674
  456MPD2     C 6787   1.964   4.213  15.985  0.8351 -0.0704  0.4089
  456MPD2    C1 6788   2.061   4.200  16.086  0.0228  0.7400 -0.3555
  456MPD2    C2 6789   2.037   4.250  16.211  0.1548  0.0384 -0.0224
  456MPD2    C3 6790   1.911   4.306  16.246  0.6124  0.4176 -0.4651
  456MPD2    C4 6791   1.818   4.317  16.145  0.3177  0.1527  0.7754
  456MPD2    C5 6792   1.848   4.272  16.019  0.2028  0.2683  0.2313
  456MPD2     H 6793   2.104   4.229  16.294 -1.2685 -2.4326  0.4746
  456MPD2    H1 6794   1.718   4.357  16.157 -0.1609 -0.6392 -0.5145
  456MPD2    H2 6795   1.970   4.172  15.885 -1.2295  0.8315 -0.0859
  456MPD2    H3 6796   1.771   4.271  15.943  1.0391  2.5957 -0.6300
  456MPD2     N 6797   1.891   4.355  16.377 -0.4983  0.1437  0.3733
  456MPD2    H5 6798   1.971   4.353  16.440 -1.6215  2.0721  1.8653
  456MPD2    N1 6799   2.172   4.122  16.047 -0.1260  0.4585  0.2630
  456MPD2    H7 6800   2.166   4.093  15.950  0.1576  3.0152 -0.5181
  457TMC3    C1 6801   1.792   4.495  16.545 -0.1220  0.1393  0.3005
  457TMC3    C2 6802   1.713   4.605  16.566 -0.3486  0.0891 -0.0843
  457TMC3    C3 6803   1.718   4.670  16.686  0.0197  0.4749 -0.3533
  457TMC3    C4 6804   1.866   4.444  16.656  0.0627 -0.2650  0.3527
  457TMC3    C5 6805   1.850   4.496  16.779  0.3036 -0.0153  0.1895
  457TMC3    C6 6806   1.777   4.612  16.797  0.1941 -0.4177  0.6138
  457TMC3     C 6807   1.779   4.421  16.417  0.4448  0.0295 -0.0092
  457TMC3     O 6808   1.673   4.444  16.355  0.3319  1.0055 -0.4205
  457TMC3     H 6809   1.656   4.630  16.478 -0.2871  2.8244  0.6417
  457TMC3    H1 6810   1.932   4.359  16.639  0.3244 -0.4805  2.5163
  457TMC3    H2 6811   1.767   4.648  16.899 -1.4126  0.7861  0.0249
  457TMC3    C7 6812   1.971   4.512  16.854 -0.1210  0.1733  0.5970
  457TMC3    C8 6813   1.701   0.085  16.677 -1.1309 -0.4345  0.4547
  457TMC3    O1 6814   1.962   4.500  16.973  0.3882  0.3386  0.0819
  457TMC3    O2 6815   1.740   0.145  16.779  0.1646  0.0972 -0.1459
  458MPD2     C 6816   4.683   3.625  12.056 -0.2971 -0.0365  0.7254
  458MPD2    C1 6817   4.708   3.589  12.185 -0.7004 -0.4733  0.4969
  458MPD2    C2 6818   4.609   3.609  12.274  0.2885 -0.0215 -0.9755
  458MPD2    C3 6819   4.490   3.653  12.239 -0.1608  0.5624 -0.0911
  458MPD2    C4 6820   4.461   3.682  12.105 -0.3714  1.0860 -0.3687
  458MPD2    C5 6821   4.561   3.681  12.019  0.5229 -0.6201 -1.0982
  458MPD2     H 6822   4.617   3.564  12.372  0.5062  0.9747 -0.5312
  458MPD2    H1 6823   4.363   3.715  12.074 -1.1295 -0.4738  0.3773
  458MPD2    H2 6824   0.042   3.608  11.987 -1.2817 -0.3248 -0.3690
  458MPD2    H3 6825   4.539   3.709  11.916  0.5885 -1.3526 -1.3097
  458MPD2     N 6826   4.403   3.663  12.346 -0.1125  0.0945  0.1740
  458MPD2    H5 6827   4.434   3.623  12.434  1.3361 -0.4523 -0.5877
  458MPD2    N1 6828   0.114   3.558  12.222 -0.0269 -0.4189  0.5489
  458MPD2    H7 6829   0.184   3.559  12.148 -0.6482  1.2546 -0.0152
  459TMC3    C1 6830   0.289   3.510  12.375 -0.2177 -0.0524  0.3648
  459TMC3    C2 6831   0.378   3.592  12.313  0.2698 -0.3297 -0.5808
  459TMC3    C3 6832   0.481   3.633  12.385 -0.4588  0.5046 -0.1877
  459TMC3    C4 6833   0.301   3.474  12.504  0.2717 -0.3997  0.1152
  459TMC3    C5 6834   0.402   3.529  12.577 -0.9051  0.0635  0.5812
  459TMC3    C6 6835   0.490   3.617  12.518  0.0095  0.4332  0.1704
  459TMC3     C 6836   0.148   3.505  12.343  0.1942  0.6221  0.4180
  459TMC3     O 6837   0.069   3.470  12.430  0.4846 -0.4430  0.2336
  459TMC3     H 6838   0.376   3.604  12.205 -2.3435 -0.0856 -0.5183
  459TMC3    H1 6839   0.233   3.408  12.557  1.0856 -1.4314 -0.1401
  459TMC3    H2 6840   0.584   3.628  12.569 -0.7686  0.4190  1.6120
  459TMC3    C7 6841   0.411   3.497  12.713  0.7237 -0.8573  0.5560
  459TMC3    C8 6842   0.608   3.643  12.316  0.2501 -0.1665  0.5518
  459TMC3    O1 6843   0.376   3.384  12.745 -0.1633  0.6796 -0.6764
  459TMC3    O2 6844   0.616   3.587  12.204  0.1944 -0.3112  0.2968
  460MPD2     C 6845   4.024   1.288  10.435 -0.3825 -0.0880  0.0883
  460MPD2    C1 6846   3.909   1.234  10.478 -0.8517  0.5002 -0.1823
  460MPD2    C2 6847   3.791   1.278  10.429 -0.3331 -0.1150 -0.7412
  460MPD2    C3 6848   3.786   1.384  10.347 -0.2501 -0.2425 -0.0305
  460MPD2    C4 6849   3.898   1.451  10.309  0.1367  0.3183  0.9101
  460MPD2    C5 6850   4.021   1.399  10.350  0.1616 -0.0944 -0.1242
  460MPD2     H 6851   3.696   1.244  10.468 -1.7801  1.7968 -2.5786
  460MPD2    H1 6852   3.901   1.540  10.247 -0.6988 -1.8906 -2.2758
  460MPD2    H2 6853   4.124   1.263  10.470  1.1564  1.2077 -3.2718
  460MPD2    H3 6854   4.118   1.440  10.323  0.2906 -0.5495 -0.3512
  460MPD2     N 6855   3.659   1.429  10.309 -0.1036 -0.1506  0.5428
  460MPD2    H5 6856   3.583   1.377  10.351  1.2306 -1.5663  1.1769
  460MPD2    N1 6857   3.922   1.135  10.585  0.1418  0.2318 -0.1483
  460MPD2    H7 6858   4.017   1.132  10.618 -0.3325  0.2144  1.1997
  461TMC3    C1 6859   3.489   1.533  10.191 -0.0173  0.1308  0.5144
  461TMC3    C2 6860   3.407   1.427  10.172 -0.5079  0.4832 -0.3710
  461TMC3    C3 6861   3.284   1.463  10.120  0.2234  0.1078 -0.0220
  461TMC3    C4 6862   3.454   1.662  10.188  0.5281 -0.1715 -0.1475
  461TMC3    C5 6863   3.329   1.692  10.127  0.1517 -0.1487  0.6480
  461TMC3    C6 6864   3.239   1.593  10.098  0.0443  0.4528 -0.3170
  461TMC3     C 6865   3.630   1.526  10.215  0.0123  0.3204 -0.0866
  461TMC3     O 6866   3.699   1.600  10.146 -0.5565  0.3660 -0.2321
  461TMC3     H 6867   3.443   1.325  10.179  2.8970  1.5598 -2.1065
  461TMC3    H1 6868   3.513   1.746  10.222  0.8749 -1.0507  1.4316
  461TMC3    H2 6869   3.140   1.618  10.061 -0.1435  1.9869  1.2314
  461TMC3    C7 6870   3.289   1.826  10.076  0.1991 -0.4191  0.3071
  461TMC3    C8 6871   3.229   1.361  10.026 -1.0799 -0.0325 -1.0932
  461TMC3    O1 6872   3.192   1.840  10.004 -0.3271 -0.1662 -0.0475
  461TMC3    O2 6873   3.132   1.389   9.954  0.2210 -0.1489  0.3665
  462TMC3    C1 6874   4.424   1.919   0.128  0.3394 -0.7035  0.5052
  462TMC3    C2 6875   4.528   1.990   0.189 -0.2918  0.0925 -0.6302
  462TMC3    C3 6876   4.496   2.049   0.306 -0.7795  0.4370 -0.5294
  462TMC3    C4 6877   4.301   1.906   0.175  0.0820 -0.1088  0.0858
  462TMC3    C5 6878   4.277   1.970   0.294  0.0433  0.0090 -0.1870
  462TMC3    C6 6879   4.378   2.031   0.369  0.0919  0.1308  0.2896
  462TMC3     C 6880   4.456   1.861  17.690 -0.5776 -0.6858 -0.2457
  462TMC3     O 6881   4.535   1.929  17.627 -0.1213  0.9869  0.0230
  462TMC3     H 6882   4.626   1.987   0.143  0.4096  1.7095  0.7318
  462TMC3    H1 6883   4.224   1.851   0.123  1.4763 -1.2760 -0.7585
  462TMC3    H2 6884   4.346   2.103   0.443  1.8497  0.1384  1.0464
  462TMC3    C7 6885   4.133   1.967   0.334  0.1444 -1.0643  0.1425
  462TMC3    C8 6886   4.585   2.137   0.369 -0.4578 -0.0196  0.4287
  462TMC3    O1 6887   4.043   1.924   0.267 -1.0859  1.0164  0.3792
  462TMC3    O2 6888   4.579   2.151   0.491 -0.3506 -0.3517 -0.5781
  463MPD2     C 6889   0.367   1.098   1.403 -0.8176  0.2538 -0.9718
  463MPD2    C1 6890   0.300   1.142   1.288 -0.0824  0.0891  0.0284
  463MPD2    C2 6891   0.375   1.204   1.188  0.3709  0.2585 -0.2844
  463MPD2    C3 6892   0.512   1.221   1.203  0.5976 -0.2154  0.0003
  463MPD2    C4 6893   0.568   1.169   1.319  0.1464 -0.3011 -0.5523
  463MPD2    C5 6894   0.500   1.101   1.407  0.1104 -0.0251  0.3669
  463MPD2     H 6895   0.320   1.242   1.102 -1.5333 -0.5047  0.5840
  463MPD2    H1 6896   0.674   1.188   1.332  0.0821  0.7460 -1.5394
  463MPD2    H2 6897   0.321   1.065   1.495  0.6878  1.1334  0.0899
  463MPD2    H3 6898   0.554   1.085   1.499  1.3965  2.6970  0.0983
  463MPD2     N 6899   0.596   1.288   1.107  0.4505  0.0692 -0.0506
  463MPD2    H5 6900   0.687   1.325   1.131  0.3474  0.2705  0.0364
  463MPD2    N1 6901   0.164   1.151   1.276 -0.4693 -0.2211  0.0044
  463MPD2    H7 6902   0.116   1.218   1.217 -2.1459 -1.8056 -0.4713
  464TMC3    C1 6903   4.661   1.097   1.349  0.5288  0.1217 -1.0788
  464TMC3    C2 6904   4.601   1.166   1.249 -0.7639  0.4486  0.3601
  464TMC3    C3 6905   4.463   1.173   1.255  0.2038 -1.8559  0.0743
  464TMC3    C4 6906   4.596   1.044   1.459  1.0253 -0.1541  0.5489
  464TMC3    C5 6907   4.457   1.043   1.452  0.4019 -0.1511  0.9997
  464TMC3    C6 6908   4.390   1.113   1.354  0.1627 -0.1723  0.6142
  464TMC3     C 6909   0.080   1.078   1.357 -0.7270 -0.3297 -0.4068
  464TMC3     O 6910   0.112   0.988   1.434  0.3443  0.6839 -0.0382
  464TMC3     H 6911   4.649   1.192   1.155  0.4607  1.5180  1.2844
  464TMC3    H1 6912   4.645   0.983   1.534  0.2405  0.8232  1.8480
  464TMC3    H2 6913   4.284   1.135   1.353 -0.0005 -0.9515  0.3770
  464TMC3    C7 6914   4.381   0.956   1.540  0.2534 -0.0650  0.0265
  464TMC3    C8 6915   4.397   1.252   1.150  0.1252  0.9630 -0.4186
  464TMC3    O1 6916   4.439   0.908   1.639  0.2583 -0.1814  0.5044
  464TMC3    O2 6917   4.476   1.320   1.088 -0.1095  0.3489 -0.2623
  465MPD2     C 6918   1.161   4.380  16.958  0.1663 -0.5152 -0.1872
  465MPD2    C1 6919   1.059   4.380  17.043  0.3790  0.2413 -0.3953
  465MPD2    C2 6920   0.931   4.424  16.996  0.3563 -0.4222 -0.1857
  465MPD2    C3 6921   0.916   4.478  16.870  0.1252 -0.1767 -0.3781
  465MPD2    C4 6922   1.027   4.494  16.790 -0.1080  0.2680  0.3229
  465MPD2    C5 6923   1.145   4.442  16.834 -0.1540  0.2860 -0.1388
  465MPD2     H 6924   0.852   4.417  17.070  0.1037 -0.1760 -0.4302
  465MPD2    H1 6925   1.028   4.542  16.692 -0.2465  1.7478  1.0402
  465MPD2    H2 6926   1.256   4.336  16.986  0.2340  0.0862  0.5069
  465MPD2    H3 6927   1.223   4.426  16.761  0.3402 -0.2237  0.4996
  465MPD2     N 6928   0.787   4.502  16.823 -0.5924  0.1963  0.5401
  465MPD2    H5 6929   0.714   4.467  16.885 -0.5092 -0.2852  0.3670
  465MPD2    N1 6930   1.061   4.332  17.175  0.5236  0.5485 -0.4630
  465MPD2    H7 6931   0.981   4.326  17.237  0.2490 -1.2296 -0.9833
  466TMC3    C1 6932   0.513   0.040  16.853 -0.1857 -0.2328 -0.5102
  466TMC3    C2 6933   0.500   0.135  16.758  0.3099  0.6016  0.4605
  466TMC3    C3 6934   0.558   0.111  16.638 -0.2358 -0.0784  0.2470
  466TMC3    C4 6935   0.573   4.639  16.835 -0.3604  0.2013 -0.8605
  466TMC3    C5 6936   0.627   4.614  16.708  0.0254 -0.3722  0.4175
  466TMC3    C6 6937   0.623   4.713  16.610 -0.3039  0.3529  0.3335
  466TMC3     C 6938   0.446   0.076  16.977  0.1607  0.0034 -0.4432
  466TMC3     O 6939   0.518   0.068  17.073 -0.3461  0.0172  0.4370
  466TMC3     H 6940   0.447   0.227  16.782 -1.3579 -0.4478  0.8365
  466TMC3    H1 6941   0.573   4.565  16.915  0.9017  1.1309  0.0190
  466TMC3    H2 6942   0.671   4.686  16.517  2.3558  3.2663  0.8858
  466TMC3    C7 6943   0.762   4.588  16.722 -0.3394  0.2216 -0.0395
  466TMC3    C8 6944   0.616   0.223  16.557 -0.1422 -0.1957 -0.0636
  466TMC3    O1 6945   0.840   4.657  16.659  0.5475  0.2665 -0.3331
  466TMC3    O2 6946   0.682   0.199  16.459 -0.0958 -0.1700  0.5941
  467TMC3    C1 6947   2.300   2.927  13.762 -0.4590 -0.0280  0.4846
  467TMC3    C2 6948   2.313   3.049  13.690 -0.6167  0.3407 -0.1906
  467TMC3    C3 6949   2.195   3.089  13.631  0.6168 -0.6059 -0.1887
  467TMC3    C4 6950   2.182   2.856  13.757  0.2211 -0.2235 -0.7465
  467TMC3    C5 6951   2.069   2.914  13.711 -0.7594  0.9418  0.3604
  467TMC3    C6 6952   2.072   3.036  13.644  0.0569 -0.0569  0.0218
  467TMC3     C 6953   2.424   2.862  13.800 -0.6310  1.0294 -0.6314
  467TMC3     O 6954   2.531   2.919  13.790 -0.1377  0.4621  0.0596
  467TMC3     H 6955   2.411   3.086  13.665  1.6871 -3.7656  2.7654
  467TMC3    H1 6956   2.171   2.753  13.790  0.7110  0.0165  0.1596
  467TMC3    H2 6957   1.981   3.090  13.617  0.0083  0.7933  1.8873
  467TMC3    C7 6958   1.941   2.846  13.725 -0.4174  0.2769  0.3892
  467TMC3    C8 6959   2.209   3.199  13.538  0.8291  0.0341 -0.1824
  467TMC3    O1 6960   1.935   2.755  13.810  0.4165 -0.2455 -0.2284
  467TMC3    O2 6961   2.296   3.284  13.558 -0.0123  0.2781  0.7013
  468MPD2     C 6962   1.202   0.605  10.581  0.1228 -0.5066  0.0796
  468MPD2    C1 6963   1.202   0.628  10.715 -0.1167  0.2333  0.4527
  468MPD2    C2 6964   1.189   0.526  10.806  0.3536  0.4804  0.0322
  468MPD2    C3 6965   1.181   0.394  10.765  0.6900  0.4978  0.7461
  468MPD2    C4 6966   1.188   0.369  10.628  0.0721  0.5901 -0.4402
  468MPD2    C5 6967   1.197   0.473  10.535 -0.1074  0.5995 -0.5861
  468MPD2     H 6968   1.183   0.547  10.912  2.2767  1.0890  0.0110
  468MPD2    H1 6969   1.205   0.265  10.602 -0.3891  0.3519  0.2115
  468MPD2    H2 6970   1.201   0.687  10.511 -1.9165  2.2443  3.2986
  468MPD2    H3 6971   1.201   0.453  10.429 -0.6512  2.0008 -0.8756
  468MPD2     N 6972   1.181   0.281  10.857  0.2551 -0.0115 -0.5409
  468MPD2    H5 6973   1.169   0.192  10.809 -1.0693  0.6022 -1.3523
  468MPD2    N1 6974   1.224   0.759  10.773  0.2030 -0.4323 -0.5696
  468MPD2    H7 6975   1.211   0.761  10.874  1.7049  4.0908 -0.4562
  469TMC3    C1 6976   1.216   0.994  10.767 -0.1241 -0.5402 -0.6290
  469TMC3    C2 6977   1.257   1.011  10.895  0.7852  0.0191  0.7231
  469TMC3    C3 6978   1.220   1.121  10.966  0.2913 -0.8304 -0.3923
  469TMC3    C4 6979   1.154   1.092  10.693 -0.1346 -0.8286 -0.1621
  469TMC3    C5 6980   1.132   1.208  10.763 -0.9449  0.1903 -1.1674
  469TMC3    C6 6981   1.156   1.216  10.900 -0.6534  0.3786 -0.7490
  469TMC3     C 6982   1.233   0.870  10.699  0.5993  0.4183  0.2314
  469TMC3     O 6983   1.267   0.885  10.585 -0.0230  0.0241 -0.1392
  469TMC3     H 6984   1.309   0.931  10.945  1.9658  1.1431  1.2973
  469TMC3    H1 6985   1.127   1.079  10.589 -1.4107 -0.5642  0.1440
  469TMC3    H2 6986   1.117   1.308  10.941  1.1817 -0.0147  1.8803
  469TMC3    C7 6987   1.066   1.324  10.703  0.8521 -0.0397 -0.4171
  469TMC3    C8 6988   1.267   1.136  11.098  0.4999  0.0409 -0.0669
  469TMC3    O1 6989   1.037   1.427  10.770  0.2369  0.2145  0.0520
  469TMC3    O2 6990   1.338   1.040  11.139  0.0095 -0.8327 -0.9308
  470TMC3    C1 6991   0.467   3.375   1.303  0.0166  0.4560 -0.0420
  470TMC3    C2 6992   0.501   3.474   1.393 -1.0618  0.5335 -0.1298
  470TMC3    C3 6993   0.549   3.428   1.508 -0.0982  0.3804  0.9943
  470TMC3    C4 6994   0.458   3.240   1.328 -0.2561 -0.1604 -0.1979
  470TMC3    C5 6995   0.499   3.207   1.454  0.0952  0.5417 -0.0200
  470TMC3    C6 6996   0.546   3.299   1.544 -1.3009  0.6582  0.3084
  470TMC3     C 6997   0.415   3.431   1.184 -0.1937  1.1617 -0.3173
  470TMC3     O 6998   0.382   3.551   1.176  0.1168 -0.0589 -0.4122
  470TMC3     H 6999   0.511   3.580   1.371 -0.4833 -0.0398 -2.5822
  470TMC3    H1 7000   0.410   3.166   1.265 -1.3062  0.6423 -0.3220
  470TMC3    H2 7001   0.583   3.268   1.641  2.9997 -0.4276 -1.6968
  470TMC3    C7 7002   0.555   3.075   1.488 -0.1403  0.2090  0.5005
  470TMC3    C8 7003   0.572   3.529   1.610  0.5630  0.4400  0.7490
  470TMC3    O1 7004   0.632   3.066   1.580  0.2748  0.2583  0.1198
  470TMC3    O2 7005   0.532   3.641   1.584  0.0073  0.6624 -0.4052
  471MPD2     C 7006   3.504   3.821  16.417 -0.7151 -0.2353 -0.5141
  471MPD2    C1 7007   3.619   3.750  16.382 -0.4971 -0.5585 -0.2781
  471MPD2    C2 7008   3.722   3.737  16.470 -0.2266  0.1429  0.0144
  471MPD2    C3 7009   3.727   3.796  16.590 -0.0349  0.8499 -0.4423
  471MPD2    C4 7010   3.610   3.848  16.634 -0.4685 -0.1666  0.3659
  471MPD2    C5 7011   3.501   3.873  16.547 -0.0119 -0.4616 -0.1163
  471MPD2     H 7012   3.802   3.673  16.433 -2.1393 -1.6764 -0.9684
  471MPD2    H1 7013   3.609   3.882  16.737 -1.3628  0.7924  0.0370
  471MPD2    H2 7014   3.417   3.836  16.355 -1.5779 -2.2325  0.2248
  471MPD2    H3 7015   3.412   3.923  16.586  0.8214  0.7592  0.2331
  471MPD2     N 7016   3.835   3.798  16.684  0.7126  0.1528 -0.0175
  471MPD2    H5 7017   3.825   3.834  16.779  1.4937  2.4062 -0.7786
  471MPD2    N1 7018   3.620   3.665  16.269 -0.5410 -0.5343  0.9350
  471MPD2    H7 7019   3.706   3.614  16.252  0.1168  1.5048 -1.8365
  472TMC3    C1 7020   3.562   3.557  16.068 -0.2846  0.0884  0.1964
  472TMC3    C2 7021   3.463   3.532  15.978  0.6575  0.0673 -0.3754
  472TMC3    C3 7022   3.450   3.409  15.931  0.6077  0.2530  0.6600
  472TMC3    C4 7023   3.651   3.457  16.095 -0.1917  0.1351  0.5137
  472TMC3    C5 7024   3.629   3.329  16.046  0.1161 -0.5433 -0.6086
  472TMC3    C6 7025   3.528   3.299  15.953  0.2920  0.0176  0.1468
  472TMC3     C 7026   3.524   3.657  16.174 -0.9715 -0.3878  0.2764
  472TMC3     O 7027   3.423   3.721  16.158 -0.1127  0.2558 -0.1745
  472TMC3     H 7028   3.381   3.599  15.955  0.1056 -1.0183 -1.5856
  472TMC3    H1 7029   3.740   3.475  16.153  0.2792 -1.3466  0.2430
  472TMC3    H2 7030   3.499   3.201  15.920  0.3767  0.1626 -0.3487
  472TMC3    C7 7031   3.665   3.233  16.147 -0.7384 -0.8981 -0.5863
  472TMC3    C8 7032   3.312   3.370  15.898  0.8171 -0.1090 -0.4924
  472TMC3    O1 7033   3.696   3.277  16.257 -0.2970 -0.1124 -0.1568
  472TMC3    O2 7034   3.297   3.316  15.790  0.0427 -0.2225 -0.3586
  473MPD2     C 7035   3.817   0.358  14.099 -0.4112 -0.1432 -0.0023
  473MPD2    C1 7036   3.815   0.463  14.014 -0.0248  0.5544  0.0931
  473MPD2    C2 7037   3.835   0.595  14.063  0.4792  0.0502 -0.2441
  473MPD2    C3 7038   3.858   0.613  14.195  0.3185 -0.1262  0.1641
  473MPD2    C4 7039   3.865   0.506  14.283  0.0427  0.1695  0.1592
  473MPD2    C5 7040   3.848   0.381  14.233 -0.1027 -0.6151  0.0353
  473MPD2     H 7041   3.833   0.676  13.992 -2.5073 -0.1369 -0.3561
  473MPD2    H1 7042   3.880   0.513  14.390  1.8143  0.0573 -0.0726
  473MPD2    H2 7043   3.803   0.254  14.071 -2.3257  0.3383 -0.8254
  473MPD2    H3 7044   3.851   0.294  14.297  1.3000  0.5592  1.6061
  473MPD2     N 7045   3.884   0.744  14.254 -0.2212  0.1464  0.2648
  473MPD2    H5 7046   3.904   0.740  14.354 -0.5912 -1.1180  0.2849
  473MPD2    N1 7047   3.776   0.450  13.876 -0.1156  0.2241  0.3050
  473MPD2    H7 7048   3.748   0.537  13.832 -0.7898  0.3247  0.9304
  474TMC3    C1 7049   3.906   0.975  14.277 -0.1086 -0.7886 -0.0085
  474TMC3    C2 7050   3.843   1.089  14.256  0.8124  0.2446  0.3738
  474TMC3    C3 7051   3.891   1.211  14.306  1.0021  0.3158  0.1214
  474TMC3    C4 7052   4.023   0.978  14.339 -0.2843 -0.6193 -0.1763
  474TMC3    C5 7053   4.070   1.097  14.382 -0.7939 -0.3806  0.3786
  474TMC3    C6 7054   4.007   1.219  14.380 -0.3246 -0.2799  0.0523
  474TMC3     C 7055   3.874   0.866  14.189 -0.1306 -0.1673  0.4702
  474TMC3     O 7056   3.805   0.897  14.096  0.3397 -0.5916 -0.0585
  474TMC3     H 7057   3.747   1.098  14.206 -0.0606  0.7737  2.1706
  474TMC3    H1 7058   4.082   0.887  14.349  2.4446  1.3613  1.7317
  474TMC3    H2 7059   4.065   1.309  14.394 -0.3366 -0.0862 -1.1049
  474TMC3    C7 7060   4.196   1.098  14.452  0.4826 -0.4895 -0.5068
  474TMC3    C8 7061   3.833   1.329  14.247  0.5868 -0.7606  0.1046
  474TMC3    O1 7062   4.287   1.047  14.391 -0.0410 -0.7302  0.4958
  474TMC3    O2 7063   3.748   1.311  14.162  0.0559  0.0537  0.3911
  475MPD2     C 7064   2.238   3.287  10.548  0.0873 -0.0040 -0.1671
  475MPD2    C1 7065   2.199   3.363  10.442  0.6026 -0.2326  0.7336
  475MPD2    C2 7066   2.075   3.420  10.445 -0.2031  0.0512 -0.2019
  475MPD2    C3 7067   1.992   3.410  10.563  0.0503  0.7796 -0.9933
  475MPD2    C4 7068   2.032   3.329  10.669  0.2637 -0.0788  0.4980
  475MPD2    C5 7069   2.154   3.272  10.654  0.4958 -0.1547  0.6577
  475MPD2     H 7070   2.045   3.499  10.377 -0.3910 -1.4253 -1.8100
  475MPD2    H1 7071   1.964   3.301  10.749  0.5910  1.4985  1.3281
  475MPD2    H2 7072   2.339   3.247  10.553  0.5332  1.2081  0.9331
  475MPD2    H3 7073   2.186   3.217  10.742 -1.7792  0.9525  2.1742
  475MPD2     N 7074   1.868   3.476  10.562 -0.8297 -0.4514  0.0324
  475MPD2    H5 7075   1.839   3.514  10.473 -0.3136  2.3092  1.0410
  475MPD2    N1 7076   2.291   3.385  10.338  0.5560 -0.1007 -0.1172
  475MPD2    H7 7077   2.380   3.335  10.338 -1.1137 -3.0456 -0.0330
  476TMC3    C1 7078   2.354   3.408  10.117 -0.0007  0.6216 -0.0199
  476TMC3    C2 7079   2.301   3.421   9.991 -0.1013 -0.2334  0.0672
  476TMC3    C3 7080   2.383   3.472   9.896 -0.4297  0.4542  0.8565
  476TMC3    C4 7081   2.480   3.451  10.155 -0.2327 -0.1188 -0.3457
  476TMC3    C5 7082   2.552   3.508  10.052 -0.0578  0.4646  0.1063
  476TMC3    C6 7083   2.503   3.527   9.925 -0.0777 -0.3905  0.0583
  476TMC3     C 7084   2.255   3.432  10.216  0.5323  0.4141  0.2060
  476TMC3     O 7085   2.150   3.478  10.177 -0.3975 -0.6281  0.7909
  476TMC3     H 7086   2.196   3.396   9.978 -0.2904  1.9483 -2.7380
  476TMC3    H1 7087   2.502   3.444  10.261  0.3416  0.9223 -0.3915
  476TMC3    H2 7088   2.552   3.592   9.853 -2.0877  0.8068 -0.2405
  476TMC3    C7 7089   2.654   3.605  10.096  0.3273  0.5172 -0.5548
  476TMC3    C8 7090   2.328   3.489   9.762  0.1641 -0.3473  0.1042
  476TMC3    O1 7091   2.733   3.659  10.019 -0.7274  0.1679 -0.1055
  476TMC3    O2 7092   2.338   3.602   9.710  0.0799 -0.2912 -0.3989
  477MPD2     C 7093   4.125   4.674  11.516 -0.7923 -0.3336  0.1951
  477MPD2    C1 7094   4.131   0.070  11.588  0.2993  0.2175  0.4738
  477MPD2    C2 7095   4.176   0.071  11.724  0.1016 -0.9395 -0.2152
  477MPD2    C3 7096   4.213   4.669  11.781 -0.1915 -0.0398 -0.4048
  477MPD2    C4 7097   4.223   4.553  11.707 -0.1507  0.2502 -0.0407
  477MPD2    C5 7098   4.170   4.559  11.580 -0.3535  0.1310 -0.0301
  477MPD2     H 7099   4.166   0.160  11.784 -0.4076 -1.5738  0.6426
  477MPD2    H1 7100   4.253   4.459  11.750 -1.4168  0.3604  1.0870
  477MPD2    H2 7101   4.086   4.658  11.416 -0.6748  0.1270  0.0757
  477MPD2    H3 7102   4.159   4.467  11.523 -0.0561  0.1423 -0.1083
  477MPD2     N 7103   4.237   4.656  11.918 -0.5388  0.2369  0.0208
  477MPD2    H5 7104   4.243   4.563  11.959 -1.4489  0.7914  1.4441
  477MPD2    N1 7105   4.086   0.182  11.524  0.1756  0.3110  0.1764
  477MPD2    H7 7106   4.041   0.171  11.433  3.1178  1.2101 -1.3708
  478TMC3    C1 7107   4.058   0.414  11.472 -0.3236 -0.4899 -0.4385
  478TMC3    C2 7108   4.018   0.527  11.531 -0.0742 -0.5603 -0.6044
  478TMC3    C3 7109   3.978   0.635  11.459 -0.4756  1.2310  0.0564
  478TMC3    C4 7110   4.076   0.398  11.338 -0.0997 -0.0018  0.7746
  478TMC3    C5 7111   4.025   0.505  11.262 -0.0186  0.0370  0.7341
  478TMC3    C6 7112   3.976   0.621  11.320 -0.0600 -0.0095 -0.4502
  478TMC3     C 7113   4.114   0.316  11.560  0.6648  0.6795  0.1337
  478TMC3     O 7114   4.170   0.355  11.662  0.0293 -0.7125  0.4271
  478TMC3     H 7115   4.013   0.529  11.639 -3.1831 -1.1256 -0.7447
  478TMC3    H1 7116   4.120   0.310  11.293 -0.5469 -0.6292  1.5594
  478TMC3    H2 7117   3.964   0.705  11.252 -3.5530 -1.2386 -1.3478
  478TMC3    C7 7118   4.059   0.506  11.121  0.1392  0.0819  0.5664
  478TMC3    C8 7119   4.009   0.769  11.517  0.3501  0.5523  0.3187
  478TMC3    O1 7120   4.146   0.431  11.084 -0.3874 -0.1789 -0.5928
  478TMC3    O2 7121   4.079   0.763  11.617 -0.3550 -0.0930 -0.1817
  479MPD2     C 7122   3.680   2.855  14.894 -0.1852  0.8320 -0.5377
  479MPD2    C1 7123   3.624   2.786  14.999  0.0150  0.2261 -0.3772
  479MPD2    C2 7124   3.693   2.780  15.120  0.3797 -0.2331  0.3602
  479MPD2    C3 7125   3.811   2.850  15.143  0.4242 -0.1664  0.1258
  479MPD2    C4 7126   3.859   2.929  15.039 -0.2946  0.3794  0.1335
  479MPD2    C5 7127   3.794   2.932  14.923  0.6527 -0.4098  0.4335
  479MPD2     H 7128   3.662   2.716  15.202  0.7588 -1.1662 -0.2276
  479MPD2    H1 7129   3.948   2.991  15.045  1.3401 -1.9688  0.3837
  479MPD2    H2 7130   3.630   2.858  14.798 -0.8298 -3.0390 -0.3114
  479MPD2    H3 7131   3.844   2.986  14.844  0.1544 -1.1404 -0.3846
  479MPD2     N 7132   3.875   2.868  15.270 -0.0498 -0.3583 -0.2273
  479MPD2    H5 7133   3.974   2.889  15.260 -0.8603  2.5406 -2.1098
  479MPD2    N1 7134   3.504   2.714  14.972 -0.3415 -0.3041 -0.4294
  479MPD2    H7 7135   3.458   2.720  14.882 -2.0957 -0.4516  0.4577
  480TMC3    C1 7136   3.551   2.818  15.612 -0.0457  0.7641  0.1029
  480TMC3    C2 7137   3.458   2.894  15.547  0.0418  0.2147  0.1543
  480TMC3    C3 7138   3.490   2.949  15.424 -0.4801 -0.2947  0.6889
  480TMC3    C4 7139   3.665   2.793  15.552 -0.5345 -0.2582 -0.6876
  480TMC3    C5 7140   3.699   2.848  15.426 -0.0768  0.2187  0.2055
  480TMC3    C6 7141   3.614   2.932  15.364 -0.7629  0.0012 -0.1493
  480TMC3     C 7142   3.524   2.748  15.736 -0.3765 -0.2984  0.1120
  480TMC3     O 7143   3.597   2.652  15.760  0.0159 -0.5551 -0.0113
  480TMC3     H 7144   3.357   2.902  15.588  0.6788 -2.4100  2.2013
  480TMC3    H1 7145   3.735   2.736  15.611 -0.7663  0.4525  0.2843
  480TMC3    H2 7146   3.647   2.990  15.278  0.6168 -2.2400 -1.1138
  480TMC3    C7 7147   3.839   2.837  15.399 -0.5380 -0.1687  0.0500
  480TMC3    C8 7148   3.379   2.995  15.351 -0.0146 -1.0281 -0.1543
  480TMC3    O1 7149   3.914   2.839  15.493  0.6794 -0.3885 -0.4012
  480TMC3    O2 7150   3.273   2.966  15.397  0.3287 -0.1436  0.2524
  481MPD2     C 7151   0.410   2.158  14.070 -0.6183  0.0753  0.2314
  481MPD2    C1 7152   0.298   2.131  14.149 -0.6043  0.3566 -0.1143
  481MPD2    C2 7153   0.314   2.090  14.279  0.4827  0.1935  0.3030
  481MPD2    C3 7154   0.435   2.079  14.344 -0.3042 -0.4927 -0.6480
  481MPD2    C4 7155   0.549   2.095  14.263  0.4475 -0.4489  0.2498
  481MPD2    C5 7156   0.531   2.141  14.133 -0.9620 -0.8440  0.2396
  481MPD2     H 7157   0.221   2.073  14.332  0.8540 -0.8949  0.6049
  481MPD2    H1 7158   0.646   2.087  14.311  0.0579  0.7198  1.2252
  481MPD2    H2 7159   0.407   2.181  13.964 -2.4668 -0.3932  0.1896
  481MPD2    H3 7160   0.613   2.154  14.063 -2.4859 -0.0056 -1.3754
  481MPD2     N 7161   0.450   2.024  14.475  0.0667 -1.0789 -1.0070
  481MPD2    H5 7162   0.544   2.008  14.510 -0.0714  0.0786 -0.1078
  481MPD2    N1 7163   0.171   2.137  14.080 -0.0738  0.4064 -0.1626
  481MPD2    H7 7164   0.181   2.182  13.990  0.3601  0.0489 -0.2889
  482TMC3    C1 7165   4.653   2.114  14.044  0.1123  0.8792  0.2769
  482TMC3    C2 7166   4.553   2.020  14.044  0.1350 -0.1129 -0.0054
  482TMC3    C3 7167   4.446   2.047  13.962  0.7241  0.3077 -0.0066
  482TMC3    C4 7168   4.637   2.239  13.992 -0.2131 -0.6121  0.2422
  482TMC3    C5 7169   4.519   2.271  13.926  0.0428  0.2000  0.8401
  482TMC3    C6 7170   4.423   2.175  13.915 -0.3001  0.0505 -0.8521
  482TMC3     C 7171   0.051   2.073  14.117 -0.3669 -0.1340 -0.0137
  482TMC3     O 7172   0.031   1.998  14.211 -0.5318 -0.3240 -0.0372
  482TMC3     H 7173   4.564   1.923  14.091 -0.6388 -0.0753  0.2508
  482TMC3    H1 7174   4.712   2.314  14.014  0.4487 -1.1643 -0.1050
  482TMC3    H2 7175   4.334   2.202  13.858 -1.4107 -0.1220  0.8152
  482TMC3    C7 7176   4.523   2.387  13.830 -0.0858 -0.6606  0.1352
  482TMC3    C8 7177   4.370   1.930  13.926 -0.0004  0.0197  0.2443
  482TMC3    O1 7178   4.602   2.478  13.860  0.5807 -0.3240 -0.0456
  482TMC3    O2 7179   4.426   1.823  13.945  0.0151 -0.0547  0.2542
  483TMC3    C1 7180   2.394   1.159   0.319  0.6913  0.0540  0.6614
  483TMC3    C2 7181   2.345   1.283   0.325 -0.2596  0.2361 -0.3441
  483TMC3    C3 7182   2.361   1.346   0.442  0.0808  0.0388 -0.8198
  483TMC3    C4 7183   2.458   1.091   0.426  0.2039 -0.0325 -0.3451
  483TMC3    C5 7184   2.450   1.154   0.545 -0.2861 -0.5933  0.9537
  483TMC3    C6 7185   2.413   1.283   0.552 -0.3108 -0.3666 -0.8465
  483TMC3     C 7186   2.400   1.097   0.191  0.2100  0.2536 -0.1319
  483TMC3     O 7187   2.396   1.162   0.092 -0.1906 -0.2797 -0.1206
  483TMC3     H 7188   2.292   1.324   0.240 -1.6438 -0.9694 -0.0634
  483TMC3    H1 7189   2.520   1.003   0.410 -0.3689 -0.8243  1.8260
  483TMC3    H2 7190   2.425   1.334   0.647 -1.4300  1.6320 -1.7691
  483TMC3    C7 7191   2.547   1.106   0.638 -0.7251  0.5772  0.7755
  483TMC3    C8 7192   2.390   1.489   0.439  0.0287 -0.7469  0.5613
  483TMC3    O1 7193   2.620   1.193   0.685 -0.2645 -0.0783 -0.3222
  483TMC3    O2 7194   2.319   1.563   0.368 -0.3936 -0.2914 -0.0016
  484MPD2     C 7195   0.891   3.690  12.244  0.1244 -0.2217 -0.0920
  484MPD2    C1 7196   0.830   3.765  12.338 -0.0389 -0.4623  0.6576
  484MPD2    C2 7197   0.895   3.870  12.399  0.1014  0.6877  0.2847
  484MPD2    C3 7198   1.023   3.900  12.361  0.3732 -0.4538 -0.2868
  484MPD2    C4 7199   1.084   3.819  12.266  0.3294 -0.6081  0.4076
  484MPD2    C5 7200   1.016   3.721  12.206 -0.6100 -0.3452 -0.5351
  484MPD2     H 7201   0.833   3.939  12.456  0.8259  0.5831  1.2046
  484MPD2    H1 7202   1.185   3.848  12.239 -0.7539  1.5074 -1.3520
  484MPD2    H2 7203   0.838   3.601  12.212 -1.5405  0.8384 -0.3004
  484MPD2    H3 7204   1.070   3.662  12.132  0.3959  0.6897 -0.6367
  484MPD2     N 7205   1.101   4.006  12.412  0.5467  0.1124 -0.0728
  484MPD2    H5 7206   1.196   4.006  12.378  0.6636 -1.8872  0.2499
  484MPD2    N1 7207   0.691   3.737  12.375 -0.2083 -0.6435  0.6860
  484MPD2    H7 7208   0.655   3.803  12.444  0.1336 -0.7847  1.0014
  485TMC3    C1 7209   1.155   4.211  12.502 -0.3436  0.0475 -0.7054
  485TMC3    C2 7210   1.268   4.180  12.570 -0.1161  0.3226  0.0952
  485TMC3    C3 7211   1.378   4.262  12.560 -0.9173  0.6278  0.9193
  485TMC3    C4 7212   1.147   4.325  12.419 -0.0312 -0.0920  0.0217
  485TMC3    C5 7213   1.252   4.409  12.411  0.2649  0.2146 -0.4395
  485TMC3    C6 7214   1.366   4.375  12.480 -0.7054 -0.1929 -0.0548
  485TMC3     C 7215   1.052   4.114  12.483 -0.6974  0.7138  0.1394
  485TMC3     O 7216   0.936   4.150  12.508 -0.5767 -0.7476 -0.5690
  485TMC3     H 7217   1.257   4.091  12.631  1.0121  0.5641  0.6582
  485TMC3    H1 7218   1.056   4.347  12.364 -0.1845  0.9432  0.6879
  485TMC3    H2 7219   1.448   4.445  12.472  0.5382 -1.6576  0.0902
  485TMC3    C7 7220   1.284   4.445  12.276 -0.6401 -0.5933 -0.5317
  485TMC3    C8 7221   1.499   4.190  12.563 -0.4361  0.1135  0.3547
  485TMC3    O1 7222   1.294   4.562  12.241  0.1768 -0.4232 -0.7676
  485TMC3    O2 7223   1.498   4.068  12.583  0.8701 -0.1674  0.2134
  486MPD2     C 7224   3.266   2.901  12.697 -0.4122  0.1557  0.0005
  486MPD2    C1 7225   3.145   2.843  12.685  0.0694  0.2787  0.5022
  486MPD2    C2 7226   3.040   2.926  12.689 -0.1468 -0.2507  0.0759
  486MPD2    C3 7227   3.045   3.062  12.703  0.4282 -0.0008  0.5964
  486MPD2    C4 7228   3.166   3.126  12.702 -0.1939  0.1480  0.9735
  486MPD2    C5 7229   3.271   3.039  12.694 -0.0253 -0.7370 -0.2640
  486MPD2     H 7230   2.946   2.874  12.679  1.3813 -3.1326  0.6283
  486MPD2    H1 7231   3.172   3.233  12.723 -1.8426  0.2977  0.7033
  486MPD2    H2 7232   3.360   2.849  12.700  0.4541  1.6206 -1.8796
  486MPD2    H3 7233   3.372   3.079  12.703  0.3019 -1.3657 -1.0833
  486MPD2     N 7234   2.918   3.127  12.705 -0.3366 -0.0160 -0.0187
  486MPD2    H5 7235   2.836   3.067  12.699  1.3099 -2.4683  1.7270
  486MPD2    N1 7236   3.149   2.703  12.701 -0.5596  0.4855 -0.4170
  486MPD2    H7 7237   3.241   2.661  12.693 -0.1525  1.3329 -0.1605
  487TMC3    C1 7238   3.105   2.486  12.763  0.0003 -0.4880  0.1475
  487TMC3    C2 7239   3.057   2.368  12.722  0.4858  0.5403  0.1591
  487TMC3    C3 7240   3.101   2.256  12.784  0.2493 -0.3237 -0.4952
  487TMC3    C4 7241   3.197   2.504  12.865 -0.0419  0.9076 -0.4171
  487TMC3    C5 7242   3.225   2.384  12.938 -0.0215  0.1082 -0.2001
  487TMC3    C6 7243   3.189   2.261  12.887  0.7832 -0.9024  0.1923
  487TMC3     C 7244   3.050   2.606  12.714  0.4283 -0.4474 -0.2720
  487TMC3     O 7245   2.933   2.621  12.680  0.8211 -0.2140 -0.3015
  487TMC3     H 7246   2.977   2.360  12.649  0.0515  2.4985  0.4186
  487TMC3    H1 7247   3.222   2.604  12.900  1.7377  0.0199  0.8070
  487TMC3    H2 7248   3.206   2.169  12.942 -1.0586 -1.1757  0.2934
  487TMC3    C7 7249   3.230   2.390  13.083 -0.4948  0.1969  0.6623
  487TMC3    C8 7250   3.008   2.149  12.813 -0.8529  0.3812  0.4670
  487TMC3    O1 7251   3.208   2.286  13.148  0.2571 -0.4540 -0.1213
  487TMC3    O2 7252   3.050   2.036  12.801 -0.3306  0.6785  0.4904
  488MPD2     C 7253   2.470   4.578  16.175  0.4744 -0.2346  0.0329
  488MPD2    C1 7254   2.560   4.586  16.279 -0.4300  0.4740  0.4505
  488MPD2    C2 7255   2.540   4.531  16.402 -0.0670 -0.2956  0.4883
  488MPD2    C3 7256   2.424   4.468  16.429 -0.2810  0.3378 -0.3280
  488MPD2    C4 7257   2.337   4.445  16.325  0.0471  0.1527 -0.1234
  488MPD2    C5 7258   2.359   4.498  16.201  0.2636 -0.2688  0.2879
  488MPD2     H 7259   2.618   4.546  16.476  0.1005 -0.9698  0.4514
  488MPD2    H1 7260   2.260   4.369  16.326  0.3231 -0.1148  0.5979
  488MPD2    H2 7261   2.476   4.622  16.076 -3.2747  1.2057  0.4369
  488MPD2    H3 7262   2.291   4.483  16.117  3.3900 -2.3450 -1.8687
  488MPD2     N 7263   2.401   4.420  16.557  0.6671  0.1883  0.0755
  488MPD2    H5 7264   2.474   4.426  16.628  0.1798 -0.5550  0.6448
  488MPD2    N1 7265   2.677   4.660  16.268 -0.4174  0.3906  0.8131
  488MPD2    H7 7266   2.737   4.664  16.350 -1.7965 -1.4655  1.8968
  489TMC3    C1 7267   2.282   4.318  16.735 -1.5289  0.3436 -0.2448
  489TMC3    C2 7268   2.403   4.321  16.792  0.0855 -0.4645  0.8646
  489TMC3    C3 7269   2.425   4.234  16.903 -0.4594 -0.8033  0.4216
  489TMC3    C4 7270   2.201   4.211  16.765 -0.3404 -0.2152 -0.2936
  489TMC3    C5 7271   2.224   4.130  16.868  0.4993 -0.1278  0.0809
  489TMC3    C6 7272   2.339   4.132  16.941 -0.7049 -0.3999 -0.3895
  489TMC3     C 7273   2.282   4.362  16.595  0.3017 -0.0476 -0.1521
  489TMC3     O 7274   2.181   4.337  16.537  0.7237  0.0862  0.3573
  489TMC3     H 7275   2.469   4.406  16.788  0.2626 -0.6269  0.2853
  489TMC3    H1 7276   2.111   4.219  16.704  0.1662 -0.2734 -1.0494
  489TMC3    H2 7277   2.365   4.061  17.019 -0.2360 -0.7300 -0.8446
  489TMC3    C7 7278   2.124   4.031  16.895 -0.0824 -0.2961  0.7210
  489TMC3    C8 7279   2.545   4.254  16.979  0.3935  0.0458 -0.5643
  489TMC3    O1 7280   2.013   4.061  16.852  0.6033  0.3517 -0.4335
  489TMC3    O2 7281   2.624   4.330  16.935  0.0230  0.8178  0.1170
  490MPD2     C 7282   4.041   4.083  16.992 -0.3156  0.0460  0.2557
  490MPD2    C1 7283   3.998   4.058  17.119 -0.2830 -0.3577  0.1530
  490MPD2    C2 7284   4.087   4.085  17.218  0.5795  0.1069 -0.8813
  490MPD2    C3 7285   4.214   4.139  17.192  0.1174 -0.8011  0.7834
  490MPD2    C4 7286   4.244   4.171  17.063  0.0609 -0.5429 -0.1509
  490MPD2    C5 7287   4.158   4.151  16.963 -0.0125  0.2459 -0.0585
  490MPD2     H 7288   4.058   4.075  17.322  0.6306 -0.3297 -0.9086
  490MPD2    H1 7289   4.343   4.209  17.044 -0.9721  0.8960 -2.6152
  490MPD2    H2 7290   3.981   4.056  16.906  0.2452  0.5427 -0.2980
  490MPD2    H3 7291   4.180   4.177  16.860  0.3662 -1.4918 -0.4123
  490MPD2     N 7292   4.301   4.182  17.296 -0.1283  0.0972 -0.4822
  490MPD2    H5 7293   4.389   4.220  17.263 -0.9951  1.8094 -0.7930
  490MPD2    N1 7294   3.871   4.003  17.152 -0.4280  0.0602  0.0945
  490MPD2    H7 7295   3.844   3.993  17.249 -0.5991 -1.1004 -0.0761
  491TMC3    C1 7296   3.657   3.921  17.108 -0.5442  0.2061 -0.5625
  491TMC3    C2 7297   3.662   3.822  17.204  0.4626  0.1131 -0.3696
  491TMC3    C3 7298   3.560   3.737  17.233  0.0268  0.3282  0.2947
  491TMC3    C4 7299   3.550   3.925  17.025 -0.3148 -0.7699 -0.1796
  491TMC3    C5 7300   3.447   3.838  17.054 -0.1593  0.0867  0.4481
  491TMC3    C6 7301   3.454   3.740  17.148 -0.1536  0.2716  0.2709
  491TMC3     C 7302   3.772   3.985  17.057 -0.0141  0.5892  0.6468
  491TMC3     O 7303   3.765   4.015  16.937 -0.6114  0.3026 -0.1195
  491TMC3     H 7304   3.753   3.816  17.263  1.1050  0.0717 -1.3550
  491TMC3    H1 7305   3.547   3.995  16.942  2.7540 -1.7308 -1.1018
  491TMC3    H2 7306   3.368   3.681  17.179  0.1185 -0.3677 -0.1999
  491TMC3    C7 7307   3.333   3.835  16.965  0.3768 -0.6896  0.4768
  491TMC3    C8 7308   3.571   3.642  17.337 -0.2051 -0.4786  0.2242
  491TMC3    O1 7309   3.280   3.723  16.954 -0.0069  0.0659 -0.5364
  491TMC3    O2 7310   3.668   3.657  17.410  0.0683  0.1091 -0.1613
  492MPD2     C 7311   3.916   3.686  11.537 -0.4337  0.7857  0.0766
  492MPD2    C1 7312   3.828   3.590  11.501  0.0321  0.3535 -0.7723
  492MPD2    C2 7313   3.742   3.536  11.597  0.0871 -0.1822 -0.7912
  492MPD2    C3 7314   3.763   3.572  11.729 -0.2246  0.0987  0.4765
  492MPD2    C4 7315   3.856   3.667  11.757 -0.4736  0.8760 -0.3252
  492MPD2    C5 7316   3.930   3.731  11.664 -0.1073 -0.3037 -0.0157
  492MPD2     H 7317   3.668   3.463  11.565 -1.7708  1.1778  0.4507
  492MPD2    H1 7318   3.882   3.706  11.854 -0.6071 -3.8305  1.5855
  492MPD2    H2 7319   3.993   3.722  11.469 -0.3597  0.3458 -0.0709
  492MPD2    H3 7320   3.996   3.815  11.681 -0.7206  0.1823 -0.0833
  492MPD2     N 7321   3.688   3.516  11.840 -0.0555 -0.6837 -0.1607
  492MPD2    H5 7322   3.699   3.557  11.932  1.5157 -1.9065  0.2074
  492MPD2    N1 7323   3.813   3.562  11.359 -0.9671  0.3542 -0.2612
  492MPD2    H7 7324   3.883   3.591  11.291 -0.1013 -3.0992 -0.8267
  493TMC3    C1 7325   3.741   3.455  11.163  0.2696  0.1655 -0.1728
  493TMC3    C2 7326   3.795   3.557  11.082  0.1736  0.6186  0.4963
  493TMC3    C3 7327   3.763   3.560  10.947 -0.1812 -0.2099  0.4305
  493TMC3    C4 7328   3.662   3.356  11.114  0.0374 -0.1458 -0.0028
  493TMC3    C5 7329   3.635   3.362  10.977  0.3545 -0.2218 -0.0649
  493TMC3    C6 7330   3.678   3.460  10.894 -0.1689 -0.0022 -0.2132
  493TMC3     C 7331   3.734   3.460  11.306  0.6084  1.0383 -0.0605
  493TMC3     O 7332   3.658   3.384  11.365  0.2641 -0.1628  0.3600
  493TMC3     H 7333   3.852   3.641  11.119  0.5409  0.0004  1.3373
  493TMC3    H1 7334   3.616   3.277  11.173  0.8749 -0.1496  0.6365
  493TMC3    H2 7335   3.636   3.456  10.794 -1.2062  4.7962  0.0152
  493TMC3    C7 7336   3.538   3.271  10.927  0.4093  0.0348  0.7085
  493TMC3    C8 7337   3.853   3.613  10.846 -0.1955  0.5339  0.5349
  493TMC3    O1 7338   3.452   3.326  10.860 -0.8011 -0.6255  0.5919
  493TMC3    O2 7339   3.831   3.574  10.734 -0.5877 -0.3349  0.9388
  494TMC3    C1 7340   0.370   1.366   0.531  0.7240  0.0006 -0.0202
  494TMC3    C2 7341   0.346   1.236   0.564 -0.4609  0.1450  0.2917
  494TMC3    C3 7342   0.438   1.145   0.519 -0.0496  0.3007 -0.2892
  494TMC3    C4 7343   0.472   1.410   0.458  0.2721  0.3223  0.0879
  494TMC3    C5 7344   0.556   1.316   0.417  0.8269 -0.2201 -0.3322
  494TMC3    C6 7345   0.543   1.185   0.445 -0.3442 -0.2368 -0.3552
  494TMC3     C 7346   0.247   1.452   0.504  0.5634 -0.4771 -0.1397
  494TMC3     O 7347   0.154   1.408   0.432  0.0882 -0.1286  0.2884
  494TMC3     H 7348   0.258   1.208   0.621 -0.2832  0.0426  0.5184
  494TMC3    H1 7349   0.483   1.511   0.421  0.9020  0.9723  2.0041
  494TMC3    H2 7350   0.594   1.114   0.380  0.4154 -0.8594  0.9258
  494TMC3    C7 7351   0.597   1.340   0.278 -0.1011 -0.3676  0.1703
  494TMC3    C8 7352   0.437   1.012   0.560 -0.4000  0.6374  0.0920
  494TMC3    O1 7353   0.538   1.274   0.193  0.1235 -0.0719  0.0775
  494TMC3    O2 7354   0.545   0.948   0.559  0.4146  0.1460  0.0847
  495TMC3    C1 7355   3.682   3.018  14.438 -0.2242  0.6883  0.2432
  495TMC3    C2 7356   3.587   3.009  14.341  0.6315 -0.2807 -0.7114
  495TMC3    C3 7357   3.456   3.057  14.358 -0.0170  0.5390  0.0480
  495TMC3    C4 7358   3.656   3.095  14.544  0.1507 -0.5600 -0.0887
  495TMC3    C5 7359   3.527   3.130  14.568  0.1544  0.0442  0.3099
  495TMC3    C6 7360   3.425   3.118  14.473 -0.8563  1.2340 -0.5836
  495TMC3     C 7361   3.738   2.887  14.456  0.4433  0.0750  1.0334
  495TMC3     O 7362   3.693   2.803  14.375 -0.2136 -0.2152 -0.0236
  495TMC3     H 7363   3.613   2.963  14.247  1.6569 -1.7446  0.3000
  495TMC3    H1 7364   3.730   3.098  14.623 -0.4034  0.7023  0.3903
  495TMC3    H2 7365   3.336   3.176  14.495 -0.5850  1.7457 -0.8249
  495TMC3    C7 7366   3.488   3.133  14.706 -0.0052  0.1624 -0.3202
  495TMC3    C8 7367   3.358   2.953  14.325 -0.2164 -0.5287  0.0008
  495TMC3    O1 7368   3.576   3.169  14.783  0.4121 -0.0640 -0.3683
  495TMC3    O2 7369   3.250   2.966  14.383  0.2692 -0.3818 -0.2094
  496MPD2     C 7370   0.445   2.821  14.929 -0.1891  0.9596  0.5578
  496MPD2    C1 7371   0.490   2.752  15.036  0.4728 -0.5100 -0.3622
  496MPD2    C2 7372   0.398   2.722  15.136  0.4143  0.1109 -0.4399
  496MPD2    C3 7373   0.279   2.787  15.136  0.0644  0.0297 -0.3993
  496MPD2    C4 7374   0.238   2.862  15.028  0.5173 -0.2233  0.6034
  496MPD2    C5 7375   0.321   2.873  14.924 -0.4871  0.0527  0.4549
  496MPD2     H 7376   0.424   2.661  15.222  0.7389 -2.0381 -2.0510
  496MPD2    H1 7377   0.138   2.901  15.019  1.0774  1.0467 -0.0950
  496MPD2    H2 7378   0.508   2.821  14.840 -0.4205 -0.5646  0.3995
  496MPD2    H3 7379   0.278   2.910  14.832 -0.1885 -1.8139 -0.4149
  496MPD2     N 7380   0.191   2.780  15.245 -0.2142 -0.6276  0.1971
  496MPD2    H5 7381   0.104   2.829  15.226 -0.4521 -1.1369 -0.0336
  496MPD2    N1 7382   0.619   2.697  15.034  0.3576  0.1782  0.0383
  496MPD2    H7 7383   0.665   2.706  14.944 -0.7883  0.8915 -0.4797
  497TMC3    C1 7384   0.096   2.748  15.448 -0.4968 -0.3194 -0.2637
  497TMC3    C2 7385   4.696   2.770  15.386  0.1487 -0.1516 -0.1960
  497TMC3    C3 7386   4.592   2.826  15.461 -0.1836 -0.3733  0.2579
  497TMC3    C4 7387   0.112   2.784  15.577 -0.4522 -0.4459  0.0805
  497TMC3    C5 7388   0.002   2.823  15.645 -0.7385  0.7167  0.1460
  497TMC3    C6 7389   4.610   2.863  15.588  0.3570 -1.0670  0.0770
  497TMC3     C 7390   0.222   2.739  15.370  0.4685 -0.5136  0.8604
  497TMC3     O 7391   0.325   2.702  15.424 -0.2634  0.5546  0.8561
  497TMC3     H 7392   4.678   2.742  15.282  1.1952  2.2590 -1.0247
  497TMC3    H1 7393   0.209   2.776  15.625 -0.1832  1.3408 -0.1997
  497TMC3    H2 7394   4.521   2.875  15.650 -0.1073  1.2835 -1.0473
  497TMC3    C7 7395   0.010   2.846  15.787 -0.5154  0.5434 -0.4449
  497TMC3    C8 7396   4.478   2.868  15.390  0.1510 -0.5803  0.6726
  497TMC3    O1 7397   4.633   2.818  15.856 -0.4221 -0.2629  0.3519
  497TMC3    O2 7398   4.471   2.823  15.274  0.6172 -0.0272 -0.2449
  498MPD2     C 7399   1.518   3.271   9.688  0.8135 -0.1156  0.3810
  498MPD2    C1 7400   1.438   3.383   9.719  0.0448  0.4872 -0.1440
  498MPD2    C2 7401   1.300   3.365   9.738  0.7995  0.1080  0.2701
  498MPD2    C3 7402   1.238   3.242   9.710 -0.5935  0.1583 -0.1980
  498MPD2    C4 7403   1.315   3.138   9.674  1.0753 -0.2181 -0.5754
  498MPD2    C5 7404   1.451   3.148   9.673  0.0322  0.7493  0.2099
  498MPD2     H 7405   1.229   3.444   9.760  0.1678  0.2732 -2.4023
  498MPD2    H1 7406   1.264   3.045   9.654 -1.1110  0.9670 -0.5376
  498MPD2    H2 7407   1.624   3.267   9.666  1.0200  0.7858  1.2239
  498MPD2    H3 7408   1.506   3.062   9.637  1.0728  1.2407  0.6593
  498MPD2     N 7409   1.095   3.229   9.717  0.0625  0.1306 -0.2451
  498MPD2    H5 7410   1.049   3.302   9.771 -2.8599 -1.8572 -0.0712
  498MPD2    N1 7411   1.492   3.514   9.728 -0.3185 -0.3424  0.0294
  498MPD2    H7 7412   1.426   3.591   9.731  1.3121  0.9691  2.3433
  499TMC3    C1 7413   1.660   3.676   9.737  0.1782 -0.7318  0.8509
  499TMC3    C2 7414   1.785   3.696   9.787 -0.1658  0.6478 -0.1786
  499TMC3    C3 7415   1.839   3.822   9.763  0.0079 -0.5282 -0.6456
  499TMC3    C4 7416   1.591   3.780   9.676 -0.0764  0.5375 -0.8108
  499TMC3    C5 7417   1.655   3.899   9.647  0.1924 -0.1246 -0.6079
  499TMC3    C6 7418   1.778   3.920   9.696 -0.0977 -0.5190  0.0202
  499TMC3     C 7419   1.626   3.538   9.745  0.5192 -0.2152  0.1195
  499TMC3     O 7420   1.710   3.451   9.774  0.2543  0.4524 -0.0540
  499TMC3     H 7421   1.828   3.621   9.852 -1.6056  0.1884  0.2552
  499TMC3    H1 7422   1.494   3.767   9.629 -1.6668 -0.1980  2.6468
  499TMC3    H2 7423   1.825   4.018   9.696  0.9308 -1.0045  1.5793
  499TMC3    C7 7424   1.595   4.001   9.565  0.0858 -0.9494  0.4116
  499TMC3    C8 7425   1.977   3.839   9.785  0.3209  0.1710 -0.4465
  499TMC3    O1 7426   1.642   4.114   9.574  0.5828 -0.5031  0.8133
  499TMC3    O2 7427   2.033   3.912   9.705  0.0491 -0.5382 -0.3896
  500MPD2     C 7428   2.809   4.212  10.217 -0.1555 -0.0263 -0.0773
  500MPD2    C1 7429   2.838   4.324  10.146 -0.9880  0.0251 -0.0336
  500MPD2    C2 7430   2.734   4.379  10.072  0.7590  0.4031  0.6037
  500MPD2    C3 7431   2.611   4.319  10.067 -0.6053 -0.8910 -0.5999
  500MPD2    C4 7432   2.591   4.201  10.129 -0.8111 -0.7449  0.0494
  500MPD2    C5 7433   2.686   4.146  10.212  0.4539 -0.3068  0.0560
  500MPD2     H 7434   2.747   4.473  10.020 -0.8849 -0.4910 -1.4154
  500MPD2    H1 7435   2.496   4.150  10.121 -2.0736  1.8498 -1.6709
  500MPD2    H2 7436   2.877   4.164  10.286 -0.3070  1.0723  0.8225
  500MPD2    H3 7437   2.680   4.052  10.266 -0.3692 -0.8244 -0.9438
  500MPD2     N 7438   2.493   4.375  10.007 -0.0431 -0.0038  0.4518
  500MPD2    H5 7439   2.411   4.315  10.013  2.4211 -3.7662 -3.0155
  500MPD2    N1 7440   2.961   4.390  10.151 -0.3102  0.1083  0.4328
  500MPD2    H7 7441   2.975   4.471  10.093 -1.3371 -0.5167 -0.6951
  501TMC3    C1 7442   3.185   4.440  10.214  0.3063 -0.1658 -0.0300
  501TMC3    C2 7443   3.193   4.533  10.117  0.2569  0.0911 -0.1388
  501TMC3    C3 7444   3.274   4.640  10.133 -0.3332  0.3054  0.3942
  501TMC3    C4 7445   3.264   4.456  10.324 -0.6214  0.8630  0.0755
  501TMC3    C5 7446   3.348   4.561  10.336  0.3861 -1.0885  0.5030
  501TMC3    C6 7447   3.359   4.652  10.237 -0.1328 -0.3833  1.0776
  501TMC3     C 7448   3.075   4.350  10.221 -0.0990  0.2880 -0.3935
  501TMC3     O 7449   3.087   4.248  10.285  0.0496  0.2549 -0.2030
  501TMC3     H 7450   3.134   4.534  10.025 -0.5705  0.9706  0.4079
  501TMC3    H1 7451   3.247   4.391  10.409  2.2480  0.1778  0.1389
  501TMC3    H2 7452   3.437   0.004  10.235  2.2823 -2.8522  1.7037
  501TMC3    C7 7453   3.416   4.583  10.467  0.1239  0.2009  0.5413
  501TMC3    C8 7454   3.273   0.021  10.032 -0.0949 -0.0329  0.4207
  501TMC3    O1 7455   3.444   4.484  10.527 -0.2491 -0.0702  0.0788
  501TMC3    O2 7456   3.227   4.722   9.922  0.1994 -0.3152  0.7630
  502TMC3    C1 7457   2.634   3.171  14.616  0.2287  0.2152 -0.1130
  502TMC3    C2 7458   2.660   3.296  14.556  0.5085 -0.3431  0.4339
  502TMC3    C3 7459   2.560   3.389  14.542  0.0047 -0.6212  0.1702
  502TMC3    C4 7460   2.510   3.144  14.655 -0.5974  0.2635  0.6058
  502TMC3    C5 7461   2.413   3.236  14.634 -0.4443  0.5309 -0.1294
  502TMC3    C6 7462   2.433   3.355  14.578 -0.0646  0.6047  0.2471
  502TMC3     C 7463   2.723   3.158  14.737  0.2718  0.5305 -0.5844
  502TMC3     O 7464   2.844   3.168  14.715  0.3411 -0.1581  0.1458
  502TMC3     H 7465   2.762   3.318  14.526 -0.2395  1.4033 -0.8445
  502TMC3    H1 7466   2.484   3.047  14.695 -1.2112 -0.2423 -1.0309
  502TMC3    H2 7467   2.358   3.432  14.569 -0.4922  0.0531 -0.8816
  502TMC3    C7 7468   2.322   3.239  14.746 -0.3622 -0.1583  0.9536
  502TMC3    C8 7469   2.590   3.519  14.582  0.3451  0.3769  0.9149
  502TMC3    O1 7470   2.369   3.177  14.837  0.0166 -0.3318  0.5790
  502TMC3    O2 7471   2.520   3.609  14.541  0.3021  0.1520 -0.3192
  503MPD2     C 7472   4.500   0.217  17.151 -0.3999  0.4423 -0.0466
  503MPD2    C1 7473   4.550   0.221  17.282  0.3758  0.4420  0.5543
  503MPD2    C2 7474   4.649   0.137  17.324  0.2316  1.0372  0.4321
  503MPD2    C3 7475   4.698   0.043  17.238  0.1203  0.0415  0.1057
  503MPD2    C4 7476   4.646   0.037  17.115 -0.5785 -0.3342 -0.2222
  503MPD2    C5 7477   4.549   0.120  17.067  0.1434  0.6221  0.1485
  503MPD2     H 7478   4.703   0.159  17.415 -1.1988  1.7098  1.1198
  503MPD2    H1 7479   4.687   4.692  17.041  1.2219  1.4640 -0.8817
  503MPD2    H2 7480   4.413   0.275  17.121 -0.8159  0.8062  1.9119
  503MPD2    H3 7481   4.525   0.100  16.963  0.9122 -0.5145  0.1933
  503MPD2     N 7482   0.089   4.698  17.284 -0.1209 -0.3198 -0.6643
  503MPD2    H5 7483   0.129   0.001  17.373 -3.9316  1.7482  0.4277
  503MPD2    N1 7484   4.514   0.319  17.380  0.3238  0.0090  0.0620
  503MPD2    H7 7485   4.566   0.306  17.466  1.2359  0.5594 -0.4020
  504TMC3    C1 7486   0.269   4.547  17.284 -0.0315  0.4574 -0.8813
  504TMC3    C2 7487   0.278   4.543  17.420  0.0565 -0.3416 -0.1611
  504TMC3    C3 7488   0.380   4.485  17.483 -0.1954  0.8503 -0.7889
  504TMC3    C4 7489   0.369   4.496  17.207  0.1599  0.6659  0.0569
  504TMC3    C5 7490   0.473   4.434  17.274  0.1717 -0.0898  0.5777
  504TMC3    C6 7491   0.474   4.424  17.409  0.5457 -0.3321 -0.3020
  504TMC3     C 7492   0.159   4.607  17.208  0.1901  0.5924 -0.1525
  504TMC3     O 7493   0.151   4.574  17.091 -0.1074 -0.8247  0.4529
  504TMC3     H 7494   0.207   4.604  17.475 -0.0597 -0.4609 -0.1799
  504TMC3    H1 7495   0.389   4.513  17.102 -2.3581 -4.1423 -1.1550
  504TMC3    H2 7496   0.558   4.388  17.467  2.0025  2.7198 -0.5159
  504TMC3    C7 7497   0.570   4.352  17.190  0.0711  0.4038 -0.1621
  504TMC3    C8 7498   0.374   4.474  17.621 -0.3874 -0.8934 -1.3833
  504TMC3    O1 7499   0.571   4.378  17.070  0.0626 -0.1916  0.2306
  504TMC3    O2 7500   0.290   4.549  17.673  0.2750 -0.3474 -0.0368
  505MPD2     C 7501   4.577   2.518  10.288  0.1813 -0.1800  0.6885
  505MPD2    C1 7502   4.709   2.481  10.322 -0.1437 -0.0545  0.4524
  505MPD2    C2 7503   0.062   2.563  10.404 -0.1722  0.5447  0.4258
  505MPD2    C3 7504   0.009   2.675  10.453  0.1686 -0.2233 -0.5543
  505MPD2    C4 7505   4.599   2.707  10.423  0.3061  0.4034  0.7230
  505MPD2    C5 7506   4.528   2.637  10.329 -0.6470 -0.4028 -0.3200
  505MPD2     H 7507   0.165   2.537  10.425 -0.3108 -0.3332  0.0356
  505MPD2    H1 7508   4.547   2.790  10.469  0.6652  1.1804 -0.2793
  505MPD2    H2 7509   4.522   2.457  10.217  0.9435 -0.8321  0.6567
  505MPD2    H3 7510   4.428   2.666  10.300  0.3140  1.4011 -1.8034
  505MPD2     N 7511   0.092   2.750  10.548  0.4911 -0.3210 -0.3443
  505MPD2    H5 7512   0.182   2.708  10.571  0.7479  0.2255 -0.3613
  505MPD2    N1 7513   0.031   2.349  10.281 -0.1237  0.0254 -0.2840
  505MPD2    H7 7514   4.698   2.304  10.209  0.3250 -1.0356  0.0309
  506TMC3    C1 7515   0.202   2.207  10.218  0.1335 -0.2184 -0.4168
  506TMC3    C2 7516   0.181   2.245  10.092 -0.1394 -0.2477  0.4654
  506TMC3    C3 7517   0.290   2.244  10.012 -0.2820 -0.0904  0.3167
  506TMC3    C4 7518   0.320   2.158  10.265 -0.9871 -0.0315 -0.3194
  506TMC3    C5 7519   0.427   2.155  10.175  0.2480  0.0281  0.1664
  506TMC3    C6 7520   0.411   2.199  10.049 -0.1734 -0.1434  0.0843
  506TMC3     C 7521   0.152   2.297  10.315 -0.0227 -0.3626 -0.0777
  506TMC3     O 7522   0.237   2.327  10.395 -0.2175 -0.3076 -0.1199
  506TMC3     H 7523   0.090   2.288  10.050  0.8780 -0.2181 -1.6726
  506TMC3    H1 7524   0.321   2.123  10.368  3.0797  0.0210 -0.3328
  506TMC3    H2 7525   0.493   2.191   9.978  0.2400  0.0235  0.5483
  506TMC3    C7 7526   0.546   2.191  10.245 -0.2914  0.6762 -0.7212
  506TMC3    C8 7527   0.271   2.308   9.883  0.2091  0.8035 -0.2782
  506TMC3    O1 7528   0.654   2.174  10.186  0.3398 -0.1366  0.2765
  506TMC3    O2 7529   0.161   2.326   9.831  0.0185  0.1886  0.5983
  507TMC3    C1 7530   2.046   4.619  14.644  0.3229  0.5512  0.7015
  507TMC3    C2 7531   2.089   4.652  14.520  0.0862  0.5835 -0.3513
  507TMC3    C3 7532   2.031   0.033  14.446 -0.8212  0.0856  0.3579
  507TMC3    C4 7533   1.942   4.695  14.694 -0.4719  0.0067 -0.5228
  507TMC3    C5 7534   1.893   0.083  14.625 -0.6060 -0.4655 -0.0243
  507TMC3    C6 7535   1.943   0.117  14.506 -0.3935  0.5675  0.8346
  507TMC3     C 7536   2.125   4.540  14.738 -0.2436 -0.8456 -0.7441
  507TMC3     O 7537   2.070   4.458  14.813  0.2891  0.1253  0.3745
  507TMC3     H 7538   2.165   4.586  14.479  1.3498  0.6866  1.8548
  507TMC3    H1 7539   1.902   4.657  14.788 -0.6390 -0.2977 -0.7198
  507TMC3    H2 7540   1.921   0.204  14.446 -1.5514  1.2031  2.1842
  507TMC3    C7 7541   1.747   0.105  14.618  0.8408 -0.0019 -0.5005
  507TMC3    C8 7542   1.996   4.716  14.313 -0.0572 -0.0510  1.1933
  507TMC3    O1 7543   1.705   0.151  14.512  0.6623  0.0876 -0.0649
  507TMC3    O2 7544   2.069   4.634  14.259  0.1760  0.1258  0.0850
  508MPD2     C 7545   2.538   1.229  15.840  0.4898 -0.4677  0.0060
  508MPD2    C1 7546   2.528   1.355  15.897 -0.3001  0.5131  0.9054
  508MPD2    C2 7547   2.478   1.453  15.825 -1.0035 -0.3768 -0.1199
  508MPD2    C3 7548   2.441   1.434  15.691  0.2260 -0.5767 -0.3365
  508MPD2    C4 7549   2.438   1.300  15.638 -0.6610 -0.3667 -0.7592
  508MPD2    C5 7550   2.500   1.203  15.711 -0.6429 -0.5603 -0.2367
  508MPD2     H 7551   2.472   1.556  15.857 -1.9117  0.0283 -1.5692
  508MPD2    H1 7552   2.395   1.267  15.545  1.5736 -2.9328 -0.8875
  508MPD2    H2 7553   2.579   1.143  15.892  1.2900 -0.0604  0.0542
  508MPD2    H3 7554   2.496   1.098  15.683 -0.6953 -0.5115 -0.4135
  508MPD2     N 7555   2.381   1.540  15.624  0.3426  0.0972  0.8470
  508MPD2    H5 7556   2.359   1.629  15.668  2.4951  1.4906 -0.8646
  508MPD2    N1 7557   2.561   1.381  16.032 -0.4165 -0.0562  0.2784
  508MPD2    H7 7558   2.532   1.467  16.079  0.9317 -0.1818  1.3398
  509TMC3    C1 7559   2.291   1.835  15.283 -0.3928 -0.5943 -0.2216
  509TMC3    C2 7560   2.386   1.921  15.335 -0.1127 -0.9602 -0.7237
  509TMC3    C3 7561   2.461   1.875  15.446  0.1629  0.1070 -0.0153
  509TMC3    C4 7562   2.266   1.716  15.344 -0.2692  0.1586 -0.3244
  509TMC3    C5 7563   2.347   1.682  15.449 -0.2706  0.5386 -0.6431
  509TMC3    C6 7564   2.440   1.762  15.514  0.2542  0.7524 -0.4083
  509TMC3     C 7565   2.180   1.875  15.197  0.3494 -0.1711 -0.1415
  509TMC3     O 7566   2.093   1.791  15.172 -0.0038  0.1154 -0.4019
  509TMC3     H 7567   2.428   2.008  15.287 -0.3637 -1.8593 -2.5478
  509TMC3    H1 7568   2.198   1.646  15.296 -1.2991  0.0099  1.3369
  509TMC3    H2 7569   2.502   1.727  15.596 -3.2494 -1.8311  1.1382
  509TMC3    C7 7570   2.351   1.547  15.488 -0.0707  0.2482  0.5964
  509TMC3    C8 7571   2.568   1.962  15.508  0.9754  0.3259  0.2114
  509TMC3    O1 7572   2.360   1.462  15.397  0.9031  0.6850  0.2214
  509TMC3    O2 7573   2.643   1.904  15.585 -0.2485 -0.1267 -0.3303
  510MPD2     C 7574   0.173   3.738  14.421  0.1805  0.2108 -0.7468
  510MPD2    C1 7575   0.195   3.627  14.498 -0.1761  0.5340 -0.0629
  510MPD2    C2 7576   0.310   3.555  14.468  0.1003 -0.2300  0.0857
  510MPD2    C3 7577   0.398   3.588  14.363 -0.0211  0.3651 -0.2637
  510MPD2    C4 7578   0.363   3.690  14.280  0.9523 -0.4077 -0.0417
  510MPD2    C5 7579   0.259   3.766  14.317 -0.1091 -0.5470 -0.1277
  510MPD2     H 7580   0.336   3.475  14.536  1.5412 -1.0099 -1.4111
  510MPD2    H1 7581   0.411   3.717  14.186 -1.8294 -0.6423 -1.5579
  510MPD2    H2 7582   0.081   3.792  14.440  0.6962  0.4555  1.1239
  510MPD2    H3 7583   0.222   3.849  14.259 -0.6073  0.5721  1.7664
  510MPD2     N 7584   0.511   3.505  14.346  0.4916  0.0211  0.6492
  510MPD2    H5 7585   0.513   3.416  14.394  0.5460 -0.7321 -0.7381
  510MPD2    N1 7586   0.115   3.572  14.599 -0.6166  0.3563  0.0456
  510MPD2    H7 7587   0.159   3.500  14.654  0.2484  1.6594  1.0603
  511TMC3    C1 7588   4.637   3.505  14.703  0.2024 -0.8542  0.0056
  511TMC3    C2 7589   4.518   3.535  14.758 -0.0343 -0.2504  0.0963
  511TMC3    C3 7590   4.449   3.434  14.817 -0.7260 -0.2111  0.0755
  511TMC3    C4 7591   4.689   3.385  14.713  1.1211 -0.4382  0.1546
  511TMC3    C5 7592   4.619   3.288  14.789  0.0358 -0.2742  0.7400
  511TMC3    C6 7593   4.497   3.309  14.840 -0.1069 -0.8771  0.1922
  511TMC3     C 7594   4.715   3.616  14.642  0.1008 -0.3174 -0.4163
  511TMC3     O 7595   4.649   3.709  14.602 -0.5251 -0.0187 -0.9311
  511TMC3     H 7596   4.488   3.636  14.733 -1.3310 -1.4838 -3.3025
  511TMC3    H1 7597   0.056   3.350  14.664 -0.2661 -0.3241 -2.4669
  511TMC3    H2 7598   4.449   3.247  14.915 -0.9816  2.0006  1.9985
  511TMC3    C7 7599   4.643   3.150  14.753  0.0312  0.3188  0.3024
  511TMC3    C8 7600   4.319   3.471  14.867 -0.4734  0.2552 -0.3470
  511TMC3    O1 7601   4.714   3.128  14.651 -0.1235  0.1378 -0.7975
  511TMC3    O2 7602   4.302   3.588  14.894 -0.1226 -0.1281  0.0706
  512TMC3    C1 7603   3.610   2.463  13.009 -0.4753  0.3600  0.2667
  512TMC3    C2 7604   3.663   2.407  13.123 -0.3695 -0.2701  0.4173
  512TMC3    C3 7605   3.689   2.275  13.118 -0.2474  0.2011  0.7368
  512TMC3    C4 7606   3.576   2.390  12.900 -0.2296  0.0378  0.4997
  512TMC3    C5 7607   3.591   2.254  12.902  0.5734  0.1084 -0.0186
  512TMC3    C6 7608   3.654   2.196  13.009 -0.3577 -0.5485  0.0674
  512TMC3     C 7609   3.562   2.605  13.013  0.4507  0.2161  0.0547
  512TMC3     O 7610   3.455   2.635  12.968 -0.6577 -0.2657  0.7545
  512TMC3     H 7611   3.675   2.467  13.212 -0.5536  0.8351 -0.2993
  512TMC3    H1 7612   3.525   2.434  12.815  1.7266 -0.6873 -1.0555
  512TMC3    H2 7613   3.677   2.091  13.026  1.4432 -0.2956 -0.7343
  512TMC3    C7 7614   3.539   2.181  12.791  0.6133  0.0149  0.3439
  512TMC3    C8 7615   3.734   2.206  13.241 -0.3333  0.7849 -0.0458
  512TMC3    O1 7616   3.480   2.244  12.700  0.0692 -0.5313  0.2721
  512TMC3    O2 7617   3.712   2.085  13.256 -0.2009  0.1276 -0.4552
  513MPD2     C 7618   0.234   3.033  13.494  0.1646  1.2798  0.5797
  513MPD2    C1 7619   0.234   2.934  13.399 -1.0066  0.0495  0.2622
  513MPD2    C2 7620   0.283   2.808  13.431 -0.7108 -0.5521  0.4044
  513MPD2    C3 7621   0.324   2.774  13.561 -0.0025 -0.5980 -0.4797
  513MPD2    C4 7622   0.325   2.874  13.653  0.5972 -0.1758  0.4421
  513MPD2    C5 7623   0.286   3.001  13.614 -0.3889 -0.2718 -0.0739
  513MPD2     H 7624   0.292   2.729  13.357  2.8183  3.3571 -3.3423
  513MPD2    H1 7625   0.366   2.857  13.752 -0.0670  0.5930  0.8532
  513MPD2    H2 7626   0.204   3.135  13.474 -1.2559  0.4851 -1.2833
  513MPD2    H3 7627   0.314   3.083  13.678  0.8850 -0.9166  0.1902
  513MPD2     N 7628   0.392   2.653  13.581 -0.3721  0.6535  0.2493
  513MPD2    H5 7629   0.398   2.588  13.503 -2.5116  0.7412  0.0063
  513MPD2    N1 7630   0.197   2.949  13.267 -0.6578 -0.6556  0.4855
  513MPD2    H7 7631   0.202   2.864  13.212 -2.8284 -0.3030 -0.2755
  514TMC3    C1 7632   0.196   3.042  13.049  0.0185  0.2454 -0.1246
  514TMC3    C2 7633   0.307   3.089  12.991  0.9537 -0.4264  0.1625
  514TMC3    C3 7634   0.373   3.026  12.889 -0.4686  0.3423 -0.0542
  514TMC3    C4 7635   0.144   2.927  13.001 -0.2060  0.3862 -0.1499
  514TMC3    C5 7636   0.221   2.849  12.916  0.0092 -0.2197  0.3770
  514TMC3    C6 7637   0.328   2.905  12.846 -0.6136  0.1473  0.5092
  514TMC3     C 7638   0.194   3.066  13.194  0.1301  0.7244  0.0119
  514TMC3     O 7639   0.237   3.177  13.229  0.4158 -0.0126  1.1392
  514TMC3     H 7640   0.353   3.174  13.040  2.7682 -1.7478  0.7477
  514TMC3    H1 7641   0.066   2.871  13.052 -1.2139  1.6869 -0.2925
  514TMC3    H2 7642   0.393   2.846  12.782 -0.6986 -0.7241  1.2290
  514TMC3    C7 7643   0.239   2.720  12.971  0.1717  0.1399 -0.3594
  514TMC3    C8 7644   0.512   3.064  12.878  0.1163  0.2997  0.0660
  514TMC3    O1 7645   0.220   2.704  13.091 -0.0269 -0.5515 -0.2586
  514TMC3    O2 7646   0.565   3.139  12.960  0.1253  0.3216 -0.1131
  515MPD2     C 7647   3.042   4.533  15.287 -0.2515  0.4673 -0.3751
  515MPD2    C1 7648   3.124   4.567  15.181 -0.0588 -0.1738  0.8720
  515MPD2    C2 7649   3.230   4.655  15.205  0.0583 -0.6057  0.3864
  515MPD2    C3 7650   3.261   4.696  15.338 -0.2807  0.4891 -0.7743
  515MPD2    C4 7651   3.190   4.654  15.446  0.0345  0.2458 -0.2440
  515MPD2    C5 7652   3.075   4.579  15.417  0.3129  0.1185  0.5015
  515MPD2     H 7653   3.298   4.678  15.124  0.6413 -0.7299  0.8419
  515MPD2    H1 7654   3.209   4.676  15.551  0.2067  0.7861 -0.3894
  515MPD2    H2 7655   2.962   4.461  15.281  1.3422 -1.2006 -1.5461
  515MPD2    H3 7656   3.009   4.561  15.500 -0.5721 -0.9818 -0.4421
  515MPD2     N 7657   3.380   0.040  15.365  0.2857 -0.5535  0.0061
  515MPD2    H5 7658   3.406   0.057  15.462  1.7959 -0.5678 -0.3866
  515MPD2    N1 7659   3.089   4.505  15.062  0.2611 -0.0154  0.0421
  515MPD2    H7 7660   3.021   4.429  15.072 -0.7667  0.8378 -0.4207
  516TMC3    C1 7661   3.108   4.456  14.833 -0.0521 -0.1741  0.2824
  516TMC3    C2 7662   3.102   4.506  14.702  0.9075  0.4726 -0.3784
  516TMC3    C3 7663   3.094   4.414  14.599  0.2594 -0.1011 -0.1777
  516TMC3    C4 7664   3.124   4.325  14.860 -0.2642 -0.2315 -0.4472
  516TMC3    C5 7665   3.102   4.241  14.755  0.0028  0.5956 -0.5640
  516TMC3    C6 7666   3.097   4.280  14.626  0.0371 -0.5509 -0.2197
  516TMC3     C 7667   3.117   4.556  14.941  1.0133 -0.1727 -0.7969
  516TMC3     O 7668   3.153   4.669  14.920 -0.4302  0.5226 -0.0148
  516TMC3     H 7669   3.096   4.614  14.700  2.2545  0.5469 -0.4590
  516TMC3    H1 7670   3.154   4.289  14.958  0.0122  0.7538 -0.1645
  516TMC3    H2 7671   3.087   4.211  14.543 -0.6381 -0.5722 -0.1232
  516TMC3    C7 7672   3.116   4.098  14.780 -0.3768 -0.5340  0.2943
  516TMC3    C8 7673   3.059   4.440  14.462  0.6150  0.4248  0.0283
  516TMC3    O1 7674   3.153   4.064  14.891  0.2167  0.7026 -0.1185
  516TMC3    O2 7675   2.989   4.351  14.410  0.6409 -0.1537  0.4198
  517MPD2     C 7676   3.125   0.973   0.345  0.1039 -0.2847 -0.1861
  517MPD2    C1 7677   3.231   1.033   0.272  0.4337  0.1995 -0.2885
  517MPD2    C2 7678   3.280   1.157   0.310  0.4001 -0.1490  0.4680
  517MPD2    C3 7679   3.214   1.220   0.413 -0.2277 -0.6463 -0.2914
  517MPD2    C4 7680   3.126   1.154   0.495  0.6788 -0.0524 -0.4992
  517MPD2    C5 7681   3.088   1.032   0.462  0.6787 -0.9342  0.5078
  517MPD2     H 7682   3.351   1.212   0.248 -0.2788  0.2511  0.0444
  517MPD2    H1 7683   3.090   1.202   0.585  1.3406  0.3811 -0.4674
  517MPD2    H2 7684   3.098   0.869   0.335  0.9317 -0.7211  2.1634
  517MPD2    H3 7685   3.012   0.985   0.523  0.5150 -1.4036 -0.0660
  517MPD2     N 7686   3.251   1.351   0.452  0.0326 -0.4467  0.1657
  517MPD2    H5 7687   3.184   1.394   0.515 -0.1382  0.1678 -0.4343
  517MPD2    N1 7688   3.301   0.961   0.170  0.4782 -0.5770 -0.3292
  517MPD2    H7 7689   3.378   1.012   0.129  1.4217 -2.4103 -0.8579
  518TMC3    C1 7690   3.363   0.777   0.031  0.6334  0.0488 -0.0139
  518TMC3    C2 7691   3.358   0.642  17.691 -0.1769  0.1775 -0.3611
  518TMC3    C3 7692   3.445   0.580  17.599 -0.2555 -0.5478  0.3401
  518TMC3    C4 7693   3.461   0.860  17.666 -0.3034  0.0776  0.1225
  518TMC3    C5 7694   3.542   0.795  17.578 -0.1303 -0.0523  0.1391
  518TMC3    C6 7695   3.540   0.658  17.546 -0.4080  0.0685 -0.0062
  518TMC3     C 7696   3.269   0.828   0.130 -0.2040  0.2953  0.4946
  518TMC3     O 7697   3.172   0.758   0.157  0.1707  0.0411  0.4958
  518TMC3     H 7698   3.292   0.580   0.057  0.1131  0.2920  0.0711
  518TMC3    H1 7699   3.473   0.965  17.687  1.2312 -0.1569  0.4112
  518TMC3    H2 7700   3.612   0.603  17.487 -0.1911  0.8446 -0.4575
  518TMC3    C7 7701   3.662   0.866  17.555  0.1421  0.5764  0.2107
  518TMC3    C8 7702   3.465   0.438  17.594  0.7001  0.1185 -0.2729
  518TMC3    O1 7703   3.704   0.947  17.634  0.1810  0.1032  0.0049
  518TMC3    O2 7704   3.561   0.388  17.527  0.6001 -0.4924  1.1810
  519MPD2     C 7705   0.674   4.333  14.064 -0.1220 -0.3081 -0.0881
  519MPD2    C1 7706   0.592   4.340  13.952 -0.1705 -0.9297 -0.8733
  519MPD2    C2 7707   0.634   4.285  13.831 -0.1352  0.6943  0.7623
  519MPD2    C3 7708   0.743   4.201  13.825 -0.0390  0.2158 -0.2409
  519MPD2    C4 7709   0.819   4.193  13.936 -0.5506 -0.2030 -0.2257
  519MPD2    C5 7710   0.799   4.261  14.053  0.0407 -0.1517  0.2770
  519MPD2     H 7711   0.562   4.285  13.750 -0.9235  1.7597  1.4570
  519MPD2    H1 7712   0.908   4.132  13.921 -0.2875  0.2993 -0.7524
  519MPD2    H2 7713   0.647   4.373  14.161 -1.8845 -2.0087  0.1244
  519MPD2    H3 7714   0.876   4.252  14.128  0.3183  1.3145  0.1695
  519MPD2     N 7715   0.774   4.124  13.710 -0.3853  0.3998  0.6524
  519MPD2    H5 7716   0.847   4.055  13.727 -0.7434 -0.6584 -1.9626
  519MPD2    N1 7717   0.466   4.396  13.968 -0.3538  0.8910 -0.2804
  519MPD2    H7 7718   0.422   4.392  14.059  0.6368 -0.8962  0.1336
  520TMC3    C1 7719   0.719   3.992  13.528  0.2037 -0.5379  0.4396
  520TMC3    C2 7720   0.597   3.945  13.492  0.2147  0.1041 -0.4855
  520TMC3    C3 7721   0.564   3.813  13.514  0.2057 -0.3194  0.7435
  520TMC3    C4 7722   0.812   3.903  13.575 -0.1609  0.9101 -0.0135
  520TMC3    C5 7723   0.780   3.769  13.591 -0.1325  0.4155  0.1906
  520TMC3    C6 7724   0.653   3.726  13.579  0.4477 -0.4529 -0.7270
  520TMC3     C 7725   0.707   4.123  13.590 -0.9818 -0.5405 -0.2443
  520TMC3     O 7726   0.613   4.191  13.550  0.4822  0.3990  0.2381
  520TMC3     H 7727   0.526   4.013  13.447  0.9954  2.2967  1.5621
  520TMC3    H1 7728   0.914   3.935  13.596 -0.6504  2.0516  0.6108
  520TMC3    H2 7729   0.628   3.623  13.604  0.5136 -0.6641 -1.5223
  520TMC3    C7 7730   0.888   3.675  13.615 -0.5480  0.1178 -0.0892
  520TMC3    C8 7731   0.422   3.775  13.504 -0.0060  0.6643 -0.4761
  520TMC3    O1 7732   0.846   3.564  13.649  0.1486  0.9966 -0.3759
  520TMC3    O2 7733   0.356   3.846  13.430  0.5039 -0.5911 -0.1349
  521MPD2     C 7734   1.308   2.530  16.516 -0.0465  0.3035  0.7990
  521MPD2    C1 7735   1.368   2.447  16.613 -0.2015 -0.4193  0.0800
  521MPD2    C2 7736   1.479   2.370  16.578 -0.4416 -0.4542  0.7200
  521MPD2    C3 7737   1.532   2.386  16.449 -0.2474  0.0192  0.4370
  521MPD2    C4 7738   1.481   2.478  16.363  1.0342  0.3687  0.1214
  521MPD2    C5 7739   1.367   2.549  16.396 -0.0604 -0.4724  0.9368
  521MPD2     H 7740   1.525   2.301  16.647  1.5633 -1.4275 -1.6077
  521MPD2    H1 7741   1.521   2.490  16.263  1.4012 -0.7428  0.1378
  521MPD2    H2 7742   1.214   2.582  16.527  0.1864  0.7280  0.7737
  521MPD2    H3 7743   1.327   2.626  16.332 -1.0613 -3.7960 -2.4368
  521MPD2     N 7744   1.639   2.309  16.415 -0.4448  0.3756 -0.2330
  521MPD2    H5 7745   1.691   2.263  16.489  0.3332  0.6009 -0.6437
  521MPD2    N1 7746   1.309   2.445  16.736 -0.0554 -0.1100  0.0139
  521MPD2    H7 7747   1.223   2.499  16.743 -1.0013 -1.3971 -1.7028
  522TMC3    C1 7748   1.754   2.158  16.296 -1.2723  0.1157  0.1594
  522TMC3    C2 7749   1.841   2.170  16.399 -0.9192 -0.7149 -0.1544
  522TMC3    C3 7750   1.892   2.052  16.445 -0.7548  0.2110  0.3273
  522TMC3    C4 7751   1.698   2.039  16.254  0.8129 -0.7001 -0.3844
  522TMC3    C5 7752   1.724   1.926  16.324  0.3292  0.1322  0.0469
  522TMC3    C6 7753   1.822   1.935  16.415 -1.1774  0.0472  0.2281
  522TMC3     C 7754   1.652   2.259  16.291 -1.0721  0.4691 -0.4757
  522TMC3     O 7755   1.576   2.261  16.196 -0.0056 -0.9800  0.2236
  522TMC3     H 7756   1.897   2.259  16.426 -0.4246 -1.7967  2.4150
  522TMC3    H1 7757   1.619   2.030  16.181 -1.8343  2.0763  2.1908
  522TMC3    H2 7758   1.857   1.842  16.458 -0.9434 -0.5589 -1.2641
  522TMC3    C7 7759   1.603   1.864  16.389 -0.3589 -0.7252  0.4099
  522TMC3    C8 7760   2.003   2.051  16.536 -0.4112  0.5069 -0.1872
  522TMC3    O1 7761   1.621   1.777  16.474  0.4914  0.4882  0.1151
  522TMC3    O2 7762   2.029   2.154  16.598 -0.4256  0.3747  0.3121
  523MPD2     C 7763   3.461   2.125  10.216 -0.0787 -0.1480 -0.8654
  523MPD2    C1 7764   3.373   2.060  10.132 -0.9595  0.1886 -0.4153
  523MPD2    C2 7765   3.288   2.133  10.043 -0.0152 -0.7878  0.0952
  523MPD2    C3 7766   3.307   2.266  10.036 -0.2611  0.3833 -0.0095
  523MPD2    C4 7767   3.402   2.322  10.114 -0.6056  0.4462 -0.6968
  523MPD2    C5 7768   3.472   2.260  10.208 -0.3254 -0.1873  0.3284
  523MPD2     H 7769   3.204   2.086   9.994 -1.2179  1.2890  0.1569
  523MPD2    H1 7770   3.429   2.427  10.101  2.0354 -0.1376  0.0576
  523MPD2    H2 7771   3.521   2.064  10.282 -1.5479 -1.0573 -0.3668
  523MPD2    H3 7772   3.544   2.315  10.268  0.8027 -1.3534  0.0551
  523MPD2     N 7773   3.231   2.349   9.954  0.2383  0.7814 -0.2663
  523MPD2    H5 7774   3.258   2.447   9.946 -2.6109  1.6979  1.5338
  523MPD2    N1 7775   3.365   1.920  10.147 -0.0780 -0.4855 -0.6183
  523MPD2    H7 7776   3.416   1.883  10.226  1.3088  0.2243 -1.1760
  524TMC3    C1 7777   3.075   2.411   9.809  0.9140  0.1492  0.0403
  524TMC3    C2 7778   3.155   2.504   9.755  0.3068  0.2570 -0.5942
  524TMC3    C3 7779   3.103   2.600   9.669  0.0911  0.6477  0.4712
  524TMC3    C4 7780   2.941   2.415   9.784  0.1643  0.6694  0.0584
  524TMC3    C5 7781   2.892   2.510   9.689  0.0548 -0.4308 -0.0900
  524TMC3    C6 7782   2.975   2.604   9.633  0.1450 -1.0496  0.5222
  524TMC3     C 7783   3.115   2.310   9.906 -0.1461 -0.3882 -0.2067
  524TMC3     O 7784   3.033   2.227   9.942  0.2110 -0.6551  0.1669
  524TMC3     H 7785   3.262   2.489   9.750  0.4972  0.6973  1.9670
  524TMC3    H1 7786   2.874   2.355   9.845 -0.6158  1.7067  0.2288
  524TMC3    H2 7787   2.937   2.674   9.560 -0.7998 -2.6771 -0.5373
  524TMC3    C7 7788   2.745   2.510   9.662  0.1699  0.2349 -0.0286
  524TMC3    C8 7789   3.201   2.686   9.606 -0.9034 -0.1146  0.1876
  524TMC3    O1 7790   2.679   2.418   9.713  0.1018 -0.0409  0.6569
  524TMC3    O2 7791   3.318   2.660   9.593  0.4192 -0.1648 -0.0951
  525MPD2     C 7792   1.702   3.546  13.901 -0.6226 -0.7237 -0.1695
  525MPD2    C1 7793   1.812   3.583  13.978  0.0794  0.1824  0.3038
  525MPD2    C2 7794   1.862   3.713  13.959 -0.5551  0.6186  0.2053
  525MPD2    C3 7795   1.803   3.797  13.866  0.0533 -0.3865  0.2630
  525MPD2    C4 7796   1.697   3.753  13.794 -0.2119  0.3270 -0.1624
  525MPD2    C5 7797   1.655   3.627  13.806  0.8982  0.3922  0.6209
  525MPD2     H 7798   1.943   3.752  14.019  0.0624  1.8859 -1.4524
  525MPD2    H1 7799   1.658   3.808  13.709  1.5199  0.0117 -1.1660
  525MPD2    H2 7800   1.649   3.452  13.908  0.6442 -1.3132  1.2856
  525MPD2    H3 7801   1.570   3.596  13.746  0.1962  0.7232  1.4473
  525MPD2     N 7802   1.845   3.929  13.836 -0.3469  0.2739 -0.0883
  525MPD2    H5 7803   1.788   3.979  13.770  1.1307  1.2977 -0.5971
  525MPD2    N1 7804   1.869   3.503  14.076 -0.2277  0.0776  0.0341
  525MPD2    H7 7805   1.951   3.533  14.127  2.2182 -0.6010 -3.5183
  526TMC3    C1 7806   1.854   3.339  14.245  0.4165 -0.7238  0.0032
  526TMC3    C2 7807   1.776   3.324  14.358 -0.9960 -0.5356  0.0881
  526TMC3    C3 7808   1.837   3.272  14.471  0.9307  0.2096 -0.3484
  526TMC3    C4 7809   1.988   3.303  14.241  0.2631 -0.0362  0.0177
  526TMC3    C5 7810   2.033   3.240  14.354 -0.0410  0.2711 -0.0439
  526TMC3    C6 7811   1.959   3.213  14.465 -0.6314  0.3152  0.2898
  526TMC3     C 7812   1.792   3.400  14.131 -0.2594 -0.8779 -0.1844
  526TMC3     O 7813   1.677   3.371  14.118  0.5187 -0.3547  0.4361
  526TMC3     H 7814   1.681   3.375  14.353 -0.6575  0.0137 -0.7200
  526TMC3    H1 7815   2.040   3.310  14.146 -0.0887  2.2609 -0.0049
  526TMC3    H2 7816   2.001   3.177  14.558 -2.7133 -1.8999  0.3700
  526TMC3    C7 7817   2.168   3.182  14.353 -0.1756  0.3827  0.0383
  526TMC3    C8 7818   1.757   3.240  14.589  0.7120 -0.1977 -0.5844
  526TMC3    O1 7819   2.202   3.106  14.443  0.1693 -0.5516  0.1742
  526TMC3    O2 7820   1.810   3.180  14.683  0.3428 -0.1109 -0.0555
  527MPD2     C 7821   4.601   1.314   0.739 -0.3819 -0.2275  0.6478
  527MPD2    C1 7822   4.701   1.379   0.814 -0.3190  0.1407 -0.1419
  527MPD2    C2 7823   0.094   1.308   0.846  0.1363  0.0895 -0.7301
  527MPD2    C3 7824   0.099   1.171   0.827  0.0313  0.5705 -0.7354
  527MPD2    C4 7825   4.716   1.104   0.773 -0.2368  0.7018 -0.7999
  527MPD2    C5 7826   4.604   1.176   0.728 -0.8521  0.4319 -0.2518
  527MPD2     H 7827   0.175   1.358   0.898  0.4258 -0.1731 -0.9330
  527MPD2    H1 7828   4.714   0.998   0.747 -1.9287  0.3752  0.6684
  527MPD2    H2 7829   4.515   1.363   0.693  0.3145  0.0339 -0.3989
  527MPD2    H3 7830   4.509   1.127   0.706 -1.3356  2.2663 -2.2692
  527MPD2     N 7831   0.208   1.109   0.875 -0.0824 -0.2338  0.2113
  527MPD2    H5 7832   0.286   1.167   0.906 -2.0978  1.7736  1.5669
  527MPD2    N1 7833   4.692   1.516   0.841 -0.1201 -0.5732  0.5648
  527MPD2    H7 7834   0.046   1.554   0.895  0.8130 -0.9348 -0.4877
  528TMC3    C1 7835   4.575   1.697   0.933 -0.8201  0.4530 -0.9926
  528TMC3    C2 7836   4.702   1.735   0.961 -0.6687  0.1054  0.4369
  528TMC3    C3 7837   0.003   1.770   1.092  0.5857  0.3435 -0.2719
  528TMC3    C4 7838   4.467   1.692   1.016  0.1495 -0.1527  0.3588
  528TMC3    C5 7839   4.498   1.724   1.146 -0.0509  0.0661  0.6793
  528TMC3    C6 7840   4.625   1.765   1.186 -0.4199 -0.2242 -0.7263
  528TMC3     C 7841   4.578   1.595   0.834  0.3853 -0.1699  0.3869
  528TMC3     O 7842   4.467   1.550   0.803  0.3554  0.3271  1.0216
  528TMC3     H 7843   0.062   1.738   0.892 -2.1153 -2.8956 -1.4003
  528TMC3    H1 7844   4.371   1.648   0.993  1.7011 -1.9402 -2.6137
  528TMC3    H2 7845   4.655   1.795   1.286 -0.5265 -0.8178 -0.5182
  528TMC3    C7 7846   4.400   1.684   1.248 -0.2724 -0.0916 -0.0151
  528TMC3    C8 7847   0.138   1.768   1.139  0.7481  1.1694  0.2847
  528TMC3    O1 7848   4.436   1.639   1.357  0.4072 -0.7139 -0.2561
  528TMC3    O2 7849   0.218   1.839   1.083 -0.1218  0.1292  0.2026
  529MPD2     C 7850   1.096   4.637   0.436  0.0220 -0.0734 -0.1234
  529MPD2    C1 7851   1.225   4.679   0.424 -0.1133 -0.3704  0.4296
  529MPD2    C2 7852   1.251   0.070   0.350 -0.6677  0.2120 -0.1670
  529MPD2    C3 7853   1.151   0.131   0.270  0.8533  0.3050 -0.0089
  529MPD2    C4 7854   1.020   0.083   0.288 -1.0111 -0.6504  0.4051
  529MPD2    C5 7855   0.997   4.699   0.372 -0.2325  0.3884 -0.2880
  529MPD2     H 7856   1.355   0.098   0.342 -0.5304 -0.0971  0.5175
  529MPD2    H1 7857   0.943   0.136   0.233  1.2399  1.9037 -0.2690
  529MPD2    H2 7858   1.076   4.552   0.499 -0.0951 -1.1715 -1.6286
  529MPD2    H3 7859   0.892   4.674   0.380 -0.3353  0.3347 -1.7829
  529MPD2     N 7860   1.172   0.242   0.176 -0.3241 -0.0205  0.4340
  529MPD2    H5 7861   1.098   0.254   0.108 -0.0225  0.4433  0.1899
  529MPD2    N1 7862   1.328   4.611   0.497  1.1803 -0.6157 -0.1325
  529MPD2    H7 7863   1.423   4.645   0.494  0.5114  1.2105 -0.7538
  530TMC3    C1 7864   1.433   4.434   0.617  0.1075 -0.0309  0.2998
  530TMC3    C2 7865   1.492   4.516   0.707  0.6700 -0.9073 -0.4561
  530TMC3    C3 7866   1.558   4.461   0.812 -0.7978  0.8765 -0.0327
  530TMC3    C4 7867   1.420   4.297   0.641 -0.7816  0.2530 -0.1842
  530TMC3    C5 7868   1.471   4.250   0.761 -0.2695  0.7159 -0.6331
  530TMC3    C6 7869   1.528   4.330   0.850  0.7876  0.0676 -0.0650
  530TMC3     C 7870   1.315   4.483   0.552 -0.4549 -0.1272  0.1260
  530TMC3     O 7871   1.221   4.408   0.541 -0.4036 -0.3088 -0.8311
  530TMC3     H 7872   1.497   4.623   0.689  0.6382 -0.7721  0.3166
  530TMC3    H1 7873   1.361   4.246   0.566 -0.2821  0.6992 -0.8734
  530TMC3    H2 7874   1.566   4.290   0.943  1.0279 -1.5542 -0.8590
  530TMC3    C7 7875   1.427   4.122   0.804 -0.3377 -0.6478  0.0376
  530TMC3    C8 7876   1.631   4.552   0.900  0.1778  0.0012  0.3334
  530TMC3    O1 7877   1.312   4.093   0.768  0.2171 -0.8741 -0.4628
  530TMC3    O2 7878   1.615   4.670   0.884  0.2086 -0.1562 -0.8520
  531MPD2     C 7879   0.502   2.284  12.976  0.4145  0.3416  0.2993
  531MPD2    C1 7880   0.482   2.378  13.077 -0.3504  0.1105 -0.7314
  531MPD2    C2 7881   0.405   2.487  13.044 -0.0254  0.2292  0.2002
  531MPD2    C3 7882   0.354   2.510  12.921  0.8022 -0.5619  0.5389
  531MPD2    C4 7883   0.386   2.426  12.818  0.2729  0.4987 -0.5074
  531MPD2    C5 7884   0.451   2.310  12.848 -0.6932  0.2804  0.3581
  531MPD2     H 7885   0.398   2.569  13.115 -1.2533  0.4779 -0.2039
  531MPD2    H1 7886   0.365   2.453  12.715 -0.1058 -1.0426 -0.8240
  531MPD2    H2 7887   0.563   2.195  12.980  2.7117  1.7753 -2.3918
  531MPD2    H3 7888   0.481   2.256  12.758 -3.3105 -0.2841 -0.1849
  531MPD2     N 7889   0.290   2.631  12.883 -1.4361 -0.9076 -0.2429
  531MPD2    H5 7890   0.289   2.649  12.784 -1.0095  0.5401  0.0251
  531MPD2    N1 7891   0.532   2.349  13.205 -0.3104 -0.6430 -0.0983
  531MPD2    H7 7892   0.602   2.276  13.215  0.6703  0.3964  0.6834
  532TMC3    C1 7893   0.580   2.404  13.435 -0.0015  0.5622  0.2112
  532TMC3    C2 7894   0.501   2.436  13.545  0.0787 -0.1781 -0.1469
  532TMC3    C3 7895   0.564   2.510  13.644  0.2986 -0.2296  0.2784
  532TMC3    C4 7896   0.714   2.421  13.427  0.3639  0.4618  0.3418
  532TMC3    C5 7897   0.767   2.498  13.525 -0.6150  0.3764 -0.1050
  532TMC3    C6 7898   0.696   2.538  13.635 -0.3952  0.8847 -0.2260
  532TMC3     C 7899   0.499   2.426  13.311 -0.3362 -0.2082  0.4749
  532TMC3     O 7900   0.412   2.510  13.327 -0.7906 -0.1705  0.0061
  532TMC3     H 7901   0.396   2.411  13.552  0.0564 -0.2040 -0.5686
  532TMC3    H1 7902   0.764   2.410  13.331 -1.7841  1.9798 -0.9452
  532TMC3    H2 7903   0.740   2.608  13.705 -0.0651 -0.0608  0.5030
  532TMC3    C7 7904   0.909   2.522  13.518  0.0676 -0.1992  0.0513
  532TMC3    C8 7905   0.478   2.619  13.680  0.1394  0.5059 -0.1218
  532TMC3    O1 7906   0.956   2.612  13.587 -0.1987 -0.0911 -0.0960
  532TMC3    O2 7907   0.504   2.673  13.786 -0.7717  0.1932  0.1050
  533TMC3    C1 7908   1.956   4.141  13.867 -0.5162 -0.1173  0.3766
  533TMC3    C2 7909   2.087   4.191  13.876 -0.2761 -0.5490  0.3773
  533TMC3    C3 7910   2.105   4.305  13.938  0.6833 -1.1438 -0.1083
  533TMC3    C4 7911   1.851   4.190  13.948  0.6262  0.6654 -0.6454
  533TMC3    C5 7912   1.870   4.313  14.005  0.0604 -0.4802 -1.1125
  533TMC3    C6 7913   1.998   4.367  13.993  0.4611 -0.0699 -0.8923
  533TMC3     C 7914   1.960   3.997  13.879  0.1515  0.2333 -0.0400
  533TMC3     O 7915   2.048   3.955  13.952  0.0309  0.1051  0.2370
  533TMC3     H 7916   2.162   4.147  13.812  1.0701  0.1557  1.4895
  533TMC3    H1 7917   1.764   4.129  13.966  0.8284  0.3280 -0.8080
  533TMC3    H2 7918   2.022   4.457  14.049 -1.2960 -0.6475  0.7837
  533TMC3    C7 7919   1.828   4.308  14.145  0.3532 -0.1898 -1.3020
  533TMC3    C8 7920   2.207   4.294  14.040  0.2591  0.2815 -0.2186
  533TMC3    O1 7921   1.722   4.254  14.164 -0.5188  0.3372 -0.4165
  533TMC3    O2 7922   2.226   4.398  14.103  0.3800  0.0129 -0.0381
  534MPD2     C 7923   4.177   0.792   1.678  0.2632 -0.0857  0.3323
  534MPD2    C1 7924   4.190   0.806   1.540 -0.3874  0.7752  0.3710
  534MPD2    C2 7925   4.105   0.731   1.453 -0.6978 -1.1220  0.5225
  534MPD2    C3 7926   4.005   0.650   1.506 -0.3303 -0.1398 -0.0060
  534MPD2    C4 7927   3.989   0.635   1.642 -0.2547 -0.7567 -0.3399
  534MPD2    C5 7928   4.076   0.706   1.725 -0.5880  0.5995 -0.3572
  534MPD2     H 7929   4.120   0.730   1.346 -1.5702 -0.5196  0.3909
  534MPD2    H1 7930   3.910   0.578   1.690 -1.4578  1.3683  0.2518
  534MPD2    H2 7931   4.236   0.847   1.751 -2.4241  1.9554  0.9498
  534MPD2    H3 7932   4.064   0.683   1.831 -0.1108  1.3581 -0.1360
  534MPD2     N 7933   3.915   0.573   1.426 -0.1742 -0.3662  0.0850
  534MPD2    H5 7934   3.835   0.525   1.467 -0.8412 -0.1748 -0.9883
  534MPD2    N1 7935   4.264   0.907   1.479 -0.4304  0.2114  0.4193
  534MPD2    H7 7936   4.241   0.926   1.382 -0.0709 -2.3539 -0.1523
  535TMC3    C1 7937   3.819   0.478   1.225 -0.9060  0.6327  0.0765
  535TMC3    C2 7938   3.692   0.499   1.276  0.5902  0.6014  0.1516
  535TMC3    C3 7939   3.583   0.490   1.187 -0.6412 -0.7717  0.3369
  535TMC3    C4 7940   3.840   0.454   1.090  0.0496  0.5617  0.2754
  535TMC3    C5 7941   3.730   0.456   1.015  0.1944 -0.7853 -0.3116
  535TMC3    C6 7942   3.603   0.478   1.056  0.0032  0.1493 -0.3603
  535TMC3     C 7943   3.931   0.546   1.288  0.0380  0.1098 -0.6497
  535TMC3     O 7944   4.019   0.580   1.213 -0.1099  0.2310 -0.0145
  535TMC3     H 7945   3.666   0.488   1.381  0.1367  1.2358  0.1031
  535TMC3    H1 7946   3.935   0.424   1.046  0.6218  2.0839  0.4554
  535TMC3    H2 7947   3.528   0.482   0.978 -0.8882  0.7045  0.5400
  535TMC3    C7 7948   3.764   0.487   0.883  0.8140 -0.0093 -0.4577
  535TMC3    C8 7949   3.442   0.474   1.237  1.2230  0.0775  0.0885
  535TMC3    O1 7950   3.851   0.420   0.826 -0.4161 -0.3373  0.1992
  535TMC3    O2 7951   3.368   0.420   1.153  0.0889 -0.4897  0.2401
  536MPD2     C 7952   3.015   3.656  15.956 -0.6325  0.3562 -0.1629
  536MPD2    C1 7953   2.900   3.598  16.011 -0.0307 -0.1477  0.5450
  536MPD2    C2 7954   2.791   3.572  15.926 -0.3442  0.4543 -0.1141
  536MPD2    C3 7955   2.789   3.621  15.798  1.0931 -0.0834 -0.4286
  536MPD2    C4 7956   2.897   3.685  15.756 -0.0084 -0.3059 -0.4587
  536MPD2    C5 7957   3.008   3.700  15.827  0.5903  0.5720 -0.4244
  536MPD2     H 7958   2.711   3.510  15.965 -1.0162  1.4112  0.0409
  536MPD2    H1 7959   2.894   3.743  15.665  0.3406 -1.0071 -0.9191
  536MPD2    H2 7960   3.104   3.664  16.017 -1.2503  0.6593  0.6805
  536MPD2    H3 7961   3.090   3.761  15.790  0.2634  1.3255  0.0983
  536MPD2     N 7962   2.681   3.599  15.715  0.4162 -0.4436  0.0814
  536MPD2    H5 7963   2.703   3.603  15.616  0.5133  2.3974  0.2335
  536MPD2    N1 7964   2.903   3.551  16.144  0.6458 -0.6790  0.7901
  536MPD2    H7 7965   2.985   3.579  16.197 -1.0305  1.9316  1.9932
  537TMC3    C1 7966   2.833   3.468  16.358  0.0684 -0.5181 -0.3488
  537TMC3    C2 7967   2.900   3.566  16.429 -0.3096 -0.4473  0.5024
  537TMC3    C3 7968   2.908   3.556  16.568 -0.4906  0.3537  0.5264
  537TMC3    C4 7969   2.772   3.361  16.416  0.3855 -0.7282  0.5191
  537TMC3    C5 7970   2.789   3.350  16.554 -0.0473  0.5968 -0.6761
  537TMC3    C6 7971   2.855   3.446  16.627  0.2339  0.4200  0.3688
  537TMC3     C 7972   2.812   3.475  16.212  0.1801 -0.6531 -0.0996
  537TMC3     O 7973   2.702   3.423  16.181 -0.1635  0.4551 -0.0005
  537TMC3     H 7974   2.949   3.644  16.371 -0.9896 -0.3108  0.1104
  537TMC3    H1 7975   2.719   3.282  16.364  2.7244 -1.6640 -0.4378
  537TMC3    H2 7976   2.862   3.443  16.735 -2.5127  0.9485  0.5750
  537TMC3    C7 7977   2.765   3.222  16.610 -0.5704 -0.0993  0.1817
  537TMC3    C8 7978   2.993   3.647  16.639  0.6600 -0.5352  0.3324
  537TMC3    O1 7979   2.708   3.135  16.543  0.8162  0.6383 -0.2939
  537TMC3    O2 7980   3.061   3.599  16.727 -0.8317 -1.3574 -0.0358
  538TMC3    C1 7981   4.271   1.530  10.987  0.2656 -0.1313 -0.0488
  538TMC3    C2 7982   4.317   1.428  10.904 -0.9335  0.0334 -0.0531
  538TMC3    C3 7983   4.225   1.377  10.813 -0.0458  0.7686 -0.1068
  538TMC3    C4 7984   4.134   1.555  10.989  0.3593 -0.7368  0.0514
  538TMC3    C5 7985   4.052   1.505  10.895 -0.5518 -0.6680  0.4541
  538TMC3    C6 7986   4.099   1.414  10.802 -0.1907 -0.5112  0.5090
  538TMC3     C 7987   4.355   1.564  11.101 -0.3808 -0.3805  0.3972
  538TMC3     O 7988   4.302   1.585  11.208  0.1826  0.4343  0.2545
  538TMC3     H 7989   4.415   1.383  10.919 -0.7150 -0.1426 -2.1316
  538TMC3    H1 7990   4.101   1.630  11.059  0.7055 -0.1345 -0.4278
  538TMC3    H2 7991   4.019   1.366  10.748  1.3690 -2.8136  0.2721
  538TMC3    C7 7992   3.929   1.572  10.860  0.4854 -0.2986 -0.4009
  538TMC3    C8 7993   4.280   1.293  10.710  0.6292  0.3080 -0.7229
  538TMC3    O1 7994   3.840   1.606  10.939  0.2682 -0.8660 -0.7334
  538TMC3    O2 7995   4.197   1.214  10.671 -0.0804  0.2440 -0.2926
  539MPD2     C 7996   4.062   1.046  11.567  0.4299  0.3700 -0.5446
  539MPD2    C1 7997   3.974   1.007  11.467  0.5487  0.1902 -0.0783
  539MPD2    C2 7998   3.899   1.102  11.390  0.4495 -0.0411 -0.3614
  539MPD2    C3 7999   3.918   1.232  11.410  0.5959  0.2818 -0.2506
  539MPD2    C4 8000   3.998   1.274  11.508 -0.0257 -0.0268  0.3044
  539MPD2    C5 8001   4.068   1.180  11.591 -0.0900  0.1098  0.4078
  539MPD2     H 8002   3.842   1.060  11.308 -0.7820 -0.5031  0.7440
  539MPD2    H1 8003   4.017   1.379  11.530  1.9789 -0.6599  1.5788
  539MPD2    H2 8004   4.128   0.974  11.614  0.3125 -0.0063 -0.9536
  539MPD2    H3 8005   4.134   1.224  11.665  0.0111 -2.5047  1.8816
  539MPD2     N 8006   3.831   1.328  11.350 -0.3086 -0.5040 -0.1524
  539MPD2    H5 8007   3.839   1.426  11.378  1.9113 -0.3698 -1.2565
  539MPD2    N1 8008   3.950   0.873  11.446  0.4349  0.3046 -0.4945
  539MPD2    H7 8009   3.888   0.847  11.369  1.1246 -2.8189  0.0174
  540TMC3    C1 8010   3.663   1.425  11.223 -0.3476 -0.3432 -0.3693
  540TMC3    C2 8011   3.606   1.453  11.098  0.5669 -0.0766  0.6304
  540TMC3    C3 8012   3.502   1.548  11.091  0.2918  1.0092 -0.3091
  540TMC3    C4 8013   3.621   1.493  11.334 -0.2170 -0.1752  0.5393
  540TMC3    C5 8014   3.537   1.601  11.311 -0.0884  0.6908 -0.3922
  540TMC3    C6 8015   3.489   1.642  11.190  0.4727  0.0551  0.0678
  540TMC3     C 8016   3.744   1.308  11.249 -0.7774 -0.3533 -0.5771
  540TMC3     O 8017   3.728   1.220  11.162  0.3226 -0.2562 -0.0450
  540TMC3     H 8018   3.640   1.408  11.006  1.2115  2.6651 -0.4886
  540TMC3    H1 8019   3.645   1.451  11.432  0.7112 -1.2022 -0.1218
  540TMC3    H2 8020   3.428   1.732  11.182 -0.9629 -0.9388 -0.2955
  540TMC3    C7 8021   3.506   1.688  11.423  0.3223  0.1641  0.9064
  540TMC3    C8 8022   3.456   1.562  10.952 -0.3565  0.0981  0.1901
  540TMC3    O1 8023   3.436   1.784  11.399  0.1113 -0.5104  0.0333
  540TMC3    O2 8024   3.428   1.669  10.901 -0.3480 -0.5086 -0.3173
  541MPD2     C 8025   2.396   2.857  13.376 -0.8800 -0.2544  1.1662
  541MPD2    C1 8026   2.433   2.750  13.303  0.2105 -0.2226  0.3815
  541MPD2    C2 8027   2.451   2.766  13.164 -0.1317  0.3209  0.2803
  541MPD2    C3 8028   2.428   2.888  13.096 -0.9507 -0.3211  0.4120
  541MPD2    C4 8029   2.419   3.000  13.178 -0.6205  0.4527 -0.7688
  541MPD2    C5 8030   2.404   2.975  13.316 -0.2577 -0.7329  0.2465
  541MPD2     H 8031   2.481   2.680  13.105 -1.1161  0.1759 -0.0034
  541MPD2    H1 8032   2.418   3.102  13.142 -2.2983  0.9390  0.6429
  541MPD2    H2 8033   2.392   2.858  13.485 -3.3786  2.7660  1.0627
  541MPD2    H3 8034   2.398   3.066  13.374  2.4050  0.7419 -1.7984
  541MPD2     N 8035   2.424   2.901  12.959  0.2821 -0.0642  0.0372
  541MPD2    H5 8036   2.400   2.998  12.939 -1.1203 -0.2289  0.8983
  541MPD2    N1 8037   2.457   2.619  13.358 -0.0173  0.5632 -0.2515
  541MPD2    H7 8038   2.509   2.556  13.298 -0.0721 -0.7679  1.1082
  542TMC3    C1 8039   2.366   2.851  12.734 -0.7901 -0.2065  0.0546
  542TMC3    C2 8040   2.404   2.785  12.614  0.3584 -0.2635 -0.7106
  542TMC3    C3 8041   2.352   2.827  12.497 -0.1796  0.4068 -0.7726
  542TMC3    C4 8042   2.265   2.943  12.727 -0.3523 -0.1990  0.7547
  542TMC3    C5 8043   2.221   2.988  12.604 -0.7675  0.1512 -0.1793
  542TMC3    C6 8044   2.268   2.935  12.488  0.0199 -0.3477 -0.1176
  542TMC3     C 8045   2.415   2.802  12.864  0.5056  0.3224  0.5348
  542TMC3     O 8046   2.465   2.690  12.872  0.2026  0.6180 -0.3502
  542TMC3     H 8047   2.447   2.686  12.625 -0.9845 -0.9353 -1.4905
  542TMC3    H1 8048   2.235   2.989  12.821 -0.8663 -0.4366  0.7064
  542TMC3    H2 8049   2.240   2.960  12.387 -0.7938  0.0476  0.2099
  542TMC3    C7 8050   2.120   3.094  12.599 -0.3574  0.4223 -0.0027
  542TMC3    C8 8051   2.357   2.734  12.390  0.4540  0.6242  0.6228
  542TMC3    O1 8052   2.089   3.131  12.711  0.0792 -0.4999 -0.3867
  542TMC3    O2 8053   2.275   2.739  12.297  0.2247 -0.8393 -0.3303
  543TMC3    C1 8054   1.628   4.159  17.266 -0.0899  0.2930 -0.2408
  543TMC3    C2 8055   1.647   4.045  17.341  0.3547  0.6764 -1.0181
  543TMC3    C3 8056   1.638   4.053  17.478 -0.1526  0.2439  0.6755
  543TMC3    C4 8057   1.591   4.282  17.322  0.0882 -0.0779  0.2802
  543TMC3    C5 8058   1.555   4.276  17.455  0.0697  0.2948  1.0756
  543TMC3    C6 8059   1.581   4.168  17.535 -0.7667  0.2854  0.2781
  543TMC3     C 8060   1.662   4.145  17.125 -0.0590  0.5383  0.2605
  543TMC3     O 8061   1.694   4.035  17.088  0.0093  0.6146  0.7403
  543TMC3     H 8062   1.681   3.953  17.295 -0.3774  0.4667 -1.1308
  543TMC3    H1 8063   1.577   4.369  17.259  0.0375  0.5163  1.1080
  543TMC3    H2 8064   1.559   4.165  17.642 -1.6813  0.5027  0.0984
  543TMC3    C7 8065   1.492   4.389  17.526 -0.2712 -0.4393  0.4023
  543TMC3    C8 8066   1.679   3.934  17.555 -0.4137  0.0982 -0.3923
  543TMC3    O1 8067   1.475   4.386  17.645  0.5350  0.9777  0.6800
  543TMC3    O2 8068   1.757   3.858  17.497  0.3457  0.6139 -0.0699
  544MPD2     C 8069   1.659   3.606   0.245  0.2079 -0.1741  0.2498
  544MPD2    C1 8070   1.764   3.625   0.162  0.3611 -0.0234  0.4882
  544MPD2    C2 8071   1.751   3.732   0.066 -0.0373  0.1312  0.2179
  544MPD2    C3 8072   1.641   3.821   0.075  0.0554 -0.0488  0.6071
  544MPD2    C4 8073   1.555   3.808   0.179  0.4922  0.0362 -0.6244
  544MPD2    C5 8074   1.561   3.698   0.265  0.0159  0.0608  0.0902
  544MPD2     H 8075   1.827   3.746  17.684 -0.4202  1.7344  0.1269
  544MPD2    H1 8076   1.480   3.883   0.202  1.8264  1.1617  0.1375
  544MPD2    H2 8077   1.651   3.512   0.299 -0.2787 -0.3412 -0.1140
  544MPD2    H3 8078   1.489   3.693   0.347  0.4686  0.1868  0.4950
  544MPD2     N 8079   1.609   3.922  17.676 -0.0968 -0.4803  0.2314
  544MPD2    H5 8080   1.537   3.993  17.687  2.3948  2.0619  0.2787
  544MPD2    N1 8081   1.875   3.546   0.171 -0.0411  0.1995  0.2110
  544MPD2    H7 8082   1.886   3.497   0.259 -0.7575 -0.9325 -0.3259
  545TMC3    C1 8083   2.087   3.452   0.113  0.4105 -0.2790 -0.1558
  545TMC3    C2 8084   2.163   3.410   0.005 -0.1368 -0.2958  0.2640
  545TMC3    C3 8085   2.286   3.355   0.034 -0.2968  0.5996  0.1684
  545TMC3    C4 8086   2.133   3.448   0.241 -0.0096  0.1307  0.0377
  545TMC3    C5 8087   2.246   3.383   0.268  0.1408 -0.9538  0.4599
  545TMC3    C6 8088   2.324   3.337   0.163  0.4374  0.5114  0.3748
  545TMC3     C 8089   1.977   3.532   0.078  0.6673  0.6505  0.1389
  545TMC3     O 8090   1.976   3.572  17.656  0.1081  0.4793 -0.0291
  545TMC3     H 8091   2.123   3.397  17.600  0.5484 -0.6998  0.0434
  545TMC3    H1 8092   2.073   3.496   0.318  0.2900 -1.3382  1.1953
  545TMC3    H2 8093   2.422   3.293   0.179 -0.2350 -1.4889 -1.1031
  545TMC3    C7 8094   2.310   3.430   0.382  0.0962  0.7624  0.3158
  545TMC3    C8 8095   2.382   3.322  17.625  0.0490  0.0830  0.9775
  545TMC3    O1 8096   2.288   3.546   0.404  0.5364 -0.4630  0.4819
  545TMC3    O2 8097   2.445   3.221  17.644  0.0128  0.7136 -0.7354
  546MPD2     C 8098   3.189   3.715  17.503  0.4434  0.0509 -0.5698
  546MPD2    C1 8099   3.162   3.783  17.389  0.0532 -0.4538  0.4031
  546MPD2    C2 8100   3.245   3.894  17.356  0.4573 -0.1426 -0.1067
  546MPD2    C3 8101   3.357   3.918  17.438 -0.4753  0.8464  0.2286
  546MPD2    C4 8102   3.390   3.839  17.550 -0.1739  0.3892 -0.0481
  546MPD2    C5 8103   3.304   3.741  17.583  1.2962  0.3231 -0.2204
  546MPD2     H 8104   3.210   3.954  17.273  1.4643  0.5368 -0.0370
  546MPD2    H1 8105   3.474   3.858  17.616 -0.8335  1.4919  0.4541
  546MPD2    H2 8106   3.123   3.634  17.532 -1.1915  0.6817 -2.4905
  546MPD2    H3 8107   3.337   3.676  17.664  1.6452  2.2321  1.1698
  546MPD2     N 8108   3.445   4.025  17.415  0.3596 -0.8251  0.3860
  546MPD2    H5 8109   3.498   4.048  17.498  0.6018  1.5143 -0.4207
  546MPD2    N1 8110   3.040   3.751  17.328  0.4069  0.0673 -0.1293
  546MPD2    H7 8111   2.987   3.674  17.368 -0.4850  0.5736 -0.3291
  547TMC3    C1 8112   2.857   3.763  17.179  0.5590  0.2060  0.6978
  547TMC3    C2 8113   2.795   3.793  17.066 -0.1989 -0.0721  0.3611
  547TMC3    C3 8114   2.660   3.785  17.063 -0.1291  0.7823  0.9351
  547TMC3    C4 8115   2.785   3.728  17.290 -0.3500  0.9040 -0.1010
  547TMC3    C5 8116   2.651   3.708  17.276  0.5623 -0.1612 -0.0627
  547TMC3    C6 8117   2.587   3.739  17.161 -0.6492 -0.1847 -0.0519
  547TMC3     C 8118   2.992   3.809  17.214  0.2270  0.4250 -0.1426
  547TMC3     O 8119   3.034   3.904  17.150  0.0771 -0.1761  0.7447
  547TMC3     H 8120   2.858   3.817  16.981 -0.4770 -1.2442 -0.1745
  547TMC3    H1 8121   2.827   3.708  17.388 -1.6176  2.1349  0.6952
  547TMC3    H2 8122   2.479   3.729  17.157 -0.6666 -0.4797  1.1453
  547TMC3    C7 8123   2.571   3.717  17.403  0.3170 -0.0217  0.5297
  547TMC3    C8 8124   2.591   3.831  16.948  0.8258 -0.0465  0.2543
  547TMC3    O1 8125   2.505   3.819  17.417 -0.1472  0.2760  0.0055
  547TMC3    O2 8126   2.474   3.802  16.940 -0.3219  0.6854  0.9821
  548MPD2     C 8127   3.176   4.370  12.410  0.3894  0.2612  0.1639
  548MPD2    C1 8128   3.069   4.284  12.429  0.1310 -0.4046  0.7491
  548MPD2    C2 8129   3.093   4.152  12.427  0.0001 -0.2856 -0.2072
  548MPD2    C3 8130   3.220   4.100  12.417 -0.3704 -0.1634 -0.3505
  548MPD2    C4 8131   3.328   4.187  12.411 -1.1555  0.6490  0.1242
  548MPD2    C5 8132   3.308   4.321  12.400 -0.1181 -0.1593  0.3423
  548MPD2     H 8133   3.010   4.084  12.443 -0.0746  0.0077  0.6694
  548MPD2    H1 8134   3.427   4.152  12.387 -0.8068  0.9865  1.0719
  548MPD2    H2 8135   3.162   4.477  12.407 -0.5569  0.1051 -0.9506
  548MPD2    H3 8136   3.393   4.383  12.374  0.2721 -1.0070 -0.4126
  548MPD2     N 8137   3.242   3.965  12.443  0.5173  0.2038 -0.5989
  548MPD2    H5 8138   3.339   3.936  12.455 -0.3533 -2.1307  0.9100
  548MPD2    N1 8139   2.938   4.334  12.441  0.0408 -0.4675  0.5550
  548MPD2    H7 8140   2.875   4.263  12.478 -1.6431  0.3710 -0.7019
  549TMC3    C1 8141   2.744   4.477  12.456  0.4102  0.1160 -0.1493
  549TMC3    C2 8142   2.692   4.592  12.494  0.1590 -0.6334  0.6925
  549TMC3    C3 8143   2.554   4.597  12.523  0.1804  0.6042 -0.1763
  549TMC3    C4 8144   2.675   4.356  12.454 -0.0002  0.0567  0.2432
  549TMC3    C5 8145   2.538   4.370  12.472 -1.1073 -0.2067  0.4588
  549TMC3    C6 8146   2.476   4.483  12.521 -0.6514  0.7483 -0.2357
  549TMC3     C 8147   2.894   4.467  12.443  1.0259 -0.2236 -0.6890
  549TMC3     O 8148   2.957   4.568  12.432  0.1404 -0.7247 -0.1560
  549TMC3     H 8149   2.756   4.679  12.500  0.2945 -0.7559  1.0612
  549TMC3    H1 8150   2.718   4.270  12.403  1.2040 -0.0046  1.3518
  549TMC3    H2 8151   2.371   4.486  12.549 -1.1939 -1.1265 -2.1036
  549TMC3    C7 8152   2.448   4.262  12.458 -0.2587 -0.3253  0.0392
  549TMC3    C8 8153   2.489   0.008  12.531 -0.2980 -0.6573 -0.1141
  549TMC3    O1 8154   2.332   4.304  12.447 -0.0481  0.2173 -0.2478
  549TMC3    O2 8155   2.367   0.012  12.510  0.3560 -0.3190  0.2518
  550TMC3    C1 8156   2.031   2.456  12.571  0.2562 -0.8546  0.7612
  550TMC3    C2 8157   2.046   2.489  12.700 -0.4358 -0.5637  0.2849
  550TMC3    C3 8158   2.028   2.622  12.726 -0.0866 -0.5790  0.3278
  550TMC3    C4 8159   2.017   2.544  12.470 -0.2396  0.0232 -0.4351
  550TMC3    C5 8160   1.995   2.671  12.496  0.4798 -0.1780 -0.4773
  550TMC3    C6 8161   2.026   2.715  12.624  0.5812 -0.4436 -0.2598
  550TMC3     C 8162   2.009   2.316  12.532  0.1249 -0.2507  1.0565
  550TMC3     O 8163   2.071   2.225  12.590  0.6569 -0.1626  0.2881
  550TMC3     H 8164   2.064   2.409  12.771 -2.6839 -1.9230 -0.6642
  550TMC3    H1 8165   2.010   2.513  12.366  2.2934  0.5996 -0.7653
  550TMC3    H2 8166   1.994   2.815  12.650  2.3604 -0.4509  1.9474
  550TMC3    C7 8167   1.858   2.695  12.452  0.6874 -0.1790 -0.1870
  550TMC3    C8 8168   1.950   2.666  12.841  0.1162  0.1051 -0.7856
  550TMC3    O1 8169   1.808   2.594  12.398 -0.1133 -0.5568  0.0397
  550TMC3    O2 8170   1.951   2.786  12.875 -0.3383 -0.3652  0.7332
  551TMC3    C1 8171   3.924   0.037  13.321  1.1135 -0.8153  0.1518
  551TMC3    C2 8172   4.008   0.059  13.213  0.4516  0.9331  0.5894
  551TMC3    C3 8173   4.100   0.160  13.224  0.3702 -0.0687 -0.0563
  551TMC3    C4 8174   3.926   0.114  13.432  0.4635 -0.0501 -0.8370
  551TMC3    C5 8175   4.023   0.204  13.440 -0.4348 -0.2042 -0.4549
  551TMC3    C6 8176   4.105   0.233  13.335  0.0350  0.5044  0.4756
  551TMC3     C 8177   3.812   4.674  13.283 -0.3032 -0.6386 -1.0581
  551TMC3     O 8178   3.794   4.645  13.164  0.3410 -0.3652 -0.5120
  551TMC3     H 8179   4.007   4.722  13.123  2.1546  0.6010  0.7923
  551TMC3    H1 8180   3.863   0.113  13.520  0.2778  0.5296 -0.9584
  551TMC3    H2 8181   4.177   0.314  13.336  0.3141  0.2603  0.0578
  551TMC3    C7 8182   4.055   0.272  13.567 -0.2738  0.9147 -0.0024
  551TMC3    C8 8183   4.172   0.209  13.113 -0.1283 -0.2710 -0.1271
  551TMC3    O1 8184   4.039   0.207  13.668  0.3756 -0.6359 -0.1950
  551TMC3    O2 8185   4.213   0.324  13.118 -0.1040 -0.1506  0.2245
  552MPD2     C 8186   1.381   2.337  13.905  0.1806 -0.9039  0.3965
  552MPD2    C1 8187   1.315   2.250  13.987 -0.5336  0.5500 -0.4267
  552MPD2    C2 8188   1.386   2.195  14.091 -0.2881 -0.1879  0.1402
  552MPD2    C3 8189   1.522   2.230  14.122  0.4827  0.4362  0.2198
  552MPD2    C4 8190   1.591   2.309  14.024 -0.6839 -0.4664  0.5066
  552MPD2    C5 8191   1.523   2.350  13.910  0.2885  0.3062 -0.3097
  552MPD2     H 8192   1.357   2.103  14.139 -4.0934  0.3524 -1.1031
  552MPD2    H1 8193   1.698   2.319  14.040 -0.3887 -2.1479 -0.4701
  552MPD2    H2 8194   1.328   2.375  13.818  2.4511  0.7310 -0.2841
  552MPD2    H3 8195   1.573   2.416  13.840  0.1551  1.8659  1.0558
  552MPD2     N 8196   1.598   2.190  14.231 -0.0216  0.2792 -0.4088
  552MPD2    H5 8197   1.693   2.223  14.237 -0.0404  0.0037  1.4010
  552MPD2    N1 8198   1.177   2.210  13.972  0.3213 -0.8025  0.0328
  552MPD2    H7 8199   1.144   2.130  14.025  0.5057 -0.3593  0.8238
  553TMC3    C1 8200   0.959   2.211  13.887 -0.3778 -0.2133 -0.7538
  553TMC3    C2 8201   0.896   2.216  13.771 -0.0362 -0.4419 -0.7824
  553TMC3    C3 8202   0.804   2.115  13.743 -0.7964 -0.7485  0.0088
  553TMC3    C4 8203   0.939   2.107  13.973 -0.1113  0.0465 -0.6032
  553TMC3    C5 8204   0.854   2.007  13.937  0.0583 -0.1804 -0.3906
  553TMC3    C6 8205   0.773   2.017  13.828 -0.6879 -0.2731  0.2654
  553TMC3     C 8206   1.090   2.273  13.890 -0.0005  0.5264 -0.5264
  553TMC3     O 8207   1.105   2.368  13.821  0.5165 -0.6450 -0.5630
  553TMC3     H 8208   0.911   2.295  13.698 -3.3135  1.8316  0.9892
  553TMC3    H1 8209   0.986   2.108  14.071  2.6062  0.1297 -1.9331
  553TMC3    H2 8210   0.674   1.973  13.825 -1.4592  1.2167  3.7359
  553TMC3    C7 8211   0.848   1.877  13.998 -0.0882  0.2586  0.3537
  553TMC3    C8 8212   0.806   2.067  13.603  0.0996  0.8738 -0.4727
  553TMC3    O1 8213   0.742   1.821  14.034  0.0514  0.5706 -0.2517
  553TMC3    O2 8214   0.855   2.148  13.522  0.2792 -0.5865  0.3158
  554TMC3    C1 8215   2.741   0.954  11.400 -0.7278  0.4794 -0.3527
  554TMC3    C2 8216   2.714   0.903  11.276  0.3501  0.8048 -0.2214
  554TMC3    C3 8217   2.784   0.957  11.171  0.2451  0.1199 -0.1283
  554TMC3    C4 8218   2.819   1.056  11.429  0.2670 -0.0970 -0.3017
  554TMC3    C5 8219   2.881   1.109  11.320  0.6099 -0.1087  0.1319
  554TMC3    C6 8220   2.858   1.068  11.190  0.1718 -0.2878 -0.8220
  554TMC3     C 8221   2.672   0.882  11.508  0.3597  0.2789 -0.2574
  554TMC3     O 8222   2.585   0.797  11.481  0.3320 -0.0065  0.2539
  554TMC3     H 8223   2.646   0.821  11.259  0.7843  0.0481  1.7425
  554TMC3    H1 8224   2.841   1.094  11.529  2.8745 -1.9108 -0.1695
  554TMC3    H2 8225   2.921   1.105  11.110 -0.0754  0.9331 -0.4547
  554TMC3    C7 8226   2.963   1.226  11.340  0.4582 -0.4292  0.3433
  554TMC3    C8 8227   2.757   0.923  11.029  0.2614  0.2245 -0.4106
  554TMC3    O1 8228   2.998   1.256  11.457  0.1279  0.7977  0.6090
  554TMC3    O2 8229   2.788   1.007  10.943 -0.1124 -0.7013 -0.0497
  555TMC3    C1 8230   2.007   0.605  15.152  0.4467 -1.0382 -0.3965
  555TMC3    C2 8231   1.940   0.703  15.217  0.4356  0.0743 -0.2149
  555TMC3    C3 8232   1.936   0.686  15.354 -0.7654 -0.1825  0.6917
  555TMC3    C4 8233   2.056   0.494  15.218  0.3074  0.1219 -0.0039
  555TMC3    C5 8234   2.026   0.467  15.348 -0.3154  0.3744 -0.4354
  555TMC3    C6 8235   1.957   0.562  15.419  0.2570  0.2130  0.3189
  555TMC3     C 8236   2.065   0.662  15.030  0.1641 -0.2479 -0.1347
  555TMC3     O 8237   2.187   0.656  15.026  0.0699 -0.2455 -0.3041
  555TMC3     H 8238   1.925   0.803  15.178 -1.7240 -0.4904 -0.8030
  555TMC3    H1 8239   2.108   0.418  15.161 -0.5276  0.6917 -1.5140
  555TMC3    H2 8240   1.940   0.547  15.525  1.1220  0.5425  0.5029
  555TMC3    C7 8241   2.009   0.329  15.398 -0.2592  0.0484 -0.1586
  555TMC3    C8 8242   1.930   0.803  15.436  0.4828  0.0222 -0.8002
  555TMC3    O1 8243   1.924   0.322  15.488  0.1600 -0.4528  0.7204
  555TMC3    O2 8244   1.861   0.896  15.397  0.3648  0.4999  0.2454
  556MPD2     C 8245   0.759   1.985  10.566 -0.1030 -0.4779  0.0316
  556MPD2    C1 8246   0.627   1.989  10.615 -0.2914 -0.1503 -0.1017
  556MPD2    C2 8247   0.528   1.934  10.540  0.0808 -0.0459 -0.0812
  556MPD2    C3 8248   0.542   1.881  10.416  0.0720  0.3014  0.2106
  556MPD2    C4 8249   0.670   1.878  10.374 -0.6368 -1.2880  0.2494
  556MPD2    C5 8250   0.774   1.935  10.440  0.7054 -0.0944 -0.6984
  556MPD2     H 8251   0.423   1.949  10.566  0.4614 -0.4434  1.7002
  556MPD2    H1 8252   0.706   1.828  10.285  2.2800  0.1253  0.6363
  556MPD2    H2 8253   0.841   2.037  10.615  0.8809 -0.8083 -1.2862
  556MPD2    H3 8254   0.870   1.942  10.391  0.6684  2.0365 -0.4263
  556MPD2     N 8255   0.428   1.828  10.347 -0.1437  0.4976 -0.8109
  556MPD2    H5 8256   0.338   1.828  10.394 -0.1788 -1.8625 -0.8971
  556MPD2    N1 8257   0.585   2.056  10.738 -0.0974  0.4968 -0.1783
  556MPD2    H7 8258   0.488   2.045  10.765 -0.2385  1.1879 -0.3995
  557TMC3    C1 8259   0.302   1.708  10.189  0.3936 -0.0987  0.3899
  557TMC3    C2 8260   0.282   1.694  10.055 -0.6713  0.5503  0.3177
  557TMC3    C3 8261   0.172   1.638  10.006 -1.1731 -0.4964  0.0029
  557TMC3    C4 8262   0.216   1.673  10.289  0.0363 -0.3651 -0.6124
  557TMC3    C5 8263   0.104   1.612  10.235  0.4828  0.4784 -0.2675
  557TMC3    C6 8264   0.074   1.602  10.100 -0.4942  0.2228  0.6944
  557TMC3     C 8265   0.426   1.787  10.217  0.3892  0.2957  0.3528
  557TMC3     O 8266   0.520   1.784  10.136  0.2532 -0.5798 -0.1001
  557TMC3     H 8267   0.360   1.723   9.985 -0.8339  0.1555 -0.0281
  557TMC3    H1 8268   0.231   1.690  10.395 -3.4491 -0.2700 -0.1280
  557TMC3    H2 8269   4.714   1.540  10.067 -2.2150  1.8622  1.9780
  557TMC3    C7 8270   0.019   1.546  10.330  0.3941 -0.4162 -0.0092
  557TMC3    C8 8271   0.132   1.688   9.868  0.1828  0.2391 -0.2152
  557TMC3    O1 8272   4.702   1.611  10.428 -0.2151  0.4161 -0.2946
  557TMC3    O2 8273   0.206   1.772   9.814 -0.5766  0.4130  0.1442
  558TMC3    C1 8274   2.362   4.547   9.918  0.7426 -0.1104  1.0363
  558TMC3    C2 8275   2.264   4.518  10.016  0.6833  0.4659 -0.0656
  558TMC3    C3 8276   2.143   4.579  10.003  0.1277 -0.3335  0.3650
  558TMC3    C4 8277   2.333   4.625   9.813  0.3481 -0.8536 -0.7873
  558TMC3    C5 8278   2.205   4.658   9.788 -0.3620 -0.3713 -0.8580
  558TMC3    C6 8279   2.105   4.633   9.880  0.3452 -0.2870 -0.0199
  558TMC3     C 8280   2.493   4.495   9.940  0.6253  1.1006 -0.4621
  558TMC3     O 8281   2.581   4.576   9.928 -0.0563  0.3270 -0.3233
  558TMC3     H 8282   2.284   4.451  10.099  2.8829  0.4941 -0.5610
  558TMC3    H1 8283   2.415   4.639   9.743 -0.1406 -0.9982 -1.3856
  558TMC3    H2 8284   2.002   4.663   9.865  0.1910 -0.3288  0.9552
  558TMC3    C7 8285   2.171   4.716   9.657 -0.2528  0.4938 -0.3147
  558TMC3    C8 8286   2.041   4.533  10.096 -0.1302  0.0157 -0.3151
  558TMC3    O1 8287   2.266   0.005   9.579 -0.8613  0.4278  0.6724
  558TMC3    O2 8288   1.927   4.517  10.058  0.0158  0.1634 -0.6074
  559MPD2     C 8289   2.622   0.340  10.417  0.0286 -0.3792 -0.2074
  559MPD2    C1 8290   2.613   0.243  10.512  0.0318 -0.2655 -0.0928
  559MPD2    C2 8291   2.727   0.204  10.580  0.2778 -0.6192  0.5813
  559MPD2    C3 8292   2.850   0.252  10.549 -0.4543 -0.0697 -0.0938
  559MPD2    C4 8293   2.863   0.351  10.451  0.3982  0.1908 -0.6373
  559MPD2    C5 8294   2.749   0.392  10.383  0.0589  0.0478 -0.1115
  559MPD2     H 8295   2.707   0.138  10.664  2.2587  2.6181  3.5429
  559MPD2    H1 8296   2.956   0.401  10.429  0.0764  1.1687  0.2162
  559MPD2    H2 8297   2.542   0.380  10.355  0.0277 -1.9791 -1.2365
  559MPD2    H3 8298   2.743   0.458  10.298  1.3761 -0.1667 -0.3690
  559MPD2     N 8299   2.950   0.206  10.625 -0.1492 -0.2913  0.3435
  559MPD2    H5 8300   2.929   0.151  10.707  0.3667 -0.8838  0.0826
  559MPD2    N1 8301   2.485   0.202  10.549  0.3638  0.2118  0.2031
  559MPD2    H7 8302   2.404   0.237  10.498  0.1947 -0.5038 -0.0294
  560TMC3    C1 8303   3.158   0.192  10.727  0.3691 -0.3807  0.0074
  560TMC3    C2 8304   3.122   0.066  10.770  0.0745 -0.6578  0.1411
  560TMC3    C3 8305   3.121   0.028  10.901  0.3370 -0.5857 -0.1879
  560TMC3    C4 8306   3.221   0.275  10.827  0.5199 -0.1087 -0.3290
  560TMC3    C5 8307   3.228   0.235  10.955 -0.4351  0.0264 -0.0920
  560TMC3    C6 8308   3.182   0.114  10.993  0.3145 -0.1357  0.1107
  560TMC3     C 8309   3.085   0.242  10.613 -0.8165 -0.1154 -0.0095
  560TMC3     O 8310   3.135   0.340  10.551  0.5706 -0.2983 -0.1299
  560TMC3     H 8311   3.071   0.000  10.700 -0.9367 -1.1807  1.3801
  560TMC3    H1 8312   3.241   0.376  10.793 -2.0019  0.7604  0.8386
  560TMC3    H2 8313   3.167   0.083  11.096 -2.5189  0.0358 -0.2631
  560TMC3    C7 8314   3.264   0.328  11.059  0.5559 -0.5503 -0.3795
  560TMC3    C8 8315   3.008   4.662  10.939 -0.0876 -0.2149  0.1546
  560TMC3    O1 8316   3.245   0.288  11.174 -0.3349  0.2833  0.3172
  560TMC3    O2 8317   3.001   4.555  10.875 -0.0561 -0.0817  0.4971
  561TMC3    C1 8318   0.402   4.328  11.721  0.1068  0.1517 -0.8077
  561TMC3    C2 8319   0.338   4.311  11.840  0.2695  0.1161 -0.1779
  561TMC3    C3 8320   0.415   4.324  11.952  0.6263  0.3337  0.0634
  561TMC3    C4 8321   0.532   4.371  11.715  0.2456 -0.6779 -1.3051
  561TMC3    C5 8322   0.597   4.397  11.832  0.5521  0.9709  0.0212
  561TMC3    C6 8323   0.540   4.369  11.954 -1.1897 -0.3987  0.4405
  561TMC3     C 8324   0.321   4.326  11.594  0.0512 -1.0088 -0.4159
  561TMC3     O 8325   0.200   4.349  11.609  0.0138  0.4504  0.6681
  561TMC3     H 8326   0.238   4.269  11.840 -0.2106  1.2551 -3.1578
  561TMC3    H1 8327   0.569   4.402  11.618 -0.4952  0.5146 -1.2213
  561TMC3    H2 8328   0.588   4.392  12.048 -3.3476  0.8191  1.2444
  561TMC3    C7 8329   0.679   4.520  11.838 -0.6415  0.7194 -0.1673
  561TMC3    C8 8330   0.365   4.295  12.083 -1.1230  0.5627  0.5145
  561TMC3    O1 8331   0.662   4.591  11.936  0.3483  0.0379 -0.5472
  561TMC3    O2 8332   0.441   4.257  12.170 -0.3906  0.0443  0.4499
  562TMC3    C1 8333   2.106   1.386  16.467  1.2609  0.1810  0.5977
  562TMC3    C2 8334   2.074   1.507  16.423 -0.0852 -0.0592 -0.3228
  562TMC3    C3 8335   1.986   1.514  16.314 -0.2362 -0.3825  0.6528
  562TMC3    C4 8336   2.057   1.271  16.412 -0.3478  0.0217  0.4006
  562TMC3    C5 8337   1.964   1.280  16.313 -1.0863  0.0292 -0.5323
  562TMC3    C6 8338   1.923   1.404  16.270 -0.2511  0.2200  0.2857
  562TMC3     C 8339   2.186   1.370  16.588 -0.5015  0.4135 -0.2693
  562TMC3     O 8340   2.241   1.263  16.606  0.2505 -0.1526  0.2783
  562TMC3     H 8341   2.129   1.591  16.463  1.8753 -1.9357  0.9050
  562TMC3    H1 8342   2.094   1.175  16.446  1.5090  0.7856  0.5015
  562TMC3    H2 8343   1.845   1.409  16.195 -0.8703  0.9908  0.9787
  562TMC3    C7 8344   1.917   1.161  16.242 -0.2362 -0.4658  0.3843
  562TMC3    C8 8345   1.974   1.647  16.257  0.0632 -0.0142  0.1506
  562TMC3    O1 8346   1.874   1.180  16.129  0.2178  0.1995 -0.6966
  562TMC3    O2 8347   2.032   1.737  16.317  0.2034  0.0245  0.2927
  563MPD2     C 8348   4.015   2.279  15.686  0.3565  0.0884 -0.4294
  563MPD2    C1 8349   4.070   2.399  15.728 -0.5973  0.1890  0.0100
  563MPD2    C2 8350   4.196   2.392  15.774  0.0785 -0.4244  0.5184
  563MPD2    C3 8351   4.270   2.276  15.772 -0.3070 -0.4787 -0.6556
  563MPD2    C4 8352   4.215   2.157  15.731 -0.1116 -0.2788 -0.3909
  563MPD2    C5 8353   4.084   2.163  15.685 -0.1832  0.0236  0.2210
  563MPD2     H 8354   4.246   2.483  15.806 -0.0091 -0.9909  2.2445
  563MPD2    H1 8355   4.257   2.058  15.746 -2.1511 -0.8653  1.3250
  563MPD2    H2 8356   3.908   2.269  15.670  0.2668 -0.6670  0.6267
  563MPD2    H3 8357   4.029   2.074  15.656  1.8864 -1.0315 -0.5223
  563MPD2     N 8358   4.396   2.291  15.833 -0.3572 -0.7505 -0.5147
  563MPD2    H5 8359   4.420   2.385  15.862 -0.8867 -0.9240  0.4671
  563MPD2    N1 8360   3.988   2.508  15.745 -0.1367 -0.2160 -0.2210
  563MPD2    H7 8361   3.887   2.504  15.740 -0.1300 -1.1216  0.4574
  564TMC3    C1 8362   3.930   2.694  15.882 -0.5019  0.2776 -0.2643
  564TMC3    C2 8363   3.847   2.601  15.936 -0.1501 -0.0465 -0.4155
  564TMC3    C3 8364   3.822   2.596  16.076 -0.4093 -0.3072 -0.0973
  564TMC3    C4 8365   3.988   2.780  15.972 -0.1117 -0.2053  0.6830
  564TMC3    C5 8366   3.969   2.757  16.106  0.1941 -0.1243 -0.0938
  564TMC3    C6 8367   3.886   2.668  16.165 -0.8018 -0.4677  0.0117
  564TMC3     C 8368   4.027   2.629  15.795  0.5943  0.2835  0.6523
  564TMC3     O 8369   4.138   2.668  15.801 -0.2862  0.1022  0.0706
  564TMC3     H 8370   3.783   2.538  15.875  0.6267  0.0884 -1.3608
  564TMC3    H1 8371   4.063   2.852  15.942 -1.0759  1.3584  2.0087
  564TMC3    H2 8372   3.894   2.642  16.270  0.9617  0.4022  0.0852
  564TMC3    C7 8373   4.073   2.821  16.189 -0.1413 -0.2955  0.3293
  564TMC3    C8 8374   3.790   2.466  16.131 -1.0619  0.7048 -0.5946
  564TMC3    O1 8375   4.072   2.941  16.178  0.0136  0.1015  0.5971
  564TMC3    O2 8376   3.746   2.460  16.246 -0.5126  0.4682 -0.1806
  565TMC3    C1 8377   4.618   4.046   9.975 -1.1973  0.1354 -0.0177
  565TMC3    C2 8378   4.539   3.947  10.036  0.1482 -0.0905 -0.2647
  565TMC3    C3 8379   4.420   3.904   9.974 -0.4062  0.8061  0.3239
  565TMC3    C4 8380   4.579   4.094   9.855  0.5572  0.1217 -0.5824
  565TMC3    C5 8381   4.454   4.057   9.804 -0.2127  0.3727 -0.1128
  565TMC3    C6 8382   4.377   3.958   9.860  0.0438  0.8588 -0.8201
  565TMC3     C 8383   0.021   4.097  10.032  0.0704  0.2903 -0.4945
  565TMC3     O 8384   0.096   4.159   9.958 -0.1949  0.0650 -0.4376
  565TMC3     H 8385   4.565   3.899  10.130 -2.0411 -2.1451 -0.7056
  565TMC3    H1 8386   4.643   4.126   9.773 -1.7896  1.0092 -2.0797
  565TMC3    H2 8387   4.306   3.915   9.790  1.2875  1.3920 -2.4072
  565TMC3    C7 8388   4.416   4.104   9.672  0.1770  0.4456 -0.7496
  565TMC3    C8 8389   4.339   3.804  10.039 -0.1189 -0.5532 -0.0874
  565TMC3    O1 8390   4.322   4.048   9.613  0.3731 -0.7149 -0.1448
  565TMC3    O2 8391   4.389   3.751  10.139 -0.4238  0.1879 -0.0197
  566MPD2     C 8392   1.749   0.404  14.156  0.0024  0.1618  0.0955
  566MPD2    C1 8393   1.824   0.518  14.173  0.2508  0.5046  0.4442
  566MPD2    C2 8394   1.804   0.628  14.095  0.1091 -0.4753 -0.3849
  566MPD2    C3 8395   1.700   0.626  13.997 -0.5569 -0.0453  0.2080
  566MPD2    C4 8396   1.637   0.508  13.974 -0.4600  0.3269  0.2497
  566MPD2    C5 8397   1.658   0.399  14.056  0.3042 -0.1405  0.2937
  566MPD2     H 8398   1.880   0.705  14.104 -1.1485  0.7674 -0.4113
  566MPD2    H1 8399   1.575   0.494  13.886  0.4639 -1.3468 -0.1454
  566MPD2    H2 8400   1.771   0.311  14.206 -0.8646 -0.6366 -0.9979
  566MPD2    H3 8401   1.608   0.305  14.035 -0.5221  0.7451 -1.7745
  566MPD2     N 8402   1.694   0.727  13.901  0.5796 -0.0698 -0.4173
  566MPD2    H5 8403   1.633   0.711  13.822 -1.7014  1.0169  1.0855
  566MPD2    N1 8404   1.948   0.502  14.245  0.3660  0.5465  0.6287
  566MPD2    H7 8405   1.964   0.410  14.285  1.7747  0.4786 -0.1034
  567TMC3    C1 8406   2.153   0.540  14.343 -0.2362  0.0811 -0.4868
  567TMC3    C2 8407   2.273   0.610  14.321  1.1618 -0.3642  0.0967
  567TMC3    C3 8408   2.371   0.606  14.413 -0.2840 -0.3341  0.0731
  567TMC3    C4 8409   2.134   0.457  14.453 -0.5237  0.3516  0.0669
  567TMC3    C5 8410   2.244   0.454  14.535  1.4082  0.1456  0.2234
  567TMC3    C6 8411   2.359   0.520  14.520  0.7218  0.0702  0.3354
  567TMC3     C 8412   2.043   0.594  14.270 -0.2810 -0.0960  0.0321
  567TMC3     O 8413   2.047   0.716  14.247  0.0606  0.6969 -0.0767
  567TMC3     H 8414   2.271   0.694  14.253  1.1585 -0.1707  0.3397
  567TMC3    H1 8415   2.044   0.398  14.465 -0.6190  0.6268  0.7339
  567TMC3    H2 8416   2.432   0.510  14.598  1.4832  1.0149 -0.2558
  567TMC3    C7 8417   2.236   0.378  14.661  0.2600 -0.0564 -0.2523
  567TMC3    C8 8418   2.454   0.718  14.417  0.1725  0.3450 -0.5929
  567TMC3    O1 8419   2.341   0.327  14.695 -0.0253  0.6632 -0.4152
  567TMC3    O2 8420   2.488   0.767  14.313 -0.6754  0.1131  0.4345
  568MPD2     C 8421   3.263   1.269  17.008  0.1921 -0.1027 -0.6432
  568MPD2    C1 8422   3.389   1.299  17.054  0.5685 -0.7146 -0.3551
  568MPD2    C2 8423   3.464   1.391  16.982 -0.6929 -1.0452 -0.0302
  568MPD2    C3 8424   3.414   1.438  16.863 -0.5703  0.1062  0.5312
  568MPD2    C4 8425   3.289   1.410  16.821  0.4357  0.0165  0.6036
  568MPD2    C5 8426   3.216   1.319  16.894  0.7971 -0.5970  0.2932
  568MPD2     H 8427   3.562   1.417  17.020 -0.8618 -1.4702  0.6946
  568MPD2    H1 8428   3.246   1.451  16.730  0.1143 -1.5050  0.0610
  568MPD2    H2 8429   3.206   1.203  17.072  1.6359 -1.6326 -0.9277
  568MPD2    H3 8430   3.115   1.294  16.865  0.9072 -0.5473 -0.1259
  568MPD2     N 8431   3.477   1.548  16.804  0.3351 -0.0063  0.1157
  568MPD2    H5 8432   3.563   1.584  16.845 -1.2296  1.9886  1.5789
  568MPD2    N1 8433   3.430   1.252  17.187 -0.2708  0.1301  0.0809
  568MPD2    H7 8434   3.358   1.204  17.240 -1.9959 -0.7754 -3.0812
  569TMC3    C1 8435   3.526   1.719  16.658 -0.1753  0.2032  0.0498
  569TMC3    C2 8436   3.569   1.799  16.761  0.7617  0.2047 -0.9966
  569TMC3    C3 8437   3.639   1.916  16.726 -0.4957 -0.5686  0.1488
  569TMC3    C4 8438   3.556   1.741  16.528  0.1535 -0.4025 -0.3987
  569TMC3    C5 8439   3.628   1.852  16.504  0.1203 -0.4655  0.5381
  569TMC3    C6 8440   3.680   1.938  16.599 -0.0813 -0.6484 -0.6979
  569TMC3     C 8441   3.446   1.598  16.677  0.6443  0.1564 -0.9511
  569TMC3     O 8442   3.396   1.549  16.578  0.3232 -0.0154 -0.2562
  569TMC3     H 8443   3.528   1.792  16.861  1.2696 -1.7360 -0.9241
  569TMC3    H1 8444   3.504   1.685  16.452  0.3998 -1.4165  0.1747
  569TMC3    H2 8445   3.723   2.035  16.579 -0.8913 -0.0099  0.6778
  569TMC3    C7 8446   3.682   1.867  16.373 -0.0810 -0.3977 -0.3275
  569TMC3    C8 8447   3.686   1.994  16.847  0.8983  0.7067 -0.7181
  569TMC3    O1 8448   3.679   1.763  16.306  0.1001 -0.0170  0.0797
  569TMC3    O2 8449   3.671   1.946  16.959 -0.0595  0.2772  0.2376
  570TMC3    C1 8450   2.827   0.089  16.165 -0.8534 -0.4028 -0.5218
  570TMC3    C2 8451   2.889   0.134  16.049  0.5349  0.7331  0.4482
  570TMC3    C3 8452   2.945   0.253  16.052 -0.2944 -0.3049  1.1024
  570TMC3    C4 8453   2.839   0.150  16.287  0.3169  0.1378 -0.5077
  570TMC3    C5 8454   2.896   0.271  16.280  0.9853  0.2579  0.8618
  570TMC3    C6 8455   2.946   0.331  16.168  0.4117  0.3947 -0.2144
  570TMC3     C 8456   2.727   4.708  16.144 -0.0890 -0.3144 -0.2460
  570TMC3     O 8457   2.685   4.703  16.032 -0.0015 -0.6336  0.9141
  570TMC3     H 8458   2.876   0.076  15.959  0.1457  0.2621  0.8092
  570TMC3    H1 8459   2.785   0.121  16.377  2.5942 -1.5494  0.3212
  570TMC3    H2 8460   2.987   0.432  16.175  2.3218 -0.4106  0.1094
  570TMC3    C7 8461   2.917   0.340  16.406 -0.2350  0.1348  0.0106
  570TMC3    C8 8462   2.997   0.314  15.935  0.0776  0.1566 -0.3974
  570TMC3    O1 8463   2.903   0.463  16.401  0.4851  0.3295 -0.4369
  570TMC3    O2 8464   3.085   0.400  15.955 -0.3936 -0.2807 -0.2258
  571MPD2     C 8465   2.023   1.573  17.246  0.2458 -0.7841  0.2202
  571MPD2    C1 8466   1.917   1.572  17.341 -0.0586 -0.5207 -0.7742
  571MPD2    C2 8467   1.880   1.691  17.408  0.0228 -0.5055 -0.3782
  571MPD2    C3 8468   1.952   1.806  17.385  0.6337  0.0587 -0.1544
  571MPD2    C4 8469   2.043   1.808  17.282  0.1464  0.2822 -0.3120
  571MPD2    C5 8470   2.077   1.695  17.221  0.0612 -0.0184 -0.8069
  571MPD2     H 8471   1.802   1.703  17.482  0.0997  0.3991 -0.4390
  571MPD2    H1 8472   2.085   1.906  17.260  1.5057 -0.3323 -0.4115
  571MPD2    H2 8473   2.056   1.489  17.186  0.4701 -1.5549  1.4052
  571MPD2    H3 8474   2.142   1.707  17.135 -0.1182 -2.1493 -1.2462
  571MPD2     N 8475   1.932   1.930  17.451 -0.5929  0.0537 -0.2140
  571MPD2    H5 8476   1.980   2.010  17.411  1.2273 -1.2960 -0.7320
  571MPD2    N1 8477   1.859   1.444  17.359  0.1336  0.7112 -0.2316
  571MPD2    H7 8478   1.900   1.371  17.302 -0.5929 -0.3698  0.6050
  572TMC3    C1 8479   1.848   2.079  17.613 -0.6039  0.9403 -0.1100
  572TMC3    C2 8480   1.830   2.088   0.061 -0.4313 -0.4547  0.9374
  572TMC3    C3 8481   1.739   2.179   0.108 -0.2007  0.2433 -0.0396
  572TMC3    C4 8482   1.767   2.144  17.526  0.0913  0.0662  0.1344
  572TMC3    C5 8483   1.668   2.222  17.577  0.5424  0.2246  0.2873
  572TMC3    C6 8484   1.647   2.231   0.017 -0.3690  1.4017  0.1641
  572TMC3     C 8485   1.868   1.944  17.575  0.1146 -0.1119  0.2188
  572TMC3     O 8486   1.850   1.855  17.660 -0.5959 -0.2845  0.2849
  572TMC3     H 8487   1.888   2.031   0.133  0.4188  0.3151  0.8543
  572TMC3    H1 8488   1.775   2.115  17.422 -0.0466  0.8356 -0.0925
  572TMC3    H2 8489   1.564   2.293   0.049 -0.6995  2.0313 -1.9017
  572TMC3    C7 8490   1.586   2.308  17.491  0.5302 -0.6726  0.4288
  572TMC3    C8 8491   1.737   2.210   0.249 -0.0685  0.0128  0.6487
  572TMC3    O1 8492   1.496   2.372  17.545  0.0148  0.5072  0.1927
  572TMC3    O2 8493   1.847   2.188   0.301  0.0450  0.2191  0.1040
  573MPD2     C 8494   2.896   2.432   1.360 -0.9418  0.0722  0.2807
  573MPD2    C1 8495   3.029   2.458   1.335  0.2246  0.0132 -0.0520
  573MPD2    C2 8496   3.054   2.550   1.229  0.2098 -0.5169  0.1585
  573MPD2    C3 8497   2.951   2.613   1.173  0.1458 -0.6400  0.6175
  573MPD2    C4 8498   2.815   2.595   1.213  1.2345  0.3226  0.1958
  573MPD2    C5 8499   2.794   2.497   1.302 -0.4932 -1.1833  0.0944
  573MPD2     H 8500   3.154   2.568   1.191  0.0651 -1.6488 -0.7790
  573MPD2    H1 8501   2.725   2.635   1.168  1.1204 -0.5682 -0.3689
  573MPD2    H2 8502   2.871   2.350   1.426 -3.3414 -0.4255 -1.2397
  573MPD2    H3 8503   2.693   2.481   1.339 -0.9686  2.7322  0.4563
  573MPD2     N 8504   2.961   2.725   1.086  0.0997  0.1011  0.8431
  573MPD2    H5 8505   2.873   2.766   1.058  0.1312  0.0942  0.7314
  573MPD2    N1 8506   3.130   2.377   1.399  0.3403 -0.0536  0.2122
  573MPD2    H7 8507   3.107   2.324   1.483 -0.4453 -1.3205 -0.7881
  574TMC3    C1 8508   3.044   2.856   0.912  0.5190 -0.5190  0.2533
  574TMC3    C2 8509   2.935   2.933   0.923  0.7634 -0.1130  0.0538
  574TMC3    C3 8510   2.885   2.974   0.801 -0.5811 -0.4653  0.4436
  574TMC3    C4 8511   3.107   2.819   0.802 -0.0301  0.2778 -0.6180
  574TMC3    C5 8512   3.060   2.870   0.687 -0.2874  0.3104  0.4752
  574TMC3    C6 8513   2.945   2.949   0.684  0.0491 -0.2874 -0.2841
  574TMC3     C 8514   3.078   2.785   1.035  0.7273 -0.3514 -0.2399
  574TMC3     O 8515   3.198   2.776   1.062 -0.2959  0.1532 -0.8996
  574TMC3     H 8516   2.886   2.950   1.019  0.1904 -1.4187 -0.0098
  574TMC3    H1 8517   3.198   2.760   0.803  1.6529  2.8468 -1.3465
  574TMC3    H2 8518   2.906   2.979   0.588 -0.1326 -1.9830 -0.7329
  574TMC3    C7 8519   3.154   2.884   0.577 -0.3961 -0.1008  0.5910
  574TMC3    C8 8520   2.793   3.089   0.813  0.0715  0.5756 -0.1278
  574TMC3    O1 8521   3.103   2.920   0.473  0.0435  0.4784  0.7197
  574TMC3    O2 8522   2.789   3.148   0.918  0.4838  0.2322 -0.2267
  575TMC3    C1 8523   4.219   3.205  10.641 -0.2476 -0.0673  0.3620
  575TMC3    C2 8524   4.137   3.105  10.616  0.0276 -0.4926  0.0254
  575TMC3    C3 8525   4.054   3.099  10.510 -0.2958  0.2456  0.0859
  575TMC3    C4 8526   4.234   3.303  10.546 -0.7387  0.1517  0.5504
  575TMC3    C5 8527   4.145   3.303  10.440 -0.4456 -0.0645 -0.0168
  575TMC3    C6 8528   4.057   3.198  10.422 -0.2400 -0.6527  0.1947
  575TMC3     C 8529   4.312   3.180  10.754  0.3286 -0.2317 -0.9101
  575TMC3     O 8530   4.286   3.085  10.828  0.2125  0.4099  1.1162
  575TMC3     H 8531   4.143   3.023  10.687  0.5574 -1.0891 -0.7093
  575TMC3    H1 8532   4.310   3.380  10.552  2.2358 -2.7259  0.2716
  575TMC3    H2 8533   3.987   3.193  10.339 -0.3422  0.3822  0.2251
  575TMC3    C7 8534   4.162   3.414  10.348 -0.3038 -0.0198  1.2567
  575TMC3    C8 8535   4.001   2.968  10.472 -0.8788  0.3312 -0.0132
  575TMC3    O1 8536   4.265   3.478  10.361 -0.8418  0.1117 -0.6793
  575TMC3    O2 8537   4.035   2.880  10.550  0.4588  0.0213  0.0093
  576MPD2     C 8538   4.019   0.294  12.673  0.5314 -0.5691 -0.6969
  576MPD2    C1 8539   4.058   0.313  12.544 -0.1404  0.7442  0.1293
  576MPD2    C2 8540   4.050   0.438  12.486  0.5174  0.0289 -0.5642
  576MPD2    C3 8541   4.000   0.539  12.561  0.0268 -0.1453 -0.8880
  576MPD2    C4 8542   3.984   0.522  12.689  0.2412  0.1895 -0.0920
  576MPD2    C5 8543   3.989   0.401  12.752 -0.0875  0.3291 -0.9012
  576MPD2     H 8544   4.056   0.443  12.378 -2.2051 -0.3812 -0.7169
  576MPD2    H1 8545   3.953   0.610  12.745  1.7252  0.5764  0.1212
  576MPD2    H2 8546   4.023   0.195  12.717  0.0218 -0.3581 -0.1710
  576MPD2    H3 8547   3.960   0.389  12.855  1.3027 -0.5174 -0.6044
  576MPD2     N 8548   3.983   0.664  12.491  0.5152 -0.8934  0.1229
  576MPD2    H5 8549   4.000   0.654  12.391 -0.0748  0.0174 -0.0623
  576MPD2    N1 8550   4.118   0.205  12.465 -0.3169  0.1105 -0.3656
  576MPD2    H7 8551   4.162   0.225  12.375  1.8786 -2.5636  0.1366
  577TMC3    C1 8552   4.177   4.719  12.375 -0.1032 -0.1681 -0.0432
  577TMC3    C2 8553   4.249   4.611  12.412  0.2899  0.7857  0.1530
  577TMC3    C3 8554   4.315   4.544  12.310 -0.5432  0.9329 -0.7497
  577TMC3    C4 8555   4.167   0.042  12.248  0.2476  1.0312 -0.2769
  577TMC3    C5 8556   4.220   4.684  12.155  0.1383  0.2072 -0.0411
  577TMC3    C6 8557   4.297   4.575  12.178  0.3565  0.0207 -0.1338
  577TMC3     C 8558   4.121   0.075  12.493 -0.5117 -0.3628 -0.5764
  577TMC3     O 8559   4.095   0.016  12.598  0.7009  0.5983  0.6520
  577TMC3     H 8560   4.267   4.591  12.517  1.1502 -0.3496 -0.2014
  577TMC3    H1 8561   4.107   0.126  12.213  1.1350  0.7172 -2.6073
  577TMC3    H2 8562   4.339   4.510  12.101  0.1408 -0.4387  0.1349
  577TMC3    C7 8563   4.220   0.026  12.019 -0.0330 -0.2782  0.4163
  577TMC3    C8 8564   4.427   4.454  12.350 -1.0663 -0.0617 -0.0531
  577TMC3    O1 8565   4.191   0.148  12.012  0.3416  0.4441 -0.3043
  577TMC3    O2 8566   4.420   4.409  12.461 -0.4236  0.0384 -0.0398
  578MPD2     C 8567   2.255   0.431   0.680  0.2930  0.0088 -0.2904
  578MPD2    C1 8568   2.361   0.347   0.659 -0.3610  0.0022  0.2082
  578MPD2    C2 8569   2.449   0.307   0.759 -0.2726  0.1716 -0.3479
  578MPD2    C3 8570   2.433   0.359   0.886 -0.0836 -0.2826  0.4591
  578MPD2    C4 8571   2.327   0.441   0.907  0.4629 -0.1750 -1.0468
  578MPD2    C5 8572   2.237   0.477   0.805 -0.0015 -0.4531 -0.2392
  578MPD2     H 8573   2.538   0.250   0.735  1.2885  2.1329  0.7394
  578MPD2    H1 8574   2.312   0.485   1.005  0.0641 -5.3802  1.2080
  578MPD2    H2 8575   2.195   0.481   0.604 -1.5418 -0.4218  0.8666
  578MPD2    H3 8576   2.154   0.545   0.823  0.1208 -0.7971  1.6078
  578MPD2     N 8577   2.529   0.320   0.978 -0.4843 -0.3914 -0.2663
  578MPD2    H5 8578   2.598   0.251   0.950 -0.7332  0.0676 -1.9949
  578MPD2    N1 8579   2.379   0.300   0.524  0.5409  0.2306 -0.1730
  578MPD2    H7 8580   2.331   0.348   0.449  1.4459  1.6398  0.1521
  579TMC3    C1 8581   2.625   0.279   1.183  0.1986 -0.1872  0.4954
  579TMC3    C2 8582   2.666   0.336   1.302 -0.5329 -0.3085 -0.0014
  579TMC3    C3 8583   2.783   0.289   1.353  0.7848  0.3939 -0.1922
  579TMC3    C4 8584   2.668   0.156   1.139  0.5612 -0.6091  0.4156
  579TMC3    C5 8585   2.765   0.105   1.212 -0.1206 -0.1134  0.5660
  579TMC3    C6 8586   2.829   0.171   1.309 -0.2136 -0.4856 -0.3912
  579TMC3     C 8587   2.532   0.359   1.113 -0.0578 -0.3668  0.0523
  579TMC3     O 8588   2.476   0.448   1.168  0.5730 -1.3351 -0.2432
  579TMC3     H 8589   2.627   0.431   1.335 -0.4400  0.2129 -1.3985
  579TMC3    H1 8590   2.618   0.108   1.055  0.6021 -1.5806  0.9513
  579TMC3    H2 8591   2.915   0.127   1.358  0.9231  0.3129 -1.6656
  579TMC3    C7 8592   2.809   4.686   1.193  0.8023  0.4002  0.1991
  579TMC3    C8 8593   2.850   0.366   1.453 -0.3282  0.2436 -0.7500
  579TMC3    O1 8594   2.919   4.647   1.234 -0.2375  0.0784 -0.5273
  579TMC3    O2 8595   2.784   0.431   1.531  0.0352  0.6553  0.0999
  580TMC3    C1 8596   2.065   3.733  11.699 -0.6039 -0.2322  0.2529
  580TMC3    C2 8597   2.115   3.678  11.583  0.0462 -0.4178  0.3352
  580TMC3    C3 8598   2.196   3.567  11.596  0.5544  0.1073  0.1868
  580TMC3    C4 8599   2.071   3.667  11.822 -0.3009  0.5339 -0.8677
  580TMC3    C5 8600   2.140   3.551  11.818 -0.7151  0.5165 -0.8231
  580TMC3    C6 8601   2.210   3.503  11.715  0.4858 -0.1277 -0.2435
  580TMC3     C 8602   2.053   3.886  11.691  0.1402  0.4901 -0.5234
  580TMC3     O 8603   2.039   3.933  11.580  0.0529  0.1597  0.3121
  580TMC3     H 8604   2.128   3.729  11.488 -2.1477  0.0575  0.2756
  580TMC3    H1 8605   2.030   3.707  11.914 -1.6424 -0.9029 -0.8426
  580TMC3    H2 8606   2.289   3.431  11.732  2.2174  1.8807  0.2815
  580TMC3    C7 8607   2.163   3.484  11.944 -0.9551 -0.9404 -0.3707
  580TMC3    C8 8608   2.317   3.580  11.512 -0.5180 -0.7802  0.2752
  580TMC3    O1 8609   2.178   3.554  12.042 -0.0084 -0.1027 -0.0435
  580TMC3    O2 8610   2.303   3.595  11.392  0.2470  0.2689  0.2419
  581MPD2     C 8611   0.888   3.669  14.765 -0.2211 -0.1271  0.2572
  581MPD2    C1 8612   0.760   3.639  14.741 -0.3717 -0.0815 -0.1468
  581MPD2    C2 8613   0.700   3.705  14.638  0.6610  0.1339  0.1198
  581MPD2    C3 8614   0.761   3.800  14.561  0.1678  0.0744  0.7260
  581MPD2    C4 8615   0.895   3.829  14.587 -0.2348 -0.1558  0.4597
  581MPD2    C5 8616   0.956   3.759  14.692 -0.8849 -0.2770 -0.2670
  581MPD2     H 8617   0.600   3.677  14.606  1.0237 -0.7497 -0.2316
  581MPD2    H1 8618   0.961   3.901  14.540  0.6654 -0.3456  1.4406
  581MPD2    H2 8619   0.951   3.621  14.839 -0.3551 -0.6931  0.0040
  581MPD2    H3 8620   1.055   3.791  14.723 -0.4852  0.1863 -2.0248
  581MPD2     N 8621   0.688   3.857  14.450 -0.3284 -0.3299  0.0484
  581MPD2    H5 8622   0.587   3.867  14.449 -0.0711  2.4581  0.6799
  581MPD2    N1 8623   0.700   3.555  14.839 -0.5027  0.0252 -0.3592
  581MPD2    H7 8624   0.751   3.517  14.917  0.6577  2.9736  0.3183
  582TMC3    C1 8625   0.538   3.422  14.933  0.2337  0.3594 -0.0804
  582TMC3    C2 8626   0.604   3.438  15.052 -0.1234 -0.3440 -0.4954
  582TMC3    C3 8627   0.544   3.384  15.163 -0.7528 -0.0487 -0.4612
  582TMC3    C4 8628   0.426   3.349  14.917 -0.0875  0.2394  1.1210
  582TMC3    C5 8629   0.370   3.291  15.023 -0.3259 -0.2071  0.4609
  582TMC3    C6 8630   0.431   3.308  15.147 -0.4326  0.2226  0.1082
  582TMC3     C 8631   0.577   3.506  14.825  0.2693  0.6801  0.2216
  582TMC3     O 8632   0.496   3.514  14.733  0.4385  0.3773  0.6017
  582TMC3     H 8633   0.675   3.517  15.074 -0.0017 -0.5319 -0.2108
  582TMC3    H1 8634   0.371   3.340  14.825  0.5630 -0.8316  0.8349
  582TMC3    H2 8635   0.368   3.290  15.234  1.2108 -0.1648  1.2228
  582TMC3    C7 8636   0.231   3.318  15.032  0.0581  0.9760 -0.7241
  582TMC3    C8 8637   0.539   3.462  15.280  0.4051 -0.0262 -0.1414
  582TMC3    O1 8638   0.166   3.228  15.077  0.7385  0.3718  0.0914
  582TMC3    O2 8639   0.435   3.505  15.318 -0.3025  0.4852 -0.0921
  583MPD2     C 8640   0.306   0.870  16.887  0.2597  0.3958  0.2761
  583MPD2    C1 8641   0.370   0.962  16.797 -0.5101 -0.1445  0.0758
  583MPD2    C2 8642   0.389   1.083  16.852  1.1910 -0.5069 -0.5351
  583MPD2    C3 8643   0.350   1.125  16.978  0.1126  0.0313  0.1671
  583MPD2    C4 8644   0.289   1.029  17.062  0.6590 -0.5038 -0.0942
  583MPD2    C5 8645   0.272   0.904  17.016 -0.3460 -0.6050 -0.5990
  583MPD2     H 8646   0.444   1.156  16.794  0.1703 -1.8253 -3.1835
  583MPD2    H1 8647   0.257   1.056  17.162  1.3582  2.5144 -0.6770
  583MPD2    H2 8648   0.295   0.769  16.850 -0.6598  0.3126  0.7750
  583MPD2    H3 8649   0.231   0.828  17.081 -0.7065  1.9377  2.1433
  583MPD2     N 8650   0.392   1.253  17.014  0.4526  0.7150  0.1824
  583MPD2    H5 8651   0.434   1.309  16.939  0.2251 -0.4718 -0.8316
  583MPD2    N1 8652   0.423   0.921  16.668  0.0667  0.0709  0.1815
  583MPD2    H7 8653   0.455   1.000  16.613  1.7946 -1.5936 -1.2275
  584TMC3    C1 8654   0.487   1.410  17.164  0.0318  0.2862  0.4164
  584TMC3    C2 8655   0.484   1.497  17.060  0.4521 -0.0424  0.4839
  584TMC3    C3 8656   0.583   1.595  17.059  0.3625 -0.6225  0.0409
  584TMC3    C4 8657   0.574   1.415  17.264 -0.3360 -0.0638 -0.1009
  584TMC3    C5 8658   0.671   1.508  17.256 -0.2785  0.4039  0.6852
  584TMC3    C6 8659   0.679   1.602  17.159  0.3388  0.1297 -0.4263
  584TMC3     C 8660   0.411   1.285  17.150  0.0755 -0.6520  0.3591
  584TMC3     O 8661   0.378   1.229  17.250 -0.2094 -0.1007 -0.1069
  584TMC3     H 8662   0.409   1.506  16.983  0.7079 -1.3694  0.0815
  584TMC3    H1 8663   0.579   1.333  17.335  2.0542 -0.5717 -0.8487
  584TMC3    H2 8664   0.753   1.681  17.165 -1.4818  1.6736  1.6846
  584TMC3    C7 8665   0.754   1.540  17.370 -0.2781  0.5344 -0.6241
  584TMC3    C8 8666   0.552   1.715  16.977  0.3037 -0.1804 -0.1129
  584TMC3    O1 8667   0.856   1.604  17.343 -0.2224  0.1865  0.1256
  584TMC3    O2 8668   0.437   1.733  16.942 -0.0961 -0.1716  0.1326
  585MPD2     C 8669   4.072   0.109   0.322  0.1451 -0.1963  0.2232
  585MPD2    C1 8670   4.136   0.175   0.219 -0.6179 -0.3227 -0.6571
  585MPD2    C2 8671   4.187   0.099   0.115 -0.2215  0.3940  0.5344
  585MPD2    C3 8672   4.178   4.681   0.115  0.3723  0.5988 -0.0290
  585MPD2    C4 8673   4.116   4.619   0.228 -0.8821 -0.8304 -0.8686
  585MPD2    C5 8674   4.058   4.696   0.331 -0.1057  0.3444 -0.1759
  585MPD2     H 8675   4.238   0.143   0.030 -1.6172 -0.9505 -0.9753
  585MPD2    H1 8676   4.110   4.511   0.241  0.1550 -0.9743 -1.6099
  585MPD2    H2 8677   4.028   0.170   0.399 -1.9045 -1.3118 -0.0713
  585MPD2    H3 8678   4.007   4.654   0.417 -0.6660  2.8266  0.6867
  585MPD2     N 8679   4.225   4.595   0.014 -0.2716 -0.0001 -0.1604
  585MPD2    H5 8680   4.213   4.495   0.024  2.2648  0.2509  5.3940
  585MPD2    N1 8681   4.159   0.312   0.227  0.7511 -0.0959  0.4599
  585MPD2    H7 8682   4.125   0.354   0.313  0.0298  0.7091 -0.2175
  586TMC3    C1 8683   4.323   4.527  17.504 -0.3699  0.1357  0.1699
  586TMC3    C2 8684   4.425   4.547  17.416 -0.7009 -0.0671 -0.0003
  586TMC3    C3 8685   4.509   4.447  17.386 -0.3446  0.7913  0.3090
  586TMC3    C4 8686   4.281   4.402  17.541 -0.0269  0.2062 -0.9549
  586TMC3    C5 8687   4.357   4.299  17.481  0.0306  0.2469 -0.2473
  586TMC3    C6 8688   4.477   4.316  17.419  0.0708  0.4116  0.1530
  586TMC3     C 8689   4.283   4.640  17.591  0.0833 -0.0548 -0.6626
  586TMC3     O 8690   4.307   0.028  17.547 -0.2917 -0.1886 -0.5728
  586TMC3     H 8691   4.437   4.650  17.386 -0.6641 -0.8037 -2.5224
  586TMC3    H1 8692   4.178   4.388  17.571  0.8301  0.8963  2.2476
  586TMC3    H2 8693   4.538   4.231  17.392  1.2148  1.6569 -1.1003
  586TMC3    C7 8694   4.274   4.191  17.426  0.5606  0.1591 -0.0045
  586TMC3    C8 8695   4.560   4.441  17.254 -0.2443 -0.4351  0.4126
  586TMC3    O1 8696   4.167   4.177  17.481  0.3839 -0.8343 -0.1739
  586TMC3    O2 8697   4.661   4.372  17.243  0.2419 -0.1690 -0.1648
  587TMC3    C1 8698   1.663   3.438  15.974 -0.2303 -0.6087 -0.0494
  587TMC3    C2 8699   1.659   3.464  16.108 -0.1095  0.2570  0.1280
  587TMC3    C3 8700   1.766   3.433  16.178  0.6927 -0.4322  0.4042
  587TMC3    C4 8701   1.778   3.396  15.897 -0.1470  0.2316 -0.2522
  587TMC3    C5 8702   1.889   3.368  15.976 -0.0504  0.0624 -0.0182
  587TMC3    C6 8703   1.878   3.389  16.115 -0.0748 -0.6299  0.2649
  587TMC3     C 8704   1.543   3.446  15.896  0.1702 -0.5903 -0.0532
  587TMC3     O 8705   1.554   3.453  15.775  0.3880  0.2751  0.1354
  587TMC3     H 8706   1.571   3.494  16.163  0.1012  0.8584  0.1361
  587TMC3    H1 8707   1.776   3.363  15.793 -1.8089  0.2705 -0.2276
  587TMC3    H2 8708   1.968   3.384  16.176  0.3005  0.9293 -0.1381
  587TMC3    C7 8709   2.010   3.354  15.917 -0.5703 -0.5968 -0.8370
  587TMC3    C8 8710   1.782   3.474  16.317  0.1353  0.9408 -0.3929
  587TMC3    O1 8711   2.035   3.416  15.818 -0.6048 -0.3040  0.0703
  587TMC3    O2 8712   1.863   3.411  16.388  0.1155 -0.4940  0.0922
  588TMC3    C1 8713   3.989   0.258   9.761 -0.2008 -0.1167  0.1329
  588TMC3    C2 8714   3.998   0.123   9.786  0.4326  0.6166 -0.3147
  588TMC3    C3 8715   4.035   0.088   9.910  0.0564  0.3949  0.1685
  588TMC3    C4 8716   4.009   0.355   9.853 -0.0009  0.7378  0.4254
  588TMC3    C5 8717   4.050   0.311   9.982 -0.4331  0.0316  0.3548
  588TMC3    C6 8718   4.060   0.179  10.013 -0.5024 -0.6087  0.4077
  588TMC3     C 8719   3.899   0.285   9.644  0.0569  0.6495  0.7927
  588TMC3     O 8720   3.845   0.200   9.572 -0.2449 -0.0722 -0.4608
  588TMC3     H 8721   3.967   0.039   9.726  1.4446  1.5846 -2.1925
  588TMC3    H1 8722   4.017   0.455   9.812 -1.2727  0.8651  0.4760
  588TMC3    H2 8723   4.094   0.162  10.115  1.7033 -0.8095 -0.3656
  588TMC3    C7 8724   4.063   0.415  10.086  0.6555 -0.2864 -0.8974
  588TMC3    C8 8725   3.994   4.682   9.953 -0.2542  0.5331 -0.1541
  588TMC3    O1 8726   4.103   0.379  10.198  0.1453  0.1041 -0.0718
  588TMC3    O2 8727   3.903   4.625   9.890 -0.5764 -0.1719  0.0934
  589TMC3    C1 8728   0.330   4.217   1.880  0.1913 -0.5017  0.5706
  589TMC3    C2 8729   0.421   4.315   1.852  0.0142 -0.7473 -1.0705
  589TMC3    C3 8730   0.549   4.281   1.847  0.5368 -0.2639 -0.4830
  589TMC3    C4 8731   0.367   4.099   1.929  0.0275 -1.1023 -0.4317
  589TMC3    C5 8732   0.504   4.072   1.942  0.4113 -0.1823 -0.1780
  589TMC3    C6 8733   0.597   4.162   1.889  0.3009 -0.4917  0.4045
  589TMC3     C 8734   0.194   4.247   1.836 -0.2115 -0.2300 -0.7135
  589TMC3     O 8735   0.180   4.367   1.827 -0.1599 -0.2173 -0.0436
  589TMC3     H 8736   0.394   4.409   1.805 -4.2635 -0.7064  1.5044
  589TMC3    H1 8737   0.290   4.027   1.958  2.8252 -3.0852  2.0441
  589TMC3    H2 8738   0.702   4.135   1.881  0.2634 -0.6190  0.3505
  589TMC3    C7 8739   0.531   3.926   1.943 -0.4239  0.0137 -0.4689
  589TMC3    C8 8740   0.604   4.340   1.727 -0.3825 -0.2533  0.0332
  589TMC3    O1 8741   0.436   3.850   1.923 -0.1204  0.7245  0.3616
  589TMC3    O2 8742   0.607   4.462   1.711 -0.3491 -0.0306 -0.5371
  590MPD2     C 8743   3.015   1.642  16.728  0.9979  0.0445  0.0887
  590MPD2    C1 8744   3.014   1.607  16.598  0.2215 -0.4665  0.5153
  590MPD2    C2 8745   3.092   1.683  16.506  0.5177  0.8545 -0.2261
  590MPD2    C3 8746   3.168   1.788  16.549 -0.2975  0.3730 -0.4269
  590MPD2    C4 8747   3.173   1.819  16.681 -0.3711  0.3817 -0.3306
  590MPD2    C5 8748   3.104   1.741  16.768  0.0173 -0.2662 -0.0084
  590MPD2     H 8749   3.099   1.672  16.398 -1.7203  1.1339 -0.4184
  590MPD2    H1 8750   3.226   1.902  16.727  1.6194 -1.7014  1.0886
  590MPD2    H2 8751   2.965   1.578  16.799  1.8913 -1.2315 -0.4204
  590MPD2    H3 8752   3.126   1.766  16.871 -0.1534  0.2128 -0.0905
  590MPD2     N 8753   3.229   1.862  16.447 -0.0054 -0.6016  0.4896
  590MPD2    H5 8754   3.210   1.829  16.353 -1.9290  1.2683  0.2314
  590MPD2    N1 8755   2.927   1.510  16.561  0.5370 -0.1127 -0.0116
  590MPD2    H7 8756   2.865   1.480  16.635 -0.0689 -1.5630 -1.1174
  591TMC3    C1 8757   3.374   2.013  16.335  0.6828  0.2250 -0.2682
  591TMC3    C2 8758   3.364   1.936  16.221  0.0686  0.1138 -0.0749
  591TMC3    C3 8759   3.370   2.003  16.101  0.2780  0.5077 -0.6843
  591TMC3    C4 8760   3.391   2.148  16.328 -0.7976 -0.0000  0.2695
  591TMC3    C5 8761   3.385   2.213  16.204  0.3205 -0.3521 -0.2819
  591TMC3    C6 8762   3.378   2.139  16.091  0.7675 -0.0770  0.0262
  591TMC3     C 8763   3.318   1.964  16.464 -0.6284  0.4542  0.4468
  591TMC3     O 8764   3.360   2.008  16.569  0.5673 -0.1040  0.5946
  591TMC3     H 8765   3.346   1.829  16.216  1.9353 -0.2386  0.7446
  591TMC3    H1 8766   3.394   2.204  16.420  0.9206  0.3680 -0.0002
  591TMC3    H2 8767   3.343   2.180  15.997  0.3385 -0.4761  0.0119
  591TMC3    C7 8768   3.336   2.352  16.208  0.1599 -0.2469 -0.6354
  591TMC3    C8 8769   3.409   1.917  15.987  0.3862 -0.2338 -0.2326
  591TMC3    O1 8770   3.324   2.413  16.316 -0.1437  0.6909  0.6487
  591TMC3    O2 8771   3.388   1.795  15.997  0.3679 -0.1869  0.3342
  592MPD2     C 8772   3.364   3.164  11.350 -0.3740 -0.1620 -0.6287
  592MPD2    C1 8773   3.301   3.246  11.444  0.1051 -0.1507  0.6290
  592MPD2    C2 8774   3.186   3.194  11.499  0.6989 -0.1648  0.1884
  592MPD2    C3 8775   3.130   3.070  11.463  0.6759  0.0942  0.2651
  592MPD2    C4 8776   3.191   2.996  11.364 -0.1052  0.2249 -0.5365
  592MPD2    C5 8777   3.312   3.040  11.310 -0.8161  0.0081 -0.1027
  592MPD2     H 8778   3.120   3.245  11.568 -0.7873 -1.2016 -0.4563
  592MPD2    H1 8779   3.144   2.908  11.322 -0.3500 -0.0797  0.3723
  592MPD2    H2 8780   3.463   3.193  11.315  0.3072  1.4234  2.5911
  592MPD2    H3 8781   3.370   2.984  11.238 -1.2890 -0.6884  0.0589
  592MPD2     N 8782   3.003   3.042  11.514 -0.0682  0.3416 -0.7660
  592MPD2    H5 8783   2.979   3.101  11.593 -0.8228 -2.4545  1.0851
  592MPD2    N1 8784   3.366   3.370  11.485  0.2402 -0.1977 -0.1185
  592MPD2    H7 8785   3.441   3.391  11.420  1.1753 -1.2608  0.6067
  593TMC3    C1 8786   3.389   3.594  11.575 -0.1851  0.4413  0.6639
  593TMC3    C2 8787   3.380   3.665  11.687  1.1716  0.0962 -0.6260
  593TMC3    C3 8788   3.460   3.773  11.696  0.2208  0.2426 -0.4480
  593TMC3    C4 8789   3.466   3.625  11.466  0.1682 -0.0697 -0.1085
  593TMC3    C5 8790   3.535   3.740  11.479 -0.4005  0.4276 -0.1192
  593TMC3    C6 8791   3.541   3.814  11.597  0.0815 -0.6488 -0.3237
  593TMC3     C 8792   3.324   3.458  11.579 -0.5880  0.6731  0.5880
  593TMC3     O 8793   3.244   3.443  11.669 -0.3712  0.2198 -0.1253
  593TMC3     H 8794   3.324   3.623  11.770 -0.8309  3.6923 -0.1488
  593TMC3    H1 8795   3.480   3.568  11.375  0.8840  0.4859 -0.3533
  593TMC3    H2 8796   3.591   3.909  11.610  1.9902 -1.4437 -1.9922
  593TMC3    C7 8797   3.598   3.805  11.365  0.4278 -0.0964 -0.5101
  593TMC3    C8 8798   3.473   3.828  11.830  0.0515  0.0082 -0.9381
  593TMC3    O1 8799   3.679   3.890  11.397  0.4592  0.4795 -0.3940
  593TMC3    O2 8800   3.388   3.792  11.910  0.2370 -0.4802 -0.1209
  594MPD2     C 8801   2.253   2.066  14.793 -0.7408 -0.3624 -0.4399
  594MPD2    C1 8802   2.192   2.131  14.689  0.2094  0.0813  0.5525
  594MPD2    C2 8803   2.271   2.220  14.614 -0.4120 -0.5229  0.3734
  594MPD2    C3 8804   2.401   2.260  14.643  0.1652 -0.2531  0.6332
  594MPD2    C4 8805   2.450   2.197  14.754 -0.3219  0.0397  0.3761
  594MPD2    C5 8806   2.376   2.107  14.829  0.0979 -1.1585  0.3938
  594MPD2     H 8807   2.225   2.256  14.523 -0.8886  0.4670  1.0098
  594MPD2    H1 8808   2.548   2.224  14.791  0.2804 -1.3392 -0.1998
  594MPD2    H2 8809   2.198   1.994  14.852 -0.8886  0.0312 -0.0996
  594MPD2    H3 8810   2.403   2.069  14.926  4.0168 -0.1049 -0.2694
  594MPD2     N 8811   2.473   2.361  14.565  0.3585 -0.2717  0.3100
  594MPD2    H5 8812   2.432   2.387  14.475  0.9484 -1.5588 -0.3412
  594MPD2    N1 8813   2.058   2.086  14.660  0.2316  0.6226 -0.1850
  594MPD2    H7 8814   2.013   2.001  14.693 -0.2368  1.6593  1.8700
  595TMC3    C1 8815   2.804   2.577  14.344 -0.5809  0.4789 -0.1137
  595TMC3    C2 8816   2.774   2.511  14.461 -0.2629 -0.7338  0.1687
  595TMC3    C3 8817   2.639   2.499  14.489 -0.7116  0.5242 -0.4193
  595TMC3    C4 8818   2.711   2.641  14.269  0.6988  0.3183  0.1793
  595TMC3    C5 8819   2.578   2.629  14.301  0.3571  0.2956  0.4186
  595TMC3    C6 8820   2.544   2.554  14.410 -0.5238  0.4726  0.0182
  595TMC3     C 8821   2.940   2.618  14.324 -0.2673 -0.3915 -0.0413
  595TMC3     O 8822   2.951   2.706  14.242 -0.3849  0.1651  0.3275
  595TMC3     H 8823   2.850   2.476  14.529 -1.4348 -1.1798  1.2554
  595TMC3    H1 8824   2.734   2.665  14.166 -1.6097 -0.0051 -0.4077
  595TMC3    H2 8825   2.438   2.551  14.432 -0.3411 -0.1096  0.7887
  595TMC3    C7 8826   2.509   2.757  14.310  0.7708 -0.4815  0.0519
  595TMC3    C8 8827   2.599   2.403  14.584  0.7229  0.4423 -0.7411
  595TMC3    O1 8828   2.422   2.774  14.399  0.5644  0.5124  0.0176
  595TMC3    O2 8829   2.675   2.372  14.676  0.2445  0.3211 -0.3918
  596MPD2     C 8830   1.179   0.697  16.516  0.0190  0.2533  0.2668
  596MPD2    C1 8831   1.150   0.808  16.441 -0.5418  0.1710  0.7810
  596MPD2    C2 8832   1.140   0.798  16.302  0.3855  0.3311  0.1037
  596MPD2    C3 8833   1.144   0.673  16.239  0.0492  0.4851 -0.3164
  596MPD2    C4 8834   1.174   0.563  16.318  0.0864  0.0087  0.4720
  596MPD2    C5 8835   1.207   0.579  16.454 -0.0021  0.3249 -0.2092
  596MPD2     H 8836   1.113   0.884  16.242 -0.3571  0.5932  0.8145
  596MPD2    H1 8837   1.158   0.463  16.278 -1.9136  0.5699 -0.1150
  596MPD2    H2 8838   1.183   0.707  16.624 -0.4444  1.9611  0.1248
  596MPD2    H3 8839   1.232   0.493  16.516 -0.4620  2.2785  2.6784
  596MPD2     N 8840   1.092   0.653  16.113 -0.2909  0.5922 -0.1916
  596MPD2    H5 8841   1.060   0.563  16.080  1.0968  1.3760 -3.6223
  596MPD2    N1 8842   1.141   0.936  16.505 -0.0309 -0.5430  0.0244
  596MPD2    H7 8843   1.161   1.015  16.444 -0.1724 -1.4051 -1.1311
  597TMC3    C1 8844   1.179   1.088  16.684 -0.8083  0.1662 -0.5953
  597TMC3    C2 8845   1.251   1.171  16.600  0.6304 -0.2198 -0.0870
  597TMC3    C3 8846   1.298   1.285  16.651  0.1304  0.6743  0.0591
  597TMC3    C4 8847   1.168   1.115  16.815 -0.4341 -0.3277  0.7100
  597TMC3    C5 8848   1.234   1.222  16.870  0.9578 -0.1032 -0.3404
  597TMC3    C6 8849   1.288   1.322  16.787  0.4949 -0.3125  0.2478
  597TMC3     C 8850   1.132   0.962  16.641 -0.5814 -0.9961 -0.2314
  597TMC3     O 8851   1.080   0.888  16.725 -0.6281 -0.6234  0.1435
  597TMC3     H 8852   1.259   1.144  16.495  2.0034  2.4705 -0.6778
  597TMC3    H1 8853   1.114   1.044  16.876 -1.5473  0.5539  0.7638
  597TMC3    H2 8854   1.337   1.405  16.836  1.1775 -1.1387  0.9710
  597TMC3    C7 8855   1.230   1.231  17.014  0.7934 -0.4554 -0.1678
  597TMC3    C8 8856   1.380   1.372  16.567  0.3744 -0.7050  0.7296
  597TMC3    O1 8857   1.142   1.159  17.065 -0.1904  0.1130 -0.6084
  597TMC3    O2 8858   1.370   1.491  16.584 -0.7615  0.0894  0.0145
  598TMC3    C1 8859   4.384   2.437  15.401 -0.4000  0.5549 -0.1892
  598TMC3    C2 8860   4.328   2.316  15.394 -0.7062 -0.6559 -0.8484
  598TMC3    C3 8861   4.310   2.262  15.264  0.4485 -0.2386 -0.1230
  598TMC3    C4 8862   4.436   2.501  15.293 -0.0335 -0.2492 -0.3437
  598TMC3    C5 8863   4.423   2.445  15.168 -0.0310  0.1072 -0.6644
  598TMC3    C6 8864   4.362   2.322  15.152 -0.1902  1.0244 -0.1431
  598TMC3     C 8865   4.471   2.462  15.514  0.7738  0.3976 -0.5354
  598TMC3     O 8866   4.432   2.546  15.590  0.0681 -0.0904 -0.3192
  598TMC3     H 8867   4.303   2.264  15.485 -0.6571  0.3937 -0.2266
  598TMC3    H1 8868   4.481   2.598  15.311  0.3810 -0.6395  0.7394
  598TMC3    H2 8869   4.365   2.273  15.055 -0.0505 -0.6912  0.7203
  598TMC3    C7 8870   4.478   2.503  15.047 -0.5735  0.3843  0.3888
  598TMC3    C8 8871   4.219   2.151  15.241 -0.3052 -0.6131 -0.2016
  598TMC3    O1 8872   4.470   2.435  14.947  0.5686 -0.7878  0.9178
  598TMC3    O2 8873   4.165   2.144  15.132 -0.2878  0.0615 -0.3705
  599MPD2     C 8874   4.102   4.561  15.681  0.0474 -0.6217  0.2066
  599MPD2    C1 8875   4.046   4.440  15.648 -0.0762 -0.2358 -0.1011
  599MPD2    C2 8876   3.928   4.400  15.719 -1.0092 -0.7186 -0.9824
  599MPD2    C3 8877   3.867   4.481  15.810  0.2858 -0.2873 -0.6656
  599MPD2    C4 8878   3.923   4.601  15.828 -0.4717 -0.2162 -0.7683
  599MPD2    C5 8879   4.039   4.642  15.768 -0.6729  0.1414  0.0511
  599MPD2     H 8880   3.900   4.296  15.704 -2.2192 -0.4847 -0.3058
  599MPD2    H1 8881   3.884   4.668  15.904 -0.1440  0.4585 -1.1979
  599MPD2    H2 8882   4.203   4.578  15.645 -0.2741  2.5007  0.8108
  599MPD2    H3 8883   4.092   0.003  15.810 -1.9552  0.4621  1.0351
  599MPD2     N 8884   3.746   4.456  15.875 -0.1375  0.1881 -0.3415
  599MPD2    H5 8885   3.709   4.539  15.920  1.0574 -0.7075  2.3320
  599MPD2    N1 8886   4.120   4.353  15.564 -0.0104 -0.3204 -0.2169
  599MPD2    H7 8887   4.200   4.392  15.515  0.4734 -0.1084  0.7613
  600TMC3    C1 8888   3.552   4.357  15.939  0.8964 -0.7134  0.0887
  600TMC3    C2 8889   3.437   4.319  15.880  0.3018  0.4451 -0.0166
  600TMC3    C3 8890   3.318   4.356  15.934 -0.0060 -0.5269 -0.2153
  600TMC3    C4 8891   3.551   4.420  16.062  0.3680 -0.1969 -0.6194
  600TMC3    C5 8892   3.431   4.466  16.115  0.3885 -0.1095  0.2969
  600TMC3    C6 8893   3.318   4.425  16.056 -0.7482 -0.1433 -0.3505
  600TMC3     C 8894   3.677   4.335  15.878  0.0125  0.1214  0.8796
  600TMC3     O 8895   3.703   4.223  15.831 -0.2091  0.5429  0.1139
  600TMC3     H 8896   3.435   4.263  15.787  1.0962 -1.3088  1.0209
  600TMC3    H1 8897   3.643   4.458  16.103 -0.0084  0.0573 -0.0096
  600TMC3    H2 8898   3.221   4.461  16.089 -0.4916 -0.4550  0.7336
  600TMC3    C7 8899   3.422   4.454  16.262 -0.5446 -0.3620 -0.2368
  600TMC3    C8 8900   3.224   4.249  15.928  0.0660  0.5616  1.0437
  600TMC3    O1 8901   3.313   4.482  16.315  0.0389 -0.3301  0.4642
  600TMC3    O2 8902   3.156   4.223  15.830 -0.6070 -0.4257 -0.4504
  601MPD2     C 8903   1.545   2.588  17.068 -0.2607  0.3222  0.9517
  601MPD2    C1 8904   1.458   2.582  17.181 -0.4563  0.3275  0.5116
  601MPD2    C2 8905   1.491   2.493  17.280  0.2901  0.2785 -0.3320
  601MPD2    C3 8906   1.600   2.402  17.267 -0.1554  0.0235  1.0683
  601MPD2    C4 8907   1.679   2.406  17.150  0.1681 -0.2300  1.0978
  601MPD2    C5 8908   1.647   2.497  17.055 -0.4463 -0.5848 -0.2210
  601MPD2     H 8909   1.420   2.482  17.361  0.7114 -0.5777 -0.0730
  601MPD2    H1 8910   1.774   2.355  17.135 -0.5370 -2.2300  3.4055
  601MPD2    H2 8911   1.524   2.665  16.996 -1.9009 -1.7213 -0.7725
  601MPD2    H3 8912   1.710   2.504  16.968 -1.1168 -0.0039 -0.6548
  601MPD2     N 8913   1.642   2.314  17.367 -0.1883  0.6934  0.9882
  601MPD2    H5 8914   1.729   2.265  17.348 -0.6209 -0.5297  2.2266
  601MPD2    N1 8915   1.337   2.660  17.188 -0.6079  0.1202 -0.0636
  601MPD2    H7 8916   1.288   2.660  17.277 -0.7183 -0.7369 -0.1223
  602TMC3    C1 8917   1.153   2.786  17.114  0.5066 -0.3742 -0.4375
  602TMC3    C2 8918   1.163   2.906  17.171  0.0401  0.0429 -0.1527
  602TMC3    C3 8919   1.057   2.980  17.187  0.0835 -0.6359  0.1301
  602TMC3    C4 8920   1.035   2.740  17.065 -0.6493 -0.4325 -0.1858
  602TMC3    C5 8921   0.927   2.824  17.067  0.4686  0.0970  0.2189
  602TMC3    C6 8922   0.936   2.938  17.145  0.2253 -0.1786  1.0399
  602TMC3     C 8923   1.275   2.711  17.078  0.2275  0.4209 -0.2878
  602TMC3     O 8924   1.302   2.711  16.958  0.0307  0.1555  0.2059
  602TMC3     H 8925   1.264   2.940  17.192 -0.2957  0.8051  0.2447
  602TMC3    H1 8926   1.024   2.652  17.002 -2.9862  0.2784 -0.7980
  602TMC3    H2 8927   0.852   3.000  17.173 -0.3648 -1.0766  1.2547
  602TMC3    C7 8928   0.818   2.810  16.974  0.4816  0.5332 -0.3235
  602TMC3    C8 8929   1.082   3.120  17.195  0.5223  0.1193  0.4157
  602TMC3    O1 8930   0.845   2.735  16.883 -0.7165  0.4021 -0.1322
  602TMC3    O2 8931   1.171   3.161  17.270 -0.1532 -0.0607 -0.2886
  603TMC3    C1 8932   3.748   2.719  10.754 -1.1220 -0.1448 -0.4153
  603TMC3    C2 8933   3.862   2.680  10.820  0.4321 -0.3423  0.2252
  603TMC3    C3 8934   3.930   2.783  10.882  0.3870  0.3426  0.2524
  603TMC3    C4 8935   3.706   2.852  10.733  0.2812  0.9163  0.4189
  603TMC3    C5 8936   3.798   2.945  10.775  0.5570 -0.6596 -0.4960
  603TMC3    C6 8937   3.899   2.917  10.857  0.1897  0.2085 -0.5198
  603TMC3     C 8938   3.673   2.612  10.693  0.5203 -0.5479 -0.5249
  603TMC3     O 8939   3.565   2.641  10.646 -0.4808 -0.5492 -1.1281
  603TMC3     H 8940   3.883   2.579  10.854  1.0745 -0.2572  0.0893
  603TMC3    H1 8941   3.611   2.873  10.686  2.1644  0.6565 -3.4909
  603TMC3    H2 8942   3.945   2.997  10.913 -0.1320  2.1848 -3.0888
  603TMC3    C7 8943   3.796   3.077  10.718  0.2236 -0.1348  0.6679
  603TMC3    C8 8944   4.042   2.747  10.973  0.2252  0.2841  0.3837
  603TMC3    O1 8945   3.858   3.164  10.780  0.0582 -0.3903  0.4486
  603TMC3    O2 8946   4.070   2.627  10.973 -0.1955  0.3476  0.2497
  604MPD2     C 8947   0.374   2.075  16.417 -0.1912  0.6420  0.1132
  604MPD2    C1 8948   0.250   2.016  16.422 -0.1387 -0.6640  0.2092
  604MPD2    C2 8949   0.212   1.911  16.339 -0.2331 -0.3694 -0.4669
  604MPD2    C3 8950   0.315   1.857  16.257 -0.0750  0.7840  0.3734
  604MPD2    C4 8951   0.443   1.912  16.263  0.0518  0.1643 -1.3192
  604MPD2    C5 8952   0.472   2.024  16.342  0.1166 -0.0307 -0.2433
  604MPD2     H 8953   0.114   1.865  16.334 -0.8648  1.1795 -2.4015
  604MPD2    H1 8954   0.519   1.863  16.204 -1.3021 -1.4419 -1.7269
  604MPD2    H2 8955   0.397   2.165  16.472 -1.5698  1.1010 -0.0550
  604MPD2    H3 8956   0.569   2.072  16.354  1.6894 -2.5967 -2.5797
  604MPD2     N 8957   0.273   1.755  16.167  0.4905 -0.3832  0.0995
  604MPD2    H5 8958   0.181   1.715  16.177  0.3746 -0.7984 -2.5983
  604MPD2    N1 8959   0.163   2.085  16.510  0.4788 -0.2252  0.0827
  604MPD2    H7 8960   0.196   2.174  16.545  0.0377  0.5509 -1.4651
  605TMC3    C1 8961   4.681   2.156  16.611  0.1765 -0.7514  0.3802
  605TMC3    C2 8962   0.031   2.226  16.700  0.6806 -0.0612  0.0431
  605TMC3    C3 8963   4.690   2.329  16.767 -0.4057 -0.3052 -0.0166
  605TMC3    C4 8964   4.557   2.191  16.576 -0.1673 -0.1919 -0.4037
  605TMC3    C5 8965   4.500   2.304  16.633  0.4276 -0.7533 -0.4699
  605TMC3    C6 8966   4.569   2.370  16.735 -0.3816 -0.5903  0.2916
  605TMC3     C 8967   0.029   2.062  16.524 -1.0038  0.0488 -0.3455
  605TMC3     O 8968   4.690   1.972  16.470  0.4980 -0.3753 -0.2289
  605TMC3     H 8969   0.133   2.197  16.722  0.3243 -2.1502 -1.0967
  605TMC3    H1 8970   4.514   2.144  16.489  0.0604 -0.4104 -0.3986
  605TMC3    H2 8971   4.525   2.449  16.795  1.4669 -0.3552  1.3534
  605TMC3    C7 8972   4.392   2.378  16.574 -0.3607 -0.6631  0.9544
  605TMC3    C8 8973   0.046   2.425  16.847 -0.0736 -0.0084  0.1620
  605TMC3    O1 8974   4.365   2.483  16.630 -0.0259 -0.0556 -0.2201
  605TMC3    O2 8975   0.005   2.464  16.956 -1.0248  0.2961 -0.6814
  606TMC3    C1 8976   0.936   0.233  16.796 -0.6883 -0.0927 -0.5028
  606TMC3    C2 8977   0.878   0.348  16.844 -0.1759  0.0720 -0.2366
  606TMC3    C3 8978   0.802   0.343  16.966 -0.6591  0.9189 -0.0348
  606TMC3    C4 8979   0.935   0.123  16.875 -0.0037  0.5099  0.2213
  606TMC3    C5 8980   0.856   0.116  16.989  0.2698  0.0594  0.2073
  606TMC3    C6 8981   0.785   0.226  17.039  0.6934  0.0022 -0.4176
  606TMC3     C 8982   1.033   0.245  16.691  0.3172 -0.4073 -0.0773
  606TMC3     O 8983   1.110   0.341  16.693  0.1536  0.2882 -0.4709
  606TMC3     H 8984   0.897   0.439  16.789 -1.2733  1.1570  1.1449
  606TMC3    H1 8985   0.983   0.028  16.850 -1.7602 -0.2428 -0.3074
  606TMC3    H2 8986   0.743   0.224  17.139  1.6239  1.8019 -0.0028
  606TMC3    C7 8987   0.880   0.002  17.077 -0.7340  0.0834  0.0359
  606TMC3    C8 8988   0.828   0.451  17.060  0.7263  0.0546  0.0397
  606TMC3    O1 8989   0.999   4.695  17.067 -0.5755  0.3589  0.3403
  606TMC3    O2 8990   0.776   0.443  17.169 -0.2408  0.2507  0.3342
  607MPD2     C 8991   3.216   2.898  12.260 -0.0636 -0.0948  0.4949
  607MPD2    C1 8992   3.350   2.937  12.257 -0.8936 -0.1360 -0.1287
  607MPD2    C2 8993   3.445   2.870  12.330  0.2213 -0.4562 -0.4667
  607MPD2    C3 8994   3.411   2.763  12.405 -0.5436  0.0047  0.2066
  607MPD2    C4 8995   3.282   2.711  12.402  0.3692 -0.1336  0.5117
  607MPD2    C5 8996   3.194   2.781  12.327  0.0974 -0.5296  0.6904
  607MPD2     H 8997   3.549   2.900  12.317  0.6094 -0.6577  2.1261
  607MPD2    H1 8998   3.248   2.622  12.453  5.8531 -1.8284  1.1824
  607MPD2    H2 8999   3.137   2.933  12.196  0.8988 -3.1515 -2.3644
  607MPD2    H3 9000   3.092   2.746  12.327 -1.1210  3.0867 -2.1709
  607MPD2     N 9001   3.515   2.683  12.465  0.0920 -0.1724  0.0518
  607MPD2    H5 9002   3.613   2.704  12.449 -0.2048  1.3529  0.2089
  607MPD2    N1 9003   3.392   3.058  12.197  0.1960 -0.1266 -0.0549
  607MPD2    H7 9004   3.487   3.086  12.222 -0.3186  0.9754  0.6521
  608TMC3    C1 9005   3.381   3.259  12.081 -0.1600 -0.2006  0.2777
  608TMC3    C2 9006   3.428   3.311  12.199  0.0655 -0.1314 -0.7820
  608TMC3    C3 9007   3.539   3.386  12.202 -0.1390  0.2568 -0.4417
  608TMC3    C4 9008   3.445   3.289  11.961 -0.2837 -0.0215  0.3809
  608TMC3    C5 9009   3.557   3.366  11.965 -0.1004 -0.2343 -0.5986
  608TMC3    C6 9010   3.603   3.408  12.090 -0.7330  0.6845 -0.9539
  608TMC3     C 9011   3.321   3.128  12.103 -0.3124  0.1712  0.1763
  608TMC3     O 9012   3.240   3.087  12.020 -0.1237  0.6846  0.1413
  608TMC3     H 9013   3.381   3.294  12.295  0.1749  0.6417 -0.5925
  608TMC3    H1 9014   3.423   3.235  11.870 -1.4463 -1.8227  1.7349
  608TMC3    H2 9015   3.707   3.436  12.087 -0.5882  0.3704  0.9198
  608TMC3    C7 9016   3.616   3.407  11.836 -0.3833  0.4474  0.3046
  608TMC3    C8 9017   3.592   3.391  12.331 -0.8072  0.5809 -0.5399
  608TMC3    O1 9018   3.587   3.332  11.743  0.7262  0.0447 -0.0107
  608TMC3    O2 9019   3.521   3.464  12.404  0.5251 -0.2733 -0.2370
  609TMC3    C1 9020   1.406   1.769   9.250  0.8617 -0.3306  0.3614
  609TMC3    C2 9021   1.284   1.732   9.227  0.6111  0.0308 -0.8315
  609TMC3    C3 9022   1.269   1.618   9.156  0.0391 -0.4800  0.8914
  609TMC3    C4 9023   1.521   1.697   9.220 -0.0371  0.6987  0.1756
  609TMC3    C5 9024   1.505   1.578   9.157 -0.2700 -0.3197  0.3952
  609TMC3    C6 9025   1.376   1.539   9.120  0.8054  0.6432 -0.2880
  609TMC3     C 9026   1.416   1.898   9.326 -0.3029  0.2103 -0.2517
  609TMC3     O 9027   1.309   1.941   9.367 -0.1014  0.0459  0.7887
  609TMC3     H 9028   1.200   1.785   9.273  0.0850 -0.0029 -1.7642
  609TMC3    H1 9029   1.620   1.730   9.246 -0.6790  2.2022  0.7232
  609TMC3    H2 9030   1.355   1.450   9.062 -1.5799  1.7574 -1.0927
  609TMC3    C7 9031   1.617   1.483   9.148  0.3372  0.1262  0.1443
  609TMC3    C8 9032   1.138   1.557   9.136 -0.1714 -0.7932  0.1082
  609TMC3    O1 9033   1.728   1.518   9.186  0.2602 -0.0714 -0.2825
  609TMC3    O2 9034   1.135   1.439   9.106 -1.0460 -0.3917  0.6002
  610TMC3    C1 9035   3.923   3.336  12.778  0.2733 -0.6828 -0.3180
  610TMC3    C2 9036   3.913   3.414  12.668  0.5077 -0.3144  0.4502
  610TMC3    C3 9037   3.961   3.359  12.551 -0.0960  0.4276 -1.0818
  610TMC3    C4 9038   3.979   3.211  12.777  0.3175 -0.1428  0.2822
  610TMC3    C5 9039   4.023   3.158  12.661 -0.5556 -0.3070  0.0749
  610TMC3    C6 9040   4.014   3.232  12.547 -0.2499 -0.4311  1.1739
  610TMC3     C 9041   3.881   3.378  12.908  0.1222 -0.8334 -0.2366
  610TMC3     O 9042   3.889   3.299  12.997 -0.2618 -0.2039 -0.8776
  610TMC3     H 9043   3.873   3.515  12.657  0.8977  0.3639  5.0731
  610TMC3    H1 9044   3.993   3.156  12.868  0.4342  0.3758  0.5772
  610TMC3    H2 9045   4.074   3.201  12.463 -2.3167  0.6667 -0.6988
  610TMC3    C7 9046   4.085   3.025  12.654  0.3105 -0.4870 -0.3660
  610TMC3    C8 9047   3.965   3.441  12.429  0.0710 -0.2001  0.4723
  610TMC3    O1 9048   4.081   2.961  12.759 -0.9949  0.1559 -0.7560
  610TMC3    O2 9049   3.916   3.550  12.437  0.1757 -0.1874 -0.3150
  611MPD2     C 9050   3.021   2.525  10.179  0.2539 -0.2352  0.0061
  611MPD2    C1 9051   2.952   2.598  10.092 -0.4283 -0.6605 -0.2362
  611MPD2    C2 9052   3.019   2.710  10.035  0.7106  0.4098 -0.6702
  611MPD2    C3 9053   3.156   2.742  10.066  0.2386  0.2215 -0.0767
  611MPD2    C4 9054   3.217   2.652  10.157 -0.0967  0.2895  0.1740
  611MPD2    C5 9055   3.155   2.550  10.218 -0.7732 -0.0279  0.2040
  611MPD2     H 9056   2.957   2.775   9.974  1.3787 -0.0579 -1.8594
  611MPD2    H1 9057   3.318   2.673  10.189 -0.2021 -0.3410  0.9090
  611MPD2    H2 9058   2.965   2.450  10.235 -1.5159  1.4224  0.4318
  611MPD2    H3 9059   3.207   2.482  10.284  0.1910 -1.0486 -1.5951
  611MPD2     N 9060   3.223   2.854  10.031 -0.1390  0.4097  0.5088
  611MPD2    H5 9061   3.307   2.877  10.084 -1.9429  2.3746  2.5364
  611MPD2    N1 9062   2.815   2.563  10.071  1.0179  0.2017 -0.0151
  611MPD2    H7 9063   2.775   2.478  10.108  0.7609  0.9136  1.3491
  612TMC3    C1 9064   3.254   3.056   9.922 -0.7430  0.0325 -0.4722
  612TMC3    C2 9065   3.325   3.110  10.025  0.1563  0.4936  0.4752
  612TMC3    C3 9066   3.368   3.242  10.011  0.1885 -0.1970  0.0769
  612TMC3    C4 9067   3.229   3.126   9.811  0.1022  0.2787  0.1675
  612TMC3    C5 9068   3.268   3.254   9.802  0.4401 -0.4056 -0.0397
  612TMC3    C6 9069   3.347   3.314   9.897  0.2989  0.4620 -0.5028
  612TMC3     C 9070   3.186   2.929   9.923 -0.5742 -0.0679 -0.0227
  612TMC3     O 9071   3.092   2.912   9.847 -0.0341  0.3358 -0.2782
  612TMC3     H 9072   3.343   3.053  10.115  0.7630 -0.2655 -0.1232
  612TMC3    H1 9073   3.187   3.071   9.728  0.2113  1.1128 -0.4473
  612TMC3    H2 9074   3.361   3.421   9.882 -0.9779  0.4601 -1.6796
  612TMC3    C7 9075   3.184   3.351   9.730 -0.0617 -0.2418  0.2971
  612TMC3    C8 9076   3.464   3.304  10.102 -0.0082  0.3849 -0.2693
  612TMC3    O1 9077   3.227   3.460   9.699  0.1440 -0.0421 -0.1240
  612TMC3    O2 9078   3.495   3.422  10.084  0.0099 -0.3745 -0.0232
  613MPD2     C 9079   2.518   0.914  16.795  0.0674  0.1197  0.8363
  613MPD2    C1 9080   2.429   0.904  16.690 -0.5677  0.0030 -0.3084
  613MPD2    C2 9081   2.334   0.801  16.696  0.2037  0.1614 -0.1705
  613MPD2    C3 9082   2.333   0.714  16.804  0.0432  0.4955 -0.1985
  613MPD2    C4 9083   2.425   0.736  16.910  0.8364 -0.6939 -0.3122
  613MPD2    C5 9084   2.510   0.840  16.914 -0.0179 -0.1891  0.3782
  613MPD2     H 9085   2.270   0.785  16.610  0.0471 -0.6799  0.1011
  613MPD2    H1 9086   2.438   0.663  16.990 -0.8803  0.2553  0.8227
  613MPD2    H2 9087   2.598   0.987  16.795  0.0536  0.1348  0.8787
  613MPD2    H3 9088   2.584   0.853  16.991  2.3326 -1.7919 -1.5998
  613MPD2     N 9089   2.247   0.598  16.804  0.3437  0.0294 -0.2064
  613MPD2    H5 9090   2.264   0.530  16.878  1.5264 -2.0310 -2.3865
  613MPD2    N1 9091   2.449   0.990  16.573  0.0446 -0.0690 -0.7166
  613MPD2    H7 9092   2.523   1.059  16.573 -0.4423  0.4618  0.7949
  614TMC3    C1 9093   2.454   1.044  16.342 -1.4396  0.5847  0.2654
  614TMC3    C2 9094   2.539   0.949  16.297  0.6500 -0.1403 -0.6198
  614TMC3    C3 9095   2.545   0.918  16.163  0.0824  0.1717 -0.4098
  614TMC3    C4 9096   2.361   1.097  16.254  0.4583  0.2645 -0.6393
  614TMC3    C5 9097   2.363   1.061  16.120 -0.5519 -0.3154  0.5509
  614TMC3    C6 9098   2.456   0.971  16.072  0.5752  0.2175  0.1926
  614TMC3     C 9099   2.373   0.994  16.456  0.4065 -0.9223 -0.6946
  614TMC3     O 9100   2.264   0.948  16.423 -0.6065  0.4722 -0.4080
  614TMC3     H 9101   2.610   0.907  16.367  0.8649  2.1613  0.5380
  614TMC3    H1 9102   2.279   1.157  16.292  1.3574  0.6941  0.6092
  614TMC3    H2 9103   2.471   0.961  15.965 -1.8538 -0.4084 -0.1034
  614TMC3    C7 9104   2.243   1.082  16.040 -0.8144 -0.2732  0.5174
  614TMC3    C8 9105   2.592   0.791  16.115  0.5569 -0.4745  0.2150
  614TMC3    O1 9106   2.181   1.181  16.075  0.0346 -0.3782  0.0945
  614TMC3    O2 9107   2.617   0.774  15.999  0.2977 -0.1771 -0.1051
  615MPD2     C 9108   2.290   1.793  15.827  0.0899  0.1600  0.4291
  615MPD2    C1 9109   2.305   1.927  15.792 -0.8003  0.1689  0.1044
  615MPD2    C2 9110   2.227   1.988  15.703 -0.0115 -0.4032  0.6635
  615MPD2    C3 9111   2.113   1.917  15.658 -0.2211 -0.3610  0.7367
  615MPD2    C4 9112   2.086   1.793  15.703  0.0304  0.2633 -0.4798
  615MPD2    C5 9113   2.171   1.731  15.789 -0.3163  0.2479  0.7202
  615MPD2     H 9114   2.255   2.088  15.670 -0.5298 -0.1091  1.1260
  615MPD2    H1 9115   1.997   1.739  15.674  0.1680  0.3560 -1.0833
  615MPD2    H2 9116   2.333   1.745  15.914 -2.2538 -1.7018  0.5558
  615MPD2    H3 9117   2.149   1.632  15.826 -1.3674  0.5279  0.8509
  615MPD2     N 9118   2.030   1.971  15.560  0.1570 -0.1258  0.3180
  615MPD2    H5 9119   1.953   1.913  15.530 -0.3623  0.2473  0.9165
  615MPD2    N1 9120   2.418   2.010  15.831  0.9178 -0.9599  0.2121
  615MPD2    H7 9121   2.412   2.104  15.793  0.6788 -0.3948  1.6566
  616TMC3    C1 9122   2.636   2.067  15.935 -0.5696  0.3499 -0.0031
  616TMC3    C2 9123   2.718   2.044  16.044 -0.4640  0.2343  0.4426
  616TMC3    C3 9124   2.793   2.153  16.085  0.0196  0.2912  0.3396
  616TMC3    C4 9125   2.641   2.185  15.865  0.3928  0.7996  0.0734
  616TMC3    C5 9126   2.728   2.280  15.904 -1.3632  0.4003  0.2148
  616TMC3    C6 9127   2.800   2.270  16.014 -0.0760  0.5036  0.0400
  616TMC3     C 9128   2.529   1.970  15.905 -0.6491  0.6047  0.3821
  616TMC3     O 9129   2.553   1.855  15.938 -0.1024  0.5433  0.2800
  616TMC3     H 9130   2.693   1.954  16.098 -1.0250  0.7261  1.0075
  616TMC3    H1 9131   2.572   2.198  15.782 -0.7178 -0.6761  0.7667
  616TMC3    H2 9132   2.866   2.355  16.031  0.5044 -0.1120  0.8602
  616TMC3    C7 9133   2.668   2.411  15.880 -0.0003  0.2285  0.3154
  616TMC3    C8 9134   2.882   2.133  16.197 -0.1173 -0.5484 -0.2492
  616TMC3    O1 9135   2.549   2.427  15.851  0.8246  0.0244 -0.0398
  616TMC3    O2 9136   2.914   2.016  16.204 -0.5330  0.1709 -0.2509
  617MPD2     C 9137   4.589   0.544  13.648 -0.2374  0.1296  0.4369
  617MPD2    C1 9138   4.699   0.482  13.703  0.5543 -0.5492 -0.1480
  617MPD2    C2 9139   4.672   0.376  13.796  0.0346  0.2665 -0.9023
  617MPD2    C3 9140   4.547   0.337  13.825 -0.2667 -0.5094 -0.3607
  617MPD2    C4 9141   4.438   0.399  13.763  0.3527 -0.6462 -0.1936
  617MPD2    C5 9142   4.464   0.501  13.672 -0.3148  0.4367 -0.3060
  617MPD2     H 9143   0.032   0.320  13.839 -0.4643  0.2539  0.0553
  617MPD2    H1 9144   4.337   0.360  13.765 -0.4362  1.5074  2.8478
  617MPD2    H2 9145   4.591   0.622  13.573  1.6796  0.0149  0.3683
  617MPD2    H3 9146   4.385   0.557  13.626 -1.6983 -2.3135 -1.2739
  617MPD2     N 9147   4.507   0.248  13.924  0.2121  0.8023 -0.3876
  617MPD2    H5 9148   4.408   0.225  13.935  0.5000 -0.1123  0.3259
  617MPD2    N1 9149   0.112   0.523  13.676  0.0550 -0.0620 -0.3401
  617MPD2    H7 9150   0.179   0.454  13.710  0.4882  0.3242 -0.4185
  618TMC3    C1 9151   0.291   0.673  13.630  0.1879  0.3518  0.1143
  618TMC3    C2 9152   0.369   0.628  13.736 -0.1303 -0.3575  0.3774
  618TMC3    C3 9153   0.479   0.687  13.766  0.1219 -0.3867 -0.0194
  618TMC3    C4 9154   0.333   0.781  13.562  0.0214 -0.4216 -0.1406
  618TMC3    C5 9155   0.453   0.834  13.585  0.4391 -0.1414  0.2165
  618TMC3    C6 9156   0.531   0.782  13.682  0.8172  0.4377  0.0586
  618TMC3     C 9157   0.150   0.645  13.627  0.0249  0.7664 -0.2756
  618TMC3     O 9158   0.070   0.730  13.586 -0.9869  0.3067 -0.4884
  618TMC3     H 9159   0.329   0.543  13.789 -0.0366 -0.0644  0.9223
  618TMC3    H1 9160   0.267   0.836  13.496  1.7337 -0.2549 -1.7190
  618TMC3    H2 9161   0.632   0.821  13.690  0.6067  1.1734 -0.9101
  618TMC3    C7 9162   0.519   0.880  13.463  0.5801 -0.6627 -0.1836
  618TMC3    C8 9163   0.582   0.598  13.807  0.3209 -0.4787 -0.0967
  618TMC3    O1 9164   0.450   0.882  13.361  0.0830 -0.3821  0.2127
  618TMC3    O2 9165   0.635   0.600  13.913  0.0790 -0.4460  0.1811
  619MPD2     C 9166   1.253   1.426  13.771 -0.6446 -0.5988 -1.0931
  619MPD2    C1 9167   1.178   1.516  13.696 -0.6241 -0.4443  0.2256
  619MPD2    C2 9168   1.044   1.536  13.727  0.3998  0.3726  0.5496
  619MPD2    C3 9169   0.986   1.469  13.839 -0.4339  0.2986 -0.1033
  619MPD2    C4 9170   1.066   1.380  13.917  0.0136 -0.1091  0.0643
  619MPD2    C5 9171   1.194   1.357  13.875 -0.0966 -0.0268 -0.2836
  619MPD2     H 9172   0.975   1.598  13.671  1.3368  0.7442 -0.1897
  619MPD2    H1 9173   1.037   1.329  14.008 -0.5832  1.0559  0.5270
  619MPD2    H2 9174   1.357   1.408  13.745  0.0996 -0.4720  1.8059
  619MPD2    H3 9175   1.259   1.294  13.934  1.6575 -0.0783 -2.2983
  619MPD2     N 9176   0.852   1.498  13.888  0.2398  0.0142  0.5056
  619MPD2    H5 9177   0.813   1.457  13.972  1.2340 -1.1115  0.4207
  619MPD2    N1 9178   1.233   1.591  13.590  0.3481  0.1249  0.0600
  619MPD2    H7 9179   1.162   1.648  13.545  1.8400  2.4049  0.6255
  620TMC3    C1 9180   1.377   1.703  13.455 -0.5051 -0.1460 -0.2789
  620TMC3    C2 9181   1.278   1.696  13.361  0.5285 -0.0587 -0.1397
  620TMC3    C3 9182   1.269   1.793  13.263 -0.0272  0.0212 -0.4690
  620TMC3    C4 9183   1.461   1.806  13.461  1.1085 -0.0317 -0.5783
  620TMC3    C5 9184   1.438   1.911  13.378 -0.3542  0.1770  0.4673
  620TMC3    C6 9185   1.343   1.906  13.276  0.1573 -0.4134  0.2986
  620TMC3     C 9186   1.359   1.634  13.579 -0.2690 -0.2296  0.1384
  620TMC3     O 9187   1.455   1.620  13.653 -0.1493 -0.6450  0.0167
  620TMC3     H 9188   1.224   1.603  13.351  0.3269 -0.0160  0.5788
  620TMC3    H1 9189   1.538   1.816  13.536 -0.0134  1.0724  0.4093
  620TMC3    H2 9190   1.333   1.985  13.202  0.6204  0.3177  1.0182
  620TMC3    C7 9191   1.449   2.037  13.441  0.1992  0.4625  0.2674
  620TMC3    C8 9192   1.134   1.837  13.254 -0.2389  0.0878 -1.0046
  620TMC3    O1 9193   1.533   2.055  13.525  0.0507 -0.1463  0.4569
  620TMC3    O2 9194   1.124   1.953  13.290 -0.0065  0.1803 -0.0877
  621MPD2     C 9195   1.339   0.818  10.135  0.4566  0.0682  0.4526
  621MPD2    C1 9196   1.465   0.825  10.192 -0.4600  0.1378 -0.4764
  621MPD2    C2 9197   1.523   0.947  10.211 -0.1598  0.3851 -0.3985
  621MPD2    C3 9198   1.475   1.063  10.146  0.1663 -0.2922  0.0561
  621MPD2    C4 9199   1.358   1.049  10.078  0.5400  0.1518 -0.1747
  621MPD2    C5 9200   1.296   0.927  10.072  0.2114  0.7914 -0.0847
  621MPD2     H 9201   1.607   0.960  10.279 -1.3133  1.1456  0.8804
  621MPD2    H1 9202   1.308   1.132  10.030  0.3562  0.5995  0.7968
  621MPD2    H2 9203   1.287   0.722  10.136  1.8391 -0.6975 -0.9802
  621MPD2    H3 9204   1.204   0.926  10.015  1.0733  1.0132 -1.4988
  621MPD2     N 9205   1.548   1.178  10.163 -0.7704  0.1233  0.4271
  621MPD2    H5 9206   1.632   1.180  10.221 -1.7593  0.0612  1.8515
  621MPD2    N1 9207   1.518   0.721  10.270 -0.7335 -0.5454  0.4547
  621MPD2    H7 9208   1.603   0.738  10.322 -1.3111 -0.0365  1.2364
  622TMC3    C1 9209   1.509   0.533  10.412 -0.1201 -0.3372 -0.4275
  622TMC3    C2 9210   1.536   0.613  10.514 -0.4006  0.6208 -0.8085
  622TMC3    C3 9211   1.578   0.554  10.626  0.9419 -0.0431 -0.5379
  622TMC3    C4 9212   1.524   0.401  10.420  0.7556 -0.8121  0.1856
  622TMC3    C5 9213   1.559   0.344  10.542  0.6797 -0.3792 -0.3745
  622TMC3    C6 9214   1.577   0.423  10.647  0.6178 -0.5680  0.3502
  622TMC3     C 9215   1.463   0.596  10.286 -0.1444 -0.5049 -0.4367
  622TMC3     O 9216   1.391   0.527  10.214 -0.2937  0.0618  0.1226
  622TMC3     H 9217   1.495   0.713  10.517  0.2332  0.8004  1.4305
  622TMC3    H1 9218   1.499   0.342  10.333 -3.2536 -1.0752  1.5271
  622TMC3    H2 9219   1.614   0.393  10.745  1.2353  1.2186  0.6697
  622TMC3    C7 9220   1.575   0.202  10.561 -0.2287 -0.2685 -0.7448
  622TMC3    C8 9221   1.605   0.640  10.738 -0.2905  0.3580 -0.1794
  622TMC3    O1 9222   1.631   0.170  10.665 -0.2396  0.3375  0.5968
  622TMC3    O2 9223   1.594   0.598  10.851 -0.7933  0.3615  0.1807
  623MPD2     C 9224   0.518   2.105  15.987 -0.4473  0.6244 -0.1334
  623MPD2    C1 9225   0.460   2.217  16.043 -0.4317  0.2276  0.1860
  623MPD2    C2 9226   0.531   2.317  16.104 -0.0176 -0.8233 -0.0119
  623MPD2    C3 9227   0.664   2.304  16.132 -0.0592 -0.6185 -0.1229
  623MPD2    C4 9228   0.727   2.200  16.067 -0.2016 -0.4304  0.2864
  623MPD2    C5 9229   0.656   2.104  15.991  0.8928  0.0863  0.5937
  623MPD2     H 9230   0.470   2.400  16.139 -0.4315 -1.5470  0.9672
  623MPD2    H1 9231   0.835   2.203  16.059 -0.1334 -0.1914  1.3298
  623MPD2    H2 9232   0.464   2.033  15.928  0.8795 -0.7790  0.3609
  623MPD2    H3 9233   0.713   2.024  15.946 -0.6747 -1.1529  0.8278
  623MPD2     N 9234   0.730   2.411  16.196 -1.1334 -0.7262  0.2387
  623MPD2    H5 9235   0.669   2.479  16.242  1.4467  2.0770 -0.4819
  623MPD2    N1 9236   0.318   2.237  16.039 -0.2192 -0.4993  0.1094
  623MPD2    H7 9237   0.278   2.328  16.057  0.4802 -0.1637 -0.0727
  624TMC3    C1 9238   0.975   2.390  16.541  0.4943 -0.1416  0.1202
  624TMC3    C2 9239   0.868   2.434  16.612  0.3111  0.8443 -0.2501
  624TMC3    C3 9240   0.779   2.517  16.549  0.0769  0.2025 -0.0028
  624TMC3    C4 9241   0.997   2.421  16.410  0.1255  0.4388 -0.1480
  624TMC3    C5 9242   0.894   2.486  16.341  0.9291  0.1460 -0.1032
  624TMC3    C6 9243   0.782   2.525  16.413 -0.1164 -0.2845 -0.4851
  624TMC3     C 9244   1.024   2.264  16.592 -0.2640 -0.0375 -0.0584
  624TMC3     O 9245   0.975   2.211  16.690  0.0563 -0.6210 -0.0373
  624TMC3     H 9246   0.875   2.414  16.718 -1.4263  0.9975 -0.1149
  624TMC3    H1 9247   1.079   2.385  16.350  0.5585  0.8235  0.2084
  624TMC3    H2 9248   0.702   2.579  16.364 -2.1609 -1.5091  1.4666
  624TMC3    C7 9249   0.864   2.422  16.212  0.5050 -0.0207  0.1228
  624TMC3    C8 9250   0.652   2.548  16.609 -0.1818  0.2298 -0.0746
  624TMC3    O1 9251   0.960   2.375  16.152 -0.4546 -0.0787 -0.7735
  624TMC3    O2 9252   0.565   2.572  16.525  0.8334  0.0890  0.1608
  625MPD2     C 9253   0.739   3.161  17.690  0.8598  0.5632  0.1300
  625MPD2    C1 9254   0.803   3.219   0.103 -0.2510 -1.0357 -0.0400
  625MPD2    C2 9255   0.905   3.148   0.167 -0.0935 -0.0879  0.4304
  625MPD2    C3 9256   0.939   3.018   0.128  0.2032  0.4824  0.2170
  625MPD2    C4 9257   0.862   2.957   0.031 -0.1013 -0.1887  0.4698
  625MPD2    C5 9258   0.765   3.030  17.655  0.4517 -0.3095 -0.4228
  625MPD2     H 9259   0.961   3.197   0.246  0.0061  0.5336 -0.0234
  625MPD2    H1 9260   0.882   2.857  17.689 -3.3637 -0.2437 -1.1938
  625MPD2    H2 9261   0.666   3.209  17.627  1.1966  2.1204  0.9452
  625MPD2    H3 9262   0.713   2.993  17.567 -1.2323 -0.3460  0.5963
  625MPD2     N 9263   1.040   2.955   0.203 -0.0430  0.2567 -0.1562
  625MPD2    H5 9264   1.098   3.010   0.265  1.4173 -1.4009 -0.0779
  625MPD2    N1 9265   0.783   3.354   0.138 -0.0022 -0.2665 -0.0629
  625MPD2    H7 9266   0.852   3.379   0.209 -1.3924 -1.3683  1.6779
  626TMC3    C1 9267   0.673   3.551   0.207 -0.3379  0.3282 -0.0700
  626TMC3    C2 9268   0.628   3.668   0.152 -0.2457  0.0520 -0.5862
  626TMC3    C3 9269   0.647   3.782   0.223 -0.2727  0.3547 -1.0800
  626TMC3    C4 9270   0.743   3.546   0.326  0.0645  0.3737 -0.1528
  626TMC3    C5 9271   0.781   3.665   0.379 -0.0194 -0.6784 -0.5492
  626TMC3    C6 9272   0.729   3.780   0.333  0.7826  0.6709 -1.7859
  626TMC3     C 9273   0.679   3.438   0.112  0.8492  0.0299 -0.6315
  626TMC3     O 9274   0.584   3.420   0.041  0.3677 -0.3880  0.2952
  626TMC3     H 9275   0.565   3.679   0.064  1.6307 -1.3884 -2.0898
  626TMC3    H1 9276   0.775   3.451   0.369 -1.1529 -0.8470 -1.9747
  626TMC3    H2 9277   0.752   3.877   0.376  2.2485 -1.2167  1.7459
  626TMC3    C7 9278   0.853   3.652   0.511  0.0650  0.0459  0.3111
  626TMC3    C8 9279   0.583   3.905   0.174 -0.4362  0.0676 -0.1303
  626TMC3    O1 9280   0.873   3.535   0.546 -0.4905 -0.3682 -0.1794
  626TMC3    O2 9281   0.556   3.911   0.056 -0.4765  0.8382  0.1757
  627MPD2     C 9282   0.531   3.565  13.863  0.5784  0.2842 -0.3330
  627MPD2    C1 9283   0.434   3.652  13.896 -0.6054  0.4069 -0.2091
  627MPD2    C2 9284   0.297   3.608  13.903 -0.6419  0.0357  0.5486
  627MPD2    C3 9285   0.271   3.469  13.898 -0.3314  0.1932  0.4101
  627MPD2    C4 9286   0.373   3.385  13.876 -0.0919 -0.3073 -0.2624
  627MPD2    C5 9287   0.501   3.430  13.854  0.4438  0.2333 -0.1392
  627MPD2     H 9288   0.215   3.675  13.927 -1.2846 -0.6664  0.2901
  627MPD2    H1 9289   0.363   3.278  13.864 -3.3736  0.1081 -1.0966
  627MPD2    H2 9290   0.637   3.588  13.866  0.4727  0.5558  0.9827
  627MPD2    H3 9291   0.577   3.356  13.835 -0.9753 -0.9527 -1.2037
  627MPD2     N 9292   0.134   3.436  13.917 -0.2373  0.0442 -0.3894
  627MPD2    H5 9293   0.062   3.506  13.930 -0.2003 -0.3967  2.1142
  627MPD2    N1 9294   0.455   3.792  13.926  0.3247  0.7595 -0.1255
  627MPD2    H7 9295   0.380   3.856  13.950 -1.0788 -0.6548 -0.7817
  628TMC3    C1 9296   0.587   3.955  14.028 -0.6034 -0.4228 -0.2311
  628TMC3    C2 9297   0.685   3.944  14.124  0.9785  0.1689  0.2272
  628TMC3    C3 9298   0.660   3.977  14.251 -0.0284  0.0349 -0.2754
  628TMC3    C4 9299   0.476   4.029  14.062 -0.0495 -0.0479  0.0584
  628TMC3    C5 9300   0.457   4.069  14.190  0.3067 -0.4795 -0.9846
  628TMC3    C6 9301   0.543   4.032  14.289  0.0577  0.2845 -0.3794
  628TMC3     C 9302   0.582   3.840  13.940  0.3524 -0.3346 -0.2322
  628TMC3     O 9303   0.688   3.782  13.929  0.0065 -0.4607  0.2396
  628TMC3     H 9304   0.777   3.895  14.095  0.6818 -0.1837 -0.1175
  628TMC3    H1 9305   0.409   4.040  13.977  0.3431 -0.2714 -0.2746
  628TMC3    H2 9306   0.531   4.074  14.389 -0.4633 -1.5234  0.3294
  628TMC3    C7 9307   0.339   4.143  14.224  0.2077  0.4083  0.3623
  628TMC3    C8 9308   0.748   3.918  14.343 -0.0725 -0.0127 -0.4225
  628TMC3    O1 9309   0.287   4.200  14.129  0.3422  0.5298 -0.1987
  628TMC3    O2 9310   0.862   3.893  14.305  0.4116 -0.6202  0.2424
  629MPD2     C 9311   3.086   2.308  16.618 -1.4754  0.4028  0.7389
  629MPD2    C1 9312   3.047   2.417  16.542 -0.3459 -0.1346  0.3706
  629MPD2    C2 9313   3.021   2.401  16.408  0.4850  0.0692  0.1597
  629MPD2    C3 9314   3.005   2.273  16.367 -0.4638 -0.0476 -0.1690
  629MPD2    C4 9315   3.039   2.166  16.448  0.2506 -0.7953  0.0549
  629MPD2    C5 9316   3.086   2.184  16.570  0.1036  0.3778  0.0227
  629MPD2     H 9317   3.001   2.486  16.344 -0.0597  0.4475  0.8322
  629MPD2    H1 9318   3.020   2.067  16.406  0.5372 -0.3607 -1.1067
  629MPD2    H2 9319   3.123   2.319  16.719 -3.2913  2.3292  1.1984
  629MPD2    H3 9320   3.110   2.098  16.632  4.4615  0.8809 -0.9103
  629MPD2     N 9321   2.921   2.254  16.254 -0.6701 -0.0431 -0.6199
  629MPD2    H5 9322   2.894   2.337  16.202 -0.2929  0.6011  0.2150
  629MPD2    N1 9323   3.048   2.549  16.598  0.5074  0.6416 -0.4625
  629MPD2    H7 9324   3.087   2.554  16.692  2.2310 -0.2931 -1.1311
  630TMC3    C1 9325   2.991   2.779  16.602 -0.6196 -0.3082 -0.1263
  630TMC3    C2 9326   2.962   2.874  16.512  0.0057 -0.1221  0.1639
  630TMC3    C3 9327   3.019   2.999  16.530 -0.5118  0.2784  0.2408
  630TMC3    C4 9328   3.088   2.790  16.702 -0.1814  0.0817  0.7597
  630TMC3    C5 9329   3.136   2.920  16.724  0.0114  0.4227  0.0575
  630TMC3    C6 9330   3.108   3.026  16.634 -0.1064 -0.1106 -0.5486
  630TMC3     C 9331   2.966   2.648  16.559 -0.5049 -0.2690  0.4427
  630TMC3     O 9332   2.880   2.644  16.473  0.3647  0.5173 -0.6265
  630TMC3     H 9333   2.880   2.861  16.443  0.0673 -0.2970  0.1218
  630TMC3    H1 9334   3.093   2.719  16.784  1.7353 -0.7288 -0.0686
  630TMC3    H2 9335   3.136   3.127  16.659 -0.3708  0.2537 -1.7522
  630TMC3    C7 9336   3.236   2.932  16.822  0.3890  0.3808  0.2654
  630TMC3    C8 9337   3.042   3.097  16.425  0.3095 -0.5584 -0.0358
  630TMC3    O1 9338   3.242   2.854  16.913 -0.4649  0.0479 -0.0153
  630TMC3    O2 9339   3.118   3.188  16.446 -0.2728  0.4938  0.1193
  631MPD2     C 9340   1.130   2.343  15.602  0.3788 -0.2433 -0.1665
  631MPD2    C1 9341   1.171   2.388  15.474 -0.3523 -1.1926 -0.4332
  631MPD2    C2 9342   1.278   2.332  15.417 -0.5335  0.0990 -0.1351
  631MPD2    C3 9343   1.366   2.243  15.484 -0.5662  0.6186 -0.0949
  631MPD2    C4 9344   1.325   2.202  15.608 -0.3213 -0.2544 -0.9302
  631MPD2    C5 9345   1.209   2.248  15.662  0.3146  0.2888 -0.4456
  631MPD2     H 9346   1.298   2.361  15.314  1.8949 -1.1251  0.0004
  631MPD2    H1 9347   1.386   2.134  15.665 -0.4512  0.8345  0.4982
  631MPD2    H2 9348   1.040   2.385  15.646 -0.5093 -0.2473 -1.9614
  631MPD2    H3 9349   1.182   2.218  15.763  0.6515 -0.4477 -0.5738
  631MPD2     N 9350   1.474   2.189  15.417  0.0609  0.4151  0.7031
  631MPD2    H5 9351   1.477   2.219  15.320  0.4698 -1.6925  0.0544
  631MPD2    N1 9352   1.092   2.492  15.413  0.2607  0.1456 -0.0103
  631MPD2    H7 9353   1.008   2.519  15.464  1.0181  0.9258  0.8264
  632TMC3    C1 9354   1.034   2.650  15.242  0.1813 -0.4896 -0.3869
  632TMC3    C2 9355   0.899   2.624  15.245 -0.3134 -0.9429  0.1912
  632TMC3    C3 9356   0.829   2.646  15.127  0.3526  0.6450  0.5914
  632TMC3    C4 9357   1.092   2.715  15.136  0.5933  0.1463 -0.8723
  632TMC3    C5 9358   1.016   2.726  15.024 -0.5669 -0.6885 -0.1035
  632TMC3    C6 9359   0.883   2.692  15.010 -0.4071  0.2923  0.0940
  632TMC3     C 9360   1.131   2.559  15.296 -0.3117  0.1403 -0.7230
  632TMC3     O 9361   1.233   2.548  15.229 -0.0204 -0.4467  0.3212
  632TMC3     H 9362   0.843   2.565  15.317  1.1688 -1.0436  1.2504
  632TMC3    H1 9363   1.198   2.739  15.136  0.8072 -0.8023  0.5704
  632TMC3    H2 9364   0.837   2.672  14.914 -2.0693  0.0720  0.9213
  632TMC3    C7 9365   1.094   2.691  14.911  0.2265 -0.0354 -0.8468
  632TMC3    C8 9366   0.684   2.631  15.140  0.0992 -0.0949 -0.9411
  632TMC3    O1 9367   1.054   2.731  14.803 -0.5782 -0.4132  0.5438
  632TMC3    O2 9368   0.650   2.588  15.250  0.3420  0.2453 -0.4502
  633MPD2     C 9369   0.929   0.862  17.592 -0.5541 -0.0479 -0.0563
  633MPD2    C1 9370   0.853   0.799  17.501  0.0070  0.3178 -1.2834
  633MPD2    C2 9371   0.773   0.697  17.543  0.6602 -0.7763 -0.0841
  633MPD2    C3 9372   0.772   0.652  17.666  0.2087 -0.3699  0.1319
  633MPD2    C4 9373   0.855   0.712   0.061 -0.0231 -0.1821  0.2268
  633MPD2    C5 9374   0.937   0.815   0.027 -0.2277 -0.0454 -0.0818
  633MPD2     H 9375   0.717   0.646  17.466  1.1222 -0.5705 -0.5555
  633MPD2    H1 9376   0.847   0.684   0.166  1.0220  0.7237  0.5516
  633MPD2    H2 9377   0.982   0.953  17.567 -1.2876  0.3082 -0.3182
  633MPD2    H3 9378   1.002   0.852   0.106 -0.3949  1.8615 -0.8534
  633MPD2     N 9379   0.695   0.541   0.010  0.0748  0.7717 -0.6425
  633MPD2    H5 9380   0.716   0.509   0.104  2.4015  2.2634 -0.6357
  633MPD2    N1 9381   0.829   0.845  17.373  0.2975 -0.3916  0.0194
  633MPD2    H7 9382   0.767   0.788  17.317 -1.5698  0.1834  1.4941
  634TMC3    C1 9383   0.820   0.988  17.192  0.2790  0.4229  0.0367
  634TMC3    C2 9384   0.757   0.882  17.122 -0.2371  0.0233 -0.6826
  634TMC3    C3 9385   0.732   0.900  16.988  0.0614  0.3400  0.7073
  634TMC3    C4 9386   0.854   1.102  17.127  0.3882  0.5577 -0.1098
  634TMC3    C5 9387   0.825   1.114  16.994 -0.3996 -0.2289 -0.5222
  634TMC3    C6 9388   0.770   1.014  16.923 -0.2789 -0.0712 -0.5782
  634TMC3     C 9389   0.879   0.963  17.320 -0.2456  0.2199 -0.0154
  634TMC3     O 9390   0.955   1.041  17.375  0.7914 -0.4825 -0.2813
  634TMC3     H 9391   0.741   0.780  17.155 -0.7499  0.7517  1.2982
  634TMC3    H1 9392   0.875   1.194  17.180  0.7256  0.0628  0.6120
  634TMC3    H2 9393   0.742   1.031  16.820  1.4943  1.7555 -0.7571
  634TMC3    C7 9394   0.834   1.236  16.918  0.0220  0.7460  0.2689
  634TMC3    C8 9395   0.693   0.790  16.910  0.1803  0.1973  0.1968
  634TMC3    O1 9396   0.746   1.258  16.838 -0.1681  0.0224  0.0533
  634TMC3    O2 9397   0.611   0.717  16.963  0.1923  0.3542  0.5573
  635TMC3    C1 9398   1.681   1.301  17.386  0.3028 -0.4801 -0.0352
  635TMC3    C2 9399   1.705   1.248  17.264  0.1600  0.4680 -0.2528
  635TMC3    C3 9400   1.648   1.135  17.231  0.0261  0.0289 -0.0069
  635TMC3    C4 9401   1.599   1.240  17.476  0.0201  0.2817  0.1837
  635TMC3    C5 9402   1.533   1.123  17.437 -0.8533  0.2846  0.0291
  635TMC3    C6 9403   1.561   1.064  17.318  0.8962 -0.2710  0.8208
  635TMC3     C 9404   1.744   1.419  17.433  0.0905 -0.2592  0.4374
  635TMC3     O 9405   1.704   1.475  17.534  0.1721  0.1691  0.6660
  635TMC3     H 9406   1.777   1.288  17.194 -0.1010 -1.0791 -1.4268
  635TMC3    H1 9407   1.578   1.292  17.569 -0.9095 -0.5788  0.4530
  635TMC3    H2 9408   1.512   0.971  17.291 -4.5632  2.3151  1.7624
  635TMC3    C7 9409   1.449   1.044  17.531 -0.9279  0.2039  0.4146
  635TMC3    C8 9410   1.642   1.117  17.087  0.0970  0.6014 -0.6352
  635TMC3    O1 9411   1.395   0.944  17.482 -0.1162 -0.1933 -0.1673
  635TMC3    O2 9412   1.688   1.198  17.014 -0.1786 -0.0415 -0.3627
  636MPD2     C 9413   1.899   0.884  16.130 -0.0577  0.8389 -1.0011
  636MPD2    C1 9414   1.925   0.916  16.261  0.3829  0.2706 -0.3778
  636MPD2    C2 9415   1.954   0.813  16.347  0.7522 -0.1940  0.5989
  636MPD2    C3 9416   1.947   0.683  16.306 -0.2974  0.2927 -0.3546
  636MPD2    C4 9417   1.914   0.655  16.178 -0.4252 -0.0927  0.2067
  636MPD2    C5 9418   1.891   0.754  16.088  0.5584  0.4349  0.2300
  636MPD2     H 9419   1.964   0.837  16.452 -2.0884 -2.8946  1.4735
  636MPD2    H1 9420   1.907   0.556  16.135 -0.4978  0.5280 -1.2199
  636MPD2    H2 9421   1.878   0.960  16.055  1.6813  1.0267 -1.3037
  636MPD2    H3 9422   1.860   0.738  15.985  0.0358 -1.8649  0.7525
  636MPD2     N 9423   1.990   0.582  16.396  0.6293  0.5424  0.5869
  636MPD2    H5 9424   2.010   0.612  16.491 -2.1447  1.7344  0.8046
  636MPD2    N1 9425   1.926   1.046  16.312  0.6839  0.0754 -0.6292
  636MPD2    H7 9426   1.960   1.054  16.407  2.2617  4.3755 -1.5642
  637TMC3    C1 9427   2.048   0.376  16.485  0.4949  0.4498  0.8023
  637TMC3    C2 9428   2.023   0.442  16.600  0.0724  0.2709  0.4101
  637TMC3    C3 9429   2.112   0.440  16.702 -0.2895 -0.6650 -0.0341
  637TMC3    C4 9430   2.164   0.302  16.473 -0.5830  0.1543 -0.3278
  637TMC3    C5 9431   2.252   0.309  16.576  0.1741 -0.0493  0.3311
  637TMC3    C6 9432   2.223   0.363  16.696 -0.1116 -0.1209  0.5556
  637TMC3     C 9433   2.005   0.449  16.368 -0.5265 -0.0438  0.3193
  637TMC3     O 9434   2.011   0.385  16.263 -0.2450  0.2539 -0.0331
  637TMC3     H 9435   1.925   0.487  16.608  0.3595  0.8920  0.4144
  637TMC3    H1 9436   2.186   0.271  16.371  0.6044  0.9453 -0.3203
  637TMC3    H2 9437   2.306   0.365  16.765 -0.1637  1.5623  0.5631
  637TMC3    C7 9438   2.392   0.340  16.533 -0.3316  0.0939 -0.0239
  637TMC3    C8 9439   2.143   0.578  16.723 -0.9105 -0.1127 -0.4363
  637TMC3    O1 9440   2.458   0.414  16.607 -0.0158 -0.3415 -0.5143
  637TMC3    O2 9441   2.078   0.663  16.661  0.0578 -0.2752  0.0306
  638MPD2     C 9442   2.057   4.333  14.427  0.0963  0.5361  0.3833
  638MPD2    C1 9443   1.934   4.312  14.372  0.0933  0.4981 -0.5848
  638MPD2    C2 9444   1.834   4.241  14.436  0.0190  0.3207 -0.1615
  638MPD2    C3 9445   1.851   4.191  14.562 -0.0690  0.6396 -0.2187
  638MPD2    C4 9446   1.974   4.209  14.622  0.4082 -0.3541  0.3144
  638MPD2    C5 9447   2.075   4.281  14.555 -0.2373  0.0663 -1.1889
  638MPD2     H 9448   1.737   4.222  14.391 -0.5792 -1.7429  2.0032
  638MPD2    H1 9449   1.996   4.157  14.715  0.8429  0.7923  0.8545
  638MPD2    H2 9450   2.135   4.397  14.387  2.7344 -1.0895  2.8998
  638MPD2    H3 9451   2.170   4.292  14.606  0.1825 -2.7805 -1.3790
  638MPD2     N 9452   1.744   4.114  14.625 -0.1274  1.1258  0.1899
  638MPD2    H5 9453   1.671   4.087  14.561  0.5628 -1.3179  0.4295
  638MPD2    N1 9454   1.927   4.353  14.236  0.1122 -0.2404 -0.7179
  638MPD2    H7 9455   2.016   4.390  14.207  0.8456 -0.1080  1.7268
  639TMC3    C1 9456   1.659   3.965  14.788 -0.2714  0.0549  0.3019
  639TMC3    C2 9457   1.577   3.905  14.695  0.0916  0.0340 -0.3743
  639TMC3    C3 9458   1.560   3.769  14.709 -0.2094 -0.6477 -0.8426
  639TMC3    C4 9459   1.708   3.893  14.898  0.4653  0.2045  0.6113
  639TMC3    C5 9460   1.691   3.759  14.904 -0.6016  0.2513 -0.2984
  639TMC3    C6 9461   1.621   3.689  14.807  0.6895 -0.8465  0.9167
  639TMC3     C 9462   1.742   4.082  14.756 -0.2643  0.3317 -0.3160
  639TMC3     O 9463   1.806   4.131  14.850  0.0420 -0.1921 -1.2384
  639TMC3     H 9464   1.536   3.950  14.606 -1.6222 -2.0533 -0.6182
  639TMC3    H1 9465   1.776   3.948  14.961 -1.9679  0.5319  2.9699
  639TMC3    H2 9466   1.601   3.582  14.805 -0.0307 -0.7021  0.1235
  639TMC3    C7 9467   1.797   3.689  14.972  0.2411  0.5078  0.2690
  639TMC3    C8 9468   1.527   3.686  14.591  0.5084  0.2205  0.2007
  639TMC3    O1 9469   1.838   3.726  15.082 -0.0327  0.2012 -0.1772
  639TMC3    O2 9470   1.598   3.589  14.567 -0.4024  0.3101 -0.8965
  640MPD2     C 9471   2.123   2.249   9.869 -0.5711 -0.3035 -0.1444
  640MPD2    C1 9472   2.150   2.286   9.743 -0.0139 -0.0322 -0.7022
  640MPD2    C2 9473   2.079   2.389   9.680  0.4718  0.1509 -0.2755
  640MPD2    C3 9474   1.966   2.445   9.741 -0.0372  0.1435 -0.1236
  640MPD2    C4 9475   1.935   2.403   9.868 -0.5654  0.0633  0.0912
  640MPD2    C5 9476   2.021   2.319   9.938  0.1395  0.2324  0.4620
  640MPD2     H 9477   2.122   2.434   9.592  0.9034 -1.6019 -0.9558
  640MPD2    H1 9478   1.848   2.456   9.907 -1.0695 -1.1075  0.5324
  640MPD2    H2 9479   2.182   2.180   9.928 -0.9730  1.7190  2.6120
  640MPD2    H3 9480   2.010   2.291  10.042  0.2540 -2.5620 -0.2810
  640MPD2     N 9481   1.880   2.541   9.675 -0.1550 -0.2461  0.2385
  640MPD2    H5 9482   1.796   2.573   9.724  0.2782 -1.8381  2.0407
  640MPD2    N1 9483   2.259   2.225   9.681 -0.3212 -0.1152 -0.2195
  640MPD2    H7 9484   2.300   2.149   9.734  0.2924  1.1339  1.0574
  641TMC3    C1 9485   2.444   2.196   9.536 -0.6193  0.2404 -0.9750
  641TMC3    C2 9486   2.435   2.062   9.525 -0.4144 -0.1678  0.0950
  641TMC3    C3 9487   2.534   1.987   9.474 -0.4190 -0.2383 -0.2440
  641TMC3    C4 9488   2.547   2.264   9.476 -0.3504  0.2326 -0.9547
  641TMC3    C5 9489   2.637   2.186   9.406 -0.0188  0.2361 -0.0956
  641TMC3    C6 9490   2.634   2.052   9.403 -1.0003  0.3140 -0.8211
  641TMC3     C 9491   2.319   2.262   9.567 -0.1053 -0.4018  0.5335
  641TMC3     O 9492   2.289   2.353   9.497  0.1466  0.3845 -0.0645
  641TMC3     H 9493   2.349   2.012   9.569 -0.2336 -0.8990 -0.3848
  641TMC3    H1 9494   2.563   2.369   9.497  0.1590  0.3003 -1.6924
  641TMC3    H2 9495   2.717   2.008   9.350  0.0988  0.4770  0.7391
  641TMC3    C7 9496   2.755   2.260   9.356  0.0863 -0.3980  0.4082
  641TMC3    C8 9497   2.525   1.844   9.466 -0.1978 -0.1291  0.4371
  641TMC3    O1 9498   2.853   2.188   9.337  0.3144 -0.5295  0.3723
  641TMC3    O2 9499   2.425   1.787   9.503  0.1473 -0.1448  0.2191
  642TMC3    C1 9500   3.225   3.743  12.403 -0.2817 -0.4208  0.2723
  642TMC3    C2 9501   3.294   3.704  12.513 -0.3194  0.2998 -0.2054
  642TMC3    C3 9502   3.275   3.579  12.555 -0.4252  0.5098  0.3244
  642TMC3    C4 9503   3.149   3.651  12.335 -0.6198 -0.2602  0.5214
  642TMC3    C5 9504   3.146   3.519  12.373  0.0820 -0.5820 -0.1696
  642TMC3    C6 9505   3.203   3.479  12.491  0.1444  0.0868  0.1440
  642TMC3     C 9506   3.158   3.865  12.422 -0.1370 -0.0930 -0.0392
  642TMC3     O 9507   3.043   3.871  12.370  0.2056  0.1639  0.4977
  642TMC3     H 9508   3.336   3.776  12.582  1.3629 -1.6519  0.8327
  642TMC3    H1 9509   3.109   3.681  12.239  0.4396  1.0200  0.4833
  642TMC3    H2 9510   3.207   3.380  12.534 -0.7703  0.0910  0.2426
  642TMC3    C7 9511   3.092   3.425  12.273  0.3056 -0.4988 -0.2788
  642TMC3    C8 9512   3.321   3.555  12.686  0.1925 -0.7131  0.3513
  642TMC3    O1 9513   3.054   3.473  12.168 -0.5534  0.1441  0.3155
  642TMC3    O2 9514   3.416   3.622  12.727 -0.3199  0.6723 -0.0416
  643TMC3    C1 9515   2.137   3.957   0.437  0.1398 -0.1046  0.0855
  643TMC3    C2 9516   2.003   3.967   0.405 -0.0503  0.4742  0.0292
  643TMC3    C3 9517   1.955   3.925   0.281 -0.7368 -0.5420 -0.1731
  643TMC3    C4 9518   2.219   3.868   0.365 -0.2585  0.9993 -0.0781
  643TMC3    C5 9519   2.176   3.826   0.245  0.5606  0.2709  0.4252
  643TMC3    C6 9520   2.047   3.854   0.204 -0.3037  0.1957 -0.1639
  643TMC3     C 9521   2.197   4.073   0.504  0.6643 -0.3444 -0.9989
  643TMC3     O 9522   2.124   4.172   0.517  0.5366  0.9481  0.2831
  643TMC3     H 9523   1.937   4.035   0.456 -2.2148 -1.1722 -0.5656
  643TMC3    H1 9524   2.324   3.865   0.391 -0.5027 -2.4680  0.5553
  643TMC3    H2 9525   2.010   3.808   0.112 -3.2704 -2.5228  2.3843
  643TMC3    C7 9526   2.266   3.780   0.147 -0.0371 -0.0638  0.8855
  643TMC3    C8 9527   1.904   4.036   0.203 -0.3147 -0.0514  0.5220
  643TMC3    O1 9528   2.225   3.791   0.031  0.2016 -0.0496 -0.2613
  643TMC3    O2 9529   1.849   4.133   0.252 -0.0434  0.6161 -0.2098
  644MPD2     C 9530   1.944   3.743   9.236 -0.2739 -1.2112 -0.1511
  644MPD2    C1 9531   1.941   3.605   9.226 -0.7694  0.0011 -0.6895
  644MPD2    C2 9532   1.818   3.547   9.238 -0.6075 -0.1262  0.3401
  644MPD2    C3 9533   1.709   3.621   9.280  0.1068  0.2582  0.2524
  644MPD2    C4 9534   1.715   3.758   9.288  0.1247 -0.3224  0.3321
  644MPD2    C5 9535   1.835   3.814   9.269  0.4427  0.4103 -0.3870
  644MPD2     H 9536   1.798   3.440   9.240 -0.0962 -0.2049  1.2574
  644MPD2    H1 9537   1.631   3.823   9.310  0.1005 -0.3498  0.3213
  644MPD2    H2 9538   2.034   3.793   9.202 -0.7593  0.3365  0.8514
  644MPD2    H3 9539   1.843   3.922   9.270  0.5413  0.3942  0.5273
  644MPD2     N 9540   1.595   3.543   9.314  0.2452  0.1806 -0.3919
  644MPD2    H5 9541   1.596   3.444   9.290  2.0053 -0.3952  2.0134
  644MPD2    N1 9542   2.056   3.526   9.203  0.3799 -0.4142 -0.4176
  644MPD2    H7 9543   2.148   3.568   9.194 -1.0046  2.7766  0.7376
  645TMC3    C1 9544   1.372   3.472   9.370 -0.4001 -0.1041  0.2630
  645TMC3    C2 9545   1.402   3.340   9.350  0.5954  0.5135  0.2384
  645TMC3    C3 9546   1.303   3.246   9.378  0.1368 -0.0886  0.1228
  645TMC3    C4 9547   1.247   3.509   9.410 -0.2494  0.2523  0.3944
  645TMC3    C5 9548   1.147   3.413   9.422  0.8298 -1.0913 -0.0836
  645TMC3    C6 9549   1.171   3.278   9.401  0.0145  0.1819 -0.1602
  645TMC3     C 9550   1.473   3.575   9.371  0.2879 -0.4981 -0.3367
  645TMC3     O 9551   1.447   3.685   9.419 -0.2948  0.1952 -0.2836
  645TMC3     H 9552   1.503   3.307   9.330  0.2440  0.8646 -2.1002
  645TMC3    H1 9553   1.219   3.609   9.439 -1.4976  1.0518 -3.6058
  645TMC3    H2 9554   1.091   3.208   9.420  0.0730 -0.3221 -1.7864
  645TMC3    C7 9555   1.018   3.455   9.467  0.1057 -0.1501 -0.3686
  645TMC3    C8 9556   1.323   3.127   9.301  0.3850  0.7770 -0.6725
  645TMC3    O1 9557   1.021   3.564   9.523  0.0389  0.0106 -0.1532
  645TMC3    O2 9558   1.420   3.129   9.230  0.6934  0.1055 -0.1398
  646MPD2     C 9559   2.135   2.854  14.182  0.0791  0.1923  0.0853
  646MPD2    C1 9560   2.050   2.850  14.292  0.1745 -0.3607 -0.1257
  646MPD2    C2 9561   1.919   2.892  14.283 -0.3989 -1.0804 -0.1979
  646MPD2    C3 9562   1.875   2.957  14.167  0.1593 -0.5501 -0.5775
  646MPD2    C4 9563   1.971   2.984  14.067  0.3084  0.3775  0.2483
  646MPD2    C5 9564   2.098   2.934  14.071 -0.0828  0.3393 -0.2887
  646MPD2     H 9565   1.850   2.896  14.367 -1.3570  1.2530 -1.0941
  646MPD2    H1 9566   1.954   3.046  13.980 -0.1073  2.1228  1.5800
  646MPD2    H2 9567   2.232   2.807  14.187  0.6509  1.5547  1.8591
  646MPD2    H3 9568   2.171   2.961  13.996 -0.4045  1.0965 -0.3262
  646MPD2     N 9569   1.742   3.003  14.146  0.0593  0.0607 -0.4901
  646MPD2    H5 9570   1.679   2.976  14.221  1.7995 -0.5330  0.7322
  646MPD2    N1 9571   2.108   2.799  14.412 -0.0393 -0.1510 -0.4517
  646MPD2    H7 9572   2.206   2.776  14.409  0.0943  0.5628 -1.4792
  647TMC3    C1 9573   2.144   2.706  14.620 -0.3628 -0.2494  0.0370
  647TMC3    C2 9574   2.106   2.603  14.700 -0.6970 -1.3203  0.4419
  647TMC3    C3 9575   2.198   2.554  14.791  0.8510 -0.0742 -0.3861
  647TMC3    C4 9576   2.263   2.776  14.634 -0.0934 -0.9664 -0.1486
  647TMC3    C5 9577   2.349   2.737  14.738 -0.1653  0.2985 -0.0281
  647TMC3    C6 9578   2.315   2.627  14.817  0.5841  0.2696  0.4439
  647TMC3     C 9579   2.045   2.753  14.522  0.4189 -0.2135 -0.4417
  647TMC3     O 9580   1.927   2.756  14.550  0.3877  0.4113 -0.9289
  647TMC3     H 9581   2.012   2.553  14.678 -1.8921  1.1165 -0.0433
  647TMC3    H1 9582   2.278   2.869  14.581  0.2554 -1.8446 -1.5745
  647TMC3    H2 9583   2.395   2.582  14.874  0.3077 -1.2652 -0.3675
  647TMC3    C7 9584   2.486   2.777  14.752  0.0373 -0.4489 -0.9364
  647TMC3    C8 9585   2.162   2.445  14.895 -0.2407 -0.2071  0.2944
  647TMC3    O1 9586   2.529   2.759  14.868  0.0917 -0.0553  1.1189
  647TMC3    O2 9587   2.255   2.437  14.981 -0.2525  0.3308 -0.1080
  648TMC3    C1 9588   0.982   0.736  15.918 -0.1757  0.2114 -0.3670
  648TMC3    C2 9589   0.947   0.606  15.898 -0.0180 -0.4142 -0.5228
  648TMC3    C3 9590   0.826   0.589  15.837  0.2272 -0.1131  0.2949
  648TMC3    C4 9591   0.905   0.845  15.882 -0.0012 -0.1042  0.1784
  648TMC3    C5 9592   0.779   0.819  15.831  0.1216 -0.6389 -0.0747
  648TMC3    C6 9593   0.739   0.697  15.806 -0.6609 -0.2355 -0.7753
  648TMC3     C 9594   1.065   0.764  16.032 -0.1303  0.3320 -0.0837
  648TMC3     O 9595   1.126   0.872  16.025  0.0300 -0.4112 -0.4410
  648TMC3     H 9596   1.013   0.521  15.911  0.7559  0.1226 -0.9173
  648TMC3    H1 9597   0.945   0.939  15.918  2.9286 -1.1102 -0.4291
  648TMC3    H2 9598   0.649   0.679  15.748 -0.6392  1.6530 -1.3824
  648TMC3    C7 9599   0.666   0.879  15.909  0.5881  0.3081  0.3000
  648TMC3    C8 9600   0.796   0.449  15.792 -0.2348  0.6567 -0.8308
  648TMC3    O1 9601   0.558   0.825  15.909 -0.0208 -0.3944 -0.1344
  648TMC3    O2 9602   0.677   0.419  15.805  0.5268 -0.0501  0.4508
  649TMC3    C1 9603   0.075   1.701  12.908 -0.5798 -0.7042 -0.1926
  649TMC3    C2 9604   0.192   1.767  12.882  0.2503  0.1576 -0.4787
  649TMC3    C3 9605   0.271   1.803  12.992 -0.2391  0.6135  0.3214
  649TMC3    C4 9606   0.055   1.648  13.031  0.0222 -0.0906  0.2887
  649TMC3    C5 9607   0.131   1.689  13.136 -0.3277 -0.0244  0.6392
  649TMC3    C6 9608   0.235   1.776  13.117  0.4921 -0.9265 -0.2088
  649TMC3     C 9609   4.708   1.659  12.801 -0.2597  0.1107  0.8129
  649TMC3     O 9610   4.688   1.742  12.717  0.3360  0.3028 -0.0848
  649TMC3     H 9611   0.222   1.782  12.779 -2.4139  0.6038 -1.1896
  649TMC3    H1 9612   4.689   1.587  13.040  0.5090 -1.1841 -2.0636
  649TMC3    H2 9613   0.300   1.794  13.202 -0.3845  0.0723  0.2469
  649TMC3    C7 9614   0.081   1.640  13.262 -0.0657  0.0375 -0.0018
  649TMC3    C8 9615   0.395   1.876  12.974 -0.2434  0.1185 -0.2843
  649TMC3    O1 9616   4.684   1.629  13.273 -0.2376  0.5684 -0.4701
  649TMC3    O2 9617   0.481   1.885  13.061 -0.6022  0.0028  0.3988
  650TMC3    C1 9618   2.765   3.305  12.630  0.7765 -0.0557  0.9156
  650TMC3    C2 9619   2.758   3.442  12.614  0.2706 -0.9316 -0.2312
  650TMC3    C3 9620   2.649   3.491  12.557  0.1123  0.0504  0.3344
  650TMC3    C4 9621   2.681   3.218  12.568  0.6349  0.2022  0.1661
  650TMC3    C5 9622   2.584   3.274  12.495 -0.5966 -0.2246 -0.4080
  650TMC3    C6 9623   2.556   3.411  12.489  0.5961 -0.0722  0.1880
  650TMC3     C 9624   2.894   3.261  12.682 -0.4453  0.4840  0.0699
  650TMC3     O 9625   2.974   3.351  12.678 -0.2794  0.1714  0.4829
  650TMC3     H 9626   2.824   3.506  12.671  0.7837 -2.6185  1.0883
  650TMC3    H1 9627   2.690   3.111  12.565 -0.3676  0.0933  0.9804
  650TMC3    H2 9628   2.481   3.452  12.423  0.4312 -2.2671 -0.9961
  650TMC3    C7 9629   2.515   3.187  12.397  0.0895 -0.1467  0.1245
  650TMC3    C8 9630   2.621   3.635  12.565 -0.7584 -0.6136  0.2601
  650TMC3    O1 9631   2.555   3.073  12.386 -0.2055  0.2377 -0.2217
  650TMC3    O2 9632   2.707   3.719  12.577  0.4326  0.5541 -0.1571
  651MPD2     C 9633   1.613   4.410  10.859  0.0773 -0.9387 -0.4823
  651MPD2    C1 9634   1.608   4.545  10.890 -0.4845  0.1917 -0.3368
  651MPD2    C2 9635   1.725   4.616  10.886  0.9659 -0.2952  0.8050
  651MPD2    C3 9636   1.842   4.554  10.845  0.3179  0.3730  0.0050
  651MPD2    C4 9637   1.843   4.423  10.811 -0.1058 -0.3819 -0.3654
  651MPD2    C5 9638   1.727   4.350  10.821  0.6148 -0.7288  1.4015
  651MPD2     H 9639   1.731   4.719  10.917  1.9600  0.1606 -0.8976
  651MPD2    H1 9640   1.931   4.362  10.793 -1.2310 -1.9503 -0.6350
  651MPD2    H2 9641   1.517   4.360  10.865  0.1403 -1.3345 -2.6561
  651MPD2    H3 9642   1.721   4.242  10.812  0.0675 -0.6342  0.6171
  651MPD2     N 9643   1.953   4.635  10.854  0.4807  0.6168  0.6462
  651MPD2    H5 9644   1.941   0.011  10.873  0.4655  0.8094 -0.3633
  651MPD2    N1 9645   1.498   4.611  10.946  0.0596  0.2057 -0.0423
  651MPD2    H7 9646   1.510   4.709  10.967 -2.2140  0.5129 -0.1958
  652TMC3    C1 9647   2.322   0.101  10.677 -0.3678 -0.1431 -0.1261
  652TMC3    C2 9648   2.261   4.707  10.710  0.6476 -0.1490 -0.6181
  652TMC3    C3 9649   2.163   4.715  10.806  0.6850 -0.0326  0.1224
  652TMC3    C4 9650   2.296   0.215  10.756  0.0772  0.0041 -0.0151
  652TMC3    C5 9651   2.208   0.208  10.859  0.8280  0.2986 -0.2287
  652TMC3    C6 9652   2.134   0.098  10.878  0.0703 -1.0260 -0.1327
  652TMC3     C 9653   2.454   0.094  10.631  0.1781  0.0144  0.2460
  652TMC3     O 9654   2.519   4.718  10.657  0.0521 -0.5641 -0.3548
  652TMC3     H 9655   2.268   4.626  10.638  2.0312  0.3966 -1.1000
  652TMC3    H1 9656   2.353   0.307  10.753 -1.0955  0.6525 -2.6297
  652TMC3    H2 9657   2.067   0.094  10.964  0.4231  0.5487  0.2283
  652TMC3    C7 9658   2.207   0.308  10.969 -0.5575  0.4760  0.2883
  652TMC3    C8 9659   2.076   4.602  10.812  0.0540  0.1191 -1.3983
  652TMC3    O1 9660   2.186   0.261  11.081 -0.2312  0.5417  0.1441
  652TMC3    O2 9661   2.129   4.496  10.785 -0.0837 -0.1236  0.9122
  653MPD2     C 9662   0.485   0.921  17.419  0.0800 -0.2780 -0.6575
  653MPD2    C1 9663   0.451   0.971  17.541  1.2602 -0.2854  0.7975
  653MPD2    C2 9664   0.336   0.923  17.602  0.7852  0.0921 -0.1696
  653MPD2    C3 9665   0.259   0.826  17.538 -0.6274  0.0383  0.6460
  653MPD2    C4 9666   0.301   0.775  17.416  0.9616  0.0804 -0.0633
  653MPD2    C5 9667   0.409   0.830  17.358  0.6654 -0.1483  0.2024
  653MPD2     H 9668   0.308   0.946   0.010 -0.7757  1.8518 -1.0043
  653MPD2    H1 9669   0.256   0.699  17.354 -0.8090  0.4190  0.7954
  653MPD2    H2 9670   0.582   0.949  17.379  0.3431  0.8254  0.7631
  653MPD2    H3 9671   0.444   0.797  17.261  0.5738 -0.3549  0.2390
  653MPD2     N 9672   0.129   0.780  17.580 -0.3855  0.1444 -0.1443
  653MPD2    H5 9673   0.073   0.837  17.643  0.7498  0.6448  0.4013
  653MPD2    N1 9674   0.534   1.063  17.610  0.3815 -0.3464  0.2129
  653MPD2    H7 9675   0.507   1.084   0.012 -1.5076 -0.6566 -0.2503
  654TMC3    C1 9676   4.647   0.658  17.553  0.7937 -0.0814  0.9655
  654TMC3    C2 9677   4.576   0.775  17.555  0.0746 -0.3661 -0.1323
  654TMC3    C3 9678   4.460   0.765  17.486 -0.5803  0.1249 -0.4796
  654TMC3    C4 9679   4.599   0.532  17.508  0.3074  0.8942 -0.4459
  654TMC3    C5 9680   4.479   0.538  17.441 -0.5119 -0.5096  0.4553
  654TMC3    C6 9681   4.412   0.652  17.425  0.2284 -0.3279 -0.6324
  654TMC3     C 9682   0.070   0.665  17.538 -0.2231  0.2515  0.3203
  654TMC3     O 9683   0.121   0.560  17.513 -0.4053 -0.1803  0.1175
  654TMC3     H 9684   4.604   0.872  17.593  0.0241  0.5492 -2.4398
  654TMC3    H1 9685   4.662   0.444  17.496 -0.9074 -0.1762  0.9720
  654TMC3    H2 9686   4.314   0.654  17.380 -0.9122  1.5554  1.9357
  654TMC3    C7 9687   4.435   0.427  17.360 -0.6185  0.1539 -0.0498
  654TMC3    C8 9688   4.377   0.878  17.487 -0.0548  0.0376  0.9279
  654TMC3    O1 9689   4.359   0.450  17.264  0.4691  0.5679  0.2437
  654TMC3    O2 9690   4.306   0.891  17.388  0.3023  0.2184  0.2613
  655MPD2     C 9691   1.674   0.736  15.745 -0.0515 -0.1982  0.0902
  655MPD2    C1 9692   1.571   0.803  15.674  0.0642 -0.2383 -0.3135
  655MPD2    C2 9693   1.528   0.752  15.552  0.2310 -0.1919 -0.1435
  655MPD2    C3 9694   1.580   0.630  15.499  0.1048 -0.3967  0.2556
  655MPD2    C4 9695   1.668   0.565  15.578  1.0784  0.4155  1.1980
  655MPD2    C5 9696   1.724   0.619  15.691 -0.5178 -0.3648  0.8194
  655MPD2     H 9697   1.459   0.810  15.492 -0.9055 -1.0366  0.3443
  655MPD2    H1 9698   1.700   0.466  15.550 -1.6348  0.1734 -1.0448
  655MPD2    H2 9699   1.719   0.764  15.839  3.8789  0.1259 -1.8592
  655MPD2    H3 9700   1.806   0.567  15.740 -0.9243 -1.5181  0.2982
  655MPD2     N 9701   1.549   0.566  15.376  0.5863  0.1438 -0.4804
  655MPD2    H5 9702   1.593   0.476  15.360 -2.3143 -1.2458 -0.7472
  655MPD2    N1 9703   1.495   0.910  15.731 -0.3444  0.5413 -0.3109
  655MPD2    H7 9704   1.413   0.949  15.687 -1.3348 -1.1022  0.0881
  656TMC3    C1 9705   1.399   1.053  15.894  0.7329  0.0936 -0.6370
  656TMC3    C2 9706   1.377   1.073  16.028  0.4078  0.1283 -0.1558
  656TMC3    C3 9707   1.282   1.166  16.061  0.0016  0.2896 -0.5709
  656TMC3    C4 9708   1.317   1.109  15.799 -0.1324 -0.4672  0.5544
  656TMC3    C5 9709   1.219   1.193  15.838  0.6203 -0.0748 -0.0946
  656TMC3    C6 9710   1.199   1.225  15.973  0.0357  0.0117  0.0721
  656TMC3     C 9711   1.511   0.964  15.856  0.0328  0.5167 -0.4737
  656TMC3     O 9712   1.586   0.925  15.946  0.4284 -0.3288  0.1749
  656TMC3     H 9713   1.435   1.027  16.107 -1.5569 -1.9348  0.0416
  656TMC3    H1 9714   1.326   1.100  15.691 -2.0980  0.3655  0.3251
  656TMC3    H2 9715   1.117   1.292  15.995  0.5598  1.8663 -3.5134
  656TMC3    C7 9716   1.099   1.165  15.766 -0.2504  0.0609 -0.1952
  656TMC3    C8 9717   1.236   1.161  16.198  0.4839  1.0788 -0.2498
  656TMC3    O1 9718   1.097   1.054  15.711  0.0211  0.3773 -0.5577
  656TMC3    O2 9719   1.265   1.062  16.265  0.3083  0.2360 -0.6165
  657TMC3    C1 9720   0.916   4.303  14.373  0.2108 -0.7686 -0.8238
  657TMC3    C2 9721   0.921   4.199  14.470  0.5001  0.4154 -0.4374
  657TMC3    C3 9722   0.854   4.220  14.585 -0.4998 -0.4767  0.7778
  657TMC3    C4 9723   0.848   4.415  14.404  0.1316  0.5990 -0.7061
  657TMC3    C5 9724   0.774   4.423  14.520  0.1836  0.4609 -0.1967
  657TMC3    C6 9725   0.770   4.324  14.617  0.9249  0.9319 -0.2357
  657TMC3     C 9726   1.044   4.347  14.334  0.5602 -0.0429 -0.1189
  657TMC3     O 9727   1.061   4.412  14.230  0.6632 -0.9034 -0.0824
  657TMC3     H 9728   0.975   4.107  14.452 -0.7587 -0.0417 -1.8022
  657TMC3    H1 9729   0.857   4.493  14.329  0.5615  0.8863 -0.3559
  657TMC3    H2 9730   0.729   4.334  14.717  0.8303  1.5112 -0.3322
  657TMC3    C7 9731   0.720   4.558  14.553  0.4262  0.3021 -0.3201
  657TMC3    C8 9732   0.908   4.163  14.700  0.0651 -0.5087  1.0944
  657TMC3    O1 9733   0.740   4.643  14.474  0.2813 -0.2041  0.4650
  657TMC3    O2 9734   1.028   4.142  14.688 -0.4013 -0.1375 -0.4874
  658MPD2     C 9735   1.943   0.160  15.033  0.1748 -0.2206 -0.4165
  658MPD2    C1 9736   1.875   0.261  14.969  0.2774  0.3531 -0.4514
  658MPD2    C2 9737   1.931   0.338  14.863  0.3902 -0.4778  0.2522
  658MPD2    C3 9738   2.062   0.319  14.824  0.2659  0.2562 -0.4173
  658MPD2    C4 9739   2.126   0.215  14.884  0.0195  0.3666 -0.2849
  658MPD2    C5 9740   2.072   0.146  14.989 -0.1750  0.1172  0.4187
  658MPD2     H 9741   1.876   0.413  14.808  1.3309  0.4025  0.5027
  658MPD2    H1 9742   2.230   0.191  14.865 -0.3392 -1.0291 -0.4771
  658MPD2    H2 9743   1.897   0.114  15.120  1.3043  1.4171  1.0436
  658MPD2    H3 9744   2.143   0.080  15.038 -0.2148 -1.4653 -1.6872
  658MPD2     N 9745   2.112   0.393  14.712 -0.2830  0.4950 -0.1559
  658MPD2    H5 9746   2.048   0.458  14.668  0.5315  1.0782 -0.4778
  658MPD2    N1 9747   1.746   0.290  15.013  0.4517 -0.5707  0.3088
  658MPD2    H7 9748   1.716   0.262  15.106 -3.0685 -0.3116 -0.7298
  659TMC3    C1 9749   1.532   0.390  15.016 -0.0045 -0.3135 -0.1098
  659TMC3    C2 9750   1.554   0.461  15.131 -0.0728 -0.1813 -0.6775
  659TMC3    C3 9751   1.441   0.520  15.187 -0.1747  0.5061 -0.9968
  659TMC3    C4 9752   1.408   0.385  14.957  0.5054  0.1648  0.5407
  659TMC3    C5 9753   1.305   0.446  15.022 -0.1800 -0.1992  0.0148
  659TMC3    C6 9754   1.320   0.525  15.133  0.4476 -0.5558 -0.5045
  659TMC3     C 9755   1.650   0.348  14.935  0.3980 -0.0306  0.8079
  659TMC3     O 9756   1.638   0.365  14.820  0.6789 -0.1233 -0.5478
  659TMC3     H 9757   1.654   0.487  15.163 -0.8827  0.3412  1.4356
  659TMC3    H1 9758   1.390   0.320  14.872  0.8262  1.0000 -0.1601
  659TMC3    H2 9759   1.237   0.562  15.192  1.3351 -0.8204  0.9213
  659TMC3    C7 9760   1.166   0.430  14.977 -0.3356  0.1380  0.7875
  659TMC3    C8 9761   1.447   0.610  15.298 -0.3089  0.1012  0.4648
  659TMC3    O1 9762   1.077   0.471  15.051  0.3782 -0.0578 -0.5309
  659TMC3    O2 9763   1.372   0.705  15.294 -0.7077  0.4370  0.0030
  660MPD2     C 9764   4.662   3.831  12.623 -0.2144  0.9041  0.4288
  660MPD2    C1 9765   4.532   3.879  12.630  0.7371  0.0618  0.1769
  660MPD2    C2 9766   4.455   3.846  12.744  0.3139 -0.0224  0.3029
  660MPD2    C3 9767   4.504   3.777  12.851 -0.6918  0.2812 -0.4385
  660MPD2    C4 9768   4.625   3.715  12.834  0.1645  0.0452  0.6615
  660MPD2    C5 9769   4.701   3.747  12.721 -0.4994 -0.1052  0.4397
  660MPD2     H 9770   4.350   3.876  12.747  0.4898  0.6605 -0.0993
  660MPD2    H1 9771   4.676   3.648  12.902 -0.6621 -1.9733 -0.6963
  660MPD2    H2 9772   0.005   3.852  12.540  0.7239 -1.2603  0.6211
  660MPD2    H3 9773   0.078   3.709  12.701 -1.2368 -1.1256 -1.2983
  660MPD2     N 9774   4.433   3.747  12.971 -0.0579  0.0040  0.2651
  660MPD2    H5 9775   4.469   3.673  13.030  0.2836 -0.6396 -0.7473
  660MPD2    N1 9776   4.498   3.971  12.524 -0.4999  0.0106 -0.1780
  660MPD2    H7 9777   4.566   3.986  12.450 -0.4937  0.8887  0.0119
  661TMC3    C1 9778   4.362   4.098  12.370  0.1269 -0.1772 -0.6461
  661TMC3    C2 9779   4.448   4.060  12.272 -0.1008 -0.3896  0.1244
  661TMC3    C3 9780   4.404   4.046  12.141  0.1433  0.0407  0.2009
  661TMC3    C4 9781   4.229   4.130  12.349 -0.2490  0.4455  0.0388
  661TMC3    C5 9782   4.183   4.108  12.220  0.3384  0.2523  0.1461
  661TMC3    C6 9783   4.269   4.064  12.117 -0.0600 -0.1316  0.0044
  661TMC3     C 9784   4.383   4.037  12.508  0.0852  0.7670  0.8087
  661TMC3     O 9785   4.283   4.012  12.572 -0.1470 -0.2441 -0.0711
  661TMC3     H 9786   4.553   4.063  12.296 -0.0383  2.1546 -0.4175
  661TMC3    H1 9787   4.164   4.160  12.430 -0.9195  1.9855 -1.0678
  661TMC3    H2 9788   4.225   4.034  12.022 -2.2486  3.1565 -0.0338
  661TMC3    C7 9789   4.041   4.067  12.228  0.0630 -0.8496 -0.0557
  661TMC3    C8 9790   4.494   4.026  12.031 -0.7398  0.6734  0.6136
  661TMC3    O1 9791   4.000   4.056  12.344  0.1952  0.4317 -0.2789
  661TMC3    O2 9792   4.442   4.051  11.924  0.0642  0.7840 -0.1103
  662MPD2     C 9793   4.481   4.386  16.742  0.5513 -0.2878  1.1926
  662MPD2    C1 9794   4.586   4.348  16.832  0.4638 -0.4588  0.3095
  662MPD2    C2 9795   4.573   4.380  16.966 -0.4200  0.0422 -0.2624
  662MPD2    C3 9796   4.468   4.453  17.021 -0.8850 -0.1183 -0.0448
  662MPD2    C4 9797   4.364   4.483  16.936 -0.4785  0.3953  0.0804
  662MPD2    C5 9798   4.368   4.454  16.797  0.0463  1.3390 -0.3367
  662MPD2     H 9799   4.660   4.379  17.031 -1.9079 -0.5756  1.7480
  662MPD2    H1 9800   4.272   4.521  16.978  0.3731 -0.3409  2.6412
  662MPD2    H2 9801   4.488   4.356  16.638 -1.4106  1.0166  0.7011
  662MPD2    H3 9802   4.276   4.470  16.743 -0.4565  1.5992  0.5872
  662MPD2     N 9803   4.463   4.473  17.161 -0.0538 -0.2267  0.1791
  662MPD2    H5 9804   4.386   4.527  17.198 -0.7366 -0.5346 -0.7733
  662MPD2    N1 9805   4.707   4.287  16.786 -0.1768 -0.5817  0.5303
  662MPD2    H7 9806   0.050   4.262  16.859  1.2236 -0.0633 -0.5536
  663TMC3    C1 9807   0.143   4.185  16.650  0.7093  0.3842 -0.0126
  663TMC3    C2 9808   0.203   4.161  16.773  0.0441  0.3855  0.4348
  663TMC3    C3 9809   0.303   4.067  16.764  0.2317 -0.1359  0.1342
  663TMC3    C4 9810   0.160   4.105  16.543 -0.2172  0.5847  0.2130
  663TMC3    C5 9811   0.245   4.005  16.547  0.7124 -0.0609  0.9348
  663TMC3    C6 9812   0.318   3.982  16.655 -0.1529  0.2381 -0.0843
  663TMC3     C 9813   0.024   4.261  16.655  0.0383 -1.4873 -0.0945
  663TMC3     O 9814   4.684   4.282  16.551 -0.1691 -0.7115 -0.2824
  663TMC3     H 9815   0.206   4.237  16.851 -1.1227  0.3777  0.4804
  663TMC3    H1 9816   0.097   4.116  16.455 -0.5563  0.5392  0.4474
  663TMC3    H2 9817   0.406   3.919  16.653  0.3966  0.8644  4.1501
  663TMC3    C7 9818   0.192   3.886  16.487 -0.3572  0.2520 -0.5277
  663TMC3    C8 9819   0.292   3.974  16.880 -0.9053 -0.2485 -0.7281
  663TMC3    O1 9820   0.146   3.894  16.376 -0.1172 -0.9528 -0.6389
  663TMC3    O2 9821   0.282   3.857  16.841  0.2062  0.7901  0.3826
  664MPD2     C 9822   3.150   2.584   0.031  1.0182 -0.2045 -0.0485
  664MPD2    C1 9823   3.260   2.652   0.001 -0.5926 -0.5616  0.0555
  664MPD2    C2 9824   3.365   2.635   0.090  0.0999 -0.4768  0.2175
  664MPD2    C3 9825   3.359   2.552   0.202  0.3411  0.0498  0.0730
  664MPD2    C4 9826   3.241   2.490   0.238 -0.3974  0.2814  0.5249
  664MPD2    C5 9827   3.136   2.505   0.146  0.1860  0.3475  0.3757
  664MPD2     H 9828   3.461   2.682   0.073 -0.1016 -0.7071 -1.5084
  664MPD2    H1 9829   3.224   2.427   0.324  2.8536 -1.1673  0.0898
  664MPD2    H2 9830   3.066   2.588  17.656  0.1629  1.6741  1.1032
  664MPD2    H3 9831   3.039   2.457   0.156  0.9126 -1.0663  0.4702
  664MPD2     N 9832   3.473   2.541   0.286 -0.7727 -0.1229  0.6142
  664MPD2    H5 9833   3.545   2.609   0.266 -0.8205 -0.6242 -1.2284
  664MPD2    N1 9834   3.278   2.730  17.577  0.0657  0.2592 -0.0659
  664MPD2    H7 9835   3.371   2.771  17.571  0.8695 -1.5389  0.0136
  665TMC3    C1 9836   3.618   2.483   0.464  0.1782  0.4676 -0.0731
  665TMC3    C2 9837   3.629   2.412   0.576 -0.6759 -0.2575  0.2705
  665TMC3    C3 9838   3.735   2.449   0.659  0.8790 -0.1277  0.3022
  665TMC3    C4 9839   3.694   2.590   0.428  0.4113 -0.0959  0.2580
  665TMC3    C5 9840   3.796   2.627   0.516  0.4912 -0.2914  0.1372
  665TMC3    C6 9841   3.832   2.542   0.618  0.3580  0.0309 -1.5266
  665TMC3     C 9842   3.491   2.461   0.397  0.7200 -0.7821  0.1571
  665TMC3     O 9843   3.412   2.379   0.443 -0.1376  0.0024 -0.2309
  665TMC3     H 9844   3.570   2.323   0.593 -1.0000 -0.1728 -0.4453
  665TMC3    H1 9845   3.665   2.667   0.358 -1.3007  0.2586  1.3333
  665TMC3    H2 9846   3.912   2.570   0.687  0.1797  2.0815 -2.1547
  665TMC3    C7 9847   3.890   2.726   0.463  0.1323 -0.6118 -0.7996
  665TMC3    C8 9848   3.739   2.397   0.793 -0.3897  0.2305  0.1202
  665TMC3    O1 9849   3.878   2.769   0.351  0.6137 -0.4799  0.0556
  665TMC3    O2 9850   3.845   2.403   0.852 -0.3769 -0.0252  0.4817
  666TMC3    C1 9851   1.649   1.376  10.107 -0.1524  0.4240 -0.5929
  666TMC3    C2 9852   1.750   1.332  10.190 -0.4475 -0.0639  0.0416
  666TMC3    C3 9853   1.825   1.420  10.260  0.4729 -0.1711 -0.3703
  666TMC3    C4 9854   1.629   1.509  10.086 -0.2041  0.1235 -0.7671
  666TMC3    C5 9855   1.698   1.592  10.169  0.6782 -0.3925 -0.5001
  666TMC3    C6 9856   1.796   1.550  10.252 -0.5490  0.2434  0.0437
  666TMC3     C 9857   1.532   1.289  10.090 -0.2626  0.6919  0.4248
  666TMC3     O 9858   1.433   1.339  10.041  0.4758  0.7066 -0.3569
  666TMC3     H 9859   1.781   1.228  10.201 -2.9434 -0.9375 -1.2410
  666TMC3    H1 9860   1.547   1.537  10.021  0.2795 -1.9942 -2.2764
  666TMC3    H2 9861   1.846   1.623  10.313  1.7861 -1.4081  0.0933
  666TMC3    C7 9862   1.639   1.721  10.207 -0.1193  0.0578 -0.3549
  666TMC3    C8 9863   1.957   1.379  10.305  0.2947  0.5888 -0.4348
  666TMC3    O1 9864   1.637   1.745  10.326  0.1740  0.1408 -0.4078
  666TMC3    O2 9865   1.963   1.279  10.374  0.3744 -0.3969  0.1660
  667MPD2     C 9866   3.565   1.852  14.896  0.8632 -0.3970  0.4048
  667MPD2    C1 9867   3.472   1.928  14.960  0.1816 -0.1447 -0.2460
  667MPD2    C2 9868   3.337   1.935  14.920 -0.3371 -0.0172 -0.0352
  667MPD2    C3 9869   3.299   1.858  14.809  0.3739  0.1013  0.0578
  667MPD2    C4 9870   3.400   1.783  14.747  0.0041  0.3279 -0.0059
  667MPD2    C5 9871   3.528   1.776  14.793  0.8712 -0.3291  0.3633
  667MPD2     H 9872   3.264   1.998  14.970  0.3279  0.5918  0.1712
  667MPD2    H1 9873   3.375   1.738  14.652 -0.9989  1.0104 -0.0660
  667MPD2    H2 9874   3.668   1.849  14.931  1.2862  1.1035 -0.7118
  667MPD2    H3 9875   3.596   1.715  14.736  0.5649 -1.0519  0.7663
  667MPD2     N 9876   3.169   1.860  14.748 -0.3399 -0.7335 -0.8207
  667MPD2    H5 9877   3.141   1.788  14.683 -2.2456 -2.7484  2.2697
  667MPD2    N1 9878   3.506   2.001  15.079  0.0359 -0.0207 -1.0049
  667MPD2    H7 9879   3.433   2.061  15.115  2.0719  2.1464 -0.4379
  668TMC3    C1 9880   3.642   2.092  15.268  0.5142 -0.0566 -0.1846
  668TMC3    C2 9881   3.733   2.190  15.255 -0.4608 -0.3826 -0.1049
  668TMC3    C3 9882   3.698   2.306  15.318  0.3197 -0.6307 -0.2072
  668TMC3    C4 9883   3.521   2.105  15.323 -0.0864 -0.5690  0.0416
  668TMC3    C5 9884   3.490   2.218  15.391  0.2560  0.4673  0.4482
  668TMC3    C6 9885   3.580   2.324  15.382  0.4715  0.1891  0.1206
  668TMC3     C 9886   3.636   2.007  15.144 -0.3844 -0.6498  0.6783
  668TMC3     O 9887   3.743   1.971  15.093  0.4119  0.4377  0.2081
  668TMC3     H 9888   3.821   2.172  15.194 -0.8539  0.3060 -0.8877
  668TMC3    H1 9889   3.449   2.023  15.323  0.0262 -0.6771 -1.3863
  668TMC3    H2 9890   3.565   2.412  15.444  1.2062 -1.3511  2.5118
  668TMC3    C7 9891   3.401   2.228  15.507 -0.9037 -0.0176 -0.4850
  668TMC3    C8 9892   3.790   2.414  15.324  0.4968 -0.1066  0.5410
  668TMC3    O1 9893   3.416   2.329  15.573 -0.4505 -0.1408  0.1501
  668TMC3    O2 9894   3.783   2.482  15.426 -0.5586 -0.4642 -0.6613
  669TMC3    C1 9895   1.659   2.013  14.670 -0.2930 -0.2952  0.0221
  669TMC3    C2 9896   1.577   2.066  14.571 -0.3417 -0.9689  0.1531
  669TMC3    C3 9897   1.627   2.130  14.463 -0.4673  0.3868 -0.7477
  669TMC3    C4 9898   1.793   2.028  14.659 -0.7322 -0.0047 -0.7785
  669TMC3    C5 9899   1.845   2.111  14.561  0.3834  0.4097 -0.0620
  669TMC3    C6 9900   1.761   2.170  14.464 -0.1377  0.2121  0.2060
  669TMC3     C 9901   1.600   1.933  14.774  0.5471  0.3575  0.0437
  669TMC3     O 9902   1.485   1.958  14.812  0.1963 -0.0923  0.6142
  669TMC3     H 9903   1.469   2.071  14.582  0.0058  4.4284  1.2939
  669TMC3    H1 9904   1.853   2.006  14.746 -2.0809  2.5410  0.7818
  669TMC3    H2 9905   1.801   2.249  14.401 -1.0100  0.1266 -0.4593
  669TMC3    C7 9906   1.980   2.157  14.575 -0.0928 -0.3396  0.3364
  669TMC3    C8 9907   1.540   2.134  14.345 -0.5875  0.5812 -0.3926
  669TMC3    O1 9908   2.008   2.254  14.507 -0.0615  0.0914 -0.7303
  669TMC3    O2 9909   1.430   2.086  14.369 -0.7259 -0.0633  0.7959
  670MPD2     C 9910   4.675   0.264  13.306 -0.1667  0.2806  0.0722
  670MPD2    C1 9911   0.074   0.194  13.305  0.5626 -0.1815 -1.3406
  670MPD2    C2 9912   0.108   0.115  13.414 -0.1652 -0.2893  0.0501
  670MPD2    C3 9913   0.025   0.098  13.523  0.3247  0.0987  0.5998
  670MPD2    C4 9914   4.631   0.174  13.529 -0.2968 -0.4280  0.3549
  670MPD2    C5 9915   4.603   0.257  13.418 -1.2512 -0.5169  0.1352
  670MPD2     H 9916   0.195   0.051  13.408  1.7692  2.2745  0.9209
  670MPD2    H1 9917   4.572   0.174  13.620 -4.4979  0.8584 -2.3928
  670MPD2    H2 9918   4.636   0.321  13.223  1.2892  1.8885  0.4951
  670MPD2    H3 9919   4.515   0.319  13.427 -1.2922 -0.7542  1.3566
  670MPD2     N 9920   0.069   0.009  13.628 -1.1049 -0.0702 -0.7514
  670MPD2    H5 9921   0.163   4.693  13.621 -1.5508 -1.5568  1.5696
  670MPD2    N1 9922   0.163   0.198  13.198  0.0196  0.3182 -0.1259
  670MPD2    H7 9923   0.259   0.170  13.212  0.0924  0.8669  0.4625
  671TMC3    C1 9924   0.063   4.612  13.831 -0.0941  0.0282  0.6450
  671TMC3    C2 9925   0.201   4.597  13.819  0.6161 -0.6403 -0.1214
  671TMC3    C3 9926   0.264   4.492  13.891 -0.1422  0.1649 -0.3385
  671TMC3    C4 9927   4.715   4.517  13.898 -0.1821  0.6794 -0.0709
  671TMC3    C5 9928   0.050   4.404  13.932  0.5849 -0.0283  0.5266
  671TMC3    C6 9929   0.187   4.395  13.941 -0.9174  0.0900 -0.3560
  671TMC3     C 9930   4.711   4.692  13.732  0.3487  0.3451  0.1727
  671TMC3     O 9931   4.593   4.709  13.754  0.2239 -0.4081  0.0286
  671TMC3     H 9932   0.260   4.679  13.780 -1.3312  1.2427  0.9025
  671TMC3    H1 9933   4.607   4.527  13.905 -0.1183  1.0132  0.4243
  671TMC3    H2 9934   0.233   4.297  13.952  0.5236  0.6159 -1.6478
  671TMC3    C7 9935   4.686   4.284  13.943 -0.3499  0.2973 -1.1275
  671TMC3    C8 9936   0.410   4.473  13.869  0.1115  0.4517 -1.2157
  671TMC3    O1 9937   4.573   4.291  13.899 -0.6032  0.5819 -0.1103
  671TMC3    O2 9938   0.455   4.518  13.767 -0.0891 -0.2359  0.2353
  672MPD2     C 9939   0.349   4.609   1.344 -0.3708  0.4648 -0.1628
  672MPD2    C1 9940   0.452   4.697   1.326  0.4637  0.1775  0.1100
  672MPD2    C2 9941   0.522   0.013   1.437  0.1849  0.6412 -0.6546
  672MPD2    C3 9942   0.486   4.709   1.566  0.0525  0.5803  0.2385
  672MPD2    C4 9943   0.377   4.631   1.588  0.4969 -0.0165  0.3082
  672MPD2    C5 9944   0.315   4.579   1.480 -0.4858 -0.7996  1.0479
  672MPD2     H 9945   0.606   0.078   1.414  0.4757 -0.3814 -2.3979
  672MPD2    H1 9946   0.342   4.625   1.691 -0.5372  2.3563  0.0734
  672MPD2    H2 9947   0.283   4.574   1.265 -2.9013  1.2256  1.5838
  672MPD2    H3 9948   0.224   4.527   1.506 -0.3940 -1.2017  0.5509
  672MPD2     N 9949   0.540   0.053   1.677  0.0282  0.2848 -0.0278
  672MPD2    H5 9950   0.485   0.048   1.761 -0.1223  3.5757  0.0766
  672MPD2    N1 9951   0.494   0.027   1.205  0.5187 -0.3959  0.5204
  672MPD2    H7 9952   0.572   0.092   1.212 -0.4070  0.8435 -0.8754
  673TMC3    C1 9953   0.482   0.106   0.987  1.2672 -0.1181 -0.3884
  673TMC3    C2 9954   0.618   0.135   0.985 -0.2191  0.8479 -0.2171
  673TMC3    C3 9955   0.662   0.240   0.903 -0.2771  0.8911 -0.8128
  673TMC3    C4 9956   0.403   0.180   0.910 -0.1651 -0.3256 -0.4473
  673TMC3    C5 9957   0.447   0.290   0.838  1.2471 -0.3276  0.5913
  673TMC3    C6 9958   0.583   0.323   0.832  0.3518 -0.1129  1.1304
  673TMC3     C 9959   0.432   0.016   1.090 -0.5742  0.3616 -0.1398
  673TMC3     O 9960   0.323   4.685   1.067 -0.2587  0.5793 -0.0462
  673TMC3     H 9961   0.688   0.078   1.045 -0.6312  1.0379  0.4378
  673TMC3    H1 9962   0.298   0.154   0.914  0.1210 -1.5920 -1.0554
  673TMC3    H2 9963   0.612   0.404   0.767 -0.8124  0.8789  1.8521
  673TMC3    C7 9964   0.345   0.370   0.761  0.0962  0.5596  0.6863
  673TMC3    C8 9965   0.787   0.217   0.842 -0.3308  1.0562  0.5438
  673TMC3    O1 9966   0.242   0.309   0.732 -0.4509 -0.0465 -0.5308
  673TMC3    O2 9967   0.787   0.214   0.719 -0.5171 -0.1883  0.4015
  674MPD2     C 9968   0.246   0.791   0.248  0.1982 -0.6228 -0.3495
  674MPD2    C1 9969   0.203   0.662   0.253  0.1727  0.6045 -0.5851
  674MPD2    C2 9970   0.069   0.630   0.224  0.4661 -0.2071 -0.0152
  674MPD2    C3 9971   4.702   0.736   0.197  0.1865  0.4713 -0.2044
  674MPD2    C4 9972   0.032   0.865   0.188 -0.7022 -0.4158 -0.2660
  674MPD2    C5 9973   0.162   0.892   0.213 -0.3324 -0.8426 -0.8093
  674MPD2     H 9974   0.039   0.526   0.219  0.2877 -0.1557 -0.0253
  674MPD2    H1 9975   4.690   0.949   0.168 -0.5438  0.2679  2.1210
  674MPD2    H2 9976   0.348   0.820   0.270 -0.2013  0.3513  0.2155
  674MPD2    H3 9977   0.191   0.996   0.220 -1.3245 -0.6977  1.0126
  674MPD2     N 9978   4.568   0.703   0.177 -0.0304 -0.4835 -0.0777
  674MPD2    H5 9979   4.556   0.602   0.172  0.8878 -0.6339  0.6745
  674MPD2    N1 9980   0.304   0.575   0.298  0.1541  0.7572 -0.0028
  674MPD2    H7 9981   0.399   0.612   0.300  0.6033 -0.0573 -6.0026
  675TMC3    C1 9982   0.409   0.379   0.373 -0.2405  0.0353 -0.3822
  675TMC3    C2 9983   0.394   0.257   0.433  0.1537  0.3455  0.3348
  675TMC3    C3 9984   0.500   0.197   0.496 -0.4369 -0.6542 -0.6432
  675TMC3    C4 9985   0.537   0.428   0.356 -0.2053  0.3499  0.5697
  675TMC3    C5 9986   0.642   0.360   0.405 -0.0136  0.0493 -0.1319
  675TMC3    C6 9987   0.628   0.243   0.478  0.2997 -0.0758 -0.0945
  675TMC3     C 9988   0.291   0.448   0.340 -0.7953  0.5775  1.0731
  675TMC3     O 9989   0.192   0.377   0.343 -0.4241  0.0665 -0.2787
  675TMC3     H 9990   0.295   0.228   0.467 -0.0124 -0.7873 -1.1053
  675TMC3    H1 9991   0.552   0.526   0.312  1.1861  0.3023  0.9285
  675TMC3    H2 9992   0.713   0.181   0.502  1.3760  1.3451 -0.2602
  675TMC3    C7 9993   0.769   0.403   0.377  0.6756  0.9492 -0.8619
  675TMC3    C8 9994   0.479   0.063   0.552 -0.1587  0.0807  0.6671
  675TMC3    O1 9995   0.783   0.468   0.275 -0.2078  0.1253 -0.4831
  675TMC3    O2 9996   0.375   0.010   0.515  0.0396 -0.8459  0.6910
  676MPD2     C 9997   2.618   2.720  10.943 -0.1074 -0.2935 -0.5784
  676MPD2    C1 9998   2.525   2.667  11.030  0.2464 -0.1372 -0.5977
  676MPD2    C2 9999   2.491   2.532  11.027  0.2469 -0.1259 -0.0544
  676MPD2    C310000   2.564   2.448  10.940  0.1302 -0.0319 -0.2787
  676MPD2    C410001   2.668   2.499  10.863 -0.9460  0.9301 -0.8043
  676MPD2    C510002   2.692   2.628  10.876 -0.2284  0.0553  0.0279
  676MPD2     H10003   2.405   2.500  11.085 -0.9615  1.2068 -1.1402
  676MPD2    H110004   2.722   2.443  10.787  1.6086 -1.5019  2.7674
  676MPD2    H210005   2.657   2.821  10.941  1.4999 -0.9909 -3.7099
  676MPD2    H310006   2.779   2.668  10.825  0.4806 -0.1061  1.1387
  676MPD2     N10007   2.543   2.304  10.933 -0.1403  0.9337 -0.7089
  676MPD2    H510008   2.604   2.246  10.876  0.1453 -0.4443  0.9645
  676MPD2    N110009   2.435   2.756  11.099 -0.1351  0.4363 -0.0803
  676MPD2    H710010   2.348   2.717  11.136 -1.2126  0.6862 -2.3535
  677TMC3    C110011   2.334   2.959  11.170 -0.1001 -0.5723  0.2770
  677TMC3    C210012   2.206   2.913  11.161 -0.1750 -0.2632 -0.3130
  677TMC3    C310013   2.116   2.979  11.243 -1.1384 -0.5953 -0.1384
  677TMC3    C410014   2.368   3.066  11.248 -0.2729 -0.4919 -0.1874
  677TMC3    C510015   2.277   3.119  11.333 -0.1969 -0.4954  0.0883
  677TMC3    C610016   2.145   3.077  11.331 -0.1497 -0.6318 -0.6155
  677TMC3     C10017   2.446   2.892  11.106  0.0399 -0.2565  0.7727
  677TMC3     O10018   2.550   2.958  11.099  0.7044 -0.0395 -0.1913
  677TMC3     H10019   2.171   2.835  11.094  0.4892 -0.0751 -0.8871
  677TMC3    H110020   2.472   3.092  11.259 -0.0947 -1.2808  0.0201
  677TMC3    H210021   2.067   3.125  11.388 -0.0021  0.7321 -1.5737
  677TMC3    C710022   2.325   3.187  11.448 -0.0781  0.3997 -0.0737
  677TMC3    C810023   1.993   2.910  11.256  0.9870 -0.1078  0.2956
  677TMC3    O110024   2.238   3.205  11.528 -0.2044 -0.4870  0.5794
  677TMC3    O210025   1.950   2.860  11.153  0.3255 -0.1048 -0.0986
  678MPD2     C10026   0.669   4.292   1.215  0.0557 -0.0728 -0.2460
  678MPD2    C110027   0.663   4.169   1.274 -0.2324 -0.3757 -0.2446
  678MPD2    C210028   0.634   4.150   1.406  0.4963 -0.3338 -0.0878
  678MPD2    C310029   0.637   4.257   1.488  0.5979  0.4789  0.2026
  678MPD2    C410030   0.658   4.388   1.433  0.2360  0.0828  0.1769
  678MPD2    C510031   0.669   4.404   1.297 -0.0260 -0.2297  0.4891
  678MPD2     H10032   0.638   4.051   1.450  1.1516 -0.8798 -1.3690
  678MPD2    H110033   0.644   4.475   1.495 -0.5763 -0.0292  0.1498
  678MPD2    H210034   0.684   4.313   1.110  0.8390  1.2469  0.1145
  678MPD2    H310035   0.669   4.505   1.258  1.0577 -1.1996 -1.9922
  678MPD2     N10036   0.614   4.242   1.627 -0.5493 -0.0981  0.0048
  678MPD2    H510037   0.593   4.146   1.654  2.2711 -0.6099  0.3532
  678MPD2    N110038   0.682   4.052   1.194  0.0679  0.7985 -0.0784
  678MPD2    H710039   0.666   3.964   1.243 -0.4889 -0.1137 -1.8897
  679TMC3    C110040   0.675   3.699   1.003 -0.1349  0.4718 -0.4685
  679TMC3    C210041   0.718   3.812   1.068 -0.5109  0.1335  0.5159
  679TMC3    C310042   0.695   3.923   0.997  0.0671  0.2173 -0.4093
  679TMC3    C410043   0.608   3.696   0.883  0.2292 -0.1020 -0.5877
  679TMC3    C510044   0.596   3.810   0.809  0.0157 -0.0981 -1.1069
  679TMC3    C610045   0.632   3.921   0.874  0.3142  0.3287  1.0126
  679TMC3     C10046   0.722   3.571   1.045  0.3456 -0.1489 -0.0377
  679TMC3     O10047   0.691   3.482   0.966  0.0446  0.2125  0.0313
  679TMC3     H10048   0.786   3.811   1.152  0.6244 -0.9977 -0.4234
  679TMC3    H110049   0.551   3.606   0.862 -0.0019  0.2683 -1.5373
  679TMC3    H210050   0.597   4.015   0.833 -2.2280 -0.2966  1.7572
  679TMC3    C710051   0.510   3.824   0.689  0.1406  0.0798 -0.1980
  679TMC3    C810052   0.716   4.052   1.058 -0.1257 -0.2781 -0.5603
  679TMC3    O110053   0.488   3.940   0.653 -0.2057  0.0952  0.3266
  679TMC3    O210054   0.732   4.148   0.986  0.4486  0.0440 -0.5666
  680MPD2     C10055   3.994   1.647  13.743 -0.0689  0.0978 -0.3603
  680MPD2    C110056   4.132   1.629  13.736 -0.3283 -0.4745  0.2120
  680MPD2    C210057   4.213   1.726  13.784  0.0242 -0.0106 -0.0405
  680MPD2    C310058   4.157   1.848  13.827  0.4471 -0.2791  0.5374
  680MPD2    C410059   4.023   1.873  13.809  0.5163  0.0354 -0.4731
  680MPD2    C510060   3.943   1.775  13.760 -0.4672  0.0212 -0.4792
  680MPD2     H10061   4.316   1.691  13.791 -0.6034 -2.4813 -3.5304
  680MPD2    H110062   3.979   1.967  13.839 -0.5992 -1.1502  1.5391
  680MPD2    H210063   3.927   1.564  13.724 -1.5730  1.1606  0.3564
  680MPD2    H310064   3.836   1.790  13.754 -0.9687 -3.6825 -0.5963
  680MPD2     N10065   4.237   1.954  13.889 -1.0539 -0.6239  0.3506
  680MPD2    H510066   4.193   2.043  13.906  2.4777  1.4872 -1.4907
  680MPD2    N110067   4.194   1.504  13.712  0.0763 -0.4456  0.2176
  680MPD2    H710068   4.287   1.498  13.752 -0.2514  1.4666  1.2799
  681TMC3    C110069   4.231   1.280  13.670 -0.6750  0.1995  0.0107
  681TMC3    C210070   4.185   1.183  13.758  0.2262 -0.1417 -0.1494
  681TMC3    C310071   4.254   1.136  13.863  0.2240  0.0251 -0.1387
  681TMC3    C410072   4.361   1.317  13.673 -0.1487  0.5449 -0.6090
  681TMC3    C510073   4.442   1.255  13.765  0.3406  1.1067 -0.5324
  681TMC3    C610074   4.388   1.162  13.854  0.4684  0.0723  0.3050
  681TMC3     C10075   4.139   1.388  13.658 -0.5640 -0.2094  0.3446
  681TMC3     O10076   4.030   1.375  13.606  0.2154  0.3902 -0.5212
  681TMC3     H10077   4.079   1.161  13.762  0.1896  0.0635  0.0091
  681TMC3    H110078   4.394   1.375  13.588 -1.7958  0.1311 -1.5363
  681TMC3    H210079   4.447   1.111  13.929 -0.6182  1.2404  1.9869
  681TMC3    C710080   4.583   1.294  13.776  0.2418 -0.0539 -0.1165
  681TMC3    C810081   4.185   1.183  13.984  0.3720  0.5510 -0.3812
  681TMC3    O110082   4.649   1.233  13.858 -0.3740 -0.2537 -0.0072
  681TMC3    O210083   4.067   1.210  13.978 -0.3801 -0.0717  0.4802
  682MPD2     C10084   1.461   3.018  10.689  0.0888 -0.3114 -0.2015
  682MPD2    C110085   1.376   2.922  10.745 -0.6870 -0.6969 -0.3343
  682MPD2    C210086   1.288   2.952  10.845  0.1512  0.3148  0.4693
  682MPD2    C310087   1.289   3.080  10.908  0.1728  0.3167  0.1440
  682MPD2    C410088   1.372   3.173  10.850  0.4795 -0.1744 -0.2598
  682MPD2    C510089   1.452   3.145  10.746 -0.3194 -0.1783 -0.1307
  682MPD2     H10090   1.233   2.872  10.892 -0.1173  0.8114  1.0015
  682MPD2    H110091   1.371   3.276  10.885  0.1581 -0.9775  2.0772
  682MPD2    H210092   1.531   2.998  10.609 -1.0388 -1.4183 -0.9190
  682MPD2    H310093   1.518   3.219  10.702 -0.1515 -0.7940 -0.9195
  682MPD2     N10094   1.209   3.117  11.020  0.1571 -0.6035 -0.5361
  682MPD2    H510095   1.216   3.212  11.055 -0.2584 -0.6985 -0.1937
  682MPD2    N110096   1.383   2.782  10.708  0.8119  0.0470 -0.3586
  682MPD2    H710097   1.332   2.716  10.766  1.2923 -1.5793 -1.7953
  683TMC3    C110098   1.136   3.140  11.431 -0.0219  0.1452 -1.2101
  683TMC3    C210099   1.048   3.054  11.477  0.0807 -0.0377  0.0646
  683TMC3    C310100   0.970   2.987  11.393 -0.3109  0.0132  0.1829
  683TMC3    C410101   1.144   3.161  11.294 -0.0716  0.2778  0.0447
  683TMC3    C510102   1.061   3.098  11.205  0.2463 -0.1414 -0.4231
  683TMC3    C610103   0.974   3.009  11.263  0.3240  0.1417  0.6197
  683TMC3     C10104   1.212   3.224  11.517 -0.4208  0.8190 -1.0335
  683TMC3     O10105   1.267   3.321  11.463  0.4846  0.2913  0.3404
  683TMC3     H10106   1.026   3.042  11.582  3.0106 -0.3482  0.6401
  683TMC3    H110107   1.228   3.215  11.251 -0.5597  1.0597  0.0787
  683TMC3    H210108   0.912   2.946  11.200  0.1039  1.6239 -0.6560
  683TMC3    C710109   1.121   3.039  11.085 -0.4235 -0.0518  0.7833
  683TMC3    C810110   0.910   2.862  11.421 -0.0877  0.1941  0.5398
  683TMC3    O110111   1.106   2.917  11.068  0.1527 -0.1490 -0.1213
  683TMC3    O210112   0.823   2.817  11.347 -0.7099  0.7332  0.1883
  684MPD2     C10113   4.578   2.652  16.417  0.6558 -0.2605 -0.3586
  684MPD2    C110114   4.531   2.636  16.284  0.2161  0.2458  0.0726
  684MPD2    C210115   4.466   2.744  16.225  0.7194  0.6132 -0.2955
  684MPD2    C310116   4.469   2.869  16.282 -0.0495  0.2608  0.2538
  684MPD2    C410117   4.510   2.883  16.412 -0.0644 -0.3843 -0.7103
  684MPD2    C510118   4.555   2.772  16.478 -0.2318  0.2169 -0.3016
  684MPD2     H10119   4.423   2.723  16.128 -2.3732 -0.5173  1.3379
  684MPD2    H110120   4.499   2.973  16.470 -2.2745  0.0713 -1.8341
  684MPD2    H210121   4.622   2.565  16.464  0.3819  0.1852  0.7001
  684MPD2    H310122   4.585   2.786  16.581 -2.8019  1.6682  0.2613
  684MPD2     N10123   4.449   2.996  16.210 -0.3357 -0.5702 -0.1826
  684MPD2    H510124   4.481   3.081  16.255 -1.7580  0.7363 -1.6531
  684MPD2    N110125   4.556   2.521  16.207 -0.2059 -0.7471  0.2036
  684MPD2    H710126   4.517   2.537  16.115 -0.7353  0.7761  0.6775
  685TMC3    C110127   4.674   2.336  16.125 -0.0546 -0.0554  0.0395
  685TMC3    C210128   4.582   2.317  16.032 -0.5157  0.2281 -0.8465
  685TMC3    C310129   4.600   2.230  15.934  0.5533  0.4122  0.1716
  685TMC3    C410130   0.075   2.271  16.120 -0.0135 -0.2809 -0.4641
  685TMC3    C510131   0.097   2.199  16.002 -0.5785  0.2760 -0.5576
  685TMC3    C610132   0.000   2.169  15.911 -0.4185 -0.7979  0.2499
  685TMC3     C10133   4.647   2.427  16.235 -0.1520 -0.5042  0.1846
  685TMC3     O10134   4.719   2.409  16.332  0.2517 -0.9032 -0.6385
  685TMC3     H10135   4.481   2.358  16.040 -0.0861  0.6717  2.1843
  685TMC3    H110136   0.147   2.282  16.200  0.0375  2.3180 -0.8630
  685TMC3    H210137   0.017   2.099  15.829 -0.2006  0.0048 -0.3872
  685TMC3    C710138   0.230   2.146  15.990  0.2254 -0.4319  0.6335
  685TMC3    C810139   4.489   2.189  15.854 -0.6481  0.3243  0.2193
  685TMC3    O110140   0.245   2.041  15.926  0.0530 -0.4336 -0.4398
  685TMC3    O210141   4.501   2.086  15.795 -0.4283  0.3107 -0.2167
  686MPD2     C10142   1.393   2.785  15.432  0.3840 -0.2705 -0.5199
  686MPD2    C110143   1.429   2.681  15.517 -0.6643 -0.2309 -0.6369
  686MPD2    C210144   1.533   2.597  15.483  1.0391  0.0252 -0.4349
  686MPD2    C310145   1.594   2.615  15.362 -0.4935 -0.8621  0.0170
  686MPD2    C410146   1.558   2.716  15.274  0.2109  0.2507 -0.4167
  686MPD2    C510147   1.461   2.802  15.315  0.3964 -0.0787  0.8699
  686MPD2     H10148   1.563   2.514  15.545 -0.5561 -0.9265 -0.9480
  686MPD2    H110149   1.603   2.725  15.175  0.8584 -0.3838 -0.1845
  686MPD2    H210150   1.308   2.849  15.451  0.5621 -0.2341  0.1679
  686MPD2    H310151   1.439   2.886  15.250  1.3622  0.2821  1.0132
  686MPD2     N10152   1.686   2.517  15.311 -0.4260 -0.3772 -0.0132
  686MPD2    H510153   1.709   2.526  15.213 -1.2710  1.3065 -0.0539
  686MPD2    N110154   1.366   2.662  15.644  0.1897 -0.2952 -0.2999
  686MPD2    H710155   1.399   2.584  15.701 -1.6339  0.5750  1.9429
  687TMC3    C110156   1.802   2.311  15.320  0.6801 -0.1145 -0.3259
  687TMC3    C210157   1.689   2.233  15.308 -0.5079  0.0506 -0.3177
  687TMC3    C310158   1.690   2.113  15.380  0.1208  0.5075  0.7584
  687TMC3    C410159   1.915   2.263  15.375 -0.1871 -0.1606  0.7062
  687TMC3    C510160   1.915   2.143  15.442 -0.3607  0.1358 -0.2413
  687TMC3    C610161   1.800   2.067  15.448 -1.3370 -0.1870  0.1200
  687TMC3     C10162   1.762   2.433  15.394 -0.4513  0.4520  0.3245
  687TMC3     O10163   1.781   2.440  15.515  0.4257  0.0790 -0.3656
  687TMC3     H10164   1.605   2.271  15.250  0.3827  0.5835 -1.2519
  687TMC3    H110165   1.997   2.332  15.394  0.6134 -0.5090 -1.4859
  687TMC3    H210166   1.796   1.977  15.508 -1.2848 -0.5125 -0.3650
  687TMC3    C710167   2.043   2.096  15.499 -0.1696 -0.2485 -0.0385
  687TMC3    C810168   1.575   2.111  15.469 -0.4642 -0.0072 -0.1907
  687TMC3    O110169   2.137   2.173  15.490  0.1606  0.3974 -0.0311
  687TMC3    O210170   1.588   2.062  15.580  0.2425  0.3468 -0.2652
  688MPD2     C10171   1.303   1.436  17.485 -0.0474 -0.5149 -0.1839
  688MPD2    C110172   1.222   1.327  17.443 -0.1734  0.3181  0.7264
  688MPD2    C210173   1.223   1.303  17.308  0.1175  0.2682 -0.0528
  688MPD2    C310174   1.298   1.370  17.213  0.2314 -0.1772 -0.3304
  688MPD2    C410175   1.376   1.476  17.253  0.2453 -0.3099 -0.0095
  688MPD2    C510176   1.372   1.502  17.392 -0.7313 -0.2568  0.5383
  688MPD2     H10177   1.150   1.231  17.274  1.5264 -1.2904  0.2067
  688MPD2    H110178   1.425   1.531  17.174 -0.9238 -1.4696 -1.5689
  688MPD2    H210179   1.309   1.479  17.584 -1.2035 -1.1354  0.1508
  688MPD2    H310180   1.416   1.596  17.423  1.5913 -0.8352 -0.9831
  688MPD2     N10181   1.302   1.331  17.076 -0.0222  0.1454  0.0244
  688MPD2    H510182   1.371   1.379  17.019 -0.3150 -1.1900 -1.4439
  688MPD2    N110183   1.134   1.254  17.522 -0.7149  0.0634 -0.2646
  688MPD2    H710184   1.081   1.180  17.478 -1.1329 -0.3675  0.9638
  689TMC3    C110185   0.987   1.204   0.001 -0.3643 -0.5854 -0.2139
  689TMC3    C210186   0.994   1.148   0.128  0.0723 -0.1481  0.0155
  689TMC3    C310187   0.871   1.094   0.169  0.5855  0.0952  0.4843
  689TMC3    C410188   0.883   1.191  17.609 -0.7140  0.5472  0.7558
  689TMC3    C510189   0.769   1.130  17.656  0.1304 -0.5780  0.2231
  689TMC3    C610190   0.757   1.090   0.095  0.0058  0.0520 -0.1336
  689TMC3     C10191   1.111   1.267  17.654  0.6160  0.1509 -0.1028
  689TMC3     O10192   1.190   1.312   0.039  0.5415  0.0991  1.0558
  689TMC3     H10193   1.081   1.157   0.192 -0.8637  0.5255  1.1918
  689TMC3    H110194   0.890   1.228  17.507  0.1900 -1.8216 -0.0432
  689TMC3    H210195   0.661   1.062   0.138  0.3974 -0.6138  0.3116
  689TMC3    C710196   0.653   1.113  17.565  0.1659  0.2973 -0.2957
  689TMC3    C810197   0.857   1.054   0.314 -0.0831 -0.6428 -1.0114
  689TMC3    O110198   0.678   1.143  17.449  0.2046  0.2143 -0.3343
  689TMC3    O210199   0.776   0.966   0.350  0.1814  0.2555 -0.3324
  690MPD2     C10200   2.958   3.339  15.570  0.7810 -0.5979 -0.3940
  690MPD2    C110201   2.960   3.248  15.472 -0.3414 -0.3551 -0.7787
  690MPD2    C210202   3.057   3.260  15.374 -0.3540 -0.0764 -0.4792
  690MPD2    C310203   3.148   3.373  15.374  0.0319  0.2399 -0.5551
  690MPD2    C410204   3.150   3.458  15.482 -0.5978  0.0988 -0.0088
  690MPD2    C510205   3.054   3.435  15.580 -0.3380  0.5222 -0.2868
  690MPD2     H10206   3.053   3.197  15.286 -0.7649 -1.1304  0.2991
  690MPD2    H110207   3.219   3.539  15.503  0.5481 -1.1769  1.1874
  690MPD2    H210208   2.877   3.336  15.642  2.2934  1.0960  1.4089
  690MPD2    H310209   3.060   3.489  15.674 -1.1236 -1.0072  0.6424
  690MPD2     N10210   3.230   3.389  15.263 -0.3587  0.2419  0.2593
  690MPD2    H510211   3.222   3.323  15.186  0.9676 -0.1960  0.4850
  690MPD2    N110212   2.863   3.148  15.456  0.3338  0.2993  0.2050
  690MPD2    H710213   2.879   3.095  15.371  1.3391 -1.7610  1.6767
  691TMC3    C110214   2.676   3.020  15.492 -0.1572  0.7015  0.0164
  691TMC3    C210215   2.536   3.013  15.511  0.1498  0.1495 -0.0864
  691TMC3    C310216   2.477   2.899  15.548  0.2802  0.0971 -0.3071
  691TMC3    C410217   2.750   2.910  15.501 -0.1738 -0.0997 -0.0096
  691TMC3    C510218   2.679   2.790  15.520  0.3781  0.3662 -0.2435
  691TMC3    C610219   2.545   2.786  15.561 -0.0493 -0.0473 -0.3076
  691TMC3     C10220   2.745   3.139  15.523 -0.2694  0.4679  0.1072
  691TMC3     O10221   2.689   3.216  15.602 -0.3862  0.3772 -0.0756
  691TMC3     H10222   2.488   3.110  15.506  0.2975  0.1976 -0.5803
  691TMC3    H110223   2.857   2.904  15.485  0.0511  2.0625  0.6566
  691TMC3    H210224   2.488   2.700  15.596  0.8727 -1.2194 -1.6739
  691TMC3    C710225   2.760   2.669  15.531 -0.4405  0.0464 -0.3139
  691TMC3    C810226   2.337   2.894  15.590 -0.0073 -0.0029 -0.6540
  691TMC3    O110227   2.884   2.676  15.530  0.3094  0.0165  0.6586
  691TMC3    O210228   2.306   2.802  15.667  0.0869 -0.3347  0.5647
  692TMC3    C110229   4.205   4.157  15.473  0.3551  0.4228 -0.4836
  692TMC3    C210230   4.332   4.216  15.489  0.1112  0.2894  0.0055
  692TMC3    C310231   4.446   4.141  15.443 -0.1202 -0.2035 -0.4348
  692TMC3    C410232   4.189   4.034  15.418  0.4982 -0.3958  0.5939
  692TMC3    C510233   4.299   3.963  15.379  0.0840 -0.2426 -0.0229
  692TMC3    C610234   4.426   4.018  15.392 -0.1506 -0.2955  0.7380
  692TMC3     C10235   4.093   4.219  15.541 -1.1169  0.4462  0.2179
  692TMC3     O10236   3.993   4.154  15.563  0.2028  0.6063  0.1096
  692TMC3     H10237   4.354   4.285  15.569 -1.4678  2.0201 -1.0524
  692TMC3    H110238   4.088   3.995  15.405  1.2724 -1.9339 -0.7855
  692TMC3    H210239   4.513   3.967  15.350 -0.6870  0.0311 -0.7618
  692TMC3    C710240   4.281   3.822  15.361 -0.1031  0.0686  0.6490
  692TMC3    C810241   4.570   4.155  15.520  0.2247  0.3473  0.7900
  692TMC3    O110242   4.179   3.777  15.312 -0.3519  0.0201  0.3709
  692TMC3    O210243   4.622   4.048  15.540  0.0565  0.4091  0.2741
  693MPD2     C10244   3.675   1.758  10.453 -0.2367  0.5567 -0.4638
  693MPD2    C110245   3.622   1.725  10.581  0.0884  0.1705 -0.6230
  693MPD2    C210246   3.711   1.667  10.663 -0.0039 -0.0807 -0.1096
  693MPD2    C310247   3.848   1.665  10.641  0.2114 -0.0061  0.9577
  693MPD2    C410248   3.897   1.714  10.526 -0.8390 -0.1577 -0.4220
  693MPD2    C510249   3.810   1.758  10.429 -0.5126 -0.8167  0.1601
  693MPD2     H10250   3.676   1.630  10.759 -0.3256  0.6986  0.0719
  693MPD2    H110251   4.004   1.709  10.512 -0.5755  0.2760  1.4253
  693MPD2    H210252   3.614   1.806  10.378 -1.3771 -0.2184 -0.0399
  693MPD2    H310253   3.849   1.794  10.334 -0.4156 -2.3141 -0.3819
  693MPD2     N10254   3.944   1.609  10.729 -0.0590  0.0152 -0.2135
  693MPD2    H510255   4.037   1.601  10.689 -0.5050 -0.4679 -1.1576
  693MPD2    N110256   3.491   1.751  10.620 -0.2980 -0.0733  0.1322
  693MPD2    H710257   3.462   1.726  10.714 -0.7935  0.1027  0.0285
  694TMC3    C110258   3.265   1.827  10.604  0.1437  0.1545  0.1470
  694TMC3    C210259   3.161   1.795  10.524  0.5684  0.0794  0.1129
  694TMC3    C310260   3.037   1.777  10.583 -0.4047 -0.5425 -0.7237
  694TMC3    C410261   3.258   1.842  10.736  0.8080 -0.5611 -0.4580
  694TMC3    C510262   3.137   1.823  10.795 -0.5805 -0.2792 -0.6723
  694TMC3    C610263   3.025   1.791  10.722 -0.5467 -0.1111 -0.2495
  694TMC3     C10264   3.397   1.810  10.546 -0.1953  0.0841 -0.4360
  694TMC3     O10265   3.394   1.827  10.422 -0.3391 -0.8169 -0.4561
  694TMC3     H10266   3.173   1.784  10.417  1.2721  0.3595  0.1636
  694TMC3    H110267   3.350   1.871  10.786 -0.6664  1.7919  0.8683
  694TMC3    H210268   2.930   1.780  10.774 -0.2769  1.0482  0.4906
  694TMC3    C710269   3.133   1.809  10.939 -0.0825 -0.2482 -0.3991
  694TMC3    C810270   2.932   1.712  10.511  0.5719  0.3043  0.3024
  694TMC3    O110271   3.218   1.878  10.996  0.2776  0.5524  0.0396
  694TMC3    O210272   2.856   1.644  10.579 -0.5744 -0.4068 -0.2995
  695MPD2     C10273   0.257   3.448  13.570 -0.2444 -0.3565 -0.6748
  695MPD2    C110274   0.261   3.581  13.534 -0.0852 -0.3365 -0.3784
  695MPD2    C210275   0.147   3.649  13.490 -0.0469  0.1226  0.0982
  695MPD2    C310276   0.027   3.580  13.499 -0.6808  0.3440  0.2918
  695MPD2    C410277   0.023   3.448  13.538  0.4591 -0.1114 -0.2587
  695MPD2    C510278   0.140   3.383  13.570  0.5774 -0.6835 -0.6770
  695MPD2     H10279   0.141   3.755  13.470 -0.0096  0.1696  0.3348
  695MPD2    H110280   4.654   3.390  13.536  0.1911  0.3661 -2.1216
  695MPD2    H210281   0.354   3.406  13.596 -1.4360 -2.5474  0.2301
  695MPD2    H310282   0.130   3.278  13.597  1.2476 -0.4810  0.3574
  695MPD2     N10283   4.624   3.643  13.488  0.0927  0.0623  0.3796
  695MPD2    H510284   4.550   3.599  13.541 -0.6886  1.9563  0.8632
  695MPD2    N110285   0.385   3.646  13.541  0.3527 -0.2408  0.3912
  695MPD2    H710286   0.468   3.593  13.564 -1.0124 -1.7999  1.7765
  696TMC3    C110287   4.472   3.824  13.491  0.0409 -0.5509  0.2978
  696TMC3    C210288   4.440   3.799  13.623  0.4952  0.1737 -0.4407
  696TMC3    C310289   4.324   3.852  13.679 -0.5969 -0.2593  0.1280
  696TMC3    C410290   4.427   3.933  13.429  0.0945 -0.6628 -0.0858
  696TMC3    C510291   4.319   3.995  13.489  0.2940 -0.0049 -0.8725
  696TMC3    C610292   4.260   3.951  13.607 -0.4509 -0.0460  0.2870
  696TMC3     C10293   4.598   3.769  13.445  0.0126  0.2288 -0.2682
  696TMC3     O10294   4.666   3.845  13.379  0.1140  0.2451  0.1049
  696TMC3     H10295   4.506   3.728  13.670  2.3598  2.3315  0.1830
  696TMC3    H110296   4.475   3.966  13.338  1.2484 -1.8131  0.0964
  696TMC3    H210297   4.177   4.010  13.644 -0.0155  0.2226  0.8338
  696TMC3    C710298   4.287   4.130  13.455  0.2581 -0.2945  0.7700
  696TMC3    C810299   4.360   3.911  13.805  0.0605 -0.2247 -0.1623
  696TMC3    O110300   4.281   4.170  13.341  0.2236  0.1599 -0.1306
  696TMC3    O210301   4.325   4.028  13.829  0.6394 -0.2054 -0.5130
  697MPD2     C10302   3.925   1.034  15.816 -0.4003  0.2916  0.7823
  697MPD2    C110303   3.916   0.987  15.687  0.0170 -0.1532 -0.3293
  697MPD2    C210304   3.986   1.053  15.579  0.2060  0.3267 -0.0033
  697MPD2    C310305   4.085   1.145  15.612 -0.6699 -0.1158 -0.0044
  697MPD2    C410306   4.092   1.184  15.748  0.1482 -0.2199  0.2619
  697MPD2    C510307   4.011   1.134  15.849 -0.4650 -0.5774  0.7996
  697MPD2     H10308   3.979   1.003  15.483 -1.0636  0.1352  0.1882
  697MPD2    H110309   4.130   1.284  15.762  0.9735 -0.6296  0.9516
  697MPD2    H210310   3.865   0.998  15.899 -1.7954  3.4484  1.1625
  697MPD2    H310311   4.019   1.186  15.943 -2.3555  2.9305 -0.9528
  697MPD2     N10312   4.171   1.195  15.511  0.2270 -0.5561 -0.3175
  697MPD2    H510313   4.155   1.165  15.415 -1.2515  1.2500 -0.6445
  697MPD2    N110314   3.846   0.863  15.652  0.1947 -0.3386  0.0103
  697MPD2    H710315   3.843   0.831  15.556  0.1278  0.0604 -0.1177
  698TMC3    C110316   4.354   1.300  15.421 -0.0018  0.0451  1.0127
  698TMC3    C210317   4.482   1.342  15.454  0.2229  0.1945 -0.8320
  698TMC3    C310318   4.549   1.390  15.346 -0.4557  0.0359  0.1584
  698TMC3    C410319   4.299   1.290  15.292  0.1804  0.4378 -0.1622
  698TMC3    C510320   4.377   1.342  15.198 -0.0236  0.5375 -0.3085
  698TMC3    C610321   4.504   1.400  15.216 -0.2647  0.1904 -0.1740
  698TMC3     C10322   4.287   1.252  15.536  0.3581  0.1926 -0.5060
  698TMC3     O10323   4.335   1.282  15.646 -0.3024  0.5592  0.0025
  698TMC3     H10324   4.521   1.351  15.555  0.6509 -1.1933 -0.8809
  698TMC3    H110325   4.195   1.266  15.273  0.0792  3.0098 -2.7363
  698TMC3    H210326   4.556   1.453  15.137  1.5484  1.6560  1.9991
  698TMC3    C710327   4.345   1.295  15.061 -0.2287 -0.3117 -0.9622
  698TMC3    C810328   4.688   1.383  15.366 -0.1586 -0.5663  0.0638
  698TMC3    O110329   4.237   1.241  15.044 -0.0658  0.3452  0.1310
  698TMC3    O210330   0.020   1.311  15.444 -0.3276  0.2166  0.3194
  699TMC3    C110331   4.253   3.738  13.123 -0.0776 -0.3763 -0.3016
  699TMC3    C210332   4.255   3.602  13.137 -0.0642 -0.3320  0.5773
  699TMC3    C310333   4.175   3.554  13.237  0.0189  0.4599 -0.7407
  699TMC3    C410334   4.168   3.819  13.197 -0.2492 -0.3431 -0.3541
  699TMC3    C510335   4.089   3.759  13.294  0.3752 -0.2187  0.3067
  699TMC3    C610336   4.104   3.629  13.319 -0.4338 -0.5790  0.1235
  699TMC3     C10337   4.319   3.806  13.013 -0.5253  1.0343  0.0293
  699TMC3     O10338   4.271   3.914  12.973 -0.0845 -0.1254  0.3217
  699TMC3     H10339   4.321   3.544  13.073  0.1385  1.6323 -0.9850
  699TMC3    H110340   4.169   3.926  13.177 -2.2768 -0.5829 -1.7442
  699TMC3    H210341   4.048   3.590  13.404 -0.5881  1.7525  1.0989
  699TMC3    C710342   4.015   3.844  13.386 -0.0422 -0.2454  0.2157
  699TMC3    C810343   4.183   3.414  13.273 -0.4729  0.5983  0.3927
  699TMC3    O110344   4.012   3.805  13.498 -0.5669  0.2978  0.7908
  699TMC3    O210345   4.132   3.386  13.381 -0.2489 -0.1333  0.8129
  700TMC3    C110346   3.330   2.263  17.615  0.1753  0.3773  0.1325
  700TMC3    C210347   3.316   2.142  17.681  0.3720 -0.5105  0.3676
  700TMC3    C310348   3.418   2.094   0.054 -0.4250 -0.7522 -0.6925
  700TMC3    C410349   3.445   2.336  17.625  0.5211 -0.4078 -0.5269
  700TMC3    C510350   3.543   2.287   0.016 -0.0047  1.0459  0.0999
  700TMC3    C610351   3.531   2.162   0.070 -0.0947 -0.1141 -0.4804
  700TMC3     C10352   3.230   2.304  17.518 -0.3961  0.3314 -0.1218
  700TMC3     O10353   3.116   2.264  17.522 -0.2023 -0.3504  0.0399
  700TMC3     H10354   3.226   2.085  17.665 -0.5417  0.6316  1.4758
  700TMC3    H110355   3.467   2.432  17.579 -2.0075 -0.9061 -2.8123
  700TMC3    H210356   3.622   2.119   0.112 -1.3056 -1.1864  1.0369
  700TMC3    C710357   3.664   2.356   0.052  0.2193 -0.4098  0.0826
  700TMC3    C810358   3.428   1.944   0.075  0.9831 -0.3756  0.1445
  700TMC3    O110359   3.679   2.470   0.011  0.4318  0.2440 -0.2963
  700TMC3    O210360   3.537   1.891   0.073  0.1567 -0.4961 -0.2469
  701TMC3    C110361   2.852   0.449  15.268  0.2575  0.4233 -0.6174
  701TMC3    C210362   2.857   0.426  15.131 -0.1505 -1.3148  0.3377
  701TMC3    C310363   2.967   0.479  15.064 -0.5362  0.2422 -0.0587
  701TMC3    C410364   2.940   0.524  15.339  0.0214 -0.1968 -0.0935
  701TMC3    C510365   3.049   0.563  15.266  0.4634  0.4297 -0.0841
  701TMC3    C610366   3.066   0.538  15.132  0.6660 -0.0287 -0.2257
  701TMC3     C10367   2.742   0.387  15.339  0.3107  0.6687  0.2645
  701TMC3     O10368   2.684   0.287  15.292 -0.0516  0.1736  0.0084
  701TMC3     H10369   2.783   0.360  15.087 -1.3972 -0.2780  0.8794
  701TMC3    H110370   2.938   0.526  15.447 -3.9743 -2.7038 -0.1212
  701TMC3    H210371   3.152   0.565  15.071 -0.7607 -1.4124 -2.8029
  701TMC3    C710372   3.151   0.652  15.328 -0.9519 -0.4818 -0.0330
  701TMC3    C810373   2.998   0.431  14.932 -0.1080  0.2210  0.4928
  701TMC3    O110374   3.250   0.677  15.257 -0.0330 -0.5633 -1.0611
  701TMC3    O210375   3.069   0.503  14.861 -0.0354 -0.0703  0.2012
  702MPD2     C10376   2.533   1.894  10.387  0.4557 -0.2569  0.3763
  702MPD2    C110377   2.451   1.996  10.433 -0.5804 -0.9722 -0.0043
  702MPD2    C210378   2.434   2.105  10.350  0.0079 -0.5311 -0.5530
  702MPD2    C310379   2.480   2.104  10.220 -0.4222  0.3426  0.2655
  702MPD2    C410380   2.548   1.991  10.175  0.4858 -0.0583 -0.3229
  702MPD2    C510381   2.579   1.887  10.261 -0.3705  0.4697  0.1500
  702MPD2     H10382   2.368   2.183  10.385  1.5681  1.0480 -1.1390
  702MPD2    H110383   2.572   1.985  10.069 -0.5226  0.2805 -0.5620
  702MPD2    H210384   2.561   1.809  10.449 -2.9054 -1.7788 -0.2133
  702MPD2    H310385   2.643   1.806  10.226  0.8047  1.3308  0.3272
  702MPD2     N10386   2.474   2.213  10.134  0.1745 -0.4369  0.3619
  702MPD2    H510387   2.525   2.202  10.047  0.3690  0.5950  0.3475
  702MPD2    N110388   2.414   2.004  10.572 -0.1959  0.0717 -0.1229
  702MPD2    H710389   2.380   2.092  10.609 -0.6696 -0.3385  0.3981
  703TMC3    C110390   2.426   2.444  10.083 -0.8398 -0.2646 -0.3985
  703TMC3    C210391   2.331   2.543  10.068 -0.3025  0.0222 -0.6576
  703TMC3    C310392   2.371   2.664  10.016 -0.2125 -0.8500  0.3433
  703TMC3    C410393   2.559   2.467  10.045  0.0945  0.3456  0.1620
  703TMC3    C510394   2.593   2.592   9.993  0.9385 -0.6901 -0.1666
  703TMC3    C610395   2.496   2.682   9.970  0.6865 -0.1353  0.2677
  703TMC3     C10396   2.395   2.327  10.157  0.3774 -0.0600 -0.0809
  703TMC3     O10397   2.301   2.342  10.232 -0.7210  0.8219 -0.2914
  703TMC3     H10398   2.226   2.516  10.074 -0.2411 -0.3286 -1.2096
  703TMC3    H110399   2.631   2.398  10.089  0.5456  1.2472  0.8528
  703TMC3    H210400   2.510   2.783   9.934  0.3504  0.0226  0.5850
  703TMC3    C710401   2.729   2.641   9.996 -0.2833  0.1987 -0.4116
  703TMC3    C810402   2.296   2.783  10.033  0.3729 -0.3074 -0.1462
  703TMC3    O110403   2.741   2.753   9.943  0.3242 -0.4287 -0.5118
  703TMC3    O210404   2.290   2.867   9.947 -0.4157  0.0635 -0.0096
  704TMC3    C110405   0.309   0.928  12.486 -0.0240  0.2224 -0.7686
  704TMC3    C210406   0.432   0.990  12.482  0.9851  0.7305  0.1055
  704TMC3    C310407   0.527   0.940  12.567  0.2923 -0.2702 -0.9111
  704TMC3    C410408   0.283   0.839  12.586 -0.0031 -0.1004  0.1451
  704TMC3    C510409   0.381   0.791  12.660 -0.2399  0.2415 -1.2668
  704TMC3    C610410   0.510   0.835  12.648 -0.2968  0.0812 -0.3626
  704TMC3     C10411   0.250   0.902  12.362 -0.1125 -0.0488  0.2563
  704TMC3     O10412   0.140   0.855  12.370 -0.4544  0.1335  0.4706
  704TMC3     H10413   0.458   1.066  12.409  1.0817 -1.3868 -2.0925
  704TMC3    H110414   0.184   0.800  12.602 -0.7712  1.9341  0.3254
  704TMC3    H210415   0.589   0.790  12.708 -0.7809 -0.5497 -0.2016
  704TMC3    C710416   0.368   0.643  12.682 -0.0416 -0.8058  0.6755
  704TMC3    C810417   0.658   0.926  12.508 -0.7884 -0.9856  0.5631
  704TMC3    O110418   0.476   0.582  12.680 -0.0010 -0.2379  0.0347
  704TMC3    O210419   0.667   0.916  12.389 -0.6507  0.2676 -0.3998
  705MPD2     C10420   4.694   3.648  16.073 -0.3631 -0.0127 -0.4541
  705MPD2    C110421   4.711   3.778  16.120 -0.2621  0.0020  0.4365
  705MPD2    C210422   4.616   3.840  16.199  0.4293 -0.2617  0.2630
  705MPD2    C310423   4.495   3.781  16.221 -0.3592 -0.0066 -0.4174
  705MPD2    C410424   4.468   3.656  16.161  0.0159 -0.5918 -0.1784
  705MPD2    C510425   4.575   3.591  16.094 -0.4571 -0.5818 -0.7830
  705MPD2     H10426   4.636   3.943  16.228 -0.2066  0.0706 -0.4711
  705MPD2    H110427   4.372   3.607  16.162 -1.2842  1.9389  0.2171
  705MPD2    H210428   0.040   3.607  16.000 -0.2950 -1.1251  0.2440
  705MPD2    H310429   4.555   3.499  16.042 -1.3499 -0.9946  0.3036
  705MPD2     N10430   4.391   3.848  16.285 -0.0732  0.4342 -0.1164
  705MPD2    H510431   4.301   3.801  16.280 -0.8857  2.2703 -3.0527
  705MPD2    N110432   0.107   3.852  16.087  0.2775 -0.2189 -0.0292
  705MPD2    H710433   0.143   3.926  16.146  0.1160 -0.2810  0.1475
  706TMC3    C110434   0.467   3.967  15.818  0.4011 -0.3481  0.0217
  706TMC3    C210435   0.470   4.096  15.873  0.5669  1.0077 -0.5673
  706TMC3    C310436   0.404   4.115  15.996 -0.0733  0.8652  0.2125
  706TMC3    C410437   0.393   3.866  15.876  0.1835  0.4571 -0.0263
  706TMC3    C510438   0.312   3.893  15.984  0.5780  0.0718 -0.0378
  706TMC3    C610439   0.322   4.013  16.047  0.7496 -0.0713 -0.4568
  706TMC3     C10440   0.586   3.927  15.739 -0.1304  0.2340  0.2675
  706TMC3     O10441   0.679   4.006  15.736  0.0928 -0.2478  0.1337
  706TMC3     H10442   0.524   4.174  15.819  0.3134  0.6618 -1.3246
  706TMC3    H110443   0.380   3.774  15.819 -2.1367  1.5326 -1.2494
  706TMC3    H210444   0.268   4.034  16.139 -1.2278 -0.6227 -1.4913
  706TMC3    C710445   0.191   3.816  15.985  0.1469 -0.2147 -0.1275
  706TMC3    C810446   0.369   4.254  16.021 -0.7892  0.2868 -0.3435
  706TMC3    O110447   0.178   3.733  15.897  0.1554 -0.1082  0.2228
  706TMC3    O210448   0.412   4.344  15.949 -0.1896  0.1646  0.2735
  707TMC3    C110449   3.364   1.347   1.855 -0.1794 -0.6131 -0.1368
  707TMC3    C210450   3.497   1.322   1.842 -0.3895  1.1260  0.0038
  707TMC3    C310451   3.575   1.264   1.941 -0.2161  0.0192  0.2211
  707TMC3    C410452   3.302   1.311   1.969 -0.2750 -0.2759 -0.6760
  707TMC3    C510453   3.382   1.253   2.068  0.0936 -0.1936 -1.2031
  707TMC3    C610454   3.515   1.224   2.053 -0.0038 -0.1177 -0.3320
  707TMC3     C10455   3.333   1.478   1.811  0.2156  0.1172 -0.0324
  707TMC3     O10456   3.419   1.554   1.767 -0.1927  0.0351  0.2702
  707TMC3     H10457   3.536   1.349   1.745 -1.3043  1.5264 -0.2497
  707TMC3    H110458   3.196   1.331   1.975 -0.0023  1.1637 -0.4407
  707TMC3    H210459   3.578   1.190   2.134  0.2461  0.2585 -0.3704
  707TMC3    C710460   3.316   1.178   2.178 -0.9871  0.5570  0.2439
  707TMC3    C810461   3.712   1.304   1.947  0.2040 -0.3268  0.1426
  707TMC3    O110462   3.378   1.094   2.243 -0.2491  0.1539  0.7617
  707TMC3    O210463   3.784   1.242   2.027  0.5323  0.3237 -0.0100
  708MPD2     C10464   3.619   2.167  13.913 -0.5214  0.1359 -0.9035
  708MPD2    C110465   3.497   2.126  13.955 -0.2880 -0.2460  0.5838
  708MPD2    C210466   3.469   2.098  14.090 -0.0211 -0.7889 -0.3479
  708MPD2    C310467   3.570   2.125  14.182  0.1462  0.4327  0.1896
  708MPD2    C410468   3.698   2.162  14.141 -0.3988 -0.6842 -0.6336
  708MPD2    C510469   3.719   2.183  14.006 -0.0879 -0.0359 -0.0397
  708MPD2     H10470   3.379   2.053  14.131  0.6414 -1.2865  0.5741
  708MPD2    H110471   3.779   2.180  14.211 -1.2146  1.3437 -0.2261
  708MPD2    H210472   3.640   2.201  13.812 -1.0038 -0.9413 -1.3680
  708MPD2    H310473   3.820   2.210  13.980 -0.1388 -0.0206 -0.2240
  708MPD2     N10474   3.552   2.121  14.323 -0.4224 -0.0413  0.0639
  708MPD2    H510475   3.639   2.136  14.373  0.0661 -0.4839 -0.6525
  708MPD2    N110476   3.393   2.105  13.862  0.0435  0.5507  0.0466
  708MPD2    H710477   3.416   2.140  13.770  0.8876  1.3093  0.5416
  709TMC3    C110478   3.169   2.058  13.787 -0.4285  0.0037 -0.4600
  709TMC3    C210479   3.167   2.173  13.705 -0.8549  0.0293 -0.2587
  709TMC3    C310480   3.047   2.237  13.690  0.3636 -0.1814  0.6441
  709TMC3    C410481   3.052   2.008  13.831  0.9626  0.1218 -0.3795
  709TMC3    C510482   2.928   2.070  13.801 -0.4805  0.4631 -0.3534
  709TMC3    C610483   2.924   2.184  13.726 -0.1183  0.8025  0.4394
  709TMC3     C10484   3.272   2.040  13.886 -0.1646  0.6082 -0.3407
  709TMC3     O10485   3.236   1.973  13.984 -0.2108  0.5378 -0.2946
  709TMC3     H10486   3.257   2.214  13.662 -0.2944 -0.7291  0.1831
  709TMC3    H110487   3.044   1.917  13.890  1.1716  1.1515  1.2266
  709TMC3    H210488   2.837   2.246  13.712  1.3527  2.8500  0.3926
  709TMC3    C710489   2.849   2.086  13.919  0.3173 -0.2245  0.3956
  709TMC3    C810490   3.046   2.334  13.580  0.0673  0.1506  0.4313
  709TMC3    O110491   2.731   2.118  13.910  0.0912  0.0167  0.2272
  709TMC3    O210492   2.953   2.345  13.509  0.0693  0.1169 -0.5454
  710TMC3    C110493   0.013   4.261   0.120  0.6641 -0.8189 -0.0139
  710TMC3    C210494   0.033   4.225  17.682  0.3050  0.2636 -0.1599
  710TMC3    C310495   0.119   4.120  17.662  0.0791 -0.0486 -0.2529
  710TMC3    C410496   0.070   4.195   0.220  0.2819 -0.2141  0.1000
  710TMC3    C510497   0.139   4.080   0.190  0.4337  0.5137 -1.0271
  710TMC3    C610498   0.166   4.037   0.064  0.7730 -0.1511 -0.1825
  710TMC3     C10499   4.662   4.393   0.141  0.9241 -0.3722 -0.0919
  710TMC3     O10500   4.652   4.469   0.046  0.3868 -0.2439  0.4947
  710TMC3     H10501   4.712   4.280  17.599 -1.2613  0.3174  0.7010
  710TMC3    H110502   0.052   4.230   0.321  0.2054 -1.1570  0.4118
  710TMC3    H210503   0.253   3.976   0.042 -0.2401 -1.2838 -1.0019
  710TMC3    C710504   0.184   4.000   0.298  0.5319 -0.1970 -0.2247
  710TMC3    C810505   0.149   4.109  17.523  0.0981  0.0602 -0.6031
  710TMC3    O110506   0.165   4.041   0.411  0.3075  0.5973 -0.1721
  710TMC3    O210507   0.144   4.207  17.451 -0.1937 -0.3580 -0.0074
  711TMC3    C110508   3.596   0.104  15.333  0.6184 -0.8120 -0.7771
  711TMC3    C210509   3.615   0.146  15.455 -0.0079  0.2563  0.0970
  711TMC3    C310510   3.745   0.147  15.502 -0.5016 -0.7977 -0.4105
  711TMC3    C410511   3.694   0.031  15.264 -0.4285 -0.5780 -0.0054
  711TMC3    C510512   3.815   0.017  15.326  0.2898 -0.5161  0.0706
  711TMC3    C610513   3.846   0.077  15.448  1.0125  0.2051  0.2805
  711TMC3     C10514   3.472   0.079  15.265 -0.0933 -0.7277 -0.5992
  711TMC3     O10515   3.466   0.066  15.145 -0.0277 -0.2286  0.0084
  711TMC3     H10516   3.538   0.206  15.501 -0.9012  0.1785 -1.2797
  711TMC3    H110517   3.686   4.722  15.161  0.3452  0.1589 -0.2927
  711TMC3    H210518   3.946   0.062  15.487  0.7729  0.2116  0.9070
  711TMC3    C710519   3.920   4.658  15.267  0.2891 -0.7329 -0.1534
  711TMC3    C810520   3.762   0.222  15.623 -0.0606 -0.0005  0.2403
  711TMC3    O110521   4.036   4.687  15.282  0.0385  0.0067 -0.0491
  711TMC3    O210522   3.661   0.245  15.687  0.2609  1.0390 -0.5749
  712MPD2     C10523   0.419   0.836  14.095  0.5008 -0.1576 -0.3996
  712MPD2    C110524   0.313   0.913  14.046 -0.2650  0.5363  0.2433
  712MPD2    C210525   0.325   1.047  14.035  0.5885 -0.0211 -0.1164
  712MPD2    C310526   0.445   1.112  14.061  0.2792  0.2327  0.1457
  712MPD2    C410527   0.554   1.030  14.102  0.5026 -1.0780 -0.1492
  712MPD2    C510528   0.537   0.896  14.121  0.1050 -0.2638 -0.4891
  712MPD2     H10529   0.241   1.107  14.000  1.1692  0.8642  0.0183
  712MPD2    H110530   0.651   1.077  14.116  1.3425 -3.8803  3.3643
  712MPD2    H210531   0.417   0.730  14.118 -0.1612 -0.3808 -1.4866
  712MPD2    H310532   0.620   0.838  14.159  0.7926  2.1559  1.6904
  712MPD2     N10533   0.466   1.251  14.039 -0.1790  0.5059  0.1067
  712MPD2    H510534   0.560   1.281  14.064 -0.5204  1.7572 -0.1636
  712MPD2    N110535   0.200   0.839  14.004 -0.4994 -0.3204  0.4723
  712MPD2    H710536   0.116   0.883  13.969 -0.0839  0.0533 -0.0444
  713TMC3    C110537   0.443   1.465  13.952 -0.3393  0.9633  0.3694
  713TMC3    C210538   0.576   1.461  13.924  0.5709 -0.8028 -0.7487
  713TMC3    C310539   0.624   1.581  13.879 -0.0941 -0.0796  0.5757
  713TMC3    C410540   0.360   1.566  13.924 -0.5493 -0.5153 -0.4022
  713TMC3    C510541   0.411   1.685  13.875  0.3509 -0.1774 -0.0930
  713TMC3    C610542   0.543   1.690  13.849  0.0640  0.8940  0.0482
  713TMC3     C10543   0.378   1.344  13.992 -0.0146 -0.1118 -0.6529
  713TMC3     O10544   0.263   1.326  13.951 -0.5054  0.3021  0.6047
  713TMC3     H10545   0.647   1.379  13.926  0.1279 -1.1396  1.1719
  713TMC3    H110546   0.256   1.568  13.954 -0.1684  0.7061  0.8358
  713TMC3    H210547   0.575   1.786  13.811 -2.6970  1.3703 -1.0552
  713TMC3    C710548   0.321   1.797  13.839  0.4476  0.0351  0.4014
  713TMC3    C810549   0.767   1.595  13.833 -0.4695  0.3141  0.2421
  713TMC3    O110550   0.388   1.880  13.779  0.5407  0.6461  0.1802
  713TMC3    O210551   0.788   1.670  13.741 -0.2564 -0.0947  0.9142
  714MPD2     C10552   1.949   4.637   1.293 -0.0634 -0.4754  0.2320
  714MPD2    C110553   1.968   4.512   1.247  0.4623 -0.2796  0.5839
  714MPD2    C210554   1.883   4.464   1.153 -0.4244  0.0727 -0.2615
  714MPD2    C310555   1.783   4.536   1.094 -0.9165 -0.1752  0.3564
  714MPD2    C410556   1.757   4.663   1.145 -0.1923  0.0434  0.3219
  714MPD2    C510557   1.842   4.707   1.243  0.0001 -0.0523 -0.5762
  714MPD2     H10558   1.897   4.367   1.108 -0.9094  0.4875 -1.3044
  714MPD2    H110559   1.670   0.000   1.121  1.5384  1.2010 -3.0264
  714MPD2    H210560   1.993   4.686   1.379  0.0909 -0.9060  0.4015
  714MPD2    H310561   1.841   0.087   1.276 -2.8747 -1.0466  2.3866
  714MPD2     N10562   1.712   4.484   0.987 -0.2752  0.3047 -0.2708
  714MPD2    H510563   1.730   4.385   0.977  3.1431  0.9594 -0.3831
  714MPD2    N110564   2.077   4.432   1.291 -0.2043  0.0159  0.0332
  714MPD2    H710565   2.143   4.481   1.350 -0.7885 -0.3732  1.0083
  715TMC3    C110566   2.237   4.266   1.312  0.3867  0.3084 -0.5318
  715TMC3    C210567   2.253   4.141   1.350 -0.2850 -0.0899  0.0668
  715TMC3    C310568   2.370   4.109   1.424 -0.7966  0.4408  0.4642
  715TMC3    C410569   2.327   4.362   1.346  0.1314 -0.1755  0.5174
  715TMC3    C510570   2.436   4.334   1.425 -0.0169  0.0334 -0.2015
  715TMC3    C610571   2.456   4.206   1.463  0.6189 -0.2678 -0.0061
  715TMC3     C10572   2.108   4.301   1.254  0.4521 -0.1926  0.7207
  715TMC3     O10573   2.038   4.217   1.199 -0.2686 -0.2746 -0.3820
  715TMC3     H10574   2.176   4.073   1.316 -2.3955  2.8147 -0.9387
  715TMC3    H110575   2.316   4.461   1.302  0.8013  0.4814  1.8259
  715TMC3    H210576   2.545   4.186   1.523 -0.5929  0.3472  2.0185
  715TMC3    C710577   2.543   4.425   1.440  0.4803  0.1193 -0.8463
  715TMC3    C810578   2.443   4.011   1.358  0.0519  0.0495 -1.2415
  715TMC3    O110579   2.646   4.373   1.489 -0.1687 -0.0741  0.0030
  715TMC3    O210580   2.433   3.998   1.238  0.5260 -0.5526 -0.5056
  716MPD2     C10581   2.809   1.612   9.433 -0.2182  0.1754 -0.0233
  716MPD2    C110582   2.674   1.651   9.420  0.6672 -0.2708 -1.0056
  716MPD2    C210583   2.576   1.554   9.391  0.1752 -0.0939 -0.1308
  716MPD2    C310584   2.611   1.421   9.377  0.2960 -1.6776  0.5620
  716MPD2    C410585   2.744   1.388   9.383 -0.3089  0.1166 -0.0477
  716MPD2    C510586   2.843   1.479   9.415 -0.1488 -0.1859  0.3336
  716MPD2     H10587   2.474   1.583   9.369  0.4339  0.7265 -0.2533
  716MPD2    H110588   2.773   1.284   9.369  2.1757  1.0841 -2.0598
  716MPD2    H210589   2.882   1.687   9.459 -1.1397  0.8770  0.5644
  716MPD2    H310590   2.945   1.452   9.439 -0.2920 -2.0847 -1.1500
  716MPD2     N10591   2.509   1.326   9.346 -0.7116  0.0457 -0.0966
  716MPD2    H510592   2.414   1.357   9.327 -0.4351  0.8868 -0.1165
  716MPD2    N110593   2.649   1.782   9.443 -0.4253  0.3095 -0.6037
  716MPD2    H710594   2.733   1.838   9.449  0.4234 -1.3452  2.7922
  717TMC3    C110595   2.412   1.112   9.317  0.0588 -0.8886  0.6849
  717TMC3    C210596   2.302   1.172   9.260  0.4621  0.1344  0.9222
  717TMC3    C310597   2.192   1.092   9.234 -0.2375  0.1867 -0.0478
  717TMC3    C410598   2.423   0.980   9.345 -0.3456  0.0112 -0.9769
  717TMC3    C510599   2.311   0.906   9.322 -0.2424  0.4488  0.5849
  717TMC3    C610600   2.202   0.960   9.251 -0.0348 -0.3582 -0.2836
  717TMC3     C10601   2.530   1.188   9.343  0.2846  0.1105 -0.0352
  717TMC3     O10602   2.626   1.120   9.369  0.0317  0.6922  0.0739
  717TMC3     H10603   2.293   1.276   9.231  1.0562 -0.0873 -0.0630
  717TMC3    H110604   2.515   0.943   9.390 -1.3509  1.0388  1.9076
  717TMC3    H210605   2.122   0.900   9.208 -1.2965 -0.0122  1.6153
  717TMC3    C710606   2.287   0.778   9.381 -0.8663 -0.8355 -0.3148
  717TMC3    C810607   2.065   1.157   9.205  0.0967  0.3145 -0.8341
  717TMC3    O110608   2.184   0.716   9.372 -0.8942 -0.3596  0.1058
  717TMC3    O210609   2.061   1.279   9.204  0.3559 -0.0444 -0.5867
  718MPD2     C10610   2.033   1.631  13.270 -0.8525  0.3049  0.0050
  718MPD2    C110611   1.963   1.638  13.148  0.1138 -0.5093 -0.4870
  718MPD2    C210612   1.843   1.568  13.151 -0.2298  0.1720 -1.3347
  718MPD2    C310613   1.791   1.505  13.265  0.9050  0.5413  0.1808
  718MPD2    C410614   1.864   1.514  13.384  0.1946  0.0999 -0.6306
  718MPD2    C510615   1.980   1.586  13.385  0.8139 -0.1054  0.5833
  718MPD2     H10616   1.786   1.555  13.060  0.2947  0.3291 -1.6907
  718MPD2    H110617   1.826   1.470  13.476 -0.3852 -1.3479 -1.5697
  718MPD2    H210618   2.133   1.673  13.269 -1.0080  0.6184 -2.0182
  718MPD2    H310619   2.040   1.581  13.475 -0.9347  0.7956  1.8098
  718MPD2     N10620   1.665   1.449  13.240 -0.1317 -0.1349 -0.3947
  718MPD2    H510621   1.615   1.485  13.160 -0.1466 -3.6210 -1.9962
  718MPD2    N110622   2.016   1.706  13.036 -0.3578  0.5367 -0.9649
  718MPD2    H710623   2.110   1.744  13.049 -0.1727  0.0700 -0.9355
  719TMC3    C110624   2.004   1.790  12.809 -0.5612  0.2914 -0.0919
  719TMC3    C210625   1.912   1.819  12.714  0.3008 -0.1589 -0.1511
  719TMC3    C310626   1.948   1.782  12.582 -0.4403 -0.6857 -0.0481
  719TMC3    C410627   2.140   1.766  12.783 -0.0508  0.4906  0.6126
  719TMC3    C510628   2.178   1.757  12.655  1.3880 -0.0231 -0.5747
  719TMC3    C610629   2.081   1.744  12.556  0.4563  0.1022 -1.1496
  719TMC3     C10630   1.942   1.731  12.921 -0.1804  1.0175  0.3570
  719TMC3     O10631   1.821   1.707  12.902  0.5749 -0.3399  0.5080
  719TMC3     H10632   1.812   1.850  12.741 -0.8197 -3.4300 -0.4981
  719TMC3    H110633   2.209   1.750  12.865  0.7648  0.0968 -0.1393
  719TMC3    H210634   2.106   1.715  12.454 -1.8421 -0.7765 -1.4641
  719TMC3    C710635   2.316   1.771  12.602  0.4570  0.7369 -0.2995
  719TMC3    C810636   1.854   1.684  12.533 -0.2626  0.1488 -0.2087
  719TMC3    O110637   2.316   1.805  12.486  0.0711  0.4864  0.2971
  719TMC3    O210638   1.882   1.642  12.417 -0.3511 -0.3871 -0.4054
  720MPD2     C10639   0.661   2.905  13.979  0.4707  0.1383  0.0878
  720MPD2    C110640   0.746   2.883  13.870 -0.4440  0.4852  0.7701
  720MPD2    C210641   0.850   2.798  13.887 -0.1506  0.8009 -0.5521
  720MPD2    C310642   0.869   2.724  14.002 -0.1898 -0.3530  0.1432
  720MPD2    C410643   0.775   2.733  14.106  0.3535 -0.5703 -1.0602
  720MPD2    C510644   0.670   2.825  14.090  0.4857 -0.2280 -0.0682
  720MPD2     H10645   0.938   2.796  13.823  0.1754  0.6376 -0.0995
  720MPD2    H110646   0.772   2.680  14.201  0.7842  1.0664 -0.1283
  720MPD2    H210647   0.580   2.976  13.965 -0.2877 -0.6675  0.3891
  720MPD2    H310648   0.594   2.836  14.167 -0.1485  0.3132 -0.7694
  720MPD2     N10649   0.990   2.646  14.017 -0.1016  0.1517  0.6470
  720MPD2    H510650   1.053   2.644  13.938 -0.6107  2.2406  0.1890
  720MPD2    N110651   0.721   2.955  13.744  0.2341  0.7310 -0.1341
  720MPD2    H710652   0.781   2.927  13.667  0.5857  1.0661  0.0148
  721TMC3    C110653   1.186   2.573  14.136 -0.6849  0.3404 -0.0011
  721TMC3    C210654   1.233   2.497  14.242 -0.2457 -0.5941  0.0016
  721TMC3    C310655   1.367   2.489  14.262 -0.1111  0.6890 -0.5785
  721TMC3    C410656   1.270   2.642  14.055  0.4940 -0.0028  0.6101
  721TMC3    C510657   1.405   2.628  14.072 -0.0653 -0.0231 -0.0323
  721TMC3    C610658   1.457   2.558  14.181 -0.7304 -0.1045  0.2573
  721TMC3     C10659   1.044   2.605  14.136 -0.3685  0.3098 -0.4591
  721TMC3     O10660   0.978   2.579  14.235 -0.3661  0.1366  0.2265
  721TMC3     H10661   1.163   2.441  14.304  0.1935  0.1176  1.1527
  721TMC3    H110662   1.232   2.705  13.975 -0.9112 -1.2322  0.2971
  721TMC3    H210663   1.563   2.543  14.201 -0.0986  1.8699 -1.6493
  721TMC3    C710664   1.505   2.675  13.982  0.2107 -0.2831  0.4076
  721TMC3    C810665   1.420   2.453  14.395 -0.5143 -0.3950 -0.3011
  721TMC3    O110666   1.625   2.655  14.017 -0.4427  0.1162  0.5039
  721TMC3    O210667   1.539   2.429  14.406  0.3583 -0.4055  0.1177
  722MPD2     C10668   4.043   1.368  13.251  0.4618 -0.0613 -0.4691
  722MPD2    C110669   4.000   1.490  13.199  0.3876 -0.6614  0.7677
  722MPD2    C210670   3.910   1.471  13.093  0.5531 -0.8095  0.0098
  722MPD2    C310671   3.882   1.351  13.034  0.0640 -0.1087  0.1002
  722MPD2    C410672   3.927   1.235  13.095  0.3352  0.3222 -0.6631
  722MPD2    C510673   3.991   1.247  13.213  0.4832  0.2693  0.7531
  722MPD2     H10674   3.863   1.561  13.056  3.2699  1.9679  3.2882
  722MPD2    H110675   3.898   1.134  13.068 -1.8645  0.2088  2.0886
  722MPD2    H210676   4.109   1.370  13.336  1.2659  1.3775 -1.1254
  722MPD2    H310677   4.027   1.156  13.260  1.3391 -0.3735 -1.1655
  722MPD2     N10678   3.809   1.357  12.909 -0.0545  0.8550 -0.2498
  722MPD2    H510679   3.763   1.442  12.878 -0.9959 -0.9031 -3.6851
  722MPD2    N110680   4.023   1.624  13.249 -0.3565 -0.1425 -0.1982
  722MPD2    H710681   3.964   1.700  13.215 -1.3242 -0.6618  0.3156
  723TMC3    C110682   3.734   1.271  12.700 -0.3298 -0.0132  0.3043
  723TMC3    C210683   3.703   1.163  12.622 -0.4880  0.6904 -0.3789
  723TMC3    C310684   3.608   1.182  12.520  0.3370 -0.5101  0.3214
  723TMC3    C410685   3.674   1.393  12.668 -0.2796  0.7863  0.2201
  723TMC3    C510686   3.586   1.402  12.567 -0.2358 -0.2220  0.0927
  723TMC3    C610687   3.544   1.299  12.492 -0.3160  0.1781 -0.0851
  723TMC3     C10688   3.806   1.253  12.823  1.0539  1.0387  0.3709
  723TMC3     O10689   3.858   1.145  12.829 -0.2030 -0.0442 -0.4441
  723TMC3     H10690   3.742   1.065  12.644  1.3459  0.9570 -2.4869
  723TMC3    H110691   3.705   1.487  12.713  1.2462 -0.3526  1.5614
  723TMC3    H210692   3.475   1.310  12.410 -0.4971  1.4121  0.2315
  723TMC3    C710693   3.536   1.532  12.518  0.4597 -0.6047 -0.8559
  723TMC3    C810694   3.584   1.073  12.430  0.6916  0.0097 -0.1319
  723TMC3    O110695   3.447   1.529  12.435 -0.7309  0.3465  0.3355
  723TMC3    O210696   3.546   1.099  12.316  0.5219 -0.1740  0.1180
  724TMC3    C110697   4.354   4.198  10.234  0.4382 -0.1649 -0.3259
  724TMC3    C210698   4.332   4.251  10.107 -0.2339 -0.6955  0.6415
  724TMC3    C310699   4.387   4.375  10.071  0.2068 -0.0836 -0.0938
  724TMC3    C410700   4.470   4.232  10.305 -0.3115 -0.4393 -0.3193
  724TMC3    C510701   4.531   4.350  10.263 -0.8249 -0.4419 -0.3473
  724TMC3    C610702   4.490   4.416  10.151  0.0929 -1.1151  0.5332
  724TMC3     C10703   4.288   4.082  10.285 -0.0443  0.3509  0.7193
  724TMC3     O10704   4.334   4.020  10.378  0.2922  0.2965  0.1092
  724TMC3     H10705   4.237   4.231  10.060  0.1729  2.6284 -1.6244
  724TMC3    H110706   4.499   4.188  10.399 -0.4755  0.2624  0.0616
  724TMC3    H210707   4.548   4.502  10.119 -1.9279  0.4817  1.1532
  724TMC3    C710708   4.605   4.438  10.362  0.3087  0.6180  0.5078
  724TMC3    C810709   4.351   4.435   9.952  0.4148 -0.3281 -0.7321
  724TMC3    O110710   4.648   4.543  10.321  0.0519 -0.2163 -0.3781
  724TMC3    O210711   4.288   4.364   9.870  0.0937 -0.0412  0.1438
  725TMC3    C110712   1.398   3.228  12.619 -0.7009 -0.2551  0.0483
  725TMC3    C210713   1.312   3.244  12.521 -0.1964  0.0227  0.2254
  725TMC3    C310714   1.234   3.138  12.482  0.2401 -1.1700  0.7277
  725TMC3    C410715   1.424   3.095  12.666 -0.2930 -0.7129  0.1695
  725TMC3    C510716   1.341   2.993  12.628  0.1626  0.1811 -0.5125
  725TMC3    C610717   1.238   3.018  12.544 -0.5849 -0.0093  0.3712
  725TMC3     C10718   1.470   3.341  12.678 -0.2278 -0.3340  0.0153
  725TMC3     O10719   1.427   3.450  12.646 -0.2995  0.2742  0.4750
  725TMC3     H10720   1.304   3.346  12.485 -1.8458 -0.4781 -0.8280
  725TMC3    H110721   1.504   3.067  12.733 -1.4910 -1.9698  1.0909
  725TMC3    H210722   1.175   2.936  12.512 -1.6853  1.3606 -0.9700
  725TMC3    C710723   1.362   2.857  12.664 -0.4356 -0.0499 -0.5088
  725TMC3    C810724   1.155   3.144  12.365 -0.1895  0.6462  0.9032
  725TMC3    O110725   1.278   2.771  12.650 -0.3206  0.3459 -0.4405
  725TMC3    O210726   1.074   3.054  12.356 -0.1722  0.3224 -0.2041
  726MPD2     C10727   3.935   4.329  10.708 -0.6016 -0.0759 -0.7079
  726MPD2    C110728   3.852   4.383  10.611  0.3370 -0.8908 -0.5324
  726MPD2    C210729   3.772   4.296  10.534  0.2305 -0.6413 -0.6599
  726MPD2    C310730   3.765   4.161  10.575  0.2853  0.2070 -1.0785
  726MPD2    C410731   3.863   4.110  10.660  0.2818  0.2560  0.6054
  726MPD2    C510732   3.947   4.196  10.725  0.4193  0.2154 -0.4819
  726MPD2     H10733   3.697   4.335  10.467  0.2232 -0.3842 -0.4984
  726MPD2    H110734   3.872   4.004  10.681  0.8809  0.0616 -0.6240
  726MPD2    H210735   3.989   4.392  10.778  1.3223 -3.6036  1.0060
  726MPD2    H310736   4.009   4.153  10.803 -0.3842  0.0948  0.0862
  726MPD2     N10737   3.675   4.067  10.522  0.3375 -0.8862 -0.5326
  726MPD2    H510738   3.678   3.971  10.554 -1.7541 -1.0646 -0.9091
  726MPD2    N110739   3.859   4.522  10.573  0.0330  0.7709  0.3147
  726MPD2    H710740   3.800   4.546  10.494 -0.3649 -1.9873 -0.2364
  727TMC3    C110741   3.974   4.722  10.524 -0.2682 -0.1705  0.0727
  727TMC3    C210742   4.098   0.057  10.533 -0.0738  0.5922  0.7251
  727TMC3    C310743   4.106   0.184  10.485  0.2380  0.1945  0.2090
  727TMC3    C410744   3.862   0.066  10.488  0.2073  0.0813  0.5608
  727TMC3    C510745   3.876   0.203  10.462 -0.0539 -0.5015  0.7639
  727TMC3    C610746   3.999   0.263  10.459  0.0775 -0.0680 -0.7712
  727TMC3     C10747   3.961   4.606  10.613 -1.0023 -0.5050  0.1117
  727TMC3     O10748   4.035   4.613  10.707 -0.4661 -0.4501 -0.0084
  727TMC3     H10749   4.189   4.722  10.542 -2.3677 -3.2951 -1.0749
  727TMC3    H110750   3.767   0.014  10.490  0.8410 -1.1065 -0.3137
  727TMC3    H210751   4.010   0.363  10.418  3.4924 -0.2080 -0.2128
  727TMC3    C710752   3.796   0.267  10.366  0.3681 -0.0419  0.5678
  727TMC3    C810753   4.235   0.254  10.506 -0.6331 -0.2236  0.3012
  727TMC3    O110754   3.793   0.386  10.361 -0.0395 -0.6634 -0.0464
  727TMC3    O210755   4.306   0.194  10.589 -0.4895  0.4532  0.1679
  728TMC3    C110756   3.398   3.472  15.122 -0.2442  0.7530  0.1129
  728TMC3    C210757   3.523   3.529  15.118 -0.0911 -0.1572 -1.1655
  728TMC3    C310758   3.570   3.544  14.992  0.9910 -0.2404 -0.4466
  728TMC3    C410759   3.334   3.423  15.016  0.2896 -0.0323  0.6560
  728TMC3    C510760   3.393   3.420  14.898 -0.0796 -0.4090  0.0183
  728TMC3    C610761   3.515   3.485  14.882 -0.1278  0.7237 -0.2069
  728TMC3     C10762   3.325   3.480  15.250  0.7636  0.5549  0.1303
  728TMC3     O10763   3.363   3.569  15.329 -0.2932  0.4874 -0.2017
  728TMC3     H10764   3.580   3.566  15.202 -2.7210  0.1753  0.4616
  728TMC3    H110765   3.231   3.391  15.011  0.2973 -0.0298  0.4803
  728TMC3    H210766   3.561   3.503  14.785 -0.9377  1.0432 -0.5271
  728TMC3    C710767   3.303   3.456  14.796  0.0473 -0.1058  0.1071
  728TMC3    C810768   3.700   3.617  14.967  0.5237  0.4993  0.3487
  728TMC3    O110769   3.272   3.374  14.707 -0.0615  0.8710 -0.6274
  728TMC3    O210770   3.751   3.619  14.855  0.1987  0.0722  0.1621
  729MPD2     C10771   0.170   0.299  17.002  0.5619  0.2156 -0.0046
  729MPD2    C110772   0.258   0.216  17.053  0.0432 -0.0109  0.7078
  729MPD2    C210773   0.298   0.220  17.184 -0.1055  0.1840 -0.4969
  729MPD2    C310774   0.242   0.313  17.267  0.1634  0.0609 -0.0401
  729MPD2    C410775   0.152   0.402  17.217  0.3712  0.1944  0.1729
  729MPD2    C510776   0.120   0.392  17.085 -0.7255  0.3264  0.3883
  729MPD2     H10777   0.374   0.151  17.218  0.4851  0.9536 -0.2570
  729MPD2    H110778   0.115   0.480  17.283 -4.6141 -0.1009 -2.2861
  729MPD2    H210779   0.135   0.306  16.899  0.1785  0.5254  0.1435
  729MPD2    H310780   0.043   0.453  17.039 -0.3507  0.2063 -0.3988
  729MPD2     N10781   0.261   0.316  17.408 -0.0859  0.5221  0.1665
  729MPD2    H510782   0.211   0.392  17.452 -2.5230 -0.8320 -0.2671
  729MPD2    N110783   0.325   0.136  16.957 -0.4725 -0.1864 -0.5851
  729MPD2    H710784   0.281   0.121  16.866  1.2044  1.5373 -1.6651
  730TMC3    C110785   0.343   0.258  17.618  0.3959 -0.1657 -0.2809
  730TMC3    C210786   0.402   0.145  17.671 -0.3805 -0.5828  0.3393
  730TMC3    C310787   0.525   0.163   0.040  1.0006 -0.1414  0.2711
  730TMC3    C410788   0.392   0.386  17.641 -0.4561  0.3994 -1.0349
  730TMC3    C510789   0.516   0.401   0.012  0.8136  0.7844  0.2874
  730TMC3    C610790   0.581   0.288   0.061  0.2073 -0.0640  0.8698
  730TMC3     C10791   0.328   0.226  17.482  0.2248  0.0303 -0.1547
  730TMC3     O10792   0.363   0.113  17.449 -0.6796  0.2000  0.2992
  730TMC3     H10793   0.365   0.047  17.645 -0.3021 -0.5983  0.2853
  730TMC3    H110794   0.350   0.474  17.592 -2.4647 -0.8873 -1.6472
  730TMC3    H210795   0.682   0.297   0.101  0.4753 -1.5257  0.5136
  730TMC3    C710796   0.594   0.486  17.631  0.1128 -0.0699  0.1934
  730TMC3    C810797   0.626   0.062   0.038  0.3614 -0.8858 -0.2932
  730TMC3    O110798   0.566   0.492  17.513  0.3975  0.5528  0.2670
  730TMC3    O210799   0.726   0.085   0.110 -0.2055 -0.4835 -1.0102
  731MPD2     C10800   0.952   2.825  12.773 -1.1145 -0.1061 -0.5896
  731MPD2    C110801   0.870   2.820  12.660  0.1909 -0.3629 -0.6612
  731MPD2    C210802   0.745   2.877  12.655 -0.5229 -0.6843 -0.3088
  731MPD2    C310803   0.701   2.945  12.770 -0.4025 -0.6281  0.2333
  731MPD2    C410804   0.790   2.954  12.881 -0.1873 -0.4933 -0.2049
  731MPD2    C510805   0.905   2.884  12.882  0.0544 -0.5715  0.0300
  731MPD2     H10806   0.672   2.851  12.580 -0.8677  1.8817 -0.8507
  731MPD2    H110807   0.761   3.014  12.966  1.9301 -0.1600  0.2892
  731MPD2    H210808   1.050   2.778  12.778 -1.0089 -0.1718 -3.1385
  731MPD2    H310809   0.960   2.878  12.975  1.2623  1.8992 -0.5239
  731MPD2     N10810   0.571   3.004  12.772  0.2138  0.3903 -0.1303
  731MPD2    H510811   0.509   2.987  12.693 -0.0143  2.7227 -0.4527
  731MPD2    N110812   0.940   2.746  12.553 -0.0680 -0.0397  0.0619
  731MPD2    H710813   1.039   2.729  12.567 -0.3777 -1.0903  0.9878
  732TMC3    C110814   0.977   2.659  12.340  0.3184  0.2689  0.2973
  732TMC3    C210815   0.929   2.592  12.225 -0.5693  0.2029  0.2711
  732TMC3    C310816   1.004   2.561  12.113  0.4085 -0.2817  0.2280
  732TMC3    C410817   1.104   2.708  12.329  0.5215  0.3617  0.0265
  732TMC3    C510818   1.170   2.691  12.208 -0.0300 -0.3778 -0.2191
  732TMC3    C610819   1.135   2.606  12.108 -0.9493  0.0329  0.3507
  732TMC3     C10820   0.879   2.703  12.440  0.1268 -0.2567  0.7347
  732TMC3     O10821   0.765   2.708  12.404  0.3878  0.3598 -0.0483
  732TMC3     H10822   0.827   2.557  12.225  0.6279 -3.3038  1.3293
  732TMC3    H110823   1.141   2.762  12.416  2.4169 -1.0314  0.0949
  732TMC3    H210824   1.195   2.580  12.021  0.0382  1.3699  0.6285
  732TMC3    C710825   1.279   2.782  12.192 -0.6432 -0.0661  0.5201
  732TMC3    C810826   0.956   2.469  12.014 -0.0704 -0.5534 -0.3480
  732TMC3    O110827   1.280   2.861  12.096 -0.3162 -0.4742  0.1949
  732TMC3    O210828   1.055   2.398  11.982 -0.2336 -0.2753  0.3955
  733TMC3    C110829   1.251   1.296  13.261 -0.6050 -0.2825  0.2957
  733TMC3    C210830   1.359   1.323  13.345  0.6484  0.3192  0.5021
  733TMC3    C310831   1.482   1.323  13.270 -0.3082  0.3937  0.5322
  733TMC3    C410832   1.257   1.275  13.125  0.3821  0.2496  0.3145
  733TMC3    C510833   1.380   1.279  13.069  0.1767 -0.1152  0.3079
  733TMC3    C610834   1.497   1.308  13.136 -0.1825  0.6977  0.1683
  733TMC3     C10835   1.114   1.310  13.307  0.5405 -0.6231  0.4620
  733TMC3     O10836   1.038   1.369  13.232  0.4171 -0.5664 -0.0112
  733TMC3     H10837   1.361   1.332  13.453 -3.5829 -1.1984  0.6872
  733TMC3    H110838   1.165   1.252  13.073 -0.2295  2.4423  0.4066
  733TMC3    H210839   1.593   1.306  13.085  0.1382  1.1620  0.7575
  733TMC3    C710840   1.386   1.276  12.926 -0.4752 -0.0719  0.3105
  733TMC3    C810841   1.598   1.376  13.335  0.5983 -0.4103  0.2683
  733TMC3    O110842   1.302   1.207  12.866 -0.1653 -0.0628  0.8051
  733TMC3    O210843   1.609   1.369  13.458  0.2862  0.3304  0.4826
  734MPD2     C10844   3.641   3.113  12.758 -0.2422  0.1495 -0.0079
  734MPD2    C110845   3.693   3.039  12.654  0.6964  0.8961 -0.6898
  734MPD2    C210846   3.671   3.090  12.526  0.0836 -0.4796 -0.1213
  734MPD2    C310847   3.627   3.218  12.500 -0.6544 -0.0589  0.1252
  734MPD2    C410848   3.593   3.293  12.614  0.2816  0.8194 -0.4030
  734MPD2    C510849   3.594   3.239  12.737  0.1873  1.1455 -0.0141
  734MPD2     H10850   3.701   3.046  12.432  1.8321  1.3682 -0.4184
  734MPD2    H110851   3.556   3.395  12.609  0.5342  0.8050 -2.4597
  734MPD2    H210852   3.662   3.081  12.859 -0.4540  0.4752  0.1401
  734MPD2    H310853   3.582   3.300  12.826  1.1581 -0.8736  1.5198
  734MPD2     N10854   3.639   3.269  12.369  0.3827  0.2574 -0.0473
  734MPD2    H510855   3.659   3.208  12.291 -2.6145  0.3615 -0.8836
  734MPD2    N110856   3.748   2.916  12.685  0.6897 -0.7990 -0.3633
  734MPD2    H710857   3.752   2.892  12.784 -0.2305  0.2165 -0.0766
  735TMC3    C110858   3.798   2.695  12.636  0.1180 -0.2973  0.9457
  735TMC3    C210859   3.672   2.652  12.671 -0.0953  0.5662 -0.0661
  735TMC3    C310860   3.627   2.547  12.605 -0.7521  0.7141  0.2369
  735TMC3    C410861   3.883   2.615  12.562 -0.4911  0.6162 -0.7000
  735TMC3    C510862   3.835   2.498  12.508 -0.2036 -0.1300  0.2992
  735TMC3    C610863   3.703   2.467  12.523  0.4474  0.1420  0.2727
  735TMC3     C10864   3.801   2.832  12.593  0.0370 -0.2628  0.2337
  735TMC3     O10865   3.829   2.843  12.471  0.3191  0.0430  0.0273
  735TMC3     H10866   3.610   2.707  12.741  0.7129  1.6642 -0.2153
  735TMC3    H110867   3.981   2.649  12.534 -0.4519  0.8162 -0.3232
  735TMC3    H210868   3.642   2.412  12.451  0.4877 -0.6374  0.8346
  735TMC3    C710869   3.894   2.466  12.381  0.4629 -0.3655  0.0335
  735TMC3    C810870   3.496   2.581  12.557 -0.2711  0.0897 -0.2389
  735TMC3    O110871   3.996   2.525  12.345  0.0820  0.0629  0.6730
  735TMC3    O210872   3.390   2.548  12.604  0.0099  0.3942 -0.3572
  736MPD2     C10873   3.843   2.136  12.217  0.1437 -0.1368  0.4341
  736MPD2    C110874   3.887   2.263  12.228  0.1173 -0.3724 -0.1749
  736MPD2    C210875   3.967   2.319  12.133 -0.6238 -0.1602 -0.5945
  736MPD2    C310876   4.013   2.243  12.023  0.2534  0.0331 -0.2438
  736MPD2    C410877   3.967   2.111  12.019 -0.1673 -0.8711  0.7075
  736MPD2    C510878   3.879   2.061  12.108  0.4005  0.8454 -0.2344
  736MPD2     H10879   4.001   2.422  12.142 -0.7326  0.0628 -2.6833
  736MPD2    H110880   3.979   2.050  11.930 -1.9796 -0.7030  0.3566
  736MPD2    H210881   3.781   2.092  12.294 -0.9438  2.1088  0.8403
  736MPD2    H310882   3.823   1.971  12.084 -0.4470  1.1253  0.7131
  736MPD2     N10883   4.106   2.275  11.921 -0.1911 -0.1192 -0.8147
  736MPD2    H510884   4.118   2.204  11.849 -2.1878 -0.6458 -0.6220
  736MPD2    N110885   3.847   2.339  12.344 -0.0549 -0.4268  0.0261
  736MPD2    H710886   3.791   2.294  12.416  2.4874 -2.6913  0.5992
  737TMC3    C110887   4.239   2.411  11.784 -0.6840 -0.1868  0.8933
  737TMC3    C210888   4.240   2.525  11.709  0.0847 -0.6846  0.0386
  737TMC3    C310889   4.326   2.533  11.602  0.3702 -0.4858  0.7978
  737TMC3    C410890   4.328   2.311  11.753  0.3791  0.4624  0.2630
  737TMC3    C510891   4.421   2.332  11.648 -0.2605  1.4530 -0.3559
  737TMC3    C610892   4.423   2.445  11.568 -0.0830  0.3986  0.0556
  737TMC3     C10893   4.157   2.404  11.896  0.3295  0.0969 -0.1812
  737TMC3     O10894   4.127   2.510  11.953  0.3150 -0.5179 -0.2348
  737TMC3     H10895   4.164   2.601  11.724 -1.7320 -2.0975 -2.0130
  737TMC3    H110896   4.338   2.228  11.822 -1.2208  1.4833  1.7014
  737TMC3    H210897   4.493   2.470  11.489  0.8792  2.2214  1.4990
  737TMC3    C710898   4.498   2.218  11.608 -0.9010 -0.1277 -0.8450
  737TMC3    C810899   4.331   2.663  11.541 -0.0495 -0.2495 -0.1481
  737TMC3    O110900   4.448   2.112  11.631  0.4155 -0.1243  0.0757
  737TMC3    O210901   4.297   2.754  11.614  0.7462  0.0027  0.0069
  738MPD2     C10902   0.250   1.470  15.379  0.3471  0.5307 -0.4382
  738MPD2    C110903   0.160   1.522  15.293  0.4790  0.3028 -0.2377
  738MPD2    C210904   0.201   1.624  15.205  0.2816 -0.4173 -0.2113
  738MPD2    C310905   0.335   1.651  15.186  0.8009 -0.0844 -0.1756
  738MPD2    C410906   0.415   1.610  15.288  0.8978  0.0006 -0.1802
  738MPD2    C510907   0.370   1.525  15.386 -0.6245  0.4800 -0.6219
  738MPD2     H10908   0.128   1.658  15.133  0.1058 -0.3175  0.0164
  738MPD2    H110909   0.520   1.637  15.290  1.3030 -1.4534 -1.7578
  738MPD2    H210910   0.221   1.407  15.462  1.9097 -0.2038 -0.4519
  738MPD2    H310911   0.444   1.478  15.450 -0.4213  2.5729  0.7077
  738MPD2     N10912   0.385   1.726  15.083 -0.1691  0.6356  0.5046
  738MPD2    H510913   0.485   1.744  15.091 -0.3596  1.6728  0.5404
  738MPD2    N110914   0.028   1.482  15.290  0.2012 -0.1455  0.7645
  738MPD2    H710915   4.695   1.531  15.221  0.2544 -0.8802  0.1970
  739TMC3    C110916   0.378   1.890  14.908  0.1645 -0.3186  0.0758
  739TMC3    C210917   0.325   1.939  14.790  0.0715 -0.6981 -0.0433
  739TMC3    C310918   0.403   2.002  14.698 -0.0014  0.3406  0.6484
  739TMC3    C410919   0.502   1.938  14.950 -0.2350  0.3393 -0.1178
  739TMC3    C510920   0.573   2.019  14.862 -0.0263  0.3326  0.3535
  739TMC3    C610921   0.527   2.046  14.732  0.1839 -0.1789 -0.1231
  739TMC3     C10922   0.302   1.793  14.988  0.0334 -0.4789 -0.5509
  739TMC3     O10923   0.181   1.773  14.962 -0.5470  0.1006  0.0534
  739TMC3     H10924   0.232   1.891  14.762 -0.4342 -1.0788  2.2847
  739TMC3    H110925   0.543   1.901  15.043 -1.0918 -1.0570 -0.2971
  739TMC3    H210926   0.587   2.105  14.663 -0.1001  0.5617  0.2551
  739TMC3    C710927   0.713   2.033  14.897 -0.1040 -0.7582 -0.3015
  739TMC3    C810928   0.346   2.018  14.564  0.1652  0.4457  0.5004
  739TMC3    O110929   0.755   1.953  14.978 -0.4278  0.2716  0.1166
  739TMC3    O210930   0.226   2.027  14.554 -0.0224  0.4126  0.1117
  740TMC3    C110931   0.711   3.431  14.260 -0.6779 -0.4644  0.4981
  740TMC3    C210932   0.750   3.394  14.385  0.0399 -0.1033  0.1535
  740TMC3    C310933   0.856   3.310  14.388  0.5604  0.2588  0.2116
  740TMC3    C410934   0.770   3.391  14.148  0.1393 -1.6544  0.8419
  740TMC3    C510935   0.878   3.299  14.153  0.2091 -0.4449  0.1021
  740TMC3    C610936   0.925   3.262  14.279 -0.0567 -0.0717  0.1891
  740TMC3     C10937   0.602   3.526  14.243 -0.2722 -0.0312  0.3615
  740TMC3     O10938   0.617   3.610  14.156 -0.1935  0.2126  0.0960
  740TMC3     H10939   0.719   3.452  14.471 -1.0258  1.6155 -1.3923
  740TMC3    H110940   0.723   3.427  14.058 -1.5603 -1.3151  1.8577
  740TMC3    H210941   1.007   3.192  14.287 -0.3023 -0.2891  0.8351
  740TMC3    C710942   0.932   3.224  14.040 -0.5233  0.6987  0.5119
  740TMC3    C810943   0.902   3.256  14.508 -0.5809 -0.3387 -0.6921
  740TMC3    O110944   1.022   3.150  14.065  0.6455  0.3918  0.7650
  740TMC3    O210945   1.005   3.187  14.513 -0.1954  0.0255  0.5350
  741TMC3    C110946   0.393   2.277  14.989 -1.2844 -0.8020  0.3540
  741TMC3    C210947   0.283   2.265  14.912  0.4478  0.3577 -0.1989
  741TMC3    C310948   0.178   2.196  14.961  0.3752  0.7051  0.0644
  741TMC3    C410949   0.407   2.215  15.114  0.1165 -0.4274  0.0413
  741TMC3    C510950   0.295   2.140  15.149 -0.5098 -0.1159  0.1418
  741TMC3    C610951   0.187   2.125  15.080 -0.2315  1.0416  0.6053
  741TMC3     C10952   0.505   2.355  14.943  0.4032 -0.1353 -0.2724
  741TMC3     O10953   0.608   2.354  15.006 -0.0526 -0.1729  0.0162
  741TMC3     H10954   0.274   2.285  14.806 -0.4726  2.0531  0.2191
  741TMC3    H110955   0.501   2.212  15.168 -0.4531  2.9810  1.2242
  741TMC3    H210956   0.111   2.052  15.105  0.2845  0.6464  1.0344
  741TMC3    C710957   0.292   2.069  15.275 -0.5170  0.5548 -0.2181
  741TMC3    C810958   0.067   2.175  14.871  0.1283  0.3354  0.3723
  741TMC3    O110959   0.204   1.989  15.304  0.6507 -0.4092  0.1117
  741TMC3    O210960   0.081   2.194  14.749 -1.1997 -0.0454  0.5018
  742TMC3    C110961   4.513   0.992  15.354  0.7096  0.2584 -0.3974
  742TMC3    C210962   4.446   0.974  15.242 -0.1408 -0.3124  0.3646
  742TMC3    C310963   4.517   0.993  15.128  0.1318 -0.7341  0.3056
  742TMC3    C410964   4.648   1.000  15.359 -0.5569 -1.2932  0.4845
  742TMC3    C510965   4.721   0.999  15.246  0.2386  0.3702 -0.2411
  742TMC3    C610966   4.655   0.999  15.127  0.5416  0.7198 -0.4112
  742TMC3     C10967   4.449   0.967  15.482  0.8460  0.6050  0.2991
  742TMC3     O10968   4.496   1.011  15.583  0.6131 -0.3006 -0.1829
  742TMC3     H10969   4.338   0.969  15.252 -0.3259 -0.6015 -1.6859
  742TMC3    H110970   4.695   1.019  15.455 -2.1641 -1.0586  1.2115
  742TMC3    H210971   4.714   1.013  15.037  0.0682  0.5730 -0.7429
  742TMC3    C710972   0.147   0.993  15.246 -0.2728 -0.4464 -0.4972
  742TMC3    C810973   4.457   0.969  14.998  0.0374  0.2375  0.5682
  742TMC3    O110974   0.205   0.976  15.136  0.6394 -0.9248 -0.0982
  742TMC3    O210975   4.537   0.948  14.908  0.6054 -0.0775 -0.5652
  743MPD2     C10976   4.611   1.823   1.579 -0.0606  0.3757  0.4254
  743MPD2    C110977   4.557   1.930   1.505  0.2577  0.0937 -0.5604
  743MPD2    C210978   4.639   2.014   1.429 -0.4453  0.3478  0.1790
  743MPD2    C310979   0.053   1.990   1.421  0.4527 -0.3832 -0.7218
  743MPD2    C410980   0.108   1.881   1.487  0.9810 -0.3544 -0.2853
  743MPD2    C510981   0.024   1.803   1.564 -0.4453 -0.3142  0.3836
  743MPD2     H10982   4.594   2.091   1.367  1.4776  0.5453 -0.9736
  743MPD2    H110983   0.215   1.860   1.484  0.6008 -2.1768 -1.0386
  743MPD2    H210984   4.546   1.755   1.633 -1.4853  0.1759 -1.5335
  743MPD2    H310985   0.067   1.719   1.618 -2.4122 -1.8320 -0.4041
  743MPD2     N10986   0.119   2.079   1.336  0.1458  0.0667 -0.5605
  743MPD2    H510987   0.067   2.153   1.291  0.2792  1.7068  1.9724
  743MPD2    N110988   4.417   1.939   1.502 -0.8829  0.7832 -0.0676
  743MPD2    H710989   4.365   1.868   1.552 -0.2438 -0.0054 -0.5182
  744TMC3    C110990   4.203   2.015   1.429  0.0789  0.4968 -0.0131
  744TMC3    C210991   4.156   1.944   1.534 -0.3127 -0.0625  0.0798
  744TMC3    C310992   4.021   1.914   1.529  0.0807 -0.3091  0.2476
  744TMC3    C410993   4.125   2.070   1.331  0.4811 -0.0993 -0.3545
  744TMC3    C510994   3.993   2.047   1.335  0.3845  0.0870 -0.1031
  744TMC3    C610995   3.936   1.969   1.432 -0.2730 -0.0852  0.1538
  744TMC3     C10996   4.349   2.035   1.434  0.8824 -0.1289 -0.5933
  744TMC3     O10997   4.374   2.130   1.358  0.2684 -0.1568 -0.3949
  744TMC3     H10998   4.216   1.910   1.617  1.5710  1.7118 -0.5327
  744TMC3    H110999   4.171   2.135   1.258 -0.0565 -0.0894 -0.6851
  744TMC3    H211000   3.832   1.939   1.428 -0.3752  0.2633  0.2208
  744TMC3    C711001   3.917   2.079   1.216  0.6257  0.3326  0.4049
  744TMC3    C811002   3.963   1.836   1.636  0.6991 -0.5163  0.1236
  744TMC3    O111003   3.991   2.117   1.124  0.1634  0.0828  0.0988
  744TMC3    O211004   3.843   1.840   1.642  0.0913 -0.3350 -0.0073
  745TMC3    C111005   0.046   0.681  13.996  0.5196 -0.4366 -0.4973
  745TMC3    C211006   4.691   0.609  14.085  1.0815  0.1672 -0.4969
  745TMC3    C311007   4.554   0.619  14.087  0.6748  0.8081  0.5185
  745TMC3    C411008   4.704   0.758  13.910  0.5018  0.6356 -0.3594
  745TMC3    C511009   4.569   0.758  13.903  0.0874  0.4631 -0.6051
  745TMC3    C611010   4.490   0.681  13.987 -0.0338  0.2353 -0.2860
  745TMC3     C11011   0.179   0.709  14.033  0.3346 -0.3440 -0.1268
  745TMC3     O11012   0.240   0.618  14.088  0.8117  0.5662  0.0663
  745TMC3     H11013   0.023   0.542  14.150  2.1969  0.8170 -0.7717
  745TMC3    H111014   0.041   0.810  13.837 -1.4001  2.2705 -0.7710
  745TMC3    H211015   4.381   0.687  13.989 -0.0267  0.6498 -1.1245
  745TMC3    C711016   4.491   0.831  13.815  0.6361  0.4489  0.3984
  745TMC3    C811017   4.518   0.684  14.210 -0.7821 -0.3148 -0.0791
  745TMC3    O111018   4.376   0.855  13.845 -1.0656  0.3128 -0.1261
  745TMC3    O211019   4.404   0.730  14.226  0.0229 -0.4076  0.6595
  746TMC3    C111020   2.409   2.104  10.963 -0.2674  0.4500 -0.4019
  746TMC3    C211021   2.435   2.069  10.834  0.3481 -0.3402  0.3907
  746TMC3    C311022   2.389   1.950  10.795 -0.1083  0.3492  0.2884
  746TMC3    C411023   2.349   2.023  11.054 -1.0682  0.3639  0.7153
  746TMC3    C511024   2.303   1.901  11.009  0.1935  0.6279  0.2552
  746TMC3    C611025   2.325   1.864  10.881 -0.1201  0.3387  0.0254
  746TMC3     C11026   2.451   2.238  11.009 -0.3568  0.7688 -0.2362
  746TMC3     O11027   2.403   2.268  11.121  0.2071  0.4022 -0.4863
  746TMC3     H11028   2.497   2.128  10.767 -0.0333  0.8274  1.0668
  746TMC3    H111029   2.328   2.050  11.157 -1.8386  1.2900  0.3207
  746TMC3    H211030   2.297   1.769  10.838  1.7599  0.2080 -0.9521
  746TMC3    C711031   2.197   1.835  11.080 -0.2801  0.4300 -0.3326
  746TMC3    C811032   2.438   1.905  10.665  0.1581 -0.9922  0.5880
  746TMC3    O111033   2.114   1.769  11.021 -0.5952 -0.6455 -0.1868
  746TMC3    O211034   2.456   1.787  10.646 -0.1979  0.3309 -0.8953
  747TMC3    C111035   0.590   2.199  10.921 -0.3592  0.7344 -0.7435
  747TMC3    C211036   0.504   2.134  11.005  0.3096 -0.1411 -0.1825
  747TMC3    C311037   0.449   2.200  11.111 -0.2400  1.0996  0.2612
  747TMC3    C411038   0.620   2.331  10.935 -0.2063  0.0492  0.1111
  747TMC3    C511039   0.555   2.397  11.035 -0.0617 -0.6684 -0.1434
  747TMC3    C611040   0.468   2.332  11.123 -0.4861  0.1343  0.1911
  747TMC3     C11041   0.668   2.125  10.825 -0.2628  0.4645  0.4692
  747TMC3     O11042   0.784   2.156  10.800 -0.3094 -0.2314 -0.0724
  747TMC3     H11043   0.488   2.027  11.001 -0.6639  0.1284 -3.1397
  747TMC3    H111044   0.672   2.377  10.852 -0.2779 -0.1525 -0.0485
  747TMC3    H211045   0.408   2.385  11.196 -2.4580 -0.8773 -0.6984
  747TMC3    C711046   0.572   2.538  11.047 -0.4472  0.1681 -0.3135
  747TMC3    C811047   0.385   2.117  11.222  0.0656  0.1272  0.6843
  747TMC3    O111048   0.478   2.594  11.106  0.3186 -0.5264 -0.4809
  747TMC3    O211049   0.414   1.996  11.237 -0.1647 -0.8548 -0.7521
  748MPD2     C11050   2.780   2.839   1.500  0.0116  0.2066 -0.8802
  748MPD2    C111051   2.701   2.950   1.500 -0.4172 -0.1367  0.1034
  748MPD2    C211052   2.738   3.052   1.419 -0.0393  0.3274 -0.3563
  748MPD2    C311053   2.846   3.055   1.337 -0.2152 -0.4789  0.0746
  748MPD2    C411054   2.929   2.946   1.341  0.1700  0.5065  0.0374
  748MPD2    C511055   2.905   2.847   1.435  0.6161  0.2637 -0.2229
  748MPD2     H11056   2.662   3.129   1.411  0.4243  0.6788 -1.3057
  748MPD2    H111057   3.016   2.935   1.278  1.1213 -1.4002  1.6755
  748MPD2    H211058   2.763   2.754   1.565  1.0080  2.1024  1.9065
  748MPD2    H311059   2.978   2.768   1.428  3.3240  2.5800  1.7711
  748MPD2     N11060   2.860   3.166   1.255 -0.3289  0.1935 -0.0376
  748MPD2    H511061   2.772   3.215   1.245  0.1436  1.1233  0.3770
  748MPD2    N111062   2.577   2.937   1.565  0.5020 -0.1384 -0.3443
  748MPD2    H711063   2.558   2.845   1.605 -1.9451  0.6374  0.3146
  749TMC3    C111064   2.949   3.338   1.111  0.1042 -0.1934  0.0997
  749TMC3    C211065   3.052   3.385   1.035 -0.1471 -0.5050  0.0131
  749TMC3    C311066   3.033   3.509   0.988  0.9843  0.3048  0.0164
  749TMC3    C411067   2.824   3.401   1.124 -0.0481 -0.9332  0.4782
  749TMC3    C511068   2.805   3.515   1.050  0.1918 -1.0490  0.7323
  749TMC3    C611069   2.911   3.572   0.991  0.1654  0.3424  0.1648
  749TMC3     C11070   2.967   3.209   1.178 -0.1531  0.4806  0.3688
  749TMC3     O11071   3.073   3.152   1.170 -1.1236  0.5663 -0.0734
  749TMC3     H11072   3.147   3.334   1.024 -0.3009 -0.9515  0.7651
  749TMC3    H111073   2.739   3.368   1.182  0.5597 -1.4140  1.1045
  749TMC3    H211074   2.891   3.659   0.929  2.4495  1.2137  0.6493
  749TMC3    C711075   2.680   3.583   1.036  0.6323  0.4441  0.4619
  749TMC3    C811076   3.147   3.599   0.952  0.1412 -0.6990  0.4574
  749TMC3    O111077   2.679   3.700   0.992  0.5133  0.0029  0.3890
  749TMC3    O211078   3.118   3.698   0.885  0.0803  0.0887 -0.0120
  750MPD2     C11079   2.842   4.210  11.095 -0.1811 -0.1595 -0.2120
  750MPD2    C111080   2.721   4.187  11.151 -0.3116  0.4160  0.0831
  750MPD2    C211081   2.661   4.060  11.137 -0.6431  0.1979 -0.2236
  750MPD2    C311082   2.733   3.959  11.079 -0.2151 -0.1612  0.5834
  750MPD2    C411083   2.858   3.985  11.029  0.1898  0.1642  0.7773
  750MPD2    C511084   2.911   4.110  11.034  1.0252  0.1719 -0.3786
  750MPD2     H11085   2.559   4.046  11.171  0.1177 -1.3092  1.4588
  750MPD2    H111086   2.907   3.908  10.971  0.6706  0.3580  0.9346
  750MPD2    H211087   2.874   4.313  11.081  0.1410 -0.6070 -2.8156
  750MPD2    H311088   3.000   4.131  10.976  0.7012  2.0337 -0.1949
  750MPD2     N11089   2.686   3.826  11.051  0.2224  0.1855  0.1543
  750MPD2    H511090   2.747   3.753  11.015 -1.4971 -1.4227  0.5021
  750MPD2    N111091   2.653   4.295  11.213 -0.1749  0.5577  0.1449
  750MPD2    H711092   2.703   4.383  11.216  0.2308  0.3776 -1.3745
  751TMC3    C111093   2.542   3.643  11.042 -0.0636  0.3780  0.0401
  751TMC3    C211094   2.441   3.583  11.114  0.1551  0.1530 -0.2228
  751TMC3    C311095   2.438   3.446  11.126 -0.0663  0.5157 -0.8219
  751TMC3    C411096   2.632   3.564  10.972 -0.4755 -0.3240 -0.7408
  751TMC3    C511097   2.634   3.430  11.006 -0.1354  0.0283  0.2139
  751TMC3    C611098   2.543   3.375  11.090  0.2391 -0.5682 -0.1102
  751TMC3     C11099   2.561   3.780  11.074  0.2075 -0.2728  0.4753
  751TMC3     O11100   2.465   3.834  11.126 -0.2853 -0.2076  0.2627
  751TMC3     H11101   2.357   3.640  11.152 -0.4662 -2.8511  2.9153
  751TMC3    H111102   2.707   3.601  10.903  0.5243  0.1688  0.6378
  751TMC3    H211103   2.561   3.274  11.125 -2.8168 -1.2947 -0.6733
  751TMC3    C711104   2.680   3.347  10.904  0.3459  0.0973  0.4863
  751TMC3    C811105   2.309   3.386  11.093 -0.1259 -0.3063  0.4756
  751TMC3    O111106   2.788   3.368  10.848 -0.1825 -0.3469  1.0290
  751TMC3    O211107   2.319   3.299  11.009 -0.1130  0.2459 -0.3015
  752TMC3    C111108   1.147   4.243  17.379  0.5676  0.0053  0.6884
  752TMC3    C211109   1.231   4.153  17.438  0.5753  0.1493  0.4931
  752TMC3    C311110   1.219   4.121  17.574  0.5563  0.1444  0.4001
  752TMC3    C411111   1.054   4.309  17.455 -0.0956  0.3744  0.1110
  752TMC3    C511112   1.061   4.285  17.588 -0.6425  0.3056 -0.3688
  752TMC3    C611113   1.141   4.190  17.652  0.0030  0.1961 -0.2052
  752TMC3     C11114   1.173   4.276  17.236  0.4651 -0.2383 -0.4472
  752TMC3     O11115   1.287   4.254  17.192 -0.5518 -0.0028 -0.3650
  752TMC3     H11116   1.309   4.117  17.372 -0.4393  1.0831 -1.1979
  752TMC3    H111117   0.984   4.381  17.413 -0.1853 -0.0490 -0.4545
  752TMC3    H211118   1.130   4.169   0.064 -0.0097 -3.1879 -0.8746
  752TMC3    C711119   0.952   4.344  17.664  0.4034 -0.6381 -0.3888
  752TMC3    C811120   1.251   3.990  17.618  0.6605  0.0208  0.7094
  752TMC3    O111121   0.843   4.352  17.604  0.8214 -0.0698 -0.3064
  752TMC3    O211122   1.271   3.975   0.043  0.2288  0.3124  0.6572
  753TMC3    C111123   3.639   0.493  13.505 -0.6558  0.0571 -0.3479
  753TMC3    C211124   3.726   0.463  13.609 -0.3315  0.5138 -0.8446
  753TMC3    C311125   3.725   0.342  13.668 -0.1279 -0.6940 -0.0883
  753TMC3    C411126   3.543   0.398  13.465 -0.0889 -0.5723 -0.3694
  753TMC3    C511127   3.550   0.276  13.531 -0.0851 -0.1073  0.1229
  753TMC3    C611128   3.645   0.244  13.624 -0.3470 -0.8168 -0.0516
  753TMC3     C11129   3.642   0.616  13.432  0.5402  0.2076 -0.4755
  753TMC3     O11130   3.583   0.606  13.323  0.1505  0.1002  0.0663
  753TMC3     H11131   3.810   0.529  13.629 -0.6139  0.0885  1.7348
  753TMC3    H111132   3.474   0.416  13.383 -0.6544 -0.8939  0.0341
  753TMC3    H211133   3.653   0.142  13.660 -0.7330 -1.6552 -2.3377
  753TMC3    C711134   3.443   0.182  13.495 -0.0758 -0.6388 -0.2039
  753TMC3    C811135   3.766   0.331  13.806  0.0231  0.0237 -0.6616
  753TMC3    O111136   3.378   0.204  13.392  0.4984  0.1969 -0.3047
  753TMC3    O211137   3.781   0.223  13.853  0.4697 -0.0726  0.2050
  754MPD2     C11138   2.506   4.350  12.840 -0.2495 -0.1051  0.0574
  754MPD2    C111139   2.466   4.219  12.838  0.0576 -0.6151  0.2129
  754MPD2    C211140   2.335   4.178  12.824 -0.7907 -0.1689 -0.3254
  754MPD2    C311141   2.233   4.276  12.822  0.0781  0.1477  0.4410
  754MPD2    C411142   2.273   4.407  12.835  0.4881 -0.0782  0.6049
  754MPD2    C511143   2.405   4.443  12.838 -0.2518  0.6658 -0.2893
  754MPD2     H11144   2.303   4.075  12.822  1.3245 -0.8202 -1.1643
  754MPD2    H111145   2.194   4.481  12.836  0.4664 -0.0811 -0.4949
  754MPD2    H211146   2.608   4.385  12.836 -0.2719  0.2123  2.3932
  754MPD2    H311147   2.433   4.547  12.828  0.6024  0.4567 -0.0527
  754MPD2     N11148   2.092   4.245  12.821 -0.5021  0.3115 -0.3011
  754MPD2    H511149   2.024   4.319  12.837  0.2199  0.5046  2.0316
  754MPD2    N111150   2.572   4.123  12.837  0.4165 -0.8371  0.6469
  754MPD2    H711151   2.663   4.161  12.813 -0.6463  0.5928 -1.1676
  755MPD2     C11152   1.541   4.713  13.178 -0.0481 -0.2546  0.3708
  755MPD2    C111153   1.459   4.634  13.103  0.0792  0.4254 -0.7581
  755MPD2    C211154   1.500   4.519  13.047 -0.2536  0.1524  0.8775
  755MPD2    C311155   1.625   4.481  13.063  0.1894 -0.6985  0.9590
  755MPD2    C411156   1.714   4.554  13.132  0.0459 -0.6067 -0.3745
  755MPD2    C511157   1.665   4.662  13.198 -0.1964 -0.3210  0.1116
  755MPD2     H11158   1.430   4.462  12.988  0.7465  0.3040 -0.4481
  755MPD2    H111159   1.818   4.523  13.143 -0.1643 -1.1975 -0.0165
  755MPD2    H211160   1.517   0.084  13.226  0.6020  1.0425 -1.8510
  755MPD2    H311161   1.734   4.713  13.265 -0.2405 -0.3217  0.1569
  755MPD2     N11162   1.677   4.356  13.014  0.1671 -0.4814  0.4846
  755MPD2    H511163   1.776   4.338  13.027  0.0164 -1.8855 -0.3810
  755MPD2    N111164   1.317   4.666  13.101 -0.5219 -0.4495 -0.1708
  755MPD2    H711165   1.249   4.594  13.080  0.6257 -1.5649 -0.0524
  756MPD2     C11166   2.047   0.134   9.437  0.3862 -0.0356 -0.0041
  756MPD2    C111167   1.977   0.043   9.511 -0.1395 -1.0324 -0.1960
  756MPD2    C211168   1.848   0.009   9.472  0.0900  0.3176  0.6082
  756MPD2    C311169   1.791   0.065   9.360 -1.3093  0.6716 -0.3029
  756MPD2    C411170   1.861   0.154   9.289  1.0263  0.3125  0.4869
  756MPD2    C511171   1.991   0.181   9.326  0.2248  0.2069  0.4185
  756MPD2     H11172   1.792   4.654   9.523  0.6154 -0.5621 -0.1514
  756MPD2    H111173   1.827   0.216   9.207  1.8937  1.4756  1.0079
  756MPD2    H211174   2.149   0.166   9.456 -0.4656  1.9928  1.2166
  756MPD2    H311175   2.046   0.243   9.256  1.3063  0.2251  1.2832
  756MPD2     N11176   1.662   0.025   9.319 -0.0889  0.4092 -0.0531
  756MPD2    H511177   1.606   4.690   9.380 -0.0469  0.6385  0.2003
  756MPD2    N111178   2.040   4.710   9.624  0.4558  0.1045  0.5303
  756MPD2    H711179   1.983   4.661   9.692 -0.5578 -0.4978 -0.7359
  757MPD2     C11180   1.301   3.961   9.328  0.6158 -0.4298 -0.3343
  757MPD2    C111181   1.397   4.028   9.402 -0.0765  0.5421 -0.8203
  757MPD2    C211182   1.414   4.167   9.394  0.3423 -0.2099  0.5932
  757MPD2    C311183   1.325   4.241   9.319 -0.2578 -0.3435  0.0907
  757MPD2    C411184   1.228   4.169   9.249  0.7516  0.0157  0.4425
  757MPD2    C511185   1.212   4.034   9.248 -0.4679 -0.4642  0.5043
  757MPD2     H11186   1.474   4.228   9.460  0.4731  0.9046 -0.5710
  757MPD2    H111187   1.164   4.211   9.172  1.1281  0.4688  0.3753
  757MPD2    H211188   1.294   3.854   9.343 -0.6138 -0.0409  1.7959
  757MPD2    H311189   1.125   3.989   9.202 -1.4664  0.7235  1.2466
  757MPD2     N11190   1.343   4.375   9.315 -0.4708 -0.2649 -0.0592
  757MPD2    H511191   1.426   4.407   9.364  1.3063 -2.0064 -1.9498
  757MPD2    N111192   1.489   3.955   9.485 -0.1546 -0.5344 -0.0788
  757MPD2    H711193   1.483   3.854   9.477  2.7349 -0.8039  0.9769
  758MPD2     C11194   1.893   3.808  15.630 -0.1369  0.0514 -0.0530
  758MPD2    C111195   1.978   3.732  15.711  0.9349  0.1733 -0.6990
  758MPD2    C211196   1.959   3.722  15.850 -0.1686  0.5487 -0.4983
  758MPD2    C311197   1.885   3.818  15.913 -0.2132 -0.3855  0.2080
  758MPD2    C411198   1.801   3.890  15.834 -0.2960  0.4578  0.2566
  758MPD2    C511199   1.800   3.886  15.698 -0.1591 -0.1242 -0.6453
  758MPD2     H11200   2.029   3.663  15.908  1.1751  2.4969 -0.1299
  758MPD2    H111201   1.751   3.978  15.873  1.8551  1.3474  1.0401
  758MPD2    H211202   1.894   3.812  15.522 -1.0657  0.8965 -0.0328
  758MPD2    H311203   1.729   3.947  15.642  0.5411 -1.0756 -2.5867
  758MPD2     N11204   1.894   3.854  16.045 -0.0224 -0.1162 -0.0522
  758MPD2    H511205   1.819   3.915  16.075  1.0651  2.5892 -2.9161
  758MPD2    N111206   2.079   3.640  15.672  0.3836 -0.3956  0.1073
  758MPD2    H711207   2.116   3.579  15.745  0.9097  1.6121  1.5228
  759MPD2     C11208   1.209   1.920  10.528 -0.0096  1.0031 -0.3007
  759MPD2    C111209   1.249   1.862  10.404 -0.1718 -0.5141 -0.5640
  759MPD2    C211210   1.230   1.937  10.287  0.0114  0.0905 -0.5049
  759MPD2    C311211   1.191   2.072  10.290 -0.8751 -0.1696  0.3758
  759MPD2    C411212   1.152   2.121  10.408  0.8502 -0.2774 -0.5687
  759MPD2    C511213   1.158   2.049  10.525  0.6829 -0.3150 -0.1263
  759MPD2     H11214   1.272   1.895  10.196 -0.6584  1.6346 -1.5509
  759MPD2    H111215   1.110   2.221  10.414  0.1138 -0.4753 -2.3764
  759MPD2    H211216   1.216   1.875  10.626  3.2538  1.6158 -0.2593
  759MPD2    H311217   1.133   2.093  10.620  1.0556  1.0297 -0.6566
  759MPD2     N11218   1.201   2.140  10.164 -0.4952  0.4231  0.0631
  759MPD2    H511219   1.241   2.083  10.090 -1.4222  0.2802 -0.3250
  759MPD2    N111220   1.285   1.731  10.393  0.2865 -0.4297  0.0697
  759MPD2    H711221   1.282   1.693  10.299 -1.9296 -2.5262  0.9783
  760MPD2     C11222   0.901   4.293  12.133 -0.2735  0.7178 -0.0564
  760MPD2    C111223   0.978   4.339  12.028 -0.1318  0.0077 -0.3044
  760MPD2    C211224   1.026   4.239  11.942  0.7671  0.4486  0.2331
  760MPD2    C311225   1.011   4.106  11.968  0.1700 -0.0587  0.4353
  760MPD2    C411226   0.929   4.064  12.072  0.2880 -0.3941  0.1036
  760MPD2    C511227   0.887   4.160  12.158 -0.0666  0.1560 -0.1091
  760MPD2     H11228   1.077   4.267  11.851 -2.8271  3.4408 -0.9024
  760MPD2    H111229   0.927   3.957  12.094 -2.4101 -0.6093 -1.1863
  760MPD2    H211230   0.837   4.358  12.191  2.4772  2.5100  0.9853
  760MPD2    H311231   0.824   4.124  12.239 -1.7969 -1.1618 -2.0168
  760MPD2     N11232   1.063   4.001  11.888 -0.3660 -0.2267  0.1670
  760MPD2    H511233   1.054   3.914  11.938 -3.8737 -1.1642 -2.0917
  760MPD2    N111234   0.990   4.482  11.994  0.0719 -0.1890 -0.1382
  760MPD2    H711235   1.037   4.524  11.915  0.8861 -1.1211 -0.1618
  761MPD2     C11236   1.811   3.327  11.165  0.6630  0.5193 -0.3158
  761MPD2    C111237   1.892   3.259  11.081 -0.4203  0.1259  0.3230
  761MPD2    C211238   2.025   3.294  11.071 -0.2901 -0.0427  0.3012
  761MPD2    C311239   2.069   3.404  11.150 -0.6731 -0.2265 -0.0753
  761MPD2    C411240   1.983   3.483  11.224  0.0738 -0.7452 -0.1582
  761MPD2    C511241   1.852   3.440  11.232  0.3641  0.2356  0.0558
  761MPD2     H11242   2.093   3.243  11.004  1.3744  3.5642 -0.7270
  761MPD2    H111243   2.019   3.572  11.275  2.1628 -1.2161 -0.7800
  761MPD2    H211244   1.707   3.299  11.182  0.2283  1.1562 -1.9505
  761MPD2    H311245   1.789   3.503  11.293 -0.2450  1.2279 -1.5808
  761MPD2     N11246   2.205   3.441  11.160  0.0676  0.7683 -0.8942
  761MPD2    H511247   2.229   3.516  11.225  2.3777 -1.2287  0.5370
  761MPD2    N111248   1.835   3.156  11.011  0.6764  0.4302  0.3208
  761MPD2    H711249   1.736   3.137  11.018  0.3634  1.9151 -0.0166
  762MPD2     C11250   1.990   3.090  10.288 -0.1876  0.2514  0.3637
  762MPD2    C111251   1.987   2.967  10.350  0.1312  0.0066  0.0922
  762MPD2    C211252   2.070   2.869  10.303  0.2910  0.3724 -0.2922
  762MPD2    C311253   2.148   2.889  10.188 -0.1023 -1.0934 -0.8644
  762MPD2    C411254   2.147   3.013  10.133 -0.4327 -0.7051 -0.5164
  762MPD2    C511255   2.073   3.118  10.186 -0.6598  0.4636 -0.0126
  762MPD2     H11256   2.065   2.771  10.350  1.3443 -0.1384 -1.2532
  762MPD2    H111257   2.188   3.035  10.035  1.4906 -1.4500  0.1215
  762MPD2    H211258   1.926   3.172  10.318 -0.0993  1.6495 -3.2644
  762MPD2    H311259   2.064   3.220  10.150 -2.2135  0.3583  0.0520
  762MPD2     N11260   2.222   2.780  10.143 -0.2445  0.1978  0.1418
  762MPD2    H511261   2.220   2.687  10.184  1.0738 -0.3441 -1.0392
  762MPD2    N111262   1.888   2.952  10.456 -0.1234 -0.1063  0.0004
  762MPD2    H711263   1.829   3.031  10.481  1.2087  0.9014  0.0079
  763MPD2     C11264   4.329   3.846  15.832 -0.2701 -0.2099  0.0133
  763MPD2    C111265   4.211   3.927  15.821  0.6394 -0.5398 -0.4506
  763MPD2    C211266   4.195   4.053  15.882  0.3310 -0.4722  0.5783
  763MPD2    C311267   4.307   4.107  15.940 -0.2439  0.2321  0.2528
  763MPD2    C411268   4.426   4.037  15.934 -0.0557  0.4708  0.2581
  763MPD2    C511269   4.436   3.907  15.885  0.6222 -0.4991 -0.3495
  763MPD2     H11270   4.105   4.112  15.865  0.2596 -0.6637  0.2913
  763MPD2    H111271   4.515   4.082  15.975 -0.8806 -0.5512  3.1270
  763MPD2    H211272   4.336   3.746  15.790  1.4815 -0.2047  0.2887
  763MPD2    H311273   4.528   3.849  15.892  0.6684 -0.3641  0.1523
  763MPD2     N11274   4.297   4.233  16.002  0.3011 -0.1715  0.0451
  763MPD2    H511275   4.384   4.281  16.023  1.1974 -1.4635 -0.7130
  763MPD2    N111276   4.100   3.884  15.743 -0.1145  0.8613  0.1654
  763MPD2    H711277   4.025   3.948  15.719 -0.5535  0.6390  0.9662
  764MPD2     C11278   1.866   0.948  17.400 -0.5402 -0.1430 -0.1942
  764MPD2    C111279   1.820   0.838  17.337 -0.0897  0.4390  0.2011
  764MPD2    C211280   1.742   0.748  17.408 -0.1911 -0.3843  0.6426
  764MPD2    C311281   1.703   0.770  17.540  0.1157  0.2043 -0.0606
  764MPD2    C411282   1.751   0.874  17.601  0.4922 -0.4974 -0.9695
  764MPD2    C511283   1.837   0.954  17.534  0.3117 -0.1920 -0.0366
  764MPD2     H11284   1.705   0.662  17.353  0.5235  0.6344 -1.4271
  764MPD2    H111285   1.723   0.879   0.012 -0.8288  0.5261 -1.3763
  764MPD2    H211286   1.942   1.016  17.364  0.2553 -0.9883 -0.1116
  764MPD2    H311287   1.878   1.034  17.595 -0.0988 -1.4440  1.8721
  764MPD2     N11288   1.600   0.692  17.592 -0.3294  0.0647  1.0155
  764MPD2    H511289   1.552   0.627  17.531  1.0811 -1.6768  1.7681
  764MPD2    N111290   1.840   0.813  17.197 -0.6332  0.4525  0.1059
  764MPD2    H711291   1.773   0.750  17.153  0.3639 -1.0099  0.6884
  765MPD2     C11292   1.867   3.084  15.687  1.3614  0.1567 -0.0024
  765MPD2    C111293   1.922   3.150  15.582  0.2219  0.2370  0.4122
  765MPD2    C211294   2.049   3.120  15.537  0.1983 -0.2983 -0.3664
  765MPD2    C311295   2.127   3.021  15.595  0.1839 -0.4671  0.1851
  765MPD2    C411296   2.075   2.961  15.713  0.3762 -0.5979  0.4668
  765MPD2    C511297   1.946   2.988  15.758 -0.4713 -0.6424 -0.0391
  765MPD2     H11298   2.093   3.175  15.454  0.7216  0.0754  0.1608
  765MPD2    H111299   2.117   2.889  15.783  1.4462  0.3794  0.8261
  765MPD2    H211300   1.762   3.102  15.708  0.5948 -2.8943 -1.2768
  765MPD2    H311301   1.903   2.921  15.831  0.6716 -2.6185 -1.1831
  765MPD2     N11302   2.261   2.997  15.545  0.5450  0.2463  0.0024
  765MPD2    H511303   2.284   3.044  15.458  0.2135  0.2551 -0.0805
  765MPD2    N111304   1.836   3.249  15.527  0.2172 -0.3219  0.7660
  765MPD2    H711305   1.747   3.255  15.575  0.5752  0.0493  1.3950
  766MPD2     C11306   1.358   3.400  14.881  0.7264  0.3451 -0.0328
  766MPD2    C111307   1.491   3.372  14.909  0.6111  0.5316 -0.0760
  766MPD2    C211308   1.572   3.315  14.812 -0.2362 -0.1034 -0.8364
  766MPD2    C311309   1.537   3.298  14.680  0.4658 -0.5029  0.8578
  766MPD2    C411310   1.403   3.320  14.656  0.4985  0.3463  0.0804
  766MPD2    C511311   1.320   3.372  14.754 -0.1922 -0.2008 -0.9153
  766MPD2     H11312   1.676   3.294  14.832 -1.0349 -2.1219  1.2071
  766MPD2    H111313   1.359   3.327  14.557  0.3260 -0.7600  0.0851
  766MPD2    H211314   1.285   3.453  14.940  0.0502 -1.2636  0.5763
  766MPD2    H311315   1.219   3.398  14.723  0.4668  0.7195 -2.3170
  766MPD2     N11316   1.624   3.271  14.572 -0.2863  0.0063  0.1933
  766MPD2    H511317   1.587   3.300  14.482 -1.4150 -0.8227  0.3917
  766MPD2    N111318   1.559   3.394  15.028 -0.2951 -0.1930 -0.6856
  766MPD2    H711319   1.654   3.357  15.032  0.0530  0.5619 -2.0605
  767MPD2     C11320   1.194   3.728  14.438 -0.1260 -0.6693 -0.4434
  767MPD2    C111321   1.313   3.661  14.458  0.2137  0.7541 -0.7202
  767MPD2    C211322   1.335   3.538  14.405 -0.0487 -0.2143  0.0957
  767MPD2    C311323   1.246   3.492  14.303 -0.8787  0.2204  0.0038
  767MPD2    C411324   1.133   3.565  14.276 -0.1173 -0.1584  0.7712
  767MPD2    C511325   1.110   3.680  14.347  0.2209  0.3820 -0.1870
  767MPD2     H11326   1.424   3.480  14.425 -0.4925 -1.2999 -1.0392
  767MPD2    H111327   1.061   3.540  14.199 -0.6555 -1.6036  1.7478
  767MPD2    H211328   1.165   3.816  14.494  0.1038 -0.4163 -0.7188
  767MPD2    H311329   1.020   3.737  14.326 -0.3776 -0.2052  0.7839
  767MPD2     N11330   1.266   3.380  14.220 -0.2846 -0.1753 -0.0412
  767MPD2    H511331   1.220   3.381  14.130  1.5428 -1.2175 -0.9924
  767MPD2    N111332   1.400   3.721  14.545  0.2186 -0.6269 -0.8696
  767MPD2    H711333   1.368   3.806  14.591  0.4576 -1.0156  0.0227
  768MPD2     C11334   1.875   1.426  10.936 -0.2119 -0.8727  0.4459
  768MPD2    C111335   1.876   1.456  11.076  0.6797 -0.0563  0.6289
  768MPD2    C211336   1.991   1.456  11.138 -0.3266 -0.3358 -0.0322
  768MPD2    C311337   2.112   1.428  11.062 -0.2018 -0.4186 -0.4273
  768MPD2    C411338   2.102   1.379  10.932  0.3699  0.1385 -0.0154
  768MPD2    C511339   1.984   1.379  10.866 -0.2159  0.1316  0.0874
  768MPD2     H11340   2.008   1.470  11.244  3.6482 -1.6926 -0.4719
  768MPD2    H111341   2.191   1.338  10.886  0.6325  1.5881 -0.8185
  768MPD2    H211342   1.781   1.404  10.886  1.2865 -0.9406 -2.3541
  768MPD2    H311343   1.970   1.336  10.768  1.2588 -1.1234  0.4165
  768MPD2     N11344   2.244   1.460  11.107  0.8729  0.2174 -0.4386
  768MPD2    H511345   2.314   1.494  11.041  0.5463  3.0253  0.6760
  768MPD2    N111346   1.758   1.483  11.146 -0.4957 -0.6804  0.2959
  768MPD2    H711347   1.762   1.503  11.246  1.4458  0.5395 -0.0487
  769MPD2     C11348   2.918   0.088  14.558 -0.7139 -0.6348  0.8026
  769MPD2    C111349   2.849   0.052  14.668 -0.4792  0.8854  0.7483
  769MPD2    C211350   2.849   0.131  14.783  0.4012  1.0144  0.6516
  769MPD2    C311351   2.928   0.243  14.787  0.2071 -1.2039  0.4645
  769MPD2    C411352   2.986   0.279  14.675  0.0716  0.4704  0.0417
  769MPD2    C511353   2.985   0.204  14.558 -0.3636 -0.0364 -0.5893
  769MPD2     H11354   2.792   0.096  14.869  0.7245  0.3847  0.6080
  769MPD2    H111355   3.050   0.367  14.678 -1.5898  1.7433 -1.8518
  769MPD2    H211356   2.903   0.033  14.466  0.1078 -0.0650  0.3333
  769MPD2    H311357   3.034   0.240  14.468  0.8461 -2.8295 -1.0397
  769MPD2     N11358   2.933   0.315  14.907 -0.4123 -0.2717 -0.6362
  769MPD2    H511359   2.891   0.255  14.977 -0.3641  0.8163  0.3307
  769MPD2    N111360   2.767   4.658  14.664 -0.3637 -0.0943 -0.0643
  769MPD2    H711361   2.751   4.616  14.573  2.1734  0.7430 -0.9163
  770MPD2     C11362   2.808   3.602  14.865 -0.4600 -0.2641 -0.7010
  770MPD2    C111363   2.724   3.625  14.759  0.2749  0.0727 -0.7206
  770MPD2    C211364   2.686   3.756  14.738  0.3668 -0.2857 -0.2010
  770MPD2    C311365   2.739   3.860  14.812 -1.7652 -0.1410 -0.3874
  770MPD2    C411366   2.843   3.839  14.898  0.0370  1.0563 -0.3009
  770MPD2    C511367   2.876   3.706  14.921 -0.5644  0.6620 -0.6141
  770MPD2     H11368   2.602   3.780  14.674 -1.0479 -0.2631  1.6339
  770MPD2    H111369   2.896   3.918  14.951 -1.3746  0.5202  1.9461
  770MPD2    H211370   2.832   3.501  14.896  2.0419  0.6474  0.3496
  770MPD2    H311371   2.952   3.690  14.996 -2.4004  0.9951  1.3421
  770MPD2     N11372   2.681   3.991  14.804  0.3518 -0.2616 -0.4159
  770MPD2    H511373   2.599   3.997  14.744 -1.1018 -0.7117  1.5120
  770MPD2    N111374   2.686   3.514  14.682 -0.0557  0.0760  0.2345
  770MPD2    H711375   2.720   3.420  14.695 -1.1065 -0.3863 -0.3660
  771MPD2     C11376   3.955   2.268  13.704  0.6659 -0.0918  0.2095
  771MPD2    C111377   3.973   2.378  13.630  0.3300  0.6412  0.5403
  771MPD2    C211378   3.924   2.389  13.501  0.7561 -0.8013  0.8294
  771MPD2    C311379   3.847   2.287  13.449  0.1691 -0.1479  0.3520
  771MPD2    C411380   3.812   2.180  13.531 -0.8713  0.5178  0.2398
  771MPD2    C511381   3.862   2.179  13.657 -0.3974 -0.5155 -0.3788
  771MPD2     H11382   3.946   2.479  13.443 -0.1260 -0.0012  1.7481
  771MPD2    H111383   3.748   2.098  13.501  0.6306 -0.6784  0.2848
  771MPD2    H211384   3.993   2.260  13.805 -0.8482 -1.5379  0.6730
  771MPD2    H311385   3.842   2.097  13.725  1.7353 -1.3055 -0.7038
  771MPD2     N11386   3.800   2.299  13.317  0.1860 -0.3494  0.4448
  771MPD2    H511387   3.841   2.378  13.269  1.5744 -1.4322 -0.1441
  771MPD2    N111388   4.047   2.490  13.672  0.5377 -0.5985 -0.1188
  771MPD2    H711389   4.082   2.547  13.596 -1.7410 -1.5956 -1.9222
  772MPD2     C11390   3.832   3.126  13.991  0.2492  0.2057  0.3239
  772MPD2    C111391   3.825   2.989  13.960  0.3777 -0.0176  0.6823
  772MPD2    C211392   3.694   2.936  13.975  0.8180  0.5574  0.4361
  772MPD2    C311393   3.582   3.017  13.980 -0.5296  0.5212  0.0083
  772MPD2    C411394   3.597   3.157  13.989 -0.6514  0.4507 -0.4783
  772MPD2    C511395   3.719   3.210  14.011 -0.3848 -0.1229 -0.0070
  772MPD2     H11396   3.692   2.828  13.981 -0.7046  0.6484  1.2800
  772MPD2    H111397   3.509   3.219  13.984 -0.0601  1.3853  0.6592
  772MPD2    H211398   3.926   3.179  14.003  0.7304 -0.5390 -0.1123
  772MPD2    H311399   3.750   3.313  14.024 -0.2563 -0.3204  1.1771
  772MPD2     N11400   3.451   2.967  13.987 -0.1682 -0.5350  0.5901
  772MPD2    H511401   3.379   3.038  14.001 -0.3242 -0.3410 -1.2764
  772MPD2    N111402   3.941   2.906  13.941 -0.7774  0.2753  0.4390
  772MPD2    H711403   3.935   2.805  13.932 -1.5856  0.1835  2.0192
  773MPD2     C11404   3.037   4.385  17.687  0.0670 -0.4936  0.6337
  773MPD2    C111405   2.939   4.286  17.677  0.2559 -0.0784 -0.7952
  773MPD2    C211406   2.983   4.160   0.028  0.5382  0.4514  0.4422
  773MPD2    C311407   3.100   4.130   0.090 -0.0509 -0.1965  0.1103
  773MPD2    C411408   3.189   4.237   0.108 -0.3835  0.3471  0.8135
  773MPD2    C511409   3.159   4.361   0.059 -0.1013 -0.1960 -0.5158
  773MPD2     H11410   2.916   4.079   0.001 -0.4217  0.6339  2.2885
  773MPD2    H111411   3.268   4.229   0.182 -0.5737  0.5534  1.0403
  773MPD2    H211412   3.028   4.480  17.635 -1.1594 -0.1354  1.5005
  773MPD2    H311413   3.229   4.442   0.071 -2.0361  0.9100  3.2059
  773MPD2     N11414   3.124   3.999   0.140 -0.6060  0.3995  0.0040
  773MPD2    H511415   3.059   3.924   0.117  0.0075 -0.6082  1.5462
  773MPD2    N111416   2.816   4.307  17.612 -0.0550 -0.1949  0.3118
  773MPD2    H711417   2.749   4.231  17.603  0.1855 -0.3447 -0.1889
  774MPD2     C11418   2.087   3.199  13.191 -0.1133  0.1415 -0.2887
  774MPD2    C111419   2.141   3.252  13.303 -0.0340  1.0336 -0.0987
  774MPD2    C211420   2.194   3.384  13.290 -0.3305 -0.9814  0.1148
  774MPD2    C311421   2.212   3.447  13.170  0.4139 -0.6560  0.0146
  774MPD2    C411422   2.175   3.382  13.055 -0.5656 -0.6308  0.1080
  774MPD2    C511423   2.101   3.266  13.065  0.5088  0.3542  0.3631
  774MPD2     H11424   2.227   3.429  13.383 -1.0149 -2.1344  0.9099
  774MPD2    H111425   2.187   3.424  12.956 -0.7244 -1.7531 -0.3925
  774MPD2    H211426   2.034   3.105  13.195  2.5820 -1.2779  1.9119
  774MPD2    H311427   2.051   3.229  12.977 -0.1070  2.1593 -0.0532
  774MPD2     N11428   2.271   3.578  13.158  0.1751  0.0679  0.5845
  774MPD2    H511429   2.289   3.622  13.248  2.5348 -2.2630  1.2207
  774MPD2    N111430   2.132   3.178  13.427  0.0279  0.5341 -0.7142
  774MPD2    H711431   2.071   3.097  13.419  0.6949 -0.0279 -0.0990
  775MPD2     C11432   2.973   0.215  15.573 -0.0592 -0.3937  0.8388
  775MPD2    C111433   3.027   0.268  15.690  0.1739  0.0939 -0.3301
  775MPD2    C211434   3.152   0.332  15.683  0.3594  0.5002  0.1649
  775MPD2    C311435   3.214   0.356  15.564 -0.3841 -0.2001  0.4362
  775MPD2    C411436   3.167   0.299  15.454  0.0261 -0.8163  0.3855
  775MPD2    C511437   3.042   0.234  15.456  0.0633 -0.5252  0.3953
  775MPD2     H11438   3.204   0.363  15.773 -1.4425  0.3819  1.2455
  775MPD2    H111439   3.207   0.297  15.353 -1.9305 -1.6409 -0.3763
  775MPD2    H211440   2.883   0.155  15.577 -0.0562 -0.5270 -1.5866
  775MPD2    H311441   3.004   0.191  15.365  1.6287  1.0202 -1.0009
  775MPD2     N11442   3.339   0.422  15.551  0.3191  0.2282  0.0727
  775MPD2    H511443   3.371   0.439  15.456  0.8829 -0.9106  0.0524
  775MPD2    N111444   2.964   0.250  15.818  0.5135  0.1673 -0.1847
  775MPD2    H711445   2.887   0.185  15.823  2.1191 -1.6236  1.1870
  776MPD2     C11446   2.574   0.290  11.636 -0.2098  0.3099 -0.1933
  776MPD2    C111447   2.621   0.243  11.516 -0.2853  0.3693 -0.3026
  776MPD2    C211448   2.710   0.313  11.435 -0.1219 -0.1764  0.2486
  776MPD2    C311449   2.755   0.437  11.479  0.0050  0.5802 -0.7508
  776MPD2    C411450   2.706   0.493  11.593 -0.2738 -0.7609  0.8516
  776MPD2    C511451   2.609   0.421  11.663  0.2211 -0.0662 -0.4591
  776MPD2     H11452   2.738   0.266  11.341  1.8084 -3.0480  2.2426
  776MPD2    H111453   2.748   0.589  11.622  1.5552 -1.4820  0.5684
  776MPD2    H211454   2.510   0.228  11.698  0.5936  0.8579  1.1809
  776MPD2    H311455   2.570   0.456  11.758 -1.4491 -0.9795 -0.8067
  776MPD2     N11456   2.850   0.517  11.420 -0.1126 -0.4629  0.0681
  776MPD2    H511457   2.865   0.608  11.464  0.4443  0.7150 -2.5297
  776MPD2    N111458   2.561   0.122  11.487  0.1430 -0.4278  0.6299
  776MPD2    H711459   2.478   0.107  11.544 -1.0842  0.7974 -0.8258
  777MPD2     C11460   4.117   3.170   0.590  0.4666  0.3813 -0.0637
  777MPD2    C111461   4.085   3.105   0.707 -0.7130 -0.3935 -0.7047
  777MPD2    C211462   4.027   2.982   0.698  0.1646 -0.1883 -0.0111
  777MPD2    C311463   4.014   2.920   0.576  0.6488  0.2038 -0.2493
  777MPD2    C411464   4.063   2.980   0.466  0.0078 -0.0213  0.2024
  777MPD2    C511465   4.112   3.108   0.472 -0.1283  0.0673 -0.0575
  777MPD2     H11466   3.981   2.943   0.788 -1.7171  0.4292 -0.6995
  777MPD2    H111467   4.062   2.938   0.366 -1.2741 -0.6648  0.4787
  777MPD2    H211468   4.148   3.274   0.601 -0.4633  0.3613  2.8968
  777MPD2    H311469   4.143   3.156   0.380  1.5678 -0.5294  0.2022
  777MPD2     N11470   3.943   2.793   0.574  0.3961 -0.4107 -0.5451
  777MPD2    H511471   3.935   2.750   0.665 -0.6092 -0.5689 -0.7127
  777MPD2    N111472   4.086   3.182   0.827  0.4941 -0.3642 -0.3161
  777MPD2    H711473   4.115   3.279   0.832  0.8064 -0.3898 -1.4722
  778MPD2     C11474   4.033   2.584  15.330  0.0638 -1.4103  0.4707
  778MPD2    C111475   3.990   2.519  15.220  0.7671 -1.0215 -0.0040
  778MPD2    C211476   4.040   2.557  15.094 -0.3444  0.7266 -0.6752
  778MPD2    C311477   4.144   2.651  15.084  0.1938  0.1952  0.6463
  778MPD2    C411478   4.184   2.714  15.205  0.3062 -0.6278  0.8290
  778MPD2    C511479   4.129   2.686  15.327 -0.1597  0.4112  0.8259
  778MPD2     H11480   3.997   2.518  15.002  0.2866 -0.0726 -0.6325
  778MPD2    H111481   4.257   2.793  15.217  0.9664 -0.7617 -2.1895
  778MPD2    H211482   4.001   2.553  15.429  1.3026 -1.2057  0.9444
  778MPD2    H311483   4.185   2.727  15.411  0.7682 -0.6688  0.7426
  778MPD2     N11484   4.166   2.700  14.954  0.1270  0.2430 -0.1297
  778MPD2    H511485   4.135   2.639  14.880  1.7780 -0.2427 -0.4161
  778MPD2    N111486   3.888   2.419  15.226 -0.2378  0.1736 -0.3965
  778MPD2    H711487   3.873   2.364  15.142 -0.2872  1.6753 -1.3596
  779MPD2     C11488   3.756   1.597  14.127 -0.2929  0.6197 -0.8033
  779MPD2    C111489   3.845   1.576  14.235 -0.2294  0.2853  0.0573
  779MPD2    C211490   3.913   1.686  14.284 -0.5552 -0.5984  0.1375
  779MPD2    C311491   3.914   1.807  14.214  0.2033 -0.9749  0.2637
  779MPD2    C411492   3.830   1.820  14.101 -0.0393 -0.5196  0.5862
  779MPD2    C511493   3.751   1.719  14.063 -0.2802 -0.4716  0.5584
  779MPD2     H11494   3.978   1.659  14.366  0.2337 -1.1206 -0.6658
  779MPD2    H111495   3.817   1.914  14.049  1.4228  0.1263  1.3876
  779MPD2    H211496   3.695   1.516  14.088 -0.0166  1.0536 -2.1505
  779MPD2    H311497   3.674   1.735  13.988  0.6420 -1.1203 -0.5037
  779MPD2     N11498   4.008   1.905  14.256 -0.5189 -0.0960  0.2723
  779MPD2    H511499   4.049   1.887  14.348 -0.9879 -1.1641  0.2798
  779MPD2    N111500   3.878   1.444  14.295  0.5843  0.3602 -0.7453
  779MPD2    H711501   3.941   1.440  14.374  2.0392 -0.2945 -1.9268
  780MPD2     C11502   2.547   1.752   0.463  0.3680 -0.1822 -0.0805
  780MPD2    C111503   2.600   1.628   0.481 -0.8655  0.2686  0.0895
  780MPD2    C211504   2.735   1.615   0.492 -0.4163 -0.3986 -0.0878
  780MPD2    C311505   2.820   1.723   0.487  0.5734  0.6953 -0.2465
  780MPD2    C411506   2.770   1.847   0.457  0.6292  0.3129 -0.5248
  780MPD2    C511507   2.631   1.858   0.456 -0.3501 -0.3665 -0.2667
  780MPD2     H11508   2.775   1.515   0.500 -3.6110 -1.5697  1.4155
  780MPD2    H111509   2.826   1.940   0.452  1.3074 -0.0331  0.7519
  780MPD2    H211510   2.440   1.763   0.450  0.1732  0.7575  2.3868
  780MPD2    H311511   2.584   1.955   0.442  0.4845 -0.1676 -1.7278
  780MPD2     N11512   2.962   1.697   0.493  0.3023 -0.6102  0.2010
  780MPD2    H511513   2.996   1.604   0.513 -0.7755 -0.5863  2.1991
  780MPD2    N111514   2.518   1.508   0.483  0.0685 -0.0490 -0.7911
  780MPD2    H711515   2.562   1.428   0.528  0.0659  0.1047 -0.5152
  781MPD2     C11516   0.235   3.576  11.727 -0.0346 -0.2550 -0.0120
  781MPD2    C111517   0.282   3.452  11.698  0.2229 -1.1814  0.1089
  781MPD2    C211518   0.326   3.433  11.566 -0.0811  0.0821  0.0259
  781MPD2    C311519   0.319   3.522  11.467 -0.0473  0.5090 -0.0371
  781MPD2    C411520   0.274   3.645  11.501 -0.0453 -0.6644 -0.3557
  781MPD2    C511521   0.234   3.669  11.627  0.1579 -0.6479  0.2638
  781MPD2     H11522   0.368   3.336  11.542 -0.6990 -0.0673 -0.4471
  781MPD2    H111523   0.262   3.729  11.434  1.5536 -0.8037 -0.8127
  781MPD2    H211524   0.202   3.603  11.827  2.3563 -1.1924  1.0346
  781MPD2    H311525   0.204   3.768  11.661  0.2679 -1.1513  1.8137
  781MPD2     N11526   0.356   3.501  11.333 -0.5293 -0.7509 -0.5645
  781MPD2    H511527   0.328   3.580  11.275 -1.4221 -0.5725  0.1018
  781MPD2    N111528   0.307   3.358  11.802 -0.0697  0.3118 -0.4472
  781MPD2    H711529   0.349   3.271  11.770  3.5693  1.9106  0.0418
  782MPD2     C11530   3.000   3.406  10.079  0.0429 -0.2779 -0.2951
  782MPD2    C111531   3.062   3.381  10.203  0.3520 -0.2656 -0.0028
  782MPD2    C211532   3.118   3.488  10.274 -0.3038 -0.4508 -0.0195
  782MPD2    C311533   3.117   3.618  10.227 -0.6637  0.3354  0.0289
  782MPD2    C411534   3.065   3.631  10.101  0.2120  0.3254 -0.1604
  782MPD2    C511535   3.001   3.532  10.035  0.0239  0.2070 -0.2419
  782MPD2     H11536   3.158   3.461  10.372 -0.9781  2.0043  0.9400
  782MPD2    H111537   3.069   3.721  10.042  1.1576  0.3734 -0.0282
  782MPD2    H211538   2.955   3.331  10.016  1.0280 -1.0177 -0.1142
  782MPD2    H311539   2.954   3.553   9.940 -2.1736 -2.1933  0.3164
  782MPD2     N11540   3.171   3.722  10.307  0.0687 -0.1806 -0.2706
  782MPD2    H511541   3.191   3.694  10.402 -0.0013 -0.5517 -0.3625
  782MPD2    N111542   3.055   3.252  10.261 -0.0158 -0.6950  0.6677
  782MPD2    H711543   3.092   3.234  10.353  1.6413  1.5609  0.4400
  783MPD2     C11544   2.465   3.080  10.778 -0.6006 -0.1267  0.5875
  783MPD2    C111545   2.587   3.153  10.786  0.2047  0.1345  0.3504
  783MPD2    C211546   2.691   3.118  10.703  0.0236 -0.0013  0.0279
  783MPD2    C311547   2.684   2.998  10.626 -0.3563 -0.3587  0.5347
  783MPD2    C411548   2.567   2.919  10.635 -0.5833 -0.3212 -0.4220
  783MPD2    C511549   2.462   2.966  10.701  0.8949 -0.3943 -0.4607
  783MPD2     H11550   2.783   3.175  10.708 -1.5305  2.4772  0.6833
  783MPD2    H111551   2.553   2.826  10.581 -1.2531 -1.3336  1.5202
  783MPD2    H211552   2.372   3.099  10.830 -0.6343  1.1248  0.0612
  783MPD2    H311553   2.373   2.906  10.719 -0.7290  2.1809  0.0634
  783MPD2     N11554   2.798   2.958  10.556  0.0598 -0.4182 -0.7719
  783MPD2    H511555   2.879   3.017  10.571  0.4509 -1.1998  0.1755
  783MPD2    N111556   2.582   3.257  10.880 -0.2704 -0.0531  0.0288
  783MPD2    H711557   2.497   3.262  10.935 -0.2498  0.0576  0.0498
  784MPD2     C11558   1.200   4.647   0.894 -0.1515 -0.3681  0.1601
  784MPD2    C111559   1.167   4.701   1.012 -1.0276 -0.1699 -0.0122
  784MPD2    C211560   1.075   0.075   1.016  0.7393 -0.1759 -0.2878
  784MPD2    C311561   0.992   0.098   0.907 -0.2864 -0.8007 -0.3300
  784MPD2    C411562   1.015   0.029   0.796 -0.6860 -0.3665 -0.1879
  784MPD2    C511563   1.121   4.672   0.791  0.1600 -0.1340 -0.0088
  784MPD2     H11564   1.052   0.128   1.108  2.5039 -0.9427  0.6180
  784MPD2    H111565   0.957   0.037   0.704 -0.6473  0.3243 -0.1537
  784MPD2    H211566   1.286   4.585   0.876 -1.5230 -1.8956 -1.0749
  784MPD2    H311567   1.142   4.622   0.697  0.2156 -2.3416  1.1768
  784MPD2     N11568   0.887   0.188   0.925  0.2476  1.0131 -0.1704
  784MPD2    H511569   0.889   0.228   1.019  2.5054  0.3327  0.0705
  784MPD2    N111570   1.250   4.681   1.124  0.3557  0.3680 -0.0002
  784MPD2    H711571   1.224   0.010   1.208  1.0499 -2.0049  1.6645
  785MPD2     C11572   0.741   2.546  10.551  0.2594  0.0788  0.2863
  785MPD2    C111573   0.603   2.546  10.571 -0.6993  0.4612 -0.0147
  785MPD2    C211574   0.535   2.455  10.493  0.4718 -0.5956 -0.1500
  785MPD2    C311575   0.596   2.361  10.414  0.4515  0.2911  0.7585
  785MPD2    C411576   0.730   2.369  10.399 -1.0366  0.2591  0.2505
  785MPD2    C511577   0.797   2.461  10.468 -0.4615 -0.1365 -0.5334
  785MPD2     H11578   0.426   2.454  10.495  0.4410  1.5151 -1.3890
  785MPD2    H111579   0.789   2.301  10.339 -0.1184 -0.5123  2.0048
  785MPD2    H211580   0.799   2.617  10.608  0.4775 -1.0123  1.4251
  785MPD2    H311581   0.904   2.469  10.449 -0.5239  1.9201  0.0469
  785MPD2     N11582   0.513   2.268  10.354 -0.2514  0.3898 -0.4558
  785MPD2    H511583   0.414   2.286  10.366 -0.0612  0.8410  0.4185
  785MPD2    N111584   0.548   2.648  10.644 -0.3613  0.8118  0.2935
  785MPD2    H711585   0.609   2.722  10.677  2.2455 -1.4352  0.4299
  786MPD2     C11586   4.051   0.824  14.712  0.4850  0.4439 -0.0458
  786MPD2    C111587   4.185   0.792  14.703 -0.5354 -0.1522  0.4621
  786MPD2    C211588   4.273   0.858  14.789  0.7400 -0.6816  0.1451
  786MPD2    C311589   4.233   0.926  14.906  0.4541 -0.6984  0.4518
  786MPD2    C411590   4.099   0.959  14.906 -1.0102  0.0541 -0.0398
  786MPD2    C511591   4.016   0.914  14.806  0.3993 -0.7142  0.8569
  786MPD2     H11592   4.377   0.827  14.787  0.5973 -1.2846  1.9415
  786MPD2    H111593   4.058   1.027  14.980  2.3171  2.0708 -0.0129
  786MPD2    H211594   3.970   0.787  14.651  0.7519 -2.2321  1.2255
  786MPD2    H311595   3.912   0.946  14.811  1.1996  2.2350 -1.2441
  786MPD2     N11596   4.321   0.968  15.006 -0.0150 -0.0155  0.2460
  786MPD2    H511597   4.276   1.003  15.089 -1.6817  1.5249 -1.3200
  786MPD2    N111598   4.230   0.691  14.612  0.0861  0.1973  0.0920
  786MPD2    H711599   4.324   0.652  14.620 -0.3438 -0.1567  3.3467
  787MPD2     C11600   4.364   0.084  14.733 -0.2979  0.2190 -0.2129
  787MPD2    C111601   4.447   0.108  14.625 -0.0555  0.2348 -0.5648
  787MPD2    C211602   4.556   0.033  14.596  0.6791  0.2368 -0.6054
  787MPD2    C311603   4.591   4.656  14.679 -0.2872  0.3411 -0.2396
  787MPD2    C411604   4.512   4.631  14.787 -0.3572  0.6519 -0.1323
  787MPD2    C511605   4.397   4.702  14.809 -0.3099  1.1076 -0.2284
  787MPD2     H11606   4.627   0.058  14.518  0.6530  2.4911  0.0965
  787MPD2    H111607   4.529   4.550  14.857 -2.2112  0.8571  0.5608
  787MPD2    H211608   4.277   0.147  14.749  0.1335  0.6694  0.3442
  787MPD2    H311609   4.336   4.671  14.893  0.6649  1.1613  0.5013
  787MPD2     N11610   4.711   4.589  14.643 -0.2978  0.1707 -0.2984
  787MPD2    H511611   0.041   4.622  14.563  0.4786  0.3239  0.2806
  787MPD2    N111612   4.402   0.221  14.550 -0.2567 -0.4884 -0.7433
  787MPD2    H711613   4.318   0.262  14.589  0.3007 -0.4305  0.3853
  788MPD2     C11614   1.385   3.021   0.852 -0.0859  0.1456  0.3900
  788MPD2    C111615   1.321   3.072   0.738  0.1729 -0.0875  0.0131
  788MPD2    C211616   1.323   3.211   0.720 -0.5109  0.8642  0.3933
  788MPD2    C311617   1.384   3.295   0.807 -1.1188  0.2366  1.2196
  788MPD2    C411618   1.452   3.238   0.915 -0.1398 -0.6884  0.6303
  788MPD2    C511619   1.456   3.107   0.932  0.8157  0.3313 -0.0923
  788MPD2     H11620   1.282   3.239   0.623  0.2434 -1.2165 -0.5096
  788MPD2    H111621   1.503   3.301   0.986 -0.4425  0.9513 -0.5918
  788MPD2    H211622   1.396   2.915   0.873 -0.0441  0.0155 -0.3028
  788MPD2    H311623   1.508   3.061   1.015  0.8776  0.9394  0.2027
  788MPD2     N11624   1.407   3.430   0.781  0.6637  0.1331 -0.2890
  788MPD2    H511625   1.488   3.466   0.831 -0.6038  2.4089  0.1205
  788MPD2    N111626   1.273   2.989   0.632 -0.7704 -0.2322 -0.0935
  788MPD2    H711627   1.229   3.036   0.553  0.3711  0.5602 -0.2579
  789MPD2     C11628   1.765   3.591  16.587  0.2198  0.2849 -1.0620
  789MPD2    C111629   1.697   3.631  16.481 -0.6474  0.1042 -0.8255
  789MPD2    C211630   1.595   3.726  16.499 -0.9312  0.0248 -0.6013
  789MPD2    C311631   1.570   3.783  16.624  0.0090 -0.4958 -0.8048
  789MPD2    C411632   1.662   3.756  16.724  0.5400  0.1475 -0.0870
  789MPD2    C511633   1.758   3.659  16.706 -0.7138 -0.0239 -0.1846
  789MPD2     H11634   1.526   3.741  16.418  0.1176 -1.4411 -1.7689
  789MPD2    H111635   1.657   3.805  16.821 -1.0913  0.2654 -0.2317
  789MPD2    H211636   1.831   3.505  16.587  0.0134  0.1316  0.5425
  789MPD2    H311637   1.829   3.635  16.783 -0.5201 -0.0621 -0.3749
  789MPD2     N11638   1.463   3.874  16.647 -0.0455 -0.4851  0.4469
  789MPD2    H511639   1.456   3.912  16.741  1.4044  0.0216  0.3503
  789MPD2    N111640   1.705   3.583  16.349 -0.3057  0.2016  0.2108
  789MPD2    H711641   1.642   3.623  16.281 -0.5323 -1.6603 -0.6749
  790MPD2     C11642   3.055   1.218  13.046  0.2631  0.5462  0.5757
  790MPD2    C111643   3.063   1.099  13.118 -0.1723 -0.5206 -0.1916
  790MPD2    C211644   2.984   0.989  13.099 -0.5618 -0.2369 -0.2456
  790MPD2    C311645   2.895   0.994  12.995  0.6012  0.4514  0.5261
  790MPD2    C411646   2.887   1.109  12.924 -0.4591 -0.5163 -0.4427
  790MPD2    C511647   2.959   1.223  12.950  0.0148  0.6920 -0.6934
  790MPD2     H11648   2.989   0.907  13.169  0.6266 -0.2130 -0.2893
  790MPD2    H111649   2.816   1.112  12.841 -1.1315  0.6768  0.1751
  790MPD2    H211650   3.120   1.305  13.055 -1.2926  1.7963 -0.2242
  790MPD2    H311651   2.933   1.320  12.911 -0.5361  0.1173 -1.7707
  790MPD2     N11652   2.820   0.879  12.965  0.2051  0.1871  0.0146
  790MPD2    H511653   2.819   0.799  13.028 -1.6629  0.4418  0.3261
  790MPD2    N111654   3.172   1.092  13.208  0.0678  0.2256  0.2287
  790MPD2    H711655   3.206   1.180  13.244 -1.1768  0.7666  0.0964
  791MPD2     C11656   2.101   0.824  12.658  0.0265 -0.0819 -0.6875
  791MPD2    C111657   2.138   0.728  12.740  0.3406 -0.6023  0.2154
  791MPD2    C211658   2.040   0.653  12.796  0.0630 -0.2220  0.2012
  791MPD2    C311659   1.913   0.663  12.762 -0.2486  0.5948 -0.5252
  791MPD2    C411660   1.870   0.770  12.685  0.4757 -0.0464  0.3445
  791MPD2    C511661   1.967   0.852  12.636 -0.5241  0.1219 -0.2677
  791MPD2     H11662   2.062   0.564  12.855  0.2930 -1.7346 -2.1912
  791MPD2    H111663   1.766   0.792  12.665  1.5404  1.1271 -3.7673
  791MPD2    H211664   2.181   0.873  12.604 -0.6805  1.2641 -0.5015
  791MPD2    H311665   1.938   0.941  12.582 -2.8591 -0.0059  0.7977
  791MPD2     N11666   1.827   0.563  12.812 -0.5757  0.6909  0.0419
  791MPD2    H511667   1.868   0.481  12.857  1.6325  0.5132 -2.3357
  791MPD2    N111668   2.278   0.705  12.757  0.4745  0.2763  0.0886
  791MPD2    H711669   2.349   0.762  12.714  1.3423 -0.4486  0.5504
  792MPD2     C11670   2.686   0.080  11.055 -0.3735  0.0342  0.7693
  792MPD2    C111671   2.772   4.710  10.999  0.1662  0.1522  0.1220
  792MPD2    C211672   2.717   4.581  10.968 -0.0391  0.0510  0.0134
  792MPD2    C311673   2.575   4.558  10.973 -0.1638 -0.4962 -0.0665
  792MPD2    C411674   2.494   4.659  11.025 -0.0615  0.7237  0.4465
  792MPD2    C511675   2.554   0.057  11.066  0.0757 -1.1518 -0.1760
  792MPD2     H11676   2.786   4.503  10.939 -0.5597 -0.8983  1.3070
  792MPD2    H111677   2.386   4.649  11.023 -0.2773  2.6416  2.4420
  792MPD2    H211678   2.716   0.181  11.077 -2.1226  0.4414  1.2575
  792MPD2    H311679   2.489   0.139  11.093  1.9045  1.0210 -2.4007
  792MPD2     N11680   2.515   4.442  10.930 -0.0152 -0.6284 -0.0276
  792MPD2    H511681   2.414   4.432  10.934 -0.0508  0.0836  0.8340
  792MPD2    N111682   2.911   0.014  10.993  0.4739  0.3868  0.0452
  792MPD2    H711683   2.943   0.101  11.033 -1.6297  1.6008 -0.9339
  793MPD2     C11684   1.904   4.385  10.320 -0.7348  0.0473  0.1292
  793MPD2    C111685   2.030   4.438  10.322 -0.5807 -0.2461 -0.2159
  793MPD2    C211686   2.114   4.397  10.430 -0.1763  0.4202 -0.2168
  793MPD2    C311687   2.080   4.299  10.523  0.3848 -0.4424 -0.0067
  793MPD2    C411688   1.956   4.244  10.514 -0.1376  0.0847 -0.9926
  793MPD2    C511689   1.873   4.289  10.405  0.3808 -0.1218  0.1394
  793MPD2     H11690   2.215   4.435  10.437  0.6278 -1.7733  0.1674
  793MPD2    H111691   1.926   4.167  10.584  2.2904 -0.6327 -0.7419
  793MPD2    H211692   1.834   4.415  10.243 -1.3035  1.1050  1.0628
  793MPD2    H311693   1.773   4.246  10.395  0.5289 -0.4955  0.2644
  793MPD2     N11694   2.169   4.263  10.622 -0.3191  0.2548 -0.6304
  793MPD2    H511695   2.260   4.307  10.622  0.4974 -1.4258  2.1929
  793MPD2    N111696   2.090   4.514  10.223  0.7128  0.2978  0.2926
  793MPD2    H711697   2.187   4.537  10.243  1.4899 -0.9166 -2.1154
  794MPD2     C11698   2.452   4.694  16.910  0.0524  0.5008  0.0657
  794MPD2    C111699   2.367   4.634  16.999 -0.5151  0.5323  0.0766
  794MPD2    C211700   2.237   4.600  16.959 -1.1381  0.0604 -0.4920
  794MPD2    C311701   2.190   4.617  16.826 -0.3005  0.0026  0.0410
  794MPD2    C411702   2.284   4.673  16.742 -0.4580 -0.9907  0.4197
  794MPD2    C511703   2.410   4.703  16.783  0.5606 -0.0238  0.3252
  794MPD2     H11704   2.170   4.558  17.034 -1.3629 -1.7382 -1.6925
  794MPD2    H111705   2.274   4.668  16.635 -0.5937  1.5032  0.2997
  794MPD2    H211706   2.553   0.000  16.935  0.6711 -1.1430 -0.4661
  794MPD2    H311707   2.476   0.019  16.706 -0.7496  0.4693 -0.5458
  794MPD2     N11708   2.068   4.573  16.775  0.2703 -0.3982 -0.1764
  794MPD2    H511709   2.046   4.598  16.679  2.8368 -4.2524 -1.7533
  794MPD2    N111710   2.398   4.586  17.126 -0.2007 -0.0656 -0.3859
  794MPD2    H711711   2.322   4.539  17.175 -0.3433  1.2486  0.6229
  795MPD2     C11712   4.654   2.069  13.645  1.0813 -0.4187  0.4499
  795MPD2    C111713   4.607   1.942  13.666 -0.2802 -1.2777  0.2222
  795MPD2    C211714   4.694   1.851  13.724 -0.0724  0.5134 -0.2624
  795MPD2    C311715   0.095   1.879  13.763  0.1416 -0.0824  0.6475
  795MPD2    C411716   0.140   2.010  13.755 -0.0575  0.5605  0.6390
  795MPD2    C511717   0.061   2.099  13.694 -0.2499 -0.1012  0.4357
  795MPD2     H11718   4.663   1.748  13.734 -0.4481  0.7488  1.0285
  795MPD2    H111719   0.237   2.042  13.790 -0.2587  1.0574  0.7547
  795MPD2    H211720   4.598   2.148  13.598  0.3844 -2.1575 -1.6187
  795MPD2    H311721   0.095   2.203  13.691 -1.5445  0.3350  1.0531
  795MPD2     N11722   0.183   1.782  13.825  0.0631 -0.5652 -0.1265
  795MPD2    H511723   0.146   1.691  13.850 -1.5152  1.1376  3.6559
  795MPD2    N111724   4.476   1.903  13.619 -0.1940 -0.1775 -0.4995
  795MPD2    H711725   4.469   1.804  13.600 -0.7818 -0.2694  0.2333
  796MPD2     C11726   4.429   3.340  15.452 -0.7350 -0.2180  0.1829
  796MPD2    C111727   4.499   3.428  15.543  0.2821  0.0851 -0.5350
  796MPD2    C211728   4.481   3.565  15.538 -0.0732  0.3940  0.5183
  796MPD2    C311729   4.395   3.619  15.446  0.8008 -0.2005  0.4714
  796MPD2    C411730   4.335   3.537  15.349  0.0535  0.1325  0.7519
  796MPD2    C511731   4.353   3.401  15.350  0.9312  0.6940 -0.1940
  796MPD2     H11732   4.547   3.628  15.596 -1.0198  0.7166  1.2458
  796MPD2    H111733   4.291   3.583  15.261  0.4825 -0.0994  0.4178
  796MPD2    H211734   4.452   3.234  15.458 -1.0873 -0.3040 -0.0415
  796MPD2    H311735   4.311   3.339  15.272  0.6870  0.6285 -0.0083
  796MPD2     N11736   4.382   3.760  15.436 -0.1402 -0.0042 -0.1827
  796MPD2    H511737   4.436   3.820  15.496 -2.1367  2.1736 -0.5404
  796MPD2    N111738   4.565   3.367  15.653  0.1325 -0.2077 -0.3722
  796MPD2    H711739   4.600   3.431  15.724 -1.4680 -0.3799  0.5737
  797MPD2     C11740   0.632   2.880  16.752  0.3319 -0.3067  0.6652
  797MPD2    C111741   0.634   2.940  16.874 -0.0217  0.0529  0.0199
  797MPD2    C211742   0.559   3.056  16.879 -0.0896 -0.4934 -0.0282
  797MPD2    C311743   0.497   3.108  16.767 -0.4459  0.7495 -0.0335
  797MPD2    C411744   0.485   3.028  16.652  0.1786 -0.3747  0.2836
  797MPD2    C511745   0.561   2.919  16.642  0.1362  0.0536  0.4678
  797MPD2     H11746   0.559   3.106  16.975  0.6581  0.5394 -0.5715
  797MPD2    H111747   0.427   3.072  16.572 -1.7108 -0.9538  1.3447
  797MPD2    H211748   0.677   2.781  16.746  2.2558  0.6408 -0.4088
  797MPD2    H311749   0.556   2.856  16.554  1.5375  1.2207 -0.4509
  797MPD2     N11750   0.435   3.239  16.769 -0.1507 -0.3113  0.6508
  797MPD2    H511751   0.370   3.258  16.693 -0.8979 -1.0184  1.1199
  797MPD2    N111752   0.717   2.904  16.986  0.0059 -0.2353  0.3096
  797MPD2    H711753   0.697   2.959  17.069  0.6850 -0.0726  0.3634
  798MPD2     C11754   0.940   3.595  17.045  0.7025 -0.4033 -0.1469
  798MPD2    C111755   0.846   3.505  17.001 -0.2360  0.4720 -0.2827
  798MPD2    C211756   0.866   3.372  17.033  0.2352  0.3564  0.4715
  798MPD2    C311757   0.987   3.327  17.091  0.8592  0.3185 -0.1816
  798MPD2    C411758   1.081   3.422  17.135 -0.7834  0.3081  0.1917
  798MPD2    C511759   1.056   3.554  17.103  0.3509  0.0194 -0.1849
  798MPD2     H11760   0.791   3.306  16.990  0.8059  1.1917 -1.7792
  798MPD2    H111761   1.174   3.388  17.181 -0.2344  0.9060 -0.4684
  798MPD2    H211762   0.934   3.703  17.035 -0.1305 -0.5598 -1.3737
  798MPD2    H311763   1.129   3.632  17.124  0.6352 -0.1694 -0.4793
  798MPD2     N11764   0.991   3.181  17.117  0.5509 -0.0098 -0.5496
  798MPD2    H511765   0.928   3.126  17.061 -0.4944 -0.5927  1.2073
  798MPD2    N111766   0.720   3.545  16.953 -0.0169  0.1566 -0.1504
  798MPD2    H711767   0.656   3.469  16.932  0.5186  0.2069 -1.9728
  799MPD2     C11768   0.111   4.098  14.509 -0.2671 -0.6154 -0.0083
  799MPD2    C111769   0.167   4.158  14.399 -0.2790  0.1785  0.4255
  799MPD2    C211770   0.098   4.267  14.337  0.6594  0.5187 -0.9303
  799MPD2    C311771   4.699   4.311  14.384  0.1581 -0.1694 -0.1363
  799MPD2    C411772   4.641   4.237  14.494 -0.1044  0.1020 -0.2953
  799MPD2    C511773   4.706   4.136  14.551  0.7838 -0.0567 -0.8490
  799MPD2     H11774   0.152   4.328  14.265  0.8387  2.0539  0.4976
  799MPD2    H111775   4.544   4.273  14.524 -1.3177 -2.3685 -1.2065
  799MPD2    H211776   0.154   4.009  14.551 -1.2032 -1.4314 -0.7675
  799MPD2    H311777   4.653   4.087  14.632  1.0464 -0.5793 -0.9980
  799MPD2     N11778   4.619   4.413  14.328 -0.0454 -0.0166  0.6856
  799MPD2    H511779   4.520   4.413  14.350 -0.0274  0.3078  0.7668
  799MPD2    N111780   0.293   4.112  14.352  0.6554 -0.9114 -0.7646
  799MPD2    H711781   0.340   4.046  14.413 -0.8921 -0.1672  1.2321
  800MPD2     C11782   4.695   0.963  14.616 -0.1518 -0.5477  0.2281
  800MPD2    C111783   0.074   0.899  14.548 -0.6213 -0.4894 -0.1106
  800MPD2    C211784   0.046   0.822  14.437  1.2240  0.5293 -0.0753
  800MPD2    C311785   4.638   0.800  14.400  0.0352  0.9000  0.3325
  800MPD2    C411786   4.536   0.855  14.471 -0.0534  0.9283  0.4750
  800MPD2    C511787   4.569   0.939  14.577 -0.4182 -0.3890 -1.2466
  800MPD2     H11788   0.126   0.783  14.376 -1.2108 -0.0353 -2.9065
  800MPD2    H111789   4.431   0.841  14.448  0.7802  1.2666 -3.4308
  800MPD2    H211790   4.710   1.020  14.708 -2.4141  1.0865 -0.4345
  800MPD2    H311791   4.494   0.976  14.646 -0.1731 -0.6262 -0.8517
  800MPD2     N11792   4.625   0.716  14.283  0.1399  0.1867  0.0133
  800MPD2    H511793   4.712   0.679  14.247  1.0645  1.2192  1.1869
  800MPD2    N111794   0.205   0.948  14.569 -0.0545  0.5672 -0.4634
  800MPD2    H711795   0.211   1.035  14.621  0.4740  1.0713 -1.3568
  801MPD2     C11796   0.405   1.566  14.309 -0.2616  0.0687  0.5389
  801MPD2    C111797   0.363   1.492  14.417 -0.1838  0.5349  0.3503
  801MPD2    C211798   0.263   1.532  14.494  0.0499  0.6362 -0.1648
  801MPD2    C311799   0.204   1.657  14.470 -0.1866 -0.6260 -0.2490
  801MPD2    C411800   0.236   1.730  14.355  0.6003 -0.3594  0.6519
  801MPD2    C511801   0.331   1.675  14.274  0.0102  0.0988  0.4876
  801MPD2     H11802   0.241   1.471  14.581 -2.3178 -1.3837 -2.2041
  801MPD2    H111803   0.195   1.830  14.342  1.0087 -0.4428 -1.1487
  801MPD2    H211804   0.497   1.542  14.256  0.6595 -0.3404  2.2936
  801MPD2    H311805   0.365   1.733  14.190 -3.1822 -1.8056 -2.1643
  801MPD2     N11806   0.103   1.707  14.557 -0.0033  0.3449  0.1210
  801MPD2    H511807   0.057   1.791  14.521  1.1829  0.2140 -1.7113
  801MPD2    N111808   0.414   1.369  14.453 -0.0520  0.2670  0.1955
  801MPD2    H711809   0.359   1.315  14.519  1.9275 -2.5277 -0.4430
  802MPD2     C11810   0.114   2.303   0.416 -0.0909  0.5150  0.0694
  802MPD2    C111811   0.054   2.284   0.293 -0.0261 -0.4435  0.4865
  802MPD2    C211812   0.105   2.347   0.175  0.4673 -0.4221 -0.5155
  802MPD2    C311813   0.214   2.430   0.189 -0.4242 -0.2634  0.0882
  802MPD2    C411814   0.258   2.458   0.319  0.6793 -0.2374 -0.8295
  802MPD2    C511815   0.209   2.398   0.431 -0.3925 -0.1931 -0.3695
  802MPD2     H11816   0.054   2.337   0.080 -1.3914 -0.6669  0.5017
  802MPD2    H111817   0.336   2.530   0.341 -1.8693  2.1395  0.3776
  802MPD2    H211818   0.073   2.272   0.511 -0.2160  0.5147  0.0158
  802MPD2    H311819   0.243   2.420   0.532  1.4934 -1.4330 -0.7194
  802MPD2     N11820   0.275   2.495   0.076  0.5514 -0.3058  0.7760
  802MPD2    H511821   0.237   2.468  17.680  1.0687  3.0849 -0.4452
  802MPD2    N111822   4.658   2.208   0.272 -0.2629 -0.6390  0.2138
  802MPD2    H711823   4.630   2.195   0.176 -0.2342 -1.2177  0.2876
  803MPD2     C11824   0.832   0.569  11.810 -0.5120 -0.2586  0.8952
  803MPD2    C111825   0.915   0.541  11.917  0.7663  0.1773 -0.1699
  803MPD2    C211826   0.868   0.447  12.010 -0.0051 -0.0195  0.1225
  803MPD2    C311827   0.747   0.380  11.991 -0.8230  0.2100 -0.1375
  803MPD2    C411828   0.663   0.412  11.886 -0.4129  0.0395  0.0804
  803MPD2    C511829   0.706   0.513  11.800  0.0057  0.7690  0.6079
  803MPD2     H11830   0.932   0.418  12.093  1.6451 -0.8122 -1.4149
  803MPD2    H111831   0.568   0.364  11.864  0.1062 -1.2596  0.6717
  803MPD2    H211832   0.846   0.642  11.731 -0.9309 -1.0041  0.1327
  803MPD2    H311833   0.639   0.534  11.718  0.5174 -1.5336 -0.4092
  803MPD2     N11834   0.692   0.301  12.096  0.3061 -0.9465 -0.5227
  803MPD2    H511835   0.596   0.271  12.080  0.2885 -0.2388 -1.7040
  803MPD2    N111836   1.035   0.609  11.940  0.7307 -0.2207 -0.2199
  803MPD2    H711837   1.073   0.609  12.034  0.1774 -1.6791  0.0065
  804MPD2     C11838   0.550   2.005  16.903 -0.3382 -0.3440 -0.8416
  804MPD2    C111839   0.656   1.934  16.960  0.2459  0.1190 -0.3133
  804MPD2    C211840   0.767   2.004  16.996 -0.8684 -0.2847  0.7617
  804MPD2    C311841   0.768   2.141  16.985 -0.5934  0.2335  0.1965
  804MPD2    C411842   0.659   2.217  16.938 -0.0263 -0.9770 -0.0500
  804MPD2    C511843   0.554   2.139  16.900 -0.8042 -0.7312  0.1715
  804MPD2     H11844   0.858   1.957  17.029 -0.1630  0.1026 -0.6424
  804MPD2    H111845   0.655   2.324  16.924  0.3119 -1.1988 -1.8734
  804MPD2    H211846   0.452   1.962  16.888 -1.1959  0.0843  3.4486
  804MPD2    H311847   0.471   2.187  16.849 -0.3195  1.1758  1.1607
  804MPD2     N11848   0.881   2.214  17.024  0.1655  0.6421  0.2827
  804MPD2    H511849   0.968   2.163  17.039  0.5578  1.1421 -0.2967
  804MPD2    N111850   0.659   1.802  16.981  0.6836  0.2400 -0.5921
  804MPD2    H711851   0.745   1.771  17.025 -0.2339 -1.2371  0.1351
  805MPD2     C11852   3.878   0.374  15.851  0.1815 -0.6434  0.0670
  805MPD2    C111853   3.950   0.298  15.767  0.6581  0.2619  0.0095
  805MPD2    C211854   4.085   0.274  15.786 -0.6552 -1.1590  0.0399
  805MPD2    C311855   4.154   0.328  15.899 -0.6017  0.0288 -0.1925
  805MPD2    C411856   4.077   0.403  15.990 -0.5061  0.0862 -0.1945
  805MPD2    C511857   3.941   0.419  15.964  0.3520  0.4273 -0.3095
  805MPD2     H11858   4.144   0.209  15.723  1.9624  0.7088  0.5795
  805MPD2    H111859   4.115   0.442  16.083 -1.4229 -0.0316  0.2298
  805MPD2    H211860   3.772   0.395  15.847  0.2170 -1.3493 -4.6492
  805MPD2    H311861   3.880   0.466  16.040 -1.5441 -3.2457  0.4155
  805MPD2     N11862   4.291   0.291  15.924  0.2865  0.0749 -0.1477
  805MPD2    H511863   4.332   0.229  15.854  1.5009  1.6058 -0.8112
  805MPD2    N111864   3.894   0.237  15.652 -0.5507  0.6571  0.7682
  805MPD2    H711865   3.968   0.207  15.588  1.7338  1.1094  3.1983
  806MPD2     C11866   0.595   4.360   0.788 -0.3293  0.3272 -0.3397
  806MPD2    C111867   0.694   4.450   0.828  0.1135 -0.3809  1.0047
  806MPD2    C211868   0.683   4.577   0.773 -0.0544 -0.0975 -0.8497
  806MPD2    C311869   0.579   4.610   0.691  0.3289  0.0605  0.7095
  806MPD2    C411870   0.478   4.519   0.661 -0.6431  0.0785  0.1317
  806MPD2    C511871   0.494   4.396   0.708 -0.3682  0.1209  0.0192
  806MPD2     H11872   0.755   4.654   0.800  0.7033 -0.4990 -1.7429
  806MPD2    H111873   0.394   4.537   0.594 -0.7801  0.7514  0.4828
  806MPD2    H211874   0.595   4.255   0.814 -0.0160  0.3495 -0.2578
  806MPD2    H311875   0.424   4.319   0.677 -0.9755  0.2421  1.0912
  806MPD2     N11876   0.572   0.017   0.636  0.0249 -0.4210  0.4253
  806MPD2    H511877   0.649   0.080   0.655 -0.6186 -0.3067  2.7179
  806MPD2    N111878   0.803   4.413   0.911  0.2985  0.0575  0.3513
  806MPD2    H711879   0.812   4.313   0.922  2.7566  0.0196 -1.9210
  807MPD2     C11880   1.170   4.553   1.659 -0.8687  0.0852 -0.5769
  807MPD2    C111881   1.042   4.530   1.611 -0.1003  0.2485  0.0431
  807MPD2    C211882   0.932   4.551   1.679 -0.2642  0.0279 -0.0393
  807MPD2    C311883   0.937   4.578   1.813 -0.4846  0.2967  0.2660
  807MPD2    C411884   1.061   4.598   1.873  0.3497 -0.5586 -0.2313
  807MPD2    C511885   1.176   4.595   1.792  0.3166 -0.4240  0.1358
  807MPD2     H11886   0.832   4.526   1.644 -0.6755  0.9224  0.4865
  807MPD2    H111887   1.078   4.625   1.977  0.8095  0.5617 -0.6084
  807MPD2    H211888   1.262   4.527   1.608 -2.5821 -1.3418 -2.8995
  807MPD2    H311889   1.270   4.603   1.845 -0.8900  0.0934  2.1827
  807MPD2     N11890   0.816   4.566   1.892  0.1395 -0.0284  0.5423
  807MPD2    H511891   0.729   4.549   1.842  0.4767 -1.3854  0.4038
  807MPD2    N111892   1.023   4.482   1.478 -0.5537 -0.3454  0.6909
  807MPD2    H711893   0.931   4.492   1.437 -0.4235 -0.3596  0.3909
  808MPD2     C11894   0.022   0.902  10.170  0.2241 -0.3121  0.8436
  808MPD2    C111895   0.037   0.817  10.059  0.2775 -0.5277  0.4141
  808MPD2    C211896   0.159   0.769  10.015 -0.4861  0.2951 -0.2518
  808MPD2    C311897   0.272   0.799  10.083 -0.3862  0.0404 -0.6621
  808MPD2    C411898   0.255   0.860  10.205 -0.1859  0.5284 -0.0915
  808MPD2    C511899   0.136   0.916  10.242  0.3275  0.5682 -0.4155
  808MPD2     H11900   0.158   0.699   9.933 -0.0947  0.8174 -0.7036
  808MPD2    H111901   0.343   0.879  10.265  0.5672  1.0509 -1.3709
  808MPD2    H211902   4.655   0.956  10.195 -1.2788 -2.4491 -0.0161
  808MPD2    H311903   0.132   0.962  10.340 -1.6762 -1.2107  0.3592
  808MPD2     N11904   0.401   0.770  10.034  0.3023  0.0347 -0.2192
  808MPD2    H511905   0.481   0.805  10.085  0.0363  0.2396  0.0590
  808MPD2    N111906   4.654   0.769   9.983  0.3385 -0.4341 -0.7912
  808MPD2    H711907   4.669   0.703   9.908  1.4511  0.1860 -1.1116
  809MPD2     C11908   0.785   4.668   9.684  0.6353  0.1810  0.3786
  809MPD2    C111909   0.850   4.713   9.794 -0.2578 -0.1617  0.1805
  809MPD2    C211910   0.847   0.127   9.820 -0.7076  0.3421  0.9114
  809MPD2    C311911   0.777   0.212   9.741 -0.7672 -0.0655  0.7915
  809MPD2    C411912   0.708   0.160   9.635  0.7837 -0.2430 -0.1928
  809MPD2    C511913   0.712   0.024   9.608 -0.1541  0.2139 -0.0134
  809MPD2     H11914   0.895   0.159   9.912  1.3585  0.8947 -0.3583
  809MPD2    H111915   0.649   0.223   9.570  0.7172 -0.6549 -0.5309
  809MPD2    H211916   0.784   4.563   9.654 -2.0035  1.3481 -3.5705
  809MPD2    H311917   0.676   4.712   9.512 -0.4499  1.4141 -0.3428
  809MPD2     N11918   0.763   0.348   9.765 -0.5596 -0.6826 -0.5863
  809MPD2    H511919   0.688   0.394   9.713  2.1075  1.5518 -2.4260
  809MPD2    N111920   0.925   4.628   9.876  0.4374 -0.7942  0.0017
  809MPD2    H711921   0.984   4.667   9.949 -1.0433  2.3379 -0.4995
  810MPD2     C11922   4.684   4.575  11.199  0.5012  0.2223 -0.6372
  810MPD2    C111923   4.610   4.634  11.095  0.2455  0.0965 -0.1219
  810MPD2    C211924   4.633   0.048  11.068 -0.7767  0.9773 -0.4629
  810MPD2    C311925   0.012   0.116  11.129 -0.5030  0.2896  0.2609
  810MPD2    C411926   0.098   0.050  11.212 -0.1740 -0.2662 -0.6128
  810MPD2    C511927   0.059   4.647  11.264 -0.2906  0.5430 -0.3972
  810MPD2     H11928   4.568   0.105  11.003 -0.7271  1.0706 -0.4298
  810MPD2    H111929   0.161   0.114  11.273  0.7115 -0.5761 -1.1954
  810MPD2    H211930   4.649   4.483  11.246 -1.5367  1.4813  0.2987
  810MPD2    H311931   0.108   4.595  11.345 -0.1458  0.8840 -0.2642
  810MPD2     N11932   0.040   0.250  11.106 -0.2572  0.8057  0.4406
  810MPD2    H511933   0.132   0.285  11.132 -1.9154  2.6548  3.7082
  810MPD2    N111934   4.517   4.547  11.035  0.0558  0.3315 -0.3017
  810MPD2    H711935   4.514   4.448  11.057 -2.2610  0.2101 -1.1487
  811MPD2     C11936   3.983   4.306  10.304 -0.3953  0.4498  0.5910
  811MPD2    C111937   4.090   4.384  10.343  0.1001  0.4148 -0.2782
  811MPD2    C211938   4.107   4.501  10.261  0.6552  0.6960 -0.6615
  811MPD2    C311939   4.032   4.521  10.146  0.0410 -0.4815 -0.6933
  811MPD2    C411940   3.931   4.437  10.113  0.3596  0.4669 -0.3468
  811MPD2    C511941   3.902   4.332  10.198  0.0937  0.3139  0.6676
  811MPD2     H11942   4.185   4.573  10.283  0.3248  1.2898 -1.4239
  811MPD2    H111943   3.875   4.446  10.021 -0.8594 -1.0681  0.2424
  811MPD2    H211944   3.952   4.221  10.364 -1.5900 -0.2456 -1.0044
  811MPD2    H311945   3.831   4.259  10.162  2.0387 -0.3996 -1.7956
  811MPD2     N11946   4.061   4.644  10.073  0.1037 -0.1842 -0.4388
  811MPD2    H511947   4.141   4.691  10.112  0.2434 -0.9952  0.2612
  811MPD2    N111948   4.160   4.357  10.456 -0.1071  0.1094  0.2895
  811MPD2    H711949   4.117   4.283  10.510  1.2183 -1.9585 -1.4722
  812MPD2     C11950   3.364   0.168  12.280  0.0124  0.0651  0.0564
  812MPD2    C111951   3.267   0.215  12.362  0.1225 -0.1929 -0.2305
  812MPD2    C211952   3.225   0.139  12.467  0.0799 -0.2961  0.1503
  812MPD2    C311953   3.288   0.023  12.493 -0.4474  0.2446  0.0500
  812MPD2    C411954   3.391   4.698  12.414 -0.9354  0.3672  0.0391
  812MPD2    C511955   3.423   0.042  12.302 -0.0670  0.0910  0.9469
  812MPD2     H11956   3.137   0.164  12.526 -0.9490  0.6525 -1.7936
  812MPD2    H111957   3.448   4.609  12.439  0.4338  0.7089 -1.8301
  812MPD2    H211958   3.397   0.224  12.193 -0.9100 -2.3958 -1.8931
  812MPD2    H311959   3.495   0.001  12.233 -0.7549  1.9800 -0.8757
  812MPD2     N11960   3.249   4.682  12.608  0.4036 -0.5003  0.5518
  812MPD2    H511961   3.172   0.004  12.655  0.5022  0.1273  0.1119
  812MPD2    N111962   3.202   0.330  12.312  1.0459 -0.2986  0.0639
  812MPD2    H711963   3.221   0.368  12.220  0.2995 -0.7327 -0.2781
  813MPD2     C11964   2.874   1.979  13.019  0.2138 -0.0362 -0.9143
  813MPD2    C111965   2.855   2.117  13.006  0.7326 -0.1982 -0.7080
  813MPD2    C211966   2.773   2.183  13.104 -0.1576  0.1629  0.3880
  813MPD2    C311967   2.726   2.125  13.219 -0.6492 -0.1643  0.0237
  813MPD2    C411968   2.758   1.990  13.237 -0.0714  0.2937 -0.3607
  813MPD2    C511969   2.826   1.924  13.132 -0.5014  0.0630 -0.2975
  813MPD2     H11970   2.752   2.289  13.097 -0.2479  0.0577 -0.8551
  813MPD2    H111971   2.724   1.938  13.325  0.5742 -0.4000 -0.5195
  813MPD2    H211972   2.916   1.912  12.946  2.6070 -1.2370  1.5541
  813MPD2    H311973   2.842   1.817  13.135  0.2287  0.2364  1.6915
  813MPD2     N11974   2.666   2.206  13.319  0.0948 -0.3213 -0.3647
  813MPD2    H511975   2.616   2.286  13.282  0.8230  0.0162 -0.6286
  813MPD2    N111976   2.919   2.202  12.907  0.1436  0.4897 -0.5030
  813MPD2    H711977   2.913   2.303  12.917  0.8945  0.3989  0.7953
  814MPD2     C11978   2.808   2.999  12.192  0.1184  0.7191 -0.1591
  814MPD2    C111979   2.851   3.096  12.096  0.3260  0.1023  0.6746
  814MPD2    C211980   2.940   3.191  12.146  0.1985  0.2721 -0.4881
  814MPD2    C311981   2.985   3.199  12.272 -0.4948  0.1232  0.3808
  814MPD2    C411982   2.945   3.099  12.357  0.3132  1.2369 -0.3765
  814MPD2    C511983   2.863   2.995  12.317 -0.4506  1.2913 -0.3318
  814MPD2     H11984   2.976   3.266  12.077  2.2822 -1.2197 -1.0196
  814MPD2    H111985   2.984   3.101  12.458  0.2953  1.0320 -0.3639
  814MPD2    H211986   2.740   2.917  12.172  1.9085 -0.9560  0.7033
  814MPD2    H311987   2.830   2.922  12.390  1.3546 -0.2225 -1.0283
  814MPD2     N11988   3.065   3.304  12.325  0.0672 -0.0733 -0.4542
  814MPD2    H511989   3.090   3.281  12.421 -0.5724  1.9244  0.1857
  814MPD2    N111990   2.801   3.098  11.963 -0.1069 -0.1175  0.4516
  814MPD2    H711991   2.834   3.178  11.910 -1.2749  1.4925  2.1599
  815MPD2     C11992   3.697   1.766  11.722  0.3598 -0.0589  0.1009
  815MPD2    C111993   3.587   1.754  11.644  0.6859 -0.7751 -0.2742
  815MPD2    C211994   3.462   1.781  11.692  0.2265 -0.0224 -0.3285
  815MPD2    C311995   3.449   1.819  11.823 -0.3639  0.1546 -0.1348
  815MPD2    C411996   3.563   1.827  11.904  0.1717  0.1652  0.4482
  815MPD2    C511997   3.683   1.795  11.854 -0.8079 -0.0081 -0.3021
  815MPD2     H11998   3.371   1.783  11.632  0.3305  0.1356 -0.4819
  815MPD2    H111999   3.558   1.849  12.010 -0.7104  1.4974  0.1226
  815MPD2    H212000   3.793   1.751  11.674 -0.9056 -0.4399 -2.2863
  815MPD2    H312001   3.775   1.782  11.911 -1.0764 -0.7044 -0.0290
  815MPD2     N12002   3.322   1.832  11.880 -0.0251  0.1783 -0.0183
  815MPD2    H512003   3.244   1.840  11.815 -1.5198  0.6133  1.8337
  815MPD2    N112004   3.605   1.689  11.523 -0.6128 -0.3331  0.3422
  815MPD2    H712005   3.692   1.639  11.508 -0.1774  0.5581 -0.1292
  816MPD2     C12006   3.136   1.715   0.109  0.7819  0.1010  0.4131
  816MPD2    C112007   3.262   1.748   0.076 -0.0078 -0.1575  0.8108
  816MPD2    C212008   3.348   1.653   0.035 -0.3871  0.7222  0.1164
  816MPD2    C312009   3.313   1.520   0.019  0.0322  0.0322  0.2365
  816MPD2    C412010   3.178   1.483   0.039 -0.1317 -0.8569 -0.4817
  816MPD2    C512011   3.088   1.583   0.087 -0.1131 -0.3837  1.0899
  816MPD2     H12012   3.448   1.680   0.002 -0.2342  0.8891  0.7111
  816MPD2    H112013   3.144   1.381   0.031 -0.2321 -0.8775  0.2320
  816MPD2    H212014   3.056   1.785   0.131 -2.4054 -3.0181 -1.0523
  816MPD2    H312015   2.984   1.555   0.103 -0.4831  0.4174  0.1048
  816MPD2     N12016   3.407   1.430  17.663 -0.0030 -0.3205  0.3510
  816MPD2    H512017   3.505   1.455  17.658 -0.8555  2.8338 -0.6648
  816MPD2    N112018   3.302   1.884   0.093  0.0586 -0.1668 -0.0677
  816MPD2    H712019   3.226   1.945   0.121  1.8670  1.5847  0.9805
  817MPD2     C12020   2.460   2.602   9.655 -0.0797  0.2342 -0.5085
  817MPD2    C112021   2.566   2.668   9.598 -0.2853  0.2502 -0.7514
  817MPD2    C212022   2.544   2.790   9.533 -0.4902  0.4790  0.3030
  817MPD2    C312023   2.419   2.853   9.534  0.3390 -0.5419 -0.6349
  817MPD2    C412024   2.313   2.790   9.598 -0.9149  0.2941 -0.3457
  817MPD2    C512025   2.339   2.665   9.656 -0.2638  0.3442 -0.3966
  817MPD2     H12026   2.624   2.846   9.484 -0.6475  1.9579  1.7295
  817MPD2    H112027   2.220   2.842   9.614 -0.5655  1.1247 -1.0103
  817MPD2    H212028   2.455   2.508   9.709  0.4846  1.5053  1.7675
  817MPD2    H312029   2.256   2.623   9.712 -0.7697 -0.8077 -2.0097
  817MPD2     N12030   2.404   2.987   9.477  1.2112 -0.6933  0.2118
  817MPD2    H512031   2.488   3.025   9.433 -0.1572  1.9659 -0.1097
  817MPD2    N112032   2.705   2.624   9.597  0.1915  0.3936  0.7934
  817MPD2    H712033   2.768   2.688   9.550 -1.9188  2.1196  0.3371
  818MPD2     C12034   1.631   2.215  10.083 -0.4794  0.2661  0.5488
  818MPD2    C112035   1.570   2.148  10.188  0.1991  0.4984 -0.4277
  818MPD2    C212036   1.577   2.010  10.194 -1.0905  0.1115 -0.4263
  818MPD2    C312037   1.634   1.938  10.090 -0.1987  0.1282  0.0441
  818MPD2    C412038   1.680   2.000   9.969  0.2100 -0.6819  1.0701
  818MPD2    C512039   1.692   2.136   9.982 -0.3777  0.1398 -0.9585
  818MPD2     H12040   1.537   1.965  10.284  0.9982 -0.5870  0.1593
  818MPD2    H112041   1.743   1.953   9.895 -0.4409 -0.9709  0.7017
  818MPD2    H212042   1.627   2.324  10.082  0.0755  0.2641 -1.2708
  818MPD2    H312043   1.751   2.183   9.904  0.6617  1.7755  0.8045
  818MPD2     N12044   1.654   1.797  10.096  0.1955  0.0362 -0.0533
  818MPD2    H512045   1.701   1.756  10.016 -2.4196 -0.0931 -1.5379
  818MPD2    N112046   1.523   2.213  10.310 -0.2031 -0.3799  0.0261
  818MPD2    H712047   1.494   2.166  10.396  0.5353 -0.9302 -0.0299
  819MPD2     C12048   0.115   4.615  15.410  0.7779  0.7629 -0.5919
  819MPD2    C112049   0.152   4.486  15.393  0.5844  0.2957  0.8446
  819MPD2    C212050   0.270   4.451  15.456 -0.1717  0.0641  0.9987
  819MPD2    C312051   0.353   4.542  15.520  0.2007 -0.0191 -0.3792
  819MPD2    C412052   0.312   4.676  15.534  0.8312 -0.8052  0.2498
  819MPD2    C512053   0.190   4.710  15.488 -0.0537 -0.1180  0.0065
  819MPD2     H12054   0.306   4.350  15.439 -1.6160  0.1301 -2.5078
  819MPD2    H112055   0.373   0.029  15.581  0.3141 -0.5382  0.4786
  819MPD2    H212056   0.015   4.643  15.378 -0.0432  0.4549  1.6977
  819MPD2    H312057   0.146   0.084  15.508  1.6474  0.7712 -0.6022
  819MPD2     N12058   0.471   4.486  15.572  0.1003  0.2426  0.5636
  819MPD2    H512059   0.483   4.386  15.561  1.0475  0.3166  0.9626
  819MPD2    N112060   0.071   4.416  15.300 -0.6606  0.3506 -0.6169
  819MPD2    H712061   0.003   4.472  15.251 -0.1646  1.4724 -0.0225
  820MPD2     C12062   3.852   4.411  15.005  0.5002  0.2796 -0.3541
  820MPD2    C112063   3.936   4.481  15.096  0.0246 -0.2559 -0.4258
  820MPD2    C212064   4.069   4.443  15.108  0.1937 -0.3913 -0.2330
  820MPD2    C312065   4.124   4.352  15.022  0.2683 -0.1080 -0.6543
  820MPD2    C412066   4.036   4.284  14.936  0.0454  0.5233 -0.0060
  820MPD2    C512067   3.899   4.314  14.929  0.5614  0.7452  0.6051
  820MPD2     H12068   4.123   4.493  15.188 -0.8468 -1.1022  0.9118
  820MPD2    H112069   4.080   4.198  14.887 -0.6545  0.8894 -1.2911
  820MPD2    H212070   3.751   4.445  14.985 -0.0636  0.6992  3.1848
  820MPD2    H312071   3.833   4.253  14.868  1.4534 -0.1182  0.4928
  820MPD2     N12072   4.259   4.308  15.023  0.1968 -0.2660 -0.0820
  820MPD2    H512073   4.282   4.231  14.961  0.1623  0.3034 -0.8047
  820MPD2    N112074   3.864   4.570  15.178 -0.0929 -0.1624  0.8696
  820MPD2    H712075   3.763   4.567  15.173 -0.0173 -2.2194  0.5184
  821MPD2     C12076   4.391   0.964  13.562 -0.3122  0.6402 -0.1883
  821MPD2    C112077   4.529   0.947  13.594  0.0856  0.3511 -0.1349
  821MPD2    C212078   4.622   0.998  13.509  0.3317 -0.3127  0.3562
  821MPD2    C312079   4.591   1.073  13.394 -0.0192  0.0254 -0.4577
  821MPD2    C412080   4.454   1.086  13.363 -0.0706  0.9844  0.6414
  821MPD2    C512081   4.361   1.034  13.452 -0.7633 -0.3471 -0.3909
  821MPD2     H12082   0.001   0.972  13.534  0.4804  1.1919  1.3222
  821MPD2    H112083   4.420   1.140  13.276  0.5050 -0.8191 -0.7020
  821MPD2    H212084   4.312   0.927  13.627  2.4260 -0.6092  2.4407
  821MPD2    H312085   4.255   1.043  13.436 -0.6989  0.5263 -0.3257
  821MPD2     N12086   4.699   1.137  13.318  0.2552 -0.0279  0.0068
  821MPD2    H512087   4.686   1.172  13.224 -0.3408 -1.6692 -0.5319
  821MPD2    N112088   4.570   0.873  13.705  0.6334  0.2195  0.1048
  821MPD2    H712089   4.670   0.852  13.708  1.0722  2.3458  0.0576
  822MPD2     C12090   0.474   1.055  16.053  0.6592 -0.2358 -0.7555
  822MPD2    C112091   0.611   1.079  16.041  0.2306 -0.7372 -0.6554
  822MPD2    C212092   0.655   1.198  16.099  0.1622 -0.4327 -0.1290
  822MPD2    C312093   0.580   1.279  16.182  0.5307 -0.4392 -0.2707
  822MPD2    C412094   0.444   1.248  16.184 -0.0432  0.5371 -0.2080
  822MPD2    C512095   0.394   1.141  16.123 -0.3977  0.7652  0.1354
  822MPD2     H12096   0.763   1.205  16.101  0.1962 -1.2668  0.8134
  822MPD2    H112097   0.370   1.300  16.244 -1.5907 -1.3971 -0.4539
  822MPD2    H212098   0.438   0.957  16.022  2.8651 -0.7092 -1.8208
  822MPD2    H312099   0.288   1.121  16.134 -0.2312 -0.6829 -0.9191
  822MPD2     N12100   0.633   1.402  16.239  0.0636 -0.3864  0.4868
  822MPD2    H512101   0.732   1.423  16.232  0.2048 -1.1542  0.2063
  822MPD2    N112102   0.698   1.001  15.960  0.1396  0.0384 -0.1976
  822MPD2    H712103   0.791   1.037  15.945 -0.0824  1.4355  1.7679
  823MPD2     C12104   1.019   1.713  16.883 -0.7531  0.5916 -0.3109
  823MPD2    C112105   0.916   1.660  16.818  0.0499  0.3860  0.0011
  823MPD2    C212106   0.878   1.531  16.856  0.0133  0.2573 -0.2565
  823MPD2    C312107   0.935   1.459  16.953 -0.2641  1.0109 -0.2323
  823MPD2    C412108   1.027   1.521  17.027 -0.2728  0.2165 -0.3253
  823MPD2    C512109   1.066   1.646  16.996 -0.5520  0.3047 -0.6932
  823MPD2     H12110   0.801   1.485  16.795  1.0161 -1.2114 -0.4212
  823MPD2    H112111   1.082   1.470  17.106 -1.0325  0.4400  0.3551
  823MPD2    H212112   1.054   1.815  16.869  0.3931  0.3980  1.0355
  823MPD2    H312113   1.154   1.692  17.040 -0.1262  0.9207 -2.1847
  823MPD2     N12114   0.923   1.324  16.973 -0.4731  0.1200  0.2558
  823MPD2    H512115   0.985   1.285  17.043  0.7261  2.2999  0.4061
  823MPD2    N112116   0.853   1.728  16.711 -0.4494 -0.1967  0.2312
  823MPD2    H712117   0.903   1.804  16.664  1.8981 -2.0947 -0.3380
  824MPD2     C12118   0.805   0.199  15.641 -0.1871  0.0306  0.0685
  824MPD2    C112119   0.919   0.258  15.692 -0.3980 -0.1599 -0.4869
  824MPD2    C212120   1.043   0.184  15.678 -0.1543 -0.0043 -0.0599
  824MPD2    C312121   1.042   0.058  15.615  0.3333 -0.0238  0.8295
  824MPD2    C412122   0.926   0.011  15.561  0.1043  0.3620 -0.5158
  824MPD2    C512123   0.814   0.088  15.563 -0.2019 -0.4588 -0.3365
  824MPD2     H12124   1.133   0.227  15.719  0.1988 -0.9054  0.1079
  824MPD2    H112125   0.931   4.644  15.500 -1.5089 -0.1654  0.1224
  824MPD2    H212126   0.711   0.253  15.637 -0.7232 -1.0074 -1.1890
  824MPD2    H312127   0.734   0.052  15.500 -0.4595  0.2246 -0.4022
  824MPD2     N12128   1.168   0.001  15.598  0.3801  0.2757 -0.3397
  824MPD2    H512129   1.236   0.037  15.664 -0.1947 -1.4153  1.1917
  824MPD2    N112130   0.913   0.379  15.757 -0.2347 -0.0127 -0.0027
  824MPD2    H712131   1.006   0.418  15.773 -1.4270  2.2278  1.5106
  825MPD2     C12132   1.997   4.551  15.344  0.2676  0.3025  0.8307
  825MPD2    C112133   1.903   4.636  15.390 -0.1413 -0.1051  0.1113
  825MPD2    C212134   1.942   0.044  15.396 -0.6665 -0.5299  1.0661
  825MPD2    C312135   2.064   0.090  15.347 -0.7578  0.1705 -0.1407
  825MPD2    C412136   2.154   4.717  15.294  0.2885  0.0333 -0.8829
  825MPD2    C512137   2.117   4.590  15.299  0.4226  0.2284 -0.2323
  825MPD2     H12138   1.866   0.114  15.428  0.8394  2.7427 -2.5587
  825MPD2    H112139   2.252   0.022  15.257  0.1531  2.6476  0.6797
  825MPD2    H212140   1.976   4.445  15.346 -1.8750  0.7019 -1.0729
  825MPD2    H312141   2.190   4.512  15.278  0.3729 -0.4727  2.1795
  825MPD2     N12142   2.079   0.230  15.326  0.1347 -0.2108  0.1863
  825MPD2    H512143   2.155   0.257  15.264 -0.8995  1.0345 -0.5550
  825MPD2    N112144   1.776   4.582  15.439 -0.5074  0.3492  0.6430
  825MPD2    H712145   1.770   4.481  15.435  1.7478  0.2196  0.5744
  826MPD2     C12146   1.699   0.336  13.214  0.3171  0.1810  0.0157
  826MPD2    C112147   1.821   0.386  13.245 -0.4306 -0.8596 -0.2685
  826MPD2    C212148   1.825   0.509  13.304 -0.1609 -0.4774  0.2141
  826MPD2    C312149   1.707   0.580  13.331  0.7236  0.2609 -0.1153
  826MPD2    C412150   1.586   0.520  13.299 -0.0296 -0.9190  0.6170
  826MPD2    C512151   1.578   0.397  13.246 -0.2006  1.4835 -0.5875
  826MPD2     H12152   1.918   0.562  13.322 -0.4324 -0.0010  0.2106
  826MPD2    H112153   1.493   0.572  13.322  0.8436  0.0584  1.9193
  826MPD2    H212154   1.694   0.242  13.161  3.3791  0.9663 -1.6695
  826MPD2    H312155   1.479   0.356  13.228  0.7098 -1.3192  0.8532
  826MPD2     N12156   1.701   0.704  13.402 -0.2152 -0.4883  0.4027
  826MPD2    H512157   1.622   0.731  13.460  1.0332 -0.6205  2.1793
  826MPD2    N112158   1.930   0.316  13.187 -0.0666 -0.0372  0.7678
  826MPD2    H712159   1.923   0.246  13.113 -1.1137 -1.0702  1.8350
  827MPD2     C12160   2.105   1.346   9.939  0.5812  0.4486  0.2284
  827MPD2    C112161   2.129   1.224   9.990 -0.2940 -0.8050 -0.4699
  827MPD2    C212162   2.023   1.136   9.990 -0.8592  0.1253  0.1431
  827MPD2    C312163   1.901   1.172   9.917 -0.0120  0.3152 -0.2058
  827MPD2    C412164   1.894   1.294   9.859 -0.5277 -0.4941 -0.5419
  827MPD2    C512165   1.988   1.388   9.882  0.3072 -0.0877 -0.3875
  827MPD2     H12166   2.034   1.037  10.034 -0.0163 -0.2830 -0.9984
  827MPD2    H112167   1.809   1.328   9.800  0.2699 -1.0532 -2.0057
  827MPD2    H212168   2.184   1.419   9.937 -0.0130  1.1333  1.6450
  827MPD2    H312169   1.977   1.484   9.833 -0.1652  0.2639  0.4157
  827MPD2     N12170   1.794   1.072   9.905 -0.0348  0.0078  0.3441
  827MPD2    H512171   1.819   0.984   9.949 -0.3950  0.4923  1.5023
  827MPD2    N112172   2.255   1.198  10.056 -0.3751 -0.2104 -0.2091
  827MPD2    H712173   2.325   1.272  10.058 -0.2725 -0.3156  0.1697
  828MPD2     C12174   0.499   1.310  12.526  0.3071  0.0774  0.7572
  828MPD2    C112175   0.566   1.316  12.407 -0.3563  0.2125 -0.4655
  828MPD2    C212176   0.701   1.330  12.407 -0.0578 -0.8202  0.2871
  828MPD2    C312177   0.780   1.332  12.519  0.6427 -0.8629  0.3791
  828MPD2    C412178   0.717   1.324  12.644  0.5777  0.0523 -0.1354
  828MPD2    C512179   0.578   1.296  12.640  0.0737 -0.1599  0.4735
  828MPD2     H12180   0.749   1.350  12.312  1.5195 -0.7548  1.1123
  828MPD2    H112181   0.777   1.329  12.735 -0.2881 -4.2862  0.7036
  828MPD2    H212182   0.397   1.289  12.555 -0.1855  1.2191 -0.1685
  828MPD2    H312183   0.528   1.276  12.733 -1.5646 -1.0353 -0.5937
  828MPD2     N12184   0.919   1.342  12.511 -0.0129  0.3249  0.6470
  828MPD2    H512185   0.983   1.353  12.589 -0.1100  0.0660  0.7605
  828MPD2    N112186   0.498   1.303  12.286 -0.3174 -0.0001 -0.1697
  828MPD2    H712187   0.556   1.326  12.206 -0.1967 -0.4978 -0.2258
  829MPD2     C12188   0.861   1.378  11.522 -0.2250  0.2317  0.2008
  829MPD2    C112189   0.732   1.368  11.473 -0.0515 -0.1456  0.2757
  829MPD2    C212190   0.623   1.356  11.557  0.3354 -0.3551  0.5078
  829MPD2    C312191   0.646   1.323  11.690  0.1075  0.0034  0.3918
  829MPD2    C412192   0.781   1.324  11.730  0.8428  0.0486  0.0598
  829MPD2    C512193   0.889   1.353  11.651 -0.6646 -0.2466 -0.3749
  829MPD2     H12194   0.520   1.356  11.524  0.2233  0.9079  0.8551
  829MPD2    H112195   0.800   1.316  11.837  3.0467  3.6119 -0.0907
  829MPD2    H212196   0.941   1.412  11.458 -0.5975  1.1572  0.2301
  829MPD2    H312197   0.986   1.359  11.699 -0.9511  1.5114 -0.0059
  829MPD2     N12198   0.553   1.296  11.797 -0.2969 -0.2664 -0.0808
  829MPD2    H512199   0.580   1.247  11.881  3.2601  2.0730  0.1544
  829MPD2    N112200   0.716   1.386  11.328  0.4028  0.5640 -0.1033
  829MPD2    H712201   0.799   1.394  11.269  0.0563 -0.4825 -0.7371
  830MPD2     C12202   1.102   3.923  15.606 -0.0746 -0.2340 -0.4367
  830MPD2    C112203   1.053   4.042  15.558  0.5360 -0.1271 -0.5437
  830MPD2    C212204   1.102   4.076  15.431  0.4777 -0.3796 -0.7529
  830MPD2    C312205   1.210   4.013  15.366 -0.0317  0.2848  0.3068
  830MPD2    C412206   1.255   3.892  15.414  0.2076 -0.2592 -0.6399
  830MPD2    C512207   1.195   3.849  15.529 -0.5035  0.1595 -0.3629
  830MPD2     H12208   1.066   4.167  15.384  0.6648 -0.1909 -0.5317
  830MPD2    H112209   1.327   3.836  15.354  0.3429 -0.2497 -0.4878
  830MPD2    H212210   1.088   3.888  15.707 -0.8326  0.9476 -0.1419
  830MPD2    H312211   1.232   3.755  15.568  0.5070  1.6251  2.2399
  830MPD2     N12212   1.286   4.079  15.264  0.0411 -0.8217 -0.4564
  830MPD2    H512213   1.373   4.035  15.237  0.6038  0.5703 -0.9231
  830MPD2    N112214   0.965   4.123  15.637 -0.0127 -0.6065 -0.3024
  830MPD2    H712215   0.943   4.098  15.733 -0.4832 -0.6747 -0.4271
  831MPD2     C12216   1.024   1.391  16.376  0.2543  0.3695 -0.5349
  831MPD2    C112217   1.074   1.277  16.323 -0.4096 -0.2355  0.0823
  831MPD2    C212218   1.001   1.167  16.348 -0.1774  0.0625  0.2301
  831MPD2    C312219   0.887   1.170  16.429 -0.0518 -0.6974 -0.2226
  831MPD2    C412220   0.860   1.286  16.505 -0.1966 -0.7692 -0.4430
  831MPD2    C512221   0.927   1.401  16.472  0.1527 -0.0555 -0.2300
  831MPD2     H12222   1.016   1.082  16.283 -0.7782  1.1720 -1.3703
  831MPD2    H112223   0.766   1.309  16.554 -0.4591 -0.7686 -0.9444
  831MPD2    H212224   1.065   1.487  16.346 -1.6192  0.5445 -2.4980
  831MPD2    H312225   0.908   1.495  16.521  1.0267 -0.3803  0.7363
  831MPD2     N12226   0.786   1.068  16.428  0.2015  0.1927 -0.5926
  831MPD2    H512227   0.703   1.086  16.483 -0.1298 -1.5820 -0.4955
  831MPD2    N112228   1.173   1.272  16.227  0.3773 -0.3750 -0.4132
  831MPD2    H712229   1.172   1.355  16.168 -2.1998 -1.0369 -1.3310
  832MPD2     C12230   4.301   2.855  17.312 -0.8170  0.1587  0.3293
  832MPD2    C112231   4.289   2.942  17.204  0.1499  0.3984 -0.4742
  832MPD2    C212232   4.171   2.934  17.127  0.7160 -0.0525  0.1217
  832MPD2    C312233   4.079   2.838  17.160 -0.9391 -0.1153 -0.0295
  832MPD2    C412234   4.097   2.752  17.270 -0.2352  0.4158  0.3399
  832MPD2    C512235   4.206   2.763  17.346 -0.4578 -0.3423 -0.3408
  832MPD2     H12236   4.169   2.984  17.031  2.9507  0.5694  0.4075
  832MPD2    H112237   4.018   2.679  17.286 -0.1454  0.4336  0.8668
  832MPD2    H212238   4.384   2.867  17.380 -0.0985 -0.4541 -0.4374
  832MPD2    H312239   4.221   2.699  17.433  0.6365 -0.4172 -0.5865
  832MPD2     N12240   3.965   2.814  17.077 -0.3353  0.0128 -0.3077
  832MPD2    H512241   3.907   2.737  17.110 -0.2440 -0.9091 -2.2428
  832MPD2    N112242   4.382   3.038  17.196 -0.4839 -0.0645  0.4804
  832MPD2    H712243   4.462   3.039  17.258 -0.6880 -2.9213  0.7561
  833MPD2     C12244   1.831   4.276  12.503  0.4140  0.0099 -0.1618
  833MPD2    C112245   1.716   4.214  12.481 -1.0559  0.2890  0.4626
  833MPD2    C212246   1.725   4.105  12.398  0.3795  0.3488 -0.0134
  833MPD2    C312247   1.840   4.074  12.320  0.3546 -0.2292 -0.4036
  833MPD2    C412248   1.952   4.146  12.343 -0.4625 -0.5205 -0.4410
  833MPD2    C512249   1.951   4.243  12.443  0.3924 -0.1847  0.1067
  833MPD2     H12250   1.638   4.040  12.390 -0.0975  0.6032  2.9862
  833MPD2    H112251   2.044   4.125  12.290  1.4543  3.2073  1.3970
  833MPD2    H212252   1.827   4.361  12.571 -1.9898 -0.4283  0.2215
  833MPD2    H312253   2.032   4.307  12.475 -1.1024  2.0447 -0.5405
  833MPD2     N12254   1.845   3.983  12.216  0.6370 -0.3611  0.9791
  833MPD2    H512255   1.935   3.958  12.175 -0.3629 -2.3833 -0.0139
  833MPD2    N112256   1.608   4.266  12.547  0.0075  0.5740 -0.5743
  833MPD2    H712257   1.610   4.361  12.582 -0.1806 -0.0396  1.1103
  834MPD2     C12258   1.330   3.112  11.840  0.5476  0.1862 -0.6406
  834MPD2    C112259   1.324   3.200  11.733 -0.5667  0.5810 -0.1368
  834MPD2    C212260   1.387   3.321  11.746 -0.0006 -0.3498 -0.1870
  834MPD2    C312261   1.461   3.361  11.857 -0.1312 -0.4731  0.4596
  834MPD2    C412262   1.473   3.269  11.959 -0.6156  0.3571  0.5388
  834MPD2    C512263   1.400   3.148  11.949 -0.3350  0.1512 -0.6329
  834MPD2     H12264   1.378   3.394  11.667  0.3943  1.8437  1.7968
  834MPD2    H112265   1.527   3.296  12.049 -0.1479  0.3072  0.2764
  834MPD2    H212266   1.267   3.024  11.844 -0.1407  0.7166  0.1237
  834MPD2    H312267   1.401   3.083  12.036 -0.0562 -0.5461 -1.1610
  834MPD2     N12268   1.522   3.490  11.862 -0.4037  0.0624  0.2288
  834MPD2    H512269   1.515   3.542  11.775  1.1140 -0.1521 -0.0157
  834MPD2    N112270   1.238   3.152  11.634 -0.4039  0.0709 -0.4620
  834MPD2    H712271   1.198   3.061  11.653  0.9048 -0.5270 -0.5510
  835MPD2     C12272   1.376   1.224  11.348  0.8148 -0.1477  0.4708
  835MPD2    C112273   1.278   1.297  11.278  0.3021 -0.0697 -0.0979
  835MPD2    C212274   1.220   1.407  11.340  0.3449 -0.3302 -0.0226
  835MPD2    C312275   1.264   1.444  11.468  0.0106 -0.4708  1.0192
  835MPD2    C412276   1.363   1.378  11.530 -0.0725  0.2703 -0.5033
  835MPD2    C512277   1.418   1.264  11.473  0.5888  0.0449 -0.4890
  835MPD2     H12278   1.157   1.467  11.275  2.4960 -0.1477 -1.9195
  835MPD2    H112279   1.394   1.408  11.630  1.2336 -0.9979 -0.5205
  835MPD2    H212280   1.431   1.141  11.306  0.3304 -1.0358  1.5836
  835MPD2    H312281   1.492   1.204  11.526 -0.2457  0.9546  1.7119
  835MPD2     N12282   1.200   1.552  11.539 -0.5390 -0.4449  0.3478
  835MPD2    H512283   1.236   1.575  11.631 -0.0213  0.7750 -0.1510
  835MPD2    N112284   1.229   1.253  11.150 -0.0193  0.4916 -0.3487
  835MPD2    H712285   1.160   1.312  11.105 -0.8769  0.7551  1.3097
  836MPD2     C12286   0.411   1.700  11.513 -0.0374 -0.5609 -0.3480
  836MPD2    C112287   0.477   1.682  11.632 -0.1892  0.1313  0.0314
  836MPD2    C212288   0.404   1.656  11.748  0.2274 -0.2527  0.3489
  836MPD2    C312289   0.265   1.645  11.744  0.5412  0.1311 -0.3218
  836MPD2    C412290   0.202   1.674  11.631  0.0099 -0.4400 -0.0433
  836MPD2    C512291   0.278   1.702  11.516  0.1164 -0.2634  0.2695
  836MPD2     H12292   0.455   1.650  11.843  2.6477  0.6096 -0.9066
  836MPD2    H112293   0.095   1.658  11.625 -0.3094  2.1715 -1.7910
  836MPD2    H212294   0.462   1.726  11.421  0.7621  0.5521  0.4096
  836MPD2    H312295   0.228   1.719  11.421 -0.1733 -1.1969  0.2513
  836MPD2     N12296   0.179   1.620  11.855  1.0474  0.3375  0.0574
  836MPD2    H512297   0.082   1.643  11.836  0.4499 -2.4240 -0.2912
  836MPD2    N112298   0.620   1.691  11.632 -0.8317  0.1761  0.1464
  836MPD2    H712299   0.675   1.698  11.547 -0.6359  3.0259  0.5182
  837MPD2     C12300   3.992   0.673  10.252 -0.2482 -0.5928 -1.0962
  837MPD2    C112301   3.964   0.643  10.119  0.8110 -0.0579 -0.5490
  837MPD2    C212302   3.895   0.736  10.044 -0.2466  0.1444 -0.2258
  837MPD2    C312303   3.859   0.860  10.096 -0.7150 -0.4753  0.2695
  837MPD2    C412304   3.884   0.891  10.228 -0.1357  0.2482 -0.0349
  837MPD2    C512305   3.945   0.793  10.301 -0.1410  0.0583  0.1944
  837MPD2     H12306   3.866   0.705   9.944  1.4287 -1.7762 -0.1030
  837MPD2    H112307   3.833   0.973  10.279  1.0317  0.4216  0.8646
  837MPD2    H212308   4.046   0.599  10.310  1.2225 -0.1165 -1.8741
  837MPD2    H312309   3.942   0.801  10.409 -3.0164 -1.0465  0.1873
  837MPD2     N12310   3.785   0.938  10.007 -0.4860 -0.0467  0.8133
  837MPD2    H512311   3.773   0.909   9.910  2.4257 -2.5685  1.1833
  837MPD2    N112312   3.993   0.526  10.044  0.4622 -0.6891  0.7968
  837MPD2    H712313   3.953   0.517   9.951 -1.5038  0.5041  1.5210
  838MPD2     C12314   2.775   3.786  11.464 -0.0278  0.5456 -0.0375
  838MPD2    C112315   2.742   3.790  11.605 -0.3269 -0.4010 -1.0417
  838MPD2    C212316   2.630   3.726  11.646  1.1672 -0.0944  0.8730
  838MPD2    C312317   2.551   3.665  11.549 -0.5510 -0.4167 -0.1269
  838MPD2    C412318   2.587   3.657  11.414 -0.7151 -0.9927  0.5083
  838MPD2    C512319   2.700   3.714  11.379  0.1369 -0.9890  0.1787
  838MPD2     H12320   2.580   3.731  11.742  2.1893  0.7831  1.3559
  838MPD2    H112321   2.529   3.597  11.346 -0.5230 -1.0044  0.3532
  838MPD2    H212322   2.862   3.837  11.423  0.0897 -0.1011 -0.5941
  838MPD2    H312323   2.726   3.711  11.274  0.9313 -1.1286  0.3781
  838MPD2     N12324   2.428   3.606  11.593 -0.7742  0.5884 -0.4999
  838MPD2    H512325   2.422   3.588  11.692  4.0807 -3.6393 -0.9531
  838MPD2    N112326   2.826   3.844  11.705 -0.2886 -0.2509 -0.0541
  838MPD2    H712327   2.778   3.874  11.790 -1.4864 -0.4649 -0.6561
  839MPD2     C12328   2.486   3.266  11.673 -0.1249 -0.1014 -0.2974
  839MPD2    C112329   2.533   3.276  11.541 -0.0500  0.4165 -0.3712
  839MPD2    C212330   2.660   3.331  11.522  0.1863  1.0434  0.0346
  839MPD2    C312331   2.732   3.377  11.630 -0.7433 -0.1031 -0.7261
  839MPD2    C412332   2.691   3.363  11.757 -0.6560 -0.2869 -0.1818
  839MPD2    C512333   2.566   3.312  11.772  0.6036 -0.6550 -0.4478
  839MPD2     H12334   2.695   3.354  11.422  0.2861 -0.5325 -0.2915
  839MPD2    H112335   2.761   3.373  11.839 -0.4298  1.9279 -0.6533
  839MPD2    H212336   2.383   3.238  11.693 -0.4699  0.8100 -0.8049
  839MPD2    H312337   2.519   3.307  11.869 -0.6603 -0.6937 -1.0572
  839MPD2     N12338   2.858   3.440  11.617 -0.2406  0.1469 -0.3384
  839MPD2    H512339   2.906   3.484  11.695 -0.4281 -1.7424  0.8349
  839MPD2    N112340   2.456   3.243  11.434 -0.3349 -0.1746  0.3576
  839MPD2    H712341   2.504   3.227  11.346 -1.7473 -1.7010 -0.1432
  840MPD2     C12342   2.766   1.528  10.062 -0.2333  0.1673  0.0043
  840MPD2    C112343   2.770   1.468  10.182 -0.7193 -0.1390  0.4415
  840MPD2    C212344   2.814   1.542  10.293 -0.1834 -0.2119 -0.4219
  840MPD2    C312345   2.879   1.661  10.278  0.9003  0.2571  0.1593
  840MPD2    C412346   2.888   1.713  10.156 -0.6257 -0.1444  0.4273
  840MPD2    C512347   2.829   1.648  10.050 -0.3705  0.2126 -0.1706
  840MPD2     H12348   2.807   1.504  10.395 -0.5780 -0.2282 -0.4542
  840MPD2    H112349   2.940   1.806  10.136 -0.0927 -1.1441 -2.8655
  840MPD2    H212350   2.722   1.480   9.975 -0.8394  0.8699 -0.0811
  840MPD2    H312351   2.849   1.693   9.953 -1.7665  2.1875  0.4501
  840MPD2     N12352   2.941   1.738  10.377  0.8574  0.1293 -0.4597
  840MPD2    H512353   2.984   1.827  10.356 -1.0424  0.9534 -0.7888
  840MPD2    N112354   2.701   1.343  10.193 -0.6152  0.3721  0.1469
  840MPD2    H712355   2.660   1.294  10.114 -0.1679  0.1904  0.0289
  841MPD2     C12356   2.913   1.194  15.188  0.3565  0.1996 -0.4255
  841MPD2    C112357   2.845   1.183  15.067 -0.2911  0.5983  0.7140
  841MPD2    C212358   2.799   1.289  15.000 -0.4881 -0.4155 -0.7207
  841MPD2    C312359   2.822   1.414  15.038 -0.3437 -0.4391  0.0165
  841MPD2    C412360   2.886   1.429  15.167 -0.4491 -0.6957  0.5187
  841MPD2    C512361   2.931   1.318  15.238  0.7820  0.2244  0.0030
  841MPD2     H12362   2.761   1.277  14.899 -2.1602 -1.6756  0.0502
  841MPD2    H112363   2.907   1.531  15.198  0.1377 -0.7667  0.3468
  841MPD2    H212364   2.942   1.112  15.252  0.5424  0.2226 -0.4820
  841MPD2    H312365   2.980   1.340  15.332 -1.3659  0.0001  1.1679
  841MPD2     N12366   2.786   1.516  14.944 -0.6394  0.6362 -0.1429
  841MPD2    H512367   2.728   1.491  14.865  0.2931 -1.4040 -0.1752
  841MPD2    N112368   2.822   1.056  15.000  0.4346  0.6348  0.5184
  841MPD2    H712369   2.773   1.058  14.912 -1.3746  2.7552  1.5722
  842MPD2     C12370   3.513   3.181  16.798 -0.0359 -0.0996  0.2538
  842MPD2    C112371   3.431   3.085  16.855  1.2522 -0.4327  0.6503
  842MPD2    C212372   3.474   3.023  16.971 -0.0817  0.4420  0.3288
  842MPD2    C312373   3.572   3.087  17.041 -0.0735 -0.2824  0.0521
  842MPD2    C412374   3.658   3.181  16.980 -0.0247 -0.4801 -0.2144
  842MPD2    C512375   3.629   3.217  16.855  0.0625  0.0573 -0.9851
  842MPD2     H12376   3.415   2.945  17.017 -0.0700  1.5757  2.2717
  842MPD2    H112377   3.739   3.230  17.033 -1.1025  3.0580 -1.8688
  842MPD2    H212378   3.491   3.216  16.698  0.2555  0.4761  0.3909
  842MPD2    H312379   3.689   3.281  16.791 -2.1472  0.4020 -2.7017
  842MPD2     N12380   3.604   3.053  17.178  0.3372 -0.4867  0.2562
  842MPD2    H512381   3.690   3.089  17.215  1.3338 -0.6691 -1.8776
  842MPD2    N112382   3.316   3.042  16.785 -0.6392 -0.2635  0.8853
  842MPD2    H712383   3.304   3.085  16.694  0.1776  1.0752  1.4050
  843MPD2     C12384   0.193   3.249  17.352  0.1972  0.2070  0.0725
  843MPD2    C112385   0.290   3.195  17.438  0.7782  0.6853  0.3285
  843MPD2    C212386   0.414   3.256  17.441  0.0895 -0.2633  0.1920
  843MPD2    C312387   0.452   3.354  17.355 -0.0906 -0.5621 -0.0051
  843MPD2    C412388   0.358   3.403  17.267 -0.3319 -0.3000  0.3931
  843MPD2    C512389   0.237   3.343  17.261  0.3575 -0.2063  0.3134
  843MPD2     H12390   0.492   3.234  17.512  1.3581  1.4780 -0.6693
  843MPD2    H112391   0.399   3.469  17.191  0.1875 -0.4383  0.5490
  843MPD2    H212392   0.094   3.206  17.342  0.3694 -0.6767  2.1484
  843MPD2    H312393   0.158   3.379  17.195  0.7344 -2.2754 -1.2779
  843MPD2     N12394   0.581   3.406  17.362 -0.6349 -0.1994 -0.3595
  843MPD2    H512395   0.585   3.506  17.344 -3.9358 -0.0381 -0.1481
  843MPD2    N112396   0.241   3.094  17.525 -0.1383  0.3057 -0.1031
  843MPD2    H712397   0.141   3.075  17.521 -0.4750  1.6247  2.3188
  844MPD2     C12398   3.799   2.186  17.034 -0.1994  0.1925  0.3552
  844MPD2    C112399   3.810   2.205  16.898 -0.0295  0.3562 -0.2095
  844MPD2    C212400   3.895   2.302  16.849  1.1894 -0.2754  0.0517
  844MPD2    C312401   3.955   2.388  16.938 -0.1679  0.5056 -0.7721
  844MPD2    C412402   3.929   2.366  17.069  0.2688 -0.1567  0.5743
  844MPD2    C512403   3.850   2.274  17.122  0.4337  0.3307  0.2417
  844MPD2     H12404   3.916   2.309  16.743  2.5097 -0.8114  0.2822
  844MPD2    H112405   3.962   2.437  17.145 -1.9214 -1.0320  2.3638
  844MPD2    H212406   3.733   2.116  17.085  0.1460  1.1281  2.1051
  844MPD2    H312407   3.834   2.269  17.229 -1.5845  0.0887 -0.0770
  844MPD2     N12408   4.038   2.492  16.895  0.8450  0.1730 -0.4147
  844MPD2    H512409   4.033   2.501  16.794 -0.5265  3.6103 -0.0397
  844MPD2    N112410   3.752   2.109  16.811 -0.0918 -0.1954  0.4562
  844MPD2    H712411   3.765   2.133  16.714 -1.3339  0.1682  0.3784
  845MPD2     C12412   4.156   3.334  16.467  0.2633 -0.0644 -0.4515
  845MPD2    C112413   4.223   3.349  16.582 -0.0411 -0.3257  0.3906
  845MPD2    C212414   4.269   3.234  16.643 -0.7572 -0.0823 -0.3918
  845MPD2    C312415   4.249   3.110  16.593 -0.8644 -0.1171 -0.5837
  845MPD2    C412416   4.185   3.097  16.473 -0.6649  0.2592 -0.5216
  845MPD2    C512417   4.150   3.212  16.407  0.4989 -0.6765 -0.0769
  845MPD2     H12418   4.320   3.245  16.738  0.6477  3.2745 -1.5272
  845MPD2    H112419   4.184   3.000  16.426  0.0820  0.3805 -0.7874
  845MPD2    H212420   4.128   3.419  16.407 -0.3687  1.4071  1.9253
  845MPD2    H312421   4.106   3.189  16.310 -1.2518  1.6015  0.1641
  845MPD2     N12422   4.293   2.994  16.661 -0.3583 -0.1093  0.3332
  845MPD2    H512423   4.352   3.023  16.739 -1.4836 -2.2905  1.9709
  845MPD2    N112424   4.222   3.473  16.650  0.3831 -0.3019  0.7703
  845MPD2    H712425   4.153   3.537  16.612  0.4518  0.3973  1.8128
  846MPD2     C12426   1.013   3.134  13.537  0.5558 -0.4230  0.7778
  846MPD2    C112427   0.927   3.241  13.549  0.6353  0.3265  0.0539
  846MPD2    C212428   0.891   3.276  13.673 -1.0478 -0.1502 -0.1315
  846MPD2    C312429   0.942   3.221  13.792  0.6886  0.6986 -0.0243
  846MPD2    C412430   1.038   3.122  13.774 -0.2076  0.0185  0.1596
  846MPD2    C512431   1.066   3.071  13.653 -0.9606  0.1055  0.4109
  846MPD2     H12432   0.819   3.357  13.685 -0.4385  0.6025 -1.5640
  846MPD2    H112433   1.088   3.090  13.864  0.8077  0.6369 -0.1849
  846MPD2    H212434   1.046   3.086  13.446  1.5125 -0.1052  0.9559
  846MPD2    H312435   1.140   2.991  13.647  0.5163  1.4574  0.6832
  846MPD2     N12436   0.886   3.267  13.916 -0.2834  0.0110  0.3111
  846MPD2    H512437   0.814   3.339  13.917 -0.1420  0.1688 -1.2399
  846MPD2    N112438   0.877   3.313  13.441 -0.0155 -0.7003 -0.1184
  846MPD2    H712439   0.816   3.392  13.461  1.2097  0.2476 -0.0814
  847MPD2     C12440   1.622   4.711  13.956  0.2154 -0.0125  0.1363
  847MPD2    C112441   1.580   0.048  14.074 -0.1349  0.4914 -0.7125
  847MPD2    C212442   1.668   0.059  14.185 -0.1904 -0.4809  0.5786
  847MPD2    C312443   1.797   0.013  14.170 -0.4428 -0.1130 -1.1685
  847MPD2    C412444   1.846   4.681  14.049 -0.0641  0.2005  0.5690
  847MPD2    C512445   1.757   4.663  13.945 -0.3793  0.6735 -0.4417
  847MPD2     H12446   1.630   0.097  14.280 -1.5198  1.5147 -0.7374
  847MPD2    H112447   1.950   4.651  14.050 -0.8902 -2.6148  1.0787
  847MPD2    H212448   1.561   4.693  13.868  2.3612  1.2490 -1.6137
  847MPD2    H312449   1.798   4.616  13.856  0.1779 -1.0284  0.7221
  847MPD2     N12450   1.875   0.034  14.285 -0.1949 -0.1389 -0.0732
  847MPD2    H512451   1.820   0.074  14.361 -2.0007  0.6973 -1.8171
  847MPD2    N112452   1.443   0.075  14.107 -0.1235 -0.2523 -0.1312
  847MPD2    H712453   1.423   0.122  14.195  0.5812 -1.7138  0.8011
  848MPD2     C12454   3.617   2.762  16.330 -1.0484  0.4938  0.8753
  848MPD2    C112455   3.671   2.878  16.395 -0.7325  0.1965  0.1641
  848MPD2    C212456   3.695   2.992  16.320  1.1746  0.6438  0.0287
  848MPD2    C312457   3.672   2.994  16.180  0.1232  0.1454 -0.8803
  848MPD2    C412458   3.615   2.879  16.119  0.6060 -0.6411 -0.3484
  848MPD2    C512459   3.589   2.769  16.194  0.2398 -0.2803 -0.0878
  848MPD2     H12460   3.725   3.082  16.372 -1.1286  1.6462 -0.4259
  848MPD2    H112461   3.596   2.874  16.013  0.6632  2.4363 -0.4814
  848MPD2    H212462   3.609   2.664  16.374  4.6027 -0.1574  0.4730
  848MPD2    H312463   3.534   2.687  16.149 -1.4038  0.6640  0.2440
  848MPD2     N12464   3.653   3.110  16.102 -0.6504 -0.2850  0.1991
  848MPD2    H512465   3.633   3.083  16.006  1.9194 -1.4791  0.0019
  848MPD2    N112466   3.691   2.881  16.536 -0.2359 -0.3002 -0.4247
  848MPD2    H712467   3.746   2.953  16.583 -1.0263 -2.2969  3.5603
  849MPD2     C12468   2.767   2.163  14.205  0.0745 -0.2950  0.6849
  849MPD2    C112469   2.897   2.138  14.164  0.3404 -0.0777  0.3741
  849MPD2    C212470   2.999   2.136  14.250 -0.3475 -0.1263 -0.3204
  849MPD2    C312471   2.977   2.165  14.382  0.6815 -0.1542 -0.0853
  849MPD2    C412472   2.854   2.194  14.429 -0.5585  0.4896 -0.1187
  849MPD2    C512473   2.751   2.200  14.338 -0.3908  0.6763 -0.2240
  849MPD2     H12474   3.097   2.111  14.211 -0.7455 -3.3186  0.7386
  849MPD2    H112475   2.836   2.215  14.534  1.4162 -2.4851  0.8252
  849MPD2    H212476   2.686   2.162  14.133  0.6353 -0.2227  0.0525
  849MPD2    H312477   2.656   2.236  14.376 -0.8290 -1.3899  0.6292
  849MPD2     N12478   3.093   2.168  14.459  0.1332 -0.9212 -0.0939
  849MPD2    H512479   3.178   2.125  14.422  0.1761  0.0461 -1.1203
  849MPD2    N112480   2.930   2.111  14.026 -0.1311 -0.2675  0.9362
  849MPD2    H712481   3.027   2.106  13.997 -0.0114  2.8144  0.7787
  850MPD2     C12482   0.817   0.268  14.640  0.3941 -0.2078 -0.0376
  850MPD2    C112483   0.804   0.332  14.760 -0.1087  0.0354 -0.5627
  850MPD2    C212484   0.915   0.366  14.830  0.5862  0.6489 -0.3548
  850MPD2    C312485   1.040   0.333  14.787 -0.0613 -0.1762  0.6545
  850MPD2    C412486   1.053   0.264  14.667  0.8561  0.2870  0.3638
  850MPD2    C512487   0.941   0.231  14.598 -0.5587  0.2438 -0.2461
  850MPD2     H12488   0.897   0.424  14.920  1.8378 -0.4294  0.5925
  850MPD2    H112489   1.151   0.235  14.631  0.9246  0.4877  0.3903
  850MPD2    H212490   0.734   0.226  14.584  1.3870  0.6076 -2.1186
  850MPD2    H312491   0.952   0.184  14.501 -0.3191 -1.7710  0.7537
  850MPD2     N12492   1.157   0.365  14.859 -0.1729  0.2462  0.1559
  850MPD2    H512493   1.247   0.341  14.818  0.9717  2.0833  1.6216
  850MPD2    N112494   0.668   0.371  14.782 -0.0194  0.1798 -0.2099
  850MPD2    H712495   0.611   0.357  14.700  0.7218 -2.0277 -0.3623
  851MPD2     C12496   1.219   0.295  15.348  0.2632 -0.1240 -0.0470
  851MPD2    C112497   1.128   0.206  15.288 -0.3928 -0.0523  0.2755
  851MPD2    C212498   1.172   0.099  15.217 -0.4694  0.6257 -0.2263
  851MPD2    C312499   1.309   0.071  15.216  0.7760 -0.1002  0.1625
  851MPD2    C412500   1.397   0.152  15.281 -0.1257  0.4203  0.2565
  851MPD2    C512501   1.348   0.260  15.349 -0.4605  0.5791  0.0667
  851MPD2     H12502   1.103   0.040  15.158 -2.8878  0.7918  2.4726
  851MPD2    H112503   1.504   0.132  15.286 -0.2996 -0.2696  1.1132
  851MPD2    H212504   1.174   0.378  15.401 -0.3560 -0.2832 -0.3183
  851MPD2    H312505   1.415   0.320  15.411  2.4785 -4.0096  1.3192
  851MPD2     N12506   1.349   4.672  15.163 -0.2492  0.3910 -0.5485
  851MPD2    H512507   1.278   4.606  15.133 -0.9988  0.2358  1.5223
  851MPD2    N112508   0.998   0.257  15.269  0.6683 -0.2203  0.4820
  851MPD2    H712509   0.984   0.352  15.303 -2.1882 -0.0438 -1.1912
  852MPD2     C12510   0.336   2.447   9.624  0.2314  0.3689 -0.4398
  852MPD2    C112511   0.403   2.468   9.742 -0.5684  1.1661  0.7561
  852MPD2    C212512   0.492   2.577   9.759 -0.4545 -0.1921  0.1054
  852MPD2    C312513   0.507   2.671   9.659 -0.9259  0.5867  0.2894
  852MPD2    C412514   0.440   2.647   9.541  0.4500  0.0223  0.3340
  852MPD2    C512515   0.349   2.543   9.527  0.5178 -0.6547  0.1623
  852MPD2     H12516   0.540   2.595   9.855 -0.5952  1.9975 -0.2311
  852MPD2    H112517   0.451   2.712   9.454  1.6615  1.6460  1.7026
  852MPD2    H212518   0.258   2.373   9.612  0.1452  0.0046  2.4017
  852MPD2    H312519   0.308   2.525   9.428  0.0283 -1.5041  0.5168
  852MPD2     N12520   0.588   2.780   9.690  0.1425 -0.7144  0.7006
  852MPD2    H512521   0.610   2.797   9.788  1.2639 -0.6658  0.4415
  852MPD2    N112522   0.382   2.392   9.855  0.4217  0.3965  0.2507
  852MPD2    H712523   0.446   2.410   9.931 -0.0922  0.0223  0.7786
  853MPD2     C12524   2.663   2.569  12.292  0.4499 -0.0572  0.4143
  853MPD2    C112525   2.529   2.598  12.281  0.7618  0.0694 -0.1505
  853MPD2    C212526   2.454   2.545  12.169  0.6652 -0.2406 -0.2776
  853MPD2    C312527   2.524   2.481  12.065  0.0693 -0.9641  0.8420
  853MPD2    C412528   2.661   2.466  12.074  0.3889 -0.3118  0.8028
  853MPD2    C512529   2.731   2.509  12.190 -0.1940 -0.5571  0.1293
  853MPD2     H12530   2.349   2.572  12.160  1.2516  1.5188 -1.8666
  853MPD2    H112531   2.715   2.413  11.996 -1.1889 -0.5417 -0.1374
  853MPD2    H212532   2.716   2.595  12.383  1.6473  1.8981 -0.8381
  853MPD2    H312533   2.835   2.487  12.210 -0.4962 -1.3159  0.8629
  853MPD2     N12534   2.472   2.435  11.941  0.1717 -0.3530 -0.2161
  853MPD2    H512535   2.543   2.400  11.877  0.7346 -0.4825  0.4783
  853MPD2    N112536   2.481   2.674  12.383 -0.4235 -0.3114  0.6936
  853MPD2    H712537   2.548   2.698  12.456  0.6762 -1.0903 -0.0724
  854MPD2     C12538   4.272   2.871  12.385  0.4503  0.7918  0.2280
  854MPD2    C112539   4.211   2.873  12.505  0.1007  0.1108 -0.2537
  854MPD2    C212540   4.247   2.786  12.609  0.0415  0.8349  0.1429
  854MPD2    C312541   4.336   2.683  12.578  1.4077 -0.2529 -0.4753
  854MPD2    C412542   4.390   2.679  12.445 -0.0565  0.2541  0.5647
  854MPD2    C512543   4.365   2.775  12.355 -0.6504 -0.3564  0.2647
  854MPD2     H12544   4.221   2.797  12.713 -1.5858  0.2800 -0.2021
  854MPD2    H112545   4.456   2.600  12.413 -0.4183  1.4988 -3.1835
  854MPD2    H212546   4.233   2.940  12.310 -0.4256 -1.6828 -1.5877
  854MPD2    H312547   4.416   2.767  12.260 -0.9069 -0.1495  0.1081
  854MPD2     N12548   4.372   2.579  12.666 -0.5753  0.1533  0.7262
  854MPD2    H512549   4.446   2.515  12.640 -0.7364  0.3680 -0.2703
  854MPD2    N112550   4.130   2.987  12.526 -0.0095 -0.3924 -0.3832
  854MPD2    H712551   4.106   3.049  12.450 -0.4781 -0.3283 -0.1872
  855MPD2     C12552   4.531   2.561  13.599  0.1272 -0.5748  0.3321
  855MPD2    C112553   4.494   2.430  13.589  0.0766 -0.4752 -0.4830
  855MPD2    C212554   4.463   2.380  13.465 -0.4509  0.1594 -0.9495
  855MPD2    C312555   4.476   2.463  13.350  0.1498  0.2789 -0.1282
  855MPD2    C412556   4.526   2.591  13.366 -0.2478 -0.4232 -0.5049
  855MPD2    C512557   4.559   2.641  13.487 -0.2109  0.3849  0.2972
  855MPD2     H12558   4.429   2.278  13.452  0.0257 -0.1638  0.4474
  855MPD2    H112559   4.548   2.659  13.284 -0.9768 -0.8494 -1.0509
  855MPD2    H212560   4.544   2.602  13.698  0.8500  0.2302 -0.0883
  855MPD2    H312561   4.586   2.746  13.500  0.0583  0.3245  0.2211
  855MPD2     N12562   4.448   2.417  13.220 -0.1906 -0.5542  0.0210
  855MPD2    H512563   4.454   2.486  13.145 -0.2762  0.0823  0.6035
  855MPD2    N112564   4.475   2.353  13.709  0.0537 -0.3152  0.4327
  855MPD2    H712565   4.448   2.258  13.687 -1.7366  0.4507 -0.7572
  856MPD2     C12566   1.691   3.667  13.280 -0.2492 -0.4859  0.3426
  856MPD2    C112567   1.754   3.765  13.355  0.5376 -0.2618  0.4934
  856MPD2    C212568   1.716   3.897  13.338  0.4847 -0.1055  0.1744
  856MPD2    C312569   1.616   3.930  13.248  0.5879  0.0332 -0.3744
  856MPD2    C412570   1.559   3.829  13.170 -0.9327  0.2744 -0.5491
  856MPD2    C512571   1.600   3.701  13.185 -0.3841 -0.1911  1.1097
  856MPD2     H12572   1.775   3.966  13.398  0.3736 -2.6467  3.1625
  856MPD2    H112573   1.478   3.853  13.102  0.0015  2.2735 -0.9635
  856MPD2    H212574   1.720   3.562  13.280  2.7437  0.3350 -0.2541
  856MPD2    H312575   1.573   3.624  13.114  2.0453  1.1346 -1.2674
  856MPD2     N12576   1.553   4.053  13.248  0.2389  0.6874 -0.2998
  856MPD2    H512577   1.457   4.052  13.213 -0.3210  2.8531  1.1757
  856MPD2    N112578   1.856   3.750  13.453 -0.0524  0.6510  0.3277
  856MPD2    H712579   1.884   3.828  13.511  2.2616  0.7367 -0.9113
  857MPD2     C12580   3.560   0.576  12.330 -0.4373  0.1327  0.3745
  857MPD2    C112581   3.579   0.583  12.465 -0.1649 -0.2364  0.5054
  857MPD2    C212582   3.594   0.713  12.511 -0.7142 -0.1364  0.0380
  857MPD2    C312583   3.582   0.827  12.434 -0.0661 -0.0285  0.3688
  857MPD2    C412584   3.566   0.809  12.294 -0.1308 -0.1512  0.0763
  857MPD2    C512585   3.559   0.683  12.244 -0.0940 -0.1123 -0.2566
  857MPD2     H12586   3.617   0.731  12.616 -2.6903 -0.5723  0.5397
  857MPD2    H112587   3.567   0.882  12.214 -2.3548  0.3983  0.5704
  857MPD2    H212588   3.559   0.481  12.277  0.1789  0.9880 -1.1717
  857MPD2    H312589   3.561   0.664  12.137  1.0717 -0.4535 -0.1691
  857MPD2     N12590   3.586   0.952  12.499  0.0533 -0.5513  0.3663
  857MPD2    H512591   3.575   0.955  12.600  1.4735  1.0696  0.4630
  857MPD2    N112592   3.604   0.471  12.549  0.1831  0.6553 -0.5422
  857MPD2    H712593   3.586   0.383  12.502  0.4337 -0.1746  0.9165
  858MPD2     C12594   3.952   0.242  16.322  0.1133 -0.3854  0.1931
  858MPD2    C112595   4.054   0.154  16.369  0.2788 -0.3348  0.8554
  858MPD2    C212596   4.098   0.170  16.496  0.5773  0.8479 -0.0959
  858MPD2    C312597   4.035   0.260  16.584 -0.1667  0.4487 -0.4127
  858MPD2    C412598   3.944   0.347  16.534 -0.3417  0.7268  0.1018
  858MPD2    C512599   3.904   0.340  16.403 -0.0329  0.0654 -0.9468
  858MPD2     H12600   4.167   0.098  16.537  0.3056 -0.0493 -1.2211
  858MPD2    H112601   3.894   0.420  16.597  0.0781 -1.4984  3.0310
  858MPD2    H212602   3.926   0.235  16.217 -1.9758 -0.0803  0.6987
  858MPD2    H312603   3.848   0.421  16.358 -1.2004  1.0531  2.2491
  858MPD2     N12604   4.073   0.277  16.720 -0.1904 -0.5012  0.8055
  858MPD2    H512605   4.030   0.352  16.773 -1.5146 -0.1432 -0.7538
  858MPD2    N112606   4.129   0.065  16.282 -0.2004  0.5818 -0.0684
  858MPD2    H712607   4.204   0.025  16.337 -0.2135 -0.0058 -0.4773
  859MPD2     C12608   2.891   2.083  15.230 -0.7436 -0.4222  0.0605
  859MPD2    C112609   3.022   2.089  15.194  0.2219  0.0553  0.3847
  859MPD2    C212610   3.113   1.986  15.222  0.0200 -0.5024 -0.2197
  859MPD2    C312611   3.063   1.868  15.283 -0.7009 -0.2885 -0.0309
  859MPD2    C412612   2.927   1.858  15.299 -0.0171  0.2523 -0.1171
  859MPD2    C512613   2.847   1.964  15.284  0.1541 -0.0362 -0.1385
  859MPD2     H12614   3.220   1.993  15.206  0.2933  1.0218  2.4425
  859MPD2    H112615   2.888   1.764  15.336 -1.1751  1.3883  1.5355
  859MPD2    H212616   2.817   2.161  15.215  0.8949  1.1572  0.2029
  859MPD2    H312617   2.742   1.955  15.312  0.3971 -1.7250  0.2311
  859MPD2     N12618   3.140   1.762  15.329 -0.4904  0.2567  0.0880
  859MPD2    H512619   3.086   1.691  15.376  1.6587 -1.5822 -0.2383
  859MPD2    N112620   3.063   2.217  15.137  0.2909  0.3580 -0.2422
  859MPD2    H712621   2.993   2.289  15.120 -1.0769 -0.3828  2.1973
  860MPD2     C12622   0.840   2.246  11.879  0.0659  0.3466  0.1340
  860MPD2    C112623   0.760   2.339  11.940 -0.8160 -0.4475  0.4622
  860MPD2    C212624   0.625   2.329  11.927 -0.5814 -0.3314 -1.0675
  860MPD2    C312625   0.568   2.225  11.861 -0.2543 -0.2386 -0.5950
  860MPD2    C412626   0.650   2.130  11.796  0.6837 -0.4924  0.0977
  860MPD2    C512627   0.784   2.145  11.806  0.3079  0.3366 -0.0686
  860MPD2     H12628   0.570   2.406  11.979 -0.1771 -0.7974  0.0474
  860MPD2    H112629   0.623   2.042  11.738 -0.0325 -0.5127  0.4622
  860MPD2    H212630   0.948   2.244  11.878  0.0692 -0.5339  1.1372
  860MPD2    H312631   0.854   2.075  11.762  2.3929  2.0781  0.4493
  860MPD2     N12632   0.428   2.224  11.850 -0.3152  0.2871 -0.5474
  860MPD2    H512633   0.371   2.298  11.890 -1.4364 -0.2862 -1.0907
  860MPD2    N112634   0.820   2.453  12.006 -0.0140  0.4722 -0.3613
  860MPD2    H712635   0.756   2.517  12.052 -1.5637  0.2218 -2.1734
  861MPD2     C12636   4.104   0.562  10.836  0.6922 -0.1728  0.1037
  861MPD2    C112637   3.980   0.572  10.905  0.2627  0.3418 -0.5826
  861MPD2    C212638   3.870   0.586  10.821  0.5433  0.4635 -0.3843
  861MPD2    C312639   3.883   0.586  10.681 -0.0190 -0.7593  0.4669
  861MPD2    C412640   4.008   0.556  10.623  0.1356  0.0148 -0.2082
  861MPD2    C512641   4.118   0.554  10.700 -0.0473 -0.5185 -0.3638
  861MPD2     H12642   3.776   0.602  10.873 -1.2884 -2.7548 -2.7138
  861MPD2    H112643   4.015   0.549  10.515  1.9941  1.3219 -0.1674
  861MPD2    H212644   4.197   0.554  10.890 -0.2509 -0.2788  1.6961
  861MPD2    H312645   4.214   0.542  10.651  1.2068  1.7701  1.5131
  861MPD2     N12646   3.767   0.607  10.593  0.6657  0.3369  0.4056
  861MPD2    H512647   3.776   0.595  10.492  0.0361  0.1803  0.3679
  861MPD2    N112648   3.958   0.553  11.045 -0.3429 -0.1666  0.1167
  861MPD2    H712649   3.868   0.569  11.089  0.3161  0.7666  1.1315
  862MPD2     C12650   3.385   0.512   9.951  0.1495  0.5592 -0.2164
  862MPD2    C112651   3.394   0.491  10.086 -0.3901 -0.3902  0.3579
  862MPD2    C212652   3.363   0.360  10.132 -0.2298 -0.4222 -0.2811
  862MPD2    C312653   3.322   0.264  10.040 -0.1859 -0.0672 -0.4318
  862MPD2    C412654   3.306   0.294   9.910 -0.2612 -0.2325  0.3258
  862MPD2    C512655   3.347   0.416   9.863 -0.2376  0.3853 -0.2035
  862MPD2     H12656   3.383   0.334  10.235 -0.9853  0.1465  0.0137
  862MPD2    H112657   3.272   0.224   9.835 -0.8308 -1.7125  1.9617
  862MPD2    H212658   3.417   0.605   9.906  0.6400  0.7888  0.5981
  862MPD2    H312659   3.344   0.444   9.758  1.7428 -1.0452 -0.6381
  862MPD2     N12660   3.298   0.139  10.094 -0.2979 -0.0291 -0.1669
  862MPD2    H512661   3.317   0.145  10.194 -0.0800  0.6702 -0.2505
  862MPD2    N112662   3.455   0.580  10.177  0.4789 -0.0100 -0.4039
  862MPD2    H712663   3.433   0.568  10.275  1.2109  0.9653 -0.1155
  863MPD2     C12664   2.520   4.113  16.520  0.2834 -0.1634 -0.1821
  863MPD2    C112665   2.439   4.013  16.571 -0.3351 -1.0638 -0.5932
  863MPD2    C212666   2.486   3.958  16.692 -0.0638  0.0436  0.3955
  863MPD2    C312667   2.611   3.996  16.750 -0.3053  0.1046  0.0116
  863MPD2    C412668   2.694   4.083  16.688 -0.1088 -0.2032  0.6608
  863MPD2    C512669   2.640   4.139  16.576  0.6420 -0.3863  1.4140
  863MPD2     H12670   2.432   3.878  16.740 -2.4997 -0.0459 -2.4857
  863MPD2    H112671   2.789   4.120  16.726 -0.0727 -0.1412  0.5088
  863MPD2    H212672   2.502   4.170  16.430 -1.1442 -0.9128 -0.3757
  863MPD2    H312673   2.703   4.218  16.538 -0.3220  0.4722  1.6016
  863MPD2     N12674   2.665   3.919  16.860  0.3468 -0.7521  0.6190
  863MPD2    H512675   2.755   3.945  16.898 -0.5823 -0.3583  2.5390
  863MPD2    N112676   2.320   3.976  16.507 -0.4737  0.1668  0.3332
  863MPD2    H712677   2.301   4.012  16.414 -0.7941  0.1024  0.3727
  864MPD2     C12678   2.673   4.080  17.269 -0.2047 -0.5179  0.2898
  864MPD2    C112679   2.662   4.183  17.178  0.1497  0.3514  0.5216
  864MPD2    C212680   2.768   4.272  17.173 -0.1792 -0.0412 -0.5559
  864MPD2    C312681   2.885   4.251  17.239  0.1443 -0.0286  0.4433
  864MPD2    C412682   2.897   4.143  17.322  0.2126  0.7026  1.3540
  864MPD2    C512683   2.788   4.059  17.341 -0.3601  0.2590 -0.3740
  864MPD2     H12684   2.763   4.350  17.098 -1.2019 -0.1172 -0.5747
  864MPD2    H112685   2.987   4.135  17.382  0.9652 -1.4251 -0.0765
  864MPD2    H212686   2.593   4.009  17.288 -1.6002  0.6420 -1.1982
  864MPD2    H312687   2.798   3.978  17.412  0.0398 -0.3400 -1.1093
  864MPD2     N12688   3.002   4.322  17.212 -0.0018 -0.0171 -0.6554
  864MPD2    H512689   3.085   4.283  17.255 -0.5709  0.2305  0.6590
  864MPD2    N112690   2.546   4.191  17.101  0.5819 -0.2215 -0.1695
  864MPD2    H712691   2.476   4.128  17.139  0.8143  0.9867  2.2734
  865MPD2     C12692   2.925   0.393  16.693 -0.4064  0.0811  0.5157
  865MPD2    C112693   2.981   0.283  16.641 -0.1261  0.3790 -0.2147
  865MPD2    C212694   3.049   0.193  16.718 -0.9452  0.0462  0.1166
  865MPD2    C312695   3.053   0.207  16.856  0.8456  0.1874 -0.1447
  865MPD2    C412696   2.992   0.320  16.910 -0.0423  0.2127 -0.0067
  865MPD2    C512697   2.938   0.419  16.828  0.1477  0.3406 -0.2027
  865MPD2     H12698   3.108   0.118  16.668  0.0153 -0.9501  2.7575
  865MPD2    H112699   2.995   0.339  17.017 -1.5683 -1.7953  0.4012
  865MPD2    H212700   2.853   0.454  16.640  1.2671  2.0826  0.5756
  865MPD2    H312701   2.893   0.510  16.865 -1.2656 -0.5655  0.2921
  865MPD2     N12702   3.130   0.124  16.942 -0.7004 -0.2065 -0.1605
  865MPD2    H512703   3.134   0.131  17.044 -0.8191 -0.5425 -0.1333
  865MPD2    N112704   2.967   0.251  16.502 -1.2351 -0.1622 -0.0429
  865MPD2    H712705   2.998   0.159  16.470  2.9346  0.4615  2.1138
  866MPD2     C12706   4.693   0.941  10.779 -0.2916  0.3794  0.3750
  866MPD2    C112707   4.638   0.908  10.905  0.1147  0.4641 -0.2523
  866MPD2    C212708   4.504   0.911  10.920  0.6816  0.2337  0.2356
  866MPD2    C312709   4.422   0.928  10.806 -0.2507  0.1922  0.2443
  866MPD2    C412710   4.474   0.940  10.683 -0.5199 -0.0907  0.2293
  866MPD2    C512711   4.608   0.951  10.675 -0.3105  0.4564  0.7120
  866MPD2     H12712   4.458   0.894  11.017 -0.6490 -1.0680 -0.6152
  866MPD2    H112713   4.426   0.943  10.586  0.2458 -1.0112 -0.1729
  866MPD2    H212714   0.077   0.929  10.772 -0.6455 -1.9539 -0.9019
  866MPD2    H312715   4.646   0.944  10.574 -3.3226  3.0876 -0.6261
  866MPD2     N12716   4.282   0.923  10.812  0.1549 -0.4471  0.0540
  866MPD2    H512717   4.228   0.953  10.732 -1.5908 -0.5179  1.1993
  866MPD2    N112718   4.723   0.845  11.000 -0.1005  0.1297 -0.0078
  866MPD2    H712719   0.099   0.857  10.985 -0.2326  0.3731 -0.7040
  867MPD2     C12720   1.582   0.279  16.391 -0.3743 -0.3646 -0.9699
  867MPD2    C112721   1.640   0.260  16.513  0.2492 -0.4794  0.1806
  867MPD2    C212722   1.676   0.373  16.591  0.0083 -0.4160  0.0997
  867MPD2    C312723   1.669   0.502  16.547 -0.4560 -0.0813  0.2736
  867MPD2    C412724   1.631   0.514  16.416  0.0307 -0.4514 -0.2884
  867MPD2    C512725   1.585   0.410  16.338  0.6122  0.6473 -0.0012
  867MPD2     H12726   1.705   0.361  16.695  5.3464 -2.9718 -1.6698
  867MPD2    H112727   1.629   0.609  16.364  1.4454 -0.5307 -0.4973
  867MPD2    H212728   1.538   0.197  16.336  0.0984 -1.6090  0.5216
  867MPD2    H312729   1.543   0.441  16.244  1.1681 -0.4420 -0.6059
  867MPD2     N12730   1.709   0.617  16.625 -0.5020  0.3174  0.7540
  867MPD2    H512731   1.706   0.710  16.585  0.0048 -0.6345 -1.4958
  867MPD2    N112732   1.652   0.128  16.554 -0.0474  0.6388 -0.4150
  867MPD2    H712733   1.621   0.054  16.491 -0.3650  1.1151 -0.8178
  868MPD2     C12734   3.872   4.179  13.326  0.3177 -0.4165  1.0155
  868MPD2    C112735   3.920   4.074  13.399  0.5135 -0.1375 -0.3823
  868MPD2    C212736   3.918   4.086  13.535 -0.0590 -0.2594  0.3683
  868MPD2    C312737   3.888   4.202  13.604  0.1818 -0.6773  1.1866
  868MPD2    C412738   3.854   4.310  13.522 -0.2890 -1.1568 -0.3263
  868MPD2    C512739   3.837   4.297  13.383  0.0334 -0.3141  0.0187
  868MPD2     H12740   3.945   4.003  13.600 -0.8218 -0.5743  0.2849
  868MPD2    H112741   3.838   4.409  13.562 -1.4485 -1.3126 -0.4195
  868MPD2    H212742   3.871   4.168  13.218 -1.5400 -0.0393  0.9944
  868MPD2    H312743   3.799   4.377  13.321 -1.7702 -1.2944 -0.1343
  868MPD2     N12744   3.903   4.219  13.744 -0.7110 -0.2065 -0.5727
  868MPD2    H512745   3.945   4.147  13.803 -3.1540 -1.6206 -0.5096
  868MPD2    N112746   3.967   3.959  13.329 -0.5871 -0.6968 -0.2092
  868MPD2    H712747   3.945   3.954  13.230 -1.5122  0.7158 -0.0699
  869MPD2     C12748   1.129   2.319   1.386 -0.0434 -0.3485  0.7933
  869MPD2    C112749   1.049   2.268   1.282 -0.7156 -0.3393  0.1772
  869MPD2    C212750   0.968   2.361   1.214  0.1082  0.3947 -0.1492
  869MPD2    C312751   0.955   2.497   1.257  0.4807  0.7176  0.5721
  869MPD2    C412752   1.038   2.546   1.358  0.6996 -0.0317 -0.2843
  869MPD2    C512753   1.131   2.454   1.410  0.1770 -0.1928  0.5564
  869MPD2     H12754   0.907   2.320   1.134  0.8294 -0.4111 -0.2833
  869MPD2    H112755   1.023   2.642   1.405  0.3990 -1.7866  3.1733
  869MPD2    H212756   1.199   2.257   1.440  0.4654 -0.2318  0.2604
  869MPD2    H312757   1.182   2.490   1.499  1.5302  1.7479 -1.0186
  869MPD2     N12758   0.867   2.586   1.199  0.2518  0.9484  0.5622
  869MPD2    H512759   0.867   2.675   1.248  0.0933  1.7758 -0.9539
  869MPD2    N112760   1.053   2.130   1.249  0.2281 -0.7514 -0.4208
  869MPD2    H712761   1.121   2.076   1.301 -0.9878 -2.5756 -0.7283
  870MPD2     C12762   4.044   1.362   1.132 -0.5755 -0.3675 -0.5228
  870MPD2    C112763   4.173   1.343   1.085 -0.4756  0.5913  0.4689
  870MPD2    C212764   4.215   1.408   0.970 -0.7232 -0.3787  0.3756
  870MPD2    C312765   4.130   1.479   0.893 -0.4168  0.0266  0.3644
  870MPD2    C412766   4.006   1.497   0.943  0.2479 -0.4400  0.4886
  870MPD2    C512767   3.964   1.443   1.059 -0.9137 -0.0845  0.2935
  870MPD2     H12768   4.310   1.378   0.926 -1.2493 -2.8543  0.9255
  870MPD2    H112769   3.944   1.566   0.887 -0.8353 -2.0223 -0.2301
  870MPD2    H212770   4.010   1.317   1.224 -2.4965  1.3008 -0.4210
  870MPD2    H312771   3.870   1.465   1.108 -0.1656  0.8950  1.2737
  870MPD2     N12772   4.174   1.536   0.769 -0.1643  0.1482  0.2247
  870MPD2    H512773   4.274   1.539   0.753  0.5076  1.3419  4.6742
  870MPD2    N112774   4.257   1.256   1.159 -0.1598  0.9172 -0.1803
  870MPD2    H712775   4.207   1.201   1.228  1.7570  0.4121  0.8006
  871MPD2     C12776   0.865   0.679  16.604 -0.5503  0.1192 -0.1522
  871MPD2    C112777   0.765   0.674  16.698 -0.1314 -0.6095 -0.8209
  871MPD2    C212778   0.674   0.563  16.697  0.1265 -0.4674 -0.1091
  871MPD2    C312779   0.689   0.460  16.608  0.3515 -0.1964  0.3098
  871MPD2    C412780   0.787   0.473  16.509 -0.1646  0.9202  0.2083
  871MPD2    C512781   0.871   0.581  16.510 -0.1944 -0.0513  0.1676
  871MPD2     H12782   0.590   0.562  16.765 -0.0119 -0.2189 -0.2750
  871MPD2    H112783   0.797   0.407  16.424 -3.3547  0.9249 -0.1558
  871MPD2    H212784   0.936   0.761  16.597 -0.9599  0.6599  2.0045
  871MPD2    H312785   0.938   0.600  16.427 -1.0795  0.3062 -0.4618
  871MPD2     N12786   0.609   0.341  16.625 -0.1487 -0.3066 -0.0597
  871MPD2    H512787   0.535   0.334  16.695  1.7544  0.0170  1.9838
  871MPD2    N112788   0.772   0.778  16.796 -0.7561 -0.2083 -0.2022
  871MPD2    H712789   0.862   0.823  16.785 -1.1106  1.0242  1.9054
  872MPD2     C12790   1.624   2.913  13.535 -0.1128 -0.4042  0.3075
  872MPD2    C112791   1.704   2.862  13.635  0.3080 -1.2670 -0.3308
  872MPD2    C212792   1.647   2.800  13.745 -0.1263  0.0772 -0.0869
  872MPD2    C312793   1.507   2.791  13.762 -0.1153 -0.3096 -0.2880
  872MPD2    C412794   1.432   2.842  13.658 -0.0506 -1.0946 -0.6011
  872MPD2    C512795   1.488   2.900  13.550  0.1753  0.2261  0.0699
  872MPD2     H12796   1.706   2.750  13.821  0.1819 -0.4317 -0.6685
  872MPD2    H112797   1.325   2.823  13.660 -0.3300  0.4275 -1.0459
  872MPD2    H212798   1.662   2.965  13.448 -1.0411 -0.0243  0.1242
  872MPD2    H312799   1.431   2.943  13.468 -1.3891 -0.7666  0.6381
  872MPD2     N12800   1.454   2.721  13.865 -0.2931  0.6896 -0.2705
  872MPD2    H512801   1.353   2.709  13.866 -0.2565  0.3745  0.0135
  872MPD2    N112802   1.844   2.885  13.632 -0.6582 -0.1185 -0.0240
  872MPD2    H712803   1.881   2.939  13.554 -0.4225 -0.9915 -0.5256
  873MPD2     C12804   0.852   3.752   1.962 -0.7273 -0.2577  0.0334
  873MPD2    C112805   0.727   3.778   1.924 -0.6690 -0.0776  0.0696
  873MPD2    C212806   0.663   3.690   1.832  0.0359 -0.1981  0.1503
  873MPD2    C312807   0.730   3.581   1.787 -0.4625  0.5384  0.1365
  873MPD2    C412808   0.865   3.549   1.829  0.4105  0.1498 -0.0257
  873MPD2    C512809   0.914   3.635   1.915  0.4837 -0.1026 -0.9968
  873MPD2     H12810   0.567   3.711   1.786  0.0561  0.1746  0.2825
  873MPD2    H112811   0.932   3.472   1.792 -2.5749 -2.2242 -0.5026
  873MPD2    H212812   0.910   3.815   2.028  1.2365 -2.3331  0.2701
  873MPD2    H312813   1.010   3.618   1.962  1.2047 -0.7688 -2.6746
  873MPD2     N12814   0.679   3.493   1.691 -0.3316  0.1593  0.3512
  873MPD2    H512815   0.739   3.414   1.669  1.5792  1.1209  2.0736
  873MPD2    N112816   0.666   3.900   1.959  0.3598 -0.4269 -0.0853
  873MPD2    H712817   0.719   3.966   2.016  0.1096  1.2253 -1.7479
  874MPD2     C12818   2.915   3.111  16.073 -0.1985 -0.1488  0.2076
  874MPD2    C112819   3.007   3.132  16.179  0.0942  0.1225 -0.3894
  874MPD2    C212820   3.106   3.227  16.154  0.1052  0.2302  0.0542
  874MPD2    C312821   3.128   3.276  16.028 -0.7052  0.5944  0.0966
  874MPD2    C412822   3.039   3.251  15.923  0.0432 -0.2865  0.3377
  874MPD2    C512823   2.923   3.173  15.955 -0.0875 -0.1182  0.0706
  874MPD2     H12824   3.183   3.243  16.229  0.5688  0.6086 -0.5064
  874MPD2    H112825   3.052   3.297  15.826  0.7584  0.6825  0.8947
  874MPD2    H212826   2.816   3.075  16.096 -0.7298  0.9082 -0.4132
  874MPD2    H312827   2.843   3.169  15.882 -1.1834  0.1418  1.2721
  874MPD2     N12828   3.252   3.347  16.012 -0.8977  0.0226 -0.1130
  874MPD2    H512829   3.306   3.378  16.092  0.7130 -3.3571  0.0833
  874MPD2    N112830   2.981   3.069  16.304 -0.7733  0.0511  0.6586
  874MPD2    H712831   2.910   2.996  16.303 -1.5473  0.8023  0.3771
  875MPD2     C12832   4.438   1.226  14.553  0.9588 -0.7555 -0.1963
  875MPD2    C112833   4.318   1.210  14.621  0.3623 -0.0392 -0.1386
  875MPD2    C212834   4.317   1.238  14.755 -0.1662  0.2878 -0.0379
  875MPD2    C312835   4.428   1.286  14.825 -0.3495 -0.5217 -0.9520
  875MPD2    C412836   4.543   1.307  14.755 -0.3725 -0.1372 -0.7579
  875MPD2    C512837   4.549   1.267  14.621 -0.6776  0.2168 -0.4934
  875MPD2     H12838   4.221   1.218  14.800  0.3645  0.4375  1.1612
  875MPD2    H112839   4.631   1.310  14.818 -1.7785 -0.7231  1.2381
  875MPD2    H212840   4.455   1.196  14.451 -1.3448  2.7048 -1.6175
  875MPD2    H312841   4.639   1.261  14.560 -0.2387  0.9061  0.0849
  875MPD2     N12842   4.439   1.321  14.964  0.5468 -0.1509  0.0344
  875MPD2    H512843   4.522   1.371  14.991  1.1693 -0.5583 -1.1305
  875MPD2    N112844   4.198   1.182  14.554 -0.1398  0.6456 -0.1162
  875MPD2    H712845   4.109   1.200  14.600 -0.3053 -0.5906  0.0419
  876MPD2     C12846   3.273   2.815  15.990  0.4543  0.8360  0.6047
  876MPD2    C112847   3.362   2.741  15.915 -0.6022  0.1430  0.2141
  876MPD2    C212848   3.373   2.604  15.942  0.4968  0.5328 -0.0963
  876MPD2    C312849   3.320   2.547  16.060  0.0137  0.2584  0.6610
  876MPD2    C412850   3.245   2.631  16.143 -0.7633  0.5664 -0.0002
  876MPD2    C512851   3.217   2.761  16.097  0.8362 -0.0164 -0.5280
  876MPD2     H12852   3.435   2.539  15.882  1.1071 -1.2682  2.4703
  876MPD2    H112853   3.197   2.593  16.232  0.7318 -1.4698 -0.0647
  876MPD2    H212854   3.251   2.921  15.982  0.7371  0.8055 -0.5159
  876MPD2    H312855   3.153   2.815  16.166  3.2407  2.5812 -0.3827
  876MPD2     N12856   3.350   2.412  16.085  0.0603  0.0417 -0.7179
  876MPD2    H512857   3.389   2.368  16.002 -1.5485 -0.1356 -1.3642
  876MPD2    N112858   3.417   2.797  15.802 -0.6779 -0.5886  0.2075
  876MPD2    H712859   3.384   2.891  15.784  1.7486  0.4269  1.0718
  877MPD2     C12860   3.191   3.004  15.110 -0.7628  0.1730  0.1351
  877MPD2    C112861   3.330   3.037  15.106  0.0348 -0.4567 -0.0728
  877MPD2    C212862   3.389   3.061  14.983 -0.3716 -0.1294  0.0668
  877MPD2    C312863   3.312   3.063  14.867 -0.1273 -0.9388  0.2755
  877MPD2    C412864   3.178   3.018  14.866 -0.0896 -0.7105 -0.4425
  877MPD2    C512865   3.125   2.990  14.988 -0.5265  0.4851  0.4778
  877MPD2     H12866   3.495   3.079  14.975 -0.5571  1.4472  1.0410
  877MPD2    H112867   3.117   2.991  14.780 -0.7267  0.1724 -0.2667
  877MPD2    H212868   3.143   2.961  15.197 -2.4127 -0.9527 -1.3228
  877MPD2    H312869   3.025   2.949  15.001  0.2256 -2.0518 -1.7135
  877MPD2     N12870   3.363   3.087  14.738  0.2846 -0.1127 -0.1221
  877MPD2    H512871   3.303   3.073  14.658 -0.7947  0.8712  0.5157
  877MPD2    N112872   3.416   3.036  15.222 -0.5794 -0.1468 -0.2534
  877MPD2    H712873   3.511   3.070  15.210 -1.4233  2.5908  0.8387
  878MPD2     C12874   3.343   2.648  13.321 -0.5227 -0.3915 -0.5676
  878MPD2    C112875   3.263   2.549  13.275  0.1249 -0.7273 -0.1343
  878MPD2    C212876   3.176   2.492  13.371 -0.4768 -0.0396 -0.4042
  878MPD2    C312877   3.194   2.515  13.505  0.7139  0.0255  0.2832
  878MPD2    C412878   3.286   2.609  13.546 -0.1755  0.5991 -0.7877
  878MPD2    C512879   3.342   2.687  13.451 -0.7786 -0.2608 -0.6146
  878MPD2     H12880   3.097   2.427  13.335 -0.5433  1.2241 -2.5600
  878MPD2    H112881   3.302   2.621  13.652  2.1949  0.9069 -1.1839
  878MPD2    H212882   3.402   2.702  13.248  0.5827 -2.5150 -1.2625
  878MPD2    H312883   3.404   2.770  13.483 -2.2677  0.2501  0.9801
  878MPD2     N12884   3.145   2.431  13.602 -0.6017  0.9448 -0.0201
  878MPD2    H512885   3.196   2.434  13.689  0.4333 -0.1624 -0.6000
  878MPD2    N112886   3.265   2.514  13.137 -0.7877  1.2772  0.7428
  878MPD2    H712887   3.321   2.569  13.073  0.4734  0.0455  0.7752
  879MPD2     C12888   3.193   4.108  16.761  0.2833  0.0491  0.2124
  879MPD2    C112889   3.221   3.978  16.805  0.0546 -0.0189  0.2604
  879MPD2    C212890   3.165   3.865  16.738  0.2345 -0.4933 -0.1010
  879MPD2    C312891   3.065   3.884  16.646  0.6280 -0.5083 -0.0808
  879MPD2    C412892   3.038   4.018  16.598 -0.1105 -0.2518 -0.1310
  879MPD2    C512893   3.100   4.127  16.661  0.2513 -0.2291  0.2279
  879MPD2     H12894   3.213   3.770  16.756  0.7403 -0.3066 -0.4661
  879MPD2    H112895   2.966   4.036  16.520  0.6516 -0.1879 -0.8253
  879MPD2    H212896   3.226   4.196  16.815  1.1391 -1.6263  2.4338
  879MPD2    H312897   3.068   4.229  16.642  0.2546 -0.1334  0.7462
  879MPD2     N12898   2.994   3.775  16.589 -0.7286 -0.2203 -0.0606
  879MPD2    H512899   2.922   3.800  16.522  0.0028 -0.0317 -0.7717
  879MPD2    N112900   3.315   3.958  16.908  1.0577 -0.0093 -0.0920
  879MPD2    H712901   3.367   4.039  16.941 -1.9118  0.9891  2.1709
  880MPD2     C12902   0.134   0.806   0.580  0.2636 -0.0785  0.4464
  880MPD2    C112903   0.269   0.827   0.589  0.2589 -0.0567 -0.2091
  880MPD2    C212904   0.351   0.721   0.633  0.3770 -0.0376  0.0320
  880MPD2    C312905   0.300   0.598   0.668  0.6233 -0.1101  0.1827
  880MPD2    C412906   0.163   0.580   0.659  0.1841  0.5792  0.2740
  880MPD2    C512907   0.084   0.682   0.615  0.0570  0.1343  0.0493
  880MPD2     H12908   0.457   0.742   0.643 -0.3089  2.3913  2.1810
  880MPD2    H112909   0.114   0.485   0.679  1.5976 -0.2305 -0.1393
  880MPD2    H212910   0.061   0.878   0.545  0.2093  0.2296  1.2034
  880MPD2    H312911   4.699   0.672   0.614 -0.0688  1.2009  2.9951
  880MPD2     N12912   0.389   0.498   0.730  0.2304 -0.6523 -0.0599
  880MPD2    H512913   0.487   0.520   0.745 -0.5617  1.7305  1.4523
  880MPD2    N112914   0.312   0.967   0.563  0.4424  0.1976  0.7481
  880MPD2    H712915   0.247   1.034   0.523  2.0491  0.8201 -0.7791
  881MPD2     C12916   0.896   1.557  17.633 -0.4083 -0.6785  0.3101
  881MPD2    C112917   0.762   1.523  17.617  0.2340 -0.8285  0.7248
  881MPD2    C212918   0.708   1.465   0.032  0.6746 -0.4252 -1.0022
  881MPD2    C312919   0.769   1.473   0.159  1.0751 -0.5454 -0.1829
  881MPD2    C412920   0.890   1.531   0.172  0.1155 -0.4426  0.3786
  881MPD2    C512921   0.957   1.566   0.057  0.2632 -0.4351  0.6802
  881MPD2     H12922   0.604   1.436   0.021  0.6439 -0.5966 -0.2449
  881MPD2    H112923   0.923   1.551   0.273  0.7991  0.8144 -0.1006
  881MPD2    H212924   0.951   1.590  17.545 -0.0739  0.1913  0.8467
  881MPD2    H312925   1.057   1.606   0.065  0.7065 -0.5258 -4.2698
  881MPD2     N12926   0.701   1.429   0.269 -0.2278 -0.1473 -0.0544
  881MPD2    H512927   0.741   1.445   0.361 -0.2201  0.5572 -0.1746
  881MPD2    N112928   0.698   1.500  17.494  0.7062 -0.0928 -0.7759
  881MPD2    H712929   0.602   1.469  17.490  0.6521  0.0710 -0.7610
  882MPD2     C12930   3.446   2.595  14.291  0.5457 -0.4223  1.1127
  882MPD2    C112931   3.361   2.701  14.321  0.5296 -0.1413 -0.0406
  882MPD2    C212932   3.227   2.678  14.347  0.4382 -0.1480 -0.7240
  882MPD2    C312933   3.173   2.551  14.345  0.3299  0.6392 -0.0796
  882MPD2    C412934   3.260   2.442  14.330 -0.0568  0.5797 -0.7567
  882MPD2    C512935   3.390   2.465  14.296 -0.3190 -0.2401 -0.4459
  882MPD2     H12936   3.158   2.756  14.378  1.2855  0.8624 -1.3370
  882MPD2    H112937   3.225   2.340  14.335 -0.9406  0.8283 -1.7863
  882MPD2    H212938   3.549   2.601  14.260  0.1998  0.4740  0.1197
  882MPD2    H312939   3.456   2.380  14.278  0.1951  0.0779 -0.0734
  882MPD2     N12940   3.036   2.530  14.371  0.4471 -0.3293 -0.3467
  882MPD2    H512941   3.014   2.442  14.417  0.4526  0.1704  0.6062
  882MPD2    N112942   3.420   2.829  14.315 -0.1506  0.0075 -0.6788
  882MPD2    H712943   3.522   2.823  14.313 -0.1762  0.2308 -2.9963
  883MPD2     C12944   0.089   2.864  16.071 -0.6133  0.5060 -0.6274
  883MPD2    C112945   0.157   2.923  15.965  0.4927  0.0413  0.8008
  883MPD2    C212946   0.273   2.996  15.995  0.3328 -0.3872  0.2286
  883MPD2    C312947   0.313   3.010  16.131 -0.3582  0.4730  0.3353
  883MPD2    C412948   0.249   2.947  16.232 -0.1437  0.5288  0.2155
  883MPD2    C512949   0.135   2.876  16.200  0.5079 -0.0453 -0.0465
  883MPD2     H12950   0.332   3.047  15.920  3.0807 -0.8487  2.0653
  883MPD2    H112951   0.277   2.954  16.337  1.8899 -0.0984 -0.2737
  883MPD2    H212952   0.011   2.790  16.060  1.3744 -1.6882  0.1293
  883MPD2    H312953   0.075   2.823  16.274  0.7436 -0.0449  0.1451
  883MPD2     N12954   0.420   3.100  16.148 -0.1744  0.1236 -0.0340
  883MPD2    H512955   0.468   3.132  16.064 -1.0969  1.1096 -0.1888
  883MPD2    N112956   0.125   2.905  15.826  0.1263  0.7404  0.3523
  883MPD2    H712957   0.188   2.946  15.757  1.7998  0.4485  1.7067
  884MPD2     C12958   2.155   3.326  14.978  0.1919 -0.2263 -0.3485
  884MPD2    C112959   2.126   3.351  14.844  0.1933  0.5823  1.3213
  884MPD2    C212960   2.014   3.429  14.819 -0.6809 -0.4473 -0.1297
  884MPD2    C312961   1.946   3.505  14.920  0.2191 -0.7700  0.2170
  884MPD2    C412962   1.982   3.476  15.051 -0.2018  0.0252  0.0270
  884MPD2    C512963   2.078   3.377  15.080 -0.1909  0.1253  0.3872
  884MPD2     H12964   1.996   3.455  14.715 -0.1991  2.5891  0.5622
  884MPD2    H112965   1.934   3.522  15.137 -0.6346 -0.1240 -0.1357
  884MPD2    H212966   2.243   3.270  15.006  1.6372  2.3016  0.1730
  884MPD2    H312967   2.111   3.365  15.183  0.2917  0.0809  0.2264
  884MPD2     N12968   1.851   3.608  14.881 -0.0599 -0.6601 -0.4519
  884MPD2    H512969   1.828   3.611  14.782  0.2849 -2.0750 -0.5682
  884MPD2    N112970   2.211   3.312  14.733 -0.1014  0.2286  0.3093
  884MPD2    H712971   2.194   3.354  14.642  2.2245  0.0572 -0.2171
  885MPD2     C12972   0.462   4.205   0.343  0.2826 -0.7359 -0.3038
  885MPD2    C112973   0.500   4.125   0.237 -0.5695  0.2222 -0.5900
  885MPD2    C212974   0.476   4.172   0.113 -0.6424 -0.5525  0.4453
  885MPD2    C312975   0.409   4.290   0.100  0.4020  0.3785 -0.1337
  885MPD2    C412976   0.359   4.362   0.196 -0.0460 -0.8438  0.4571
  885MPD2    C512977   0.389   4.316   0.321  0.1202 -0.6528 -0.0337
  885MPD2     H12978   0.525   4.121   0.031 -0.0149  0.4432  0.1971
  885MPD2    H112979   0.302   4.453   0.178  0.2185 -0.5427  1.1535
  885MPD2    H212980   0.490   4.183   0.446 -1.6280 -0.7842  0.2038
  885MPD2    H312981   0.370   4.384   0.404  0.0635  0.3718 -0.8826
  885MPD2     N12982   0.411   4.346  17.663  0.1196  0.0021  1.2489
  885MPD2    H512983   0.455   4.292  17.589 -1.2483  0.0429  0.4026
  885MPD2    N112984   0.563   3.999   0.261 -0.1335 -0.2732  0.3354
  885MPD2    H712985   0.581   3.979   0.359 -1.4555  0.6553  0.7698
  886MPD2     C12986   1.960   2.011  15.081  0.5088  0.5049 -0.5756
  886MPD2    C112987   2.079   2.070  15.102 -0.1010  0.1289  1.3223
  886MPD2    C212988   2.095   2.200  15.056  0.4500  0.3782  0.4482
  886MPD2    C312989   2.007   2.258  14.972 -0.6295 -0.7325 -0.4922
  886MPD2    C412990   1.889   2.203  14.944 -0.0655 -0.0806 -0.6574
  886MPD2    C512991   1.863   2.083  15.013  0.4272  0.0184  0.2459
  886MPD2     H12992   2.192   2.243  15.073  0.7848  0.1751 -0.9431
  886MPD2    H112993   1.812   2.233  14.874 -0.7641  0.0693  0.1626
  886MPD2    H212994   1.928   1.913  15.114  1.8736 -0.2242 -1.4182
  886MPD2    H312995   1.766   2.041  14.994  0.5605  0.2587 -0.9663
  886MPD2     N12996   2.043   2.374  14.891  0.0505 -0.3270  0.4320
  886MPD2    H512997   1.975   2.402  14.821 -0.1261 -1.2244  0.2449
  886MPD2    N112998   2.186   2.005  15.166 -0.3894 -0.3828 -0.2440
  886MPD2    H712999   2.261   2.066  15.196 -1.7066  2.1299 -1.9968
  887MPD2     C13000   2.774   2.169  15.570  0.1106 -0.1758  0.1374
  887MPD2    C113001   2.650   2.196  15.512  0.5109  0.3354  0.6797
  887MPD2    C213002   2.613   2.332  15.490  0.1051  0.1449 -0.4267
  887MPD2    C313003   2.707   2.424  15.525 -1.1660 -0.7951  0.4546
  887MPD2    C413004   2.827   2.394  15.590 -0.1720 -0.2421  0.2013
  887MPD2    C513005   2.863   2.265  15.605  0.0296  1.2741 -0.0950
  887MPD2     H13006   2.513   2.357  15.457  0.4645  2.4517  0.2965
  887MPD2    H113007   2.899   2.468  15.622 -1.7120  0.7244  1.4429
  887MPD2    H213008   2.802   2.068  15.597  0.4406 -0.8394 -2.6786
  887MPD2    H313009   2.950   2.233  15.661 -0.7685 -2.5557 -1.0742
  887MPD2     N13010   2.673   2.565  15.515 -0.1571 -0.2077  0.1450
  887MPD2    H513011   2.578   2.580  15.484 -0.3348 -1.2321  0.1986
  887MPD2    N113012   2.556   2.096  15.483 -0.0793  0.3197  0.1876
  887MPD2    H713013   2.475   2.132  15.434  1.1551  2.3725 -0.3419
  888MPD2     C13014   4.620   2.651  14.842  0.7189 -0.0814 -0.2766
  888MPD2    C113015   4.562   2.714  14.948  0.0945 -0.9933 -0.5212
  888MPD2    C213016   4.578   2.850  14.956 -0.1675 -0.1762 -0.2747
  888MPD2    C313017   4.628   2.921  14.852 -0.1609 -0.1352 -0.4573
  888MPD2    C413018   4.675   2.861  14.744  1.1533 -0.5030  0.3574
  888MPD2    C513019   4.671   2.722  14.741 -0.3026  0.5082 -0.2169
  888MPD2     H13020   4.533   2.896  15.044  3.0144 -1.3150  1.9627
  888MPD2    H113021   0.004   2.914  14.665  2.1575 -0.9448  0.7105
  888MPD2    H213022   4.592   2.549  14.819 -3.9678  1.1068  0.1995
  888MPD2    H313023   4.700   2.672  14.650  0.1074 -1.5262  1.0407
  888MPD2     N13024   4.611   3.062  14.853  0.6579  0.0803  0.3228
  888MPD2    H513025   4.560   3.097  14.934  0.0836 -0.0562  0.0212
  888MPD2    N113026   4.502   2.641  15.054 -0.0745  0.2012 -0.1111
  888MPD2    H713027   4.461   2.691  15.133 -0.9029  1.7432 -1.5002
  889MPD2     C13028   3.404   1.795  12.526 -0.2741 -1.0448 -0.8054
  889MPD2    C113029   3.520   1.769  12.585  0.3131  0.2519  0.2713
  889MPD2    C213030   3.557   1.845  12.693 -0.1958  0.1656  0.2468
  889MPD2    C313031   3.493   1.962  12.718  0.3273 -1.3056 -0.0367
  889MPD2    C413032   3.374   2.000  12.653 -0.5170  0.1320 -0.3395
  889MPD2    C513033   3.333   1.910  12.551 -0.7440  0.1091  0.2478
  889MPD2     H13034   3.635   1.816  12.762 -2.3853 -1.2311  2.1117
  889MPD2    H113035   3.318   2.091  12.671  0.1215  0.2444  1.0846
  889MPD2    H213036   3.373   1.731  12.444  1.3816 -1.8894 -0.7741
  889MPD2    H313037   3.255   1.941  12.483 -1.0809 -1.8260 -0.2436
  889MPD2     N13038   3.549   2.047  12.816 -0.0299  0.2645 -0.7293
  889MPD2    H513039   3.615   2.016  12.887 -0.5189  0.1444 -0.3251
  889MPD2    N113040   3.576   1.639  12.590  0.2841 -0.4998  0.1869
  889MPD2    H713041   3.639   1.621  12.668  1.0749  1.0481 -0.0954
  890MPD2     C13042   3.020   3.823  14.550 -0.0346  0.1250 -0.0517
  890MPD2    C113043   3.086   3.885  14.650  0.3358  0.2692  0.1043
  890MPD2    C213044   3.171   3.800  14.727  0.2147  0.0520 -0.4062
  890MPD2    C313045   3.187   3.662  14.707 -0.0625 -0.3169 -0.3466
  890MPD2    C413046   3.110   3.604  14.608  0.0784  0.6067  0.1014
  890MPD2    C513047   3.032   3.691  14.538 -0.4788 -0.6120  0.2786
  890MPD2     H13048   3.228   3.841  14.810  1.0909 -0.1041 -0.9299
  890MPD2    H113049   3.101   3.500  14.581 -2.5614  1.0090 -0.5598
  890MPD2    H213050   2.944   3.872  14.490  0.7332 -1.0858 -2.0269
  890MPD2    H313051   2.964   3.644  14.468  0.1032 -2.6004  1.0615
  890MPD2     N13052   3.277   3.594  14.799  0.2163 -0.1845 -0.3116
  890MPD2    H513053   3.322   3.647  14.873 -1.6395 -0.5054  1.0600
  890MPD2    N113054   3.072   4.021  14.674  0.5873  0.3807 -0.2558
  890MPD2    H713055   3.001   4.066  14.617 -0.0736 -0.5087 -0.1293
  891MPD2     C13056   1.159   1.991  16.604 -0.5301 -0.9498 -0.4798
  891MPD2    C113057   1.202   2.097  16.526  0.2440  0.3085 -0.2223
  891MPD2    C213058   1.313   2.074  16.444  0.6773  0.4570  1.0790
  891MPD2    C313059   1.383   1.953  16.443  0.4060 -0.3402  0.5575
  891MPD2    C413060   1.342   1.860  16.532 -0.1604  0.2425 -0.6767
  891MPD2    C513061   1.236   1.876  16.616  0.9864  0.1195 -0.1530
  891MPD2     H13062   1.346   2.151  16.375 -0.2409 -2.2065 -2.2868
  891MPD2    H113063   1.382   1.762  16.555 -0.2683  0.4307  0.2916
  891MPD2    H213064   1.069   2.005  16.663 -0.2608  0.5146 -0.4236
  891MPD2    H313065   1.206   1.808  16.694  2.0811  0.6258  0.7062
  891MPD2     N13066   1.495   1.940  16.361  0.1020  0.3621 -0.0288
  891MPD2    H513067   1.510   2.016  16.296  0.7918  0.3757  0.1487
  891MPD2    N113068   1.141   2.225  16.523  0.1979 -0.4874  0.0170
  891MPD2    H713069   1.187   2.298  16.470  0.8209 -1.9265 -1.4361
  892MPD2     C13070   2.437   3.212  14.108 -0.2617  0.4266  0.1338
  892MPD2    C113071   2.360   3.153  14.203 -0.0328  0.2494 -0.3952
  892MPD2    C213072   2.404   3.029  14.254 -0.1975  0.5797 -0.5173
  892MPD2    C313073   2.508   2.966  14.181  0.0666 -0.1811 -0.4759
  892MPD2    C413074   2.584   3.030  14.084  0.0008  0.5736  0.5187
  892MPD2    C513075   2.545   3.149  14.050 -0.0685 -0.4244 -0.1665
  892MPD2     H13076   2.345   2.973  14.326 -0.9143  2.1082  0.0748
  892MPD2    H113077   2.674   2.984  14.044 -0.6572  0.0859 -0.3998
  892MPD2    H213078   2.412   3.308  14.064 -3.2343 -1.3272 -2.0454
  892MPD2    H313079   2.599   3.200  13.971  0.4728 -1.0458 -0.1932
  892MPD2     N13080   2.553   2.838  14.210 -0.5397 -0.0378 -0.0503
  892MPD2    H513081   2.622   2.799  14.146 -1.9958 -1.7551 -0.5763
  892MPD2    N113082   2.244   3.216  14.249 -0.1234 -0.6878 -0.7933
  892MPD2    H713083   2.226   3.306  14.206 -1.6260 -1.0990 -1.0201
  893MPD2     C13084   4.042   1.728   1.212 -0.5475 -0.2236  0.2411
  893MPD2    C113085   4.155   1.673   1.264  0.0747 -0.4915  0.6749
  893MPD2    C213086   4.149   1.574   1.360 -0.3534  0.0605  0.8155
  893MPD2    C313087   4.030   1.546   1.418  0.0351 -0.1444  0.4310
  893MPD2    C413088   3.915   1.619   1.382  0.2427  0.3298 -0.0701
  893MPD2    C513089   3.919   1.697   1.270  0.0920  0.0091  0.3091
  893MPD2     H13090   4.239   1.520   1.385  0.6749  1.6158  0.5143
  893MPD2    H113091   3.815   1.595   1.418 -0.5414  0.3400 -2.2284
  893MPD2    H213092   4.044   1.806   1.137  0.8357  0.4389  0.9577
  893MPD2    H313093   3.830   1.739   1.227 -0.5306 -2.3379 -0.6923
  893MPD2     N13094   4.016   1.438   1.510 -0.5406  0.1472  0.1820
  893MPD2    H513095   3.922   1.410   1.537 -0.3513 -1.4066 -0.7593
  893MPD2    N113096   4.278   1.712   1.203 -0.4661 -0.3118 -0.2517
  893MPD2    H713097   4.273   1.781   1.128 -1.1712 -1.8685 -1.6501
  894MPD2     C13098   1.504   3.686   1.066  0.5845  0.3616 -0.4879
  894MPD2    C113099   1.623   3.752   1.056  0.0471 -0.6161 -0.3014
  894MPD2    C213100   1.631   3.874   0.985  0.0359 -0.1624 -0.4910
  894MPD2    C313101   1.513   3.938   0.951 -0.3317 -0.5598  0.1440
  894MPD2    C413102   1.390   3.873   0.963  0.0547  0.0155  0.1963
  894MPD2    C513103   1.389   3.752   1.026  0.2866 -0.5165 -0.7307
  894MPD2     H13104   1.724   3.927   0.970 -1.5875  2.8290  0.0994
  894MPD2    H113105   1.295   3.923   0.944  0.0933 -0.4016 -1.1102
  894MPD2    H213106   1.487   3.601   1.131 -1.3275  0.1121 -1.2990
  894MPD2    H313107   1.296   3.697   1.025 -0.7087  1.1708 -1.1967
  894MPD2     N13108   1.531   4.057   0.873 -0.2139 -0.9743 -0.2493
  894MPD2    H513109   1.626   4.087   0.853 -1.2520  1.9579 -0.8468
  894MPD2    N113110   1.744   3.708   1.116  0.4084  0.3214 -0.1591
  894MPD2    H713111   1.823   3.769   1.098 -0.3284  1.5230  0.6838
  895MPD2     C13112   1.214   2.469  13.508  1.2252  0.8033 -0.4037
  895MPD2    C113113   1.117   2.383  13.472 -0.0137 -0.3639 -0.0396
  895MPD2    C213114   1.159   2.252  13.445 -0.0772  0.2266 -0.6840
  895MPD2    C313115   1.289   2.219  13.465  0.0211  0.2188 -0.9695
  895MPD2    C413116   1.379   2.306  13.521  0.1777 -0.0133 -0.0090
  895MPD2    C513117   1.333   2.428  13.540  1.0520  0.0581  0.2601
  895MPD2     H13118   1.084   2.177  13.422  0.0612  0.0470 -0.5489
  895MPD2    H113119   1.475   2.276  13.562  1.1158  1.9882 -0.7636
  895MPD2    H213120   1.191   2.574  13.514 -0.7753  0.3375 -0.0985
  895MPD2    H313121   1.409   2.497  13.576  1.5337 -1.3611  1.9364
  895MPD2     N13122   1.330   2.094  13.423 -1.0721  0.1602 -0.4248
  895MPD2    H513123   1.262   2.044  13.367 -0.1429  0.7074 -2.0465
  895MPD2    N113124   0.978   2.408  13.465  0.1547  0.2011  0.1513
  895MPD2    H713125   0.919   2.328  13.441 -2.9936  2.2352  1.1230
  896MPD2     C13126   3.307   0.560   1.565  0.3042  0.0967 -0.2017
  896MPD2    C113127   3.307   0.509   1.436 -0.4061 -0.1858 -0.7046
  896MPD2    C213128   3.200   0.438   1.395 -0.3295  0.3885 -0.4370
  896MPD2    C313129   3.088   0.425   1.477 -1.3983  0.2074  0.3741
  896MPD2    C413130   3.082   0.488   1.598  0.7390 -0.0399 -0.1605
  896MPD2    C513131   3.198   0.551   1.641 -0.5894 -0.0006  1.0788
  896MPD2     H13132   3.202   0.377   1.306  1.2065 -1.3298  0.7721
  896MPD2    H113133   2.995   0.492   1.663  1.1697  1.5259  0.3270
  896MPD2    H213134   3.393   0.602   1.615 -2.4484  2.7901  2.3056
  896MPD2    H313135   3.213   0.599   1.737  1.0900 -2.2862  1.9678
  896MPD2     N13136   2.980   0.365   1.417 -0.3674 -0.2981 -0.2330
  896MPD2    H513137   2.997   0.332   1.322 -1.3983 -0.5317 -0.3357
  896MPD2    N113138   3.424   0.529   1.359  0.0809  0.4054  0.1560
  896MPD2    H713139   3.502   0.583   1.396  1.8769 -0.7176 -1.9714
  897MPD2     C13140   4.549   1.240  10.280 -0.2697 -0.3776 -0.0405
  897MPD2    C113141   4.597   1.346  10.349  0.3797  0.0658  0.2924
  897MPD2    C213142   4.547   1.385  10.475 -0.5669  0.0318 -0.0382
  897MPD2    C313143   4.448   1.303  10.532  0.0621 -0.4604 -0.1711
  897MPD2    C413144   4.399   1.183  10.463 -0.1759  0.1878  0.1228
  897MPD2    C513145   4.459   1.158  10.343  0.1064  0.6871 -0.1617
  897MPD2     H13146   4.568   1.479  10.525 -1.9701 -0.0849  0.7598
  897MPD2    H113147   4.316   1.116  10.480  0.3358 -0.2531  0.8826
  897MPD2    H213148   4.587   1.215  10.182  0.2538 -1.8858  0.5377
  897MPD2    H313149   4.415   1.077  10.285  1.6324  0.9588 -1.7278
  897MPD2     N13150   4.397   1.340  10.655  0.1030 -0.4399  0.6070
  897MPD2    H513151   4.446   1.412  10.707 -2.0694  0.3155  1.5971
  897MPD2    N113152   4.697   1.420  10.283  0.1796 -0.4253 -0.8879
  897MPD2    H713153   0.029   1.386  10.205  0.6530 -4.0840  1.0171
  898MPD2     C13154   2.651   3.339   0.745 -0.3691 -0.2081 -0.4269
  898MPD2    C113155   2.641   3.228   0.671 -0.6393 -1.1758 -0.4768
  898MPD2    C213156   2.559   3.231   0.564 -0.4924  0.7032  0.3925
  898MPD2    C313157   2.479   3.341   0.536 -0.0380 -0.3863 -0.3056
  898MPD2    C413158   2.491   3.461   0.613  0.0147 -0.0233  0.0635
  898MPD2    C513159   2.576   3.453   0.721 -0.4875  0.0735 -0.1147
  898MPD2     H13160   2.556   3.144   0.499  3.2113  3.3406 -3.2911
  898MPD2    H113161   2.435   3.552   0.598  1.5326  0.9939  0.6777
  898MPD2    H213162   2.716   3.341   0.832 -0.9349  0.1835 -0.0103
  898MPD2    H313163   2.594   3.541   0.783  2.1183 -1.4638  1.3252
  898MPD2     N13164   2.399   3.334   0.424 -0.4659  0.5815 -0.4073
  898MPD2    H513165   2.404   3.246   0.373 -0.6279  0.9908 -1.1384
  898MPD2    N113166   2.716   3.112   0.696 -0.6729  0.1792  0.0367
  898MPD2    H713167   2.718   3.043   0.621  1.0029  0.5325 -0.2358
  899MPD2     C13168   2.677   3.529   0.002 -0.0471 -0.2590 -0.3838
  899MPD2    C113169   2.599   3.611  17.628  0.2423 -0.3282  0.4081
  899MPD2    C213170   2.495   3.676  17.694  0.0830  0.7396  0.1168
  899MPD2    C313171   2.481   3.660   0.135  0.4684  0.7007  0.0692
  899MPD2    C413172   2.577   3.586   0.207  0.2728 -0.0181 -0.1812
  899MPD2    C513173   2.673   3.520   0.139 -0.0001 -0.4341  0.3958
  899MPD2     H13174   2.437   3.748  17.638  1.1250  2.3100  1.0941
  899MPD2    H113175   2.571   3.570   0.314 -0.5066 -1.3252 -0.4254
  899MPD2    H213176   2.747   3.465  17.642  0.5664  1.1979 -1.3160
  899MPD2    H313177   2.745   3.465   0.199  0.0513 -0.7647  0.0306
  899MPD2     N13178   2.375   3.715   0.210  0.1532 -0.0886 -0.8841
  899MPD2    H513179   2.359   3.679   0.303 -0.1363  2.6324  0.0882
  899MPD2    N113180   2.626   3.624  17.490  0.1484  0.2085  0.2360
  899MPD2    H713181   2.689   3.557  17.447  0.1704  0.0604  0.4986
  900MPD2     C13182   2.657   0.335  12.547  0.1461 -0.4108 -1.6131
  900MPD2    C113183   2.553   0.245  12.533 -0.5369 -0.0321 -0.0851
  900MPD2    C213184   2.428   0.295  12.503 -0.2588 -0.1031 -0.1716
  900MPD2    C313185   2.408   0.431  12.489  1.0483  0.2676  0.1414
  900MPD2    C413186   2.511   0.518  12.505  0.2239  0.4225  0.1214
  900MPD2    C513187   2.633   0.470  12.532 -0.1257 -0.3394 -0.0268
  900MPD2     H13188   2.341   0.231  12.493 -0.2674 -0.0949 -0.1489
  900MPD2    H113189   2.495   0.625  12.511 -0.5131  0.4585 -2.1972
  900MPD2    H213190   2.758   0.295  12.553 -0.3659 -1.0618  3.0774
  900MPD2    H313191   2.708   0.548  12.535 -0.4409 -0.0714  0.7657
  900MPD2     N13192   2.279   0.467  12.456  1.2943 -0.1574 -0.5342
  900MPD2    H513193   2.221   0.384  12.454  0.4578  0.4344 -1.3914
  900MPD2    N113194   2.582   0.110  12.543 -0.3671  0.1810 -0.3115
  900MPD2    H713195   2.681   0.089  12.549 -0.1920  1.0559 -0.1829
  901MPD2     C13196   2.294   3.788  12.523 -0.5312  0.3861  0.2074
  901MPD2    C113197   2.425   3.787  12.540  0.1674  0.4326  0.0350
  901MPD2    C213198   2.496   3.911  12.528  0.2381 -0.0934  0.5499
  901MPD2    C313199   2.429   4.027  12.501  0.3116 -0.4501 -0.1159
  901MPD2    C413200   2.289   4.024  12.485 -0.0621  0.4252 -0.8356
  901MPD2    C513201   2.228   3.905  12.495  0.1145 -0.6585 -0.0637
  901MPD2     H13202   2.603   3.922  12.545  0.6414 -0.5077 -1.7023
  901MPD2    H113203   2.221   4.107  12.468 -1.1265 -0.3930 -0.5772
  901MPD2    H213204   2.244   3.692  12.535 -0.7043  0.8182  2.9207
  901MPD2    H313205   2.120   3.902  12.487 -0.0935  2.1908  1.4092
  901MPD2     N13206   2.503   4.146  12.493  0.0012 -0.2799 -0.8230
  901MPD2    H513207   2.599   4.139  12.525 -0.0379  0.3945 -0.5671
  901MPD2    N113208   2.485   3.656  12.556  0.3121 -0.3873 -0.1417
  901MPD2    H713209   2.420   3.578  12.554  1.7059 -1.5335 -0.9030
  902MPD2     C13210   1.447   2.632  12.826 -0.5826 -0.0720  0.7176
  902MPD2    C113211   1.535   2.728  12.784  0.4884 -0.7986  0.2641
  902MPD2    C213212   1.671   2.716  12.805  0.3343  0.0093 -0.0243
  902MPD2    C313213   1.714   2.600  12.865 -0.2241 -0.6174  0.5602
  902MPD2    C413214   1.631   2.500  12.894  0.0730 -0.6612  0.0262
  902MPD2    C513215   1.496   2.513  12.882 -0.0179 -0.4073 -0.4367
  902MPD2     H13216   1.735   2.797  12.772  1.6432 -0.0006  2.4553
  902MPD2    H113217   1.664   2.416  12.953 -0.4419 -0.9034 -0.0280
  902MPD2    H213218   1.339   2.637  12.822 -0.7173 -0.8883  3.0155
  902MPD2    H313219   1.430   2.436  12.920 -1.1803  2.1711  2.8218
  902MPD2     N13220   1.853   2.574  12.869  0.1449 -0.2440  0.0625
  902MPD2    H513221   1.880   2.476  12.874  1.4263  0.1207  0.0808
  902MPD2    N113222   1.491   2.837  12.711  0.1101 -0.1277  0.1307
  902MPD2    H713223   1.559   2.902  12.675  0.8279 -1.0555 -0.1934
  903MPD2     C13224   1.692   3.023  12.388  0.6375  0.1069 -1.2218
  903MPD2    C113225   1.698   2.887  12.404 -0.2708  0.0859  0.2529
  903MPD2    C213226   1.594   2.807  12.370  0.4853 -0.0599 -0.6114
  903MPD2    C313227   1.486   2.852  12.304 -0.3339 -0.6090  0.1825
  903MPD2    C413228   1.477   2.991  12.290 -0.1876  0.4168  0.0176
  903MPD2    C513229   1.578   3.076  12.335  0.3842  0.1312  0.0086
  903MPD2     H13230   1.604   2.699  12.368  0.8638 -0.0613  1.0442
  903MPD2    H113231   1.395   3.043  12.242 -0.5973 -0.3089 -0.0652
  903MPD2    H213232   1.776   3.084  12.418  0.6961 -0.9962  0.8136
  903MPD2    H313233   1.563   3.180  12.308  0.2699 -0.5975 -2.7514
  903MPD2     N13234   1.381   2.762  12.276 -0.4262 -0.0309  0.4272
  903MPD2    H513235   1.390   2.672  12.322  1.9403 -1.1605 -2.1852
  903MPD2    N113236   1.818   2.829  12.456 -0.4496  0.5438  0.6560
  903MPD2    H713237   1.890   2.899  12.466  0.7562 -0.8741  1.9129
  904MPD2     C13238   1.115   1.876  13.840  0.3019 -0.7845  0.0707
  904MPD2    C113239   1.102   1.852  13.973 -1.2495 -0.0512 -0.9105
  904MPD2    C213240   1.216   1.823  14.051 -0.3231 -0.5156 -0.2170
  904MPD2    C313241   1.343   1.841  14.001  0.1743  0.3852  0.1296
  904MPD2    C413242   1.358   1.872  13.864 -0.2791  0.2688 -0.3202
  904MPD2    C513243   1.243   1.896  13.787 -0.6682 -0.3796  0.3604
  904MPD2     H13244   1.201   1.806  14.157 -1.2401 -0.5924 -0.3608
  904MPD2    H113245   1.453   1.887  13.814 -1.2111  0.0366 -2.1600
  904MPD2    H213246   1.031   1.880  13.771  1.3715  0.1039 -1.1808
  904MPD2    H313247   1.243   1.916  13.680 -0.8050 -0.8691  0.2667
  904MPD2     N13248   1.450   1.814  14.078 -0.1011  0.0252  0.3356
  904MPD2    H513249   1.429   1.776  14.170  0.0966  1.0926  0.8144
  904MPD2    N113250   0.974   1.842  14.045 -0.5133 -0.9474  0.1794
  904MPD2    H713251   0.977   1.780  14.124  0.5681 -1.9579 -0.6508
  905MPD2     C13252   0.679   1.743  13.463  0.6264 -0.0621  0.4035
  905MPD2    C113253   0.763   1.855  13.475  0.4928  0.4710 -0.1932
  905MPD2    C213254   0.882   1.855  13.405 -0.7543 -0.3614  0.0172
  905MPD2    C313255   0.913   1.753  13.317 -0.8216  0.3852  0.1260
  905MPD2    C413256   0.843   1.635  13.324  0.2923 -0.5465  0.0465
  905MPD2    C513257   0.723   1.632  13.393  0.3294 -0.9226 -0.3718
  905MPD2     H13258   0.935   1.950  13.408 -1.4592  0.0779 -1.3244
  905MPD2    H113259   0.882   1.548  13.273 -1.7221 -0.2588 -1.9931
  905MPD2    H213260   0.596   1.735  13.532  0.6055 -1.6079  0.2082
  905MPD2    H313261   0.666   1.541  13.408 -2.5671  0.6109 -2.2394
  905MPD2     N13262   1.042   1.738  13.256 -0.7158  0.3931  0.1378
  905MPD2    H513263   1.069   1.654  13.206  0.7432 -0.9517  3.2244
  905MPD2    N113264   0.743   1.950  13.583  0.4133  0.3901  0.5022
  905MPD2    H713265   0.681   1.912  13.653  0.2001 -0.2714 -0.0410
  906MPD2     C13266   3.133   1.696  11.212 -0.2993  0.1271  0.3989
  906MPD2    C113267   3.057   1.646  11.109 -0.3103  0.6879 -0.4186
  906MPD2    C213268   3.000   1.520  11.121 -0.0010  0.4452  0.2084
  906MPD2    C313269   3.023   1.441  11.234 -0.6007  1.2558 -0.0824
  906MPD2    C413270   3.092   1.499  11.341  0.3001  0.4352 -0.5817
  906MPD2    C513271   3.141   1.627  11.330 -0.1121  0.1309 -0.2270
  906MPD2     H13272   2.953   1.477  11.033 -0.0113  2.9158 -1.0120
  906MPD2    H113273   3.098   1.454  11.439  0.3113  1.5751 -0.0636
  906MPD2    H213274   3.183   1.793  11.208  0.0188 -0.0027  1.1701
  906MPD2    H313275   3.191   1.675  11.413 -1.9921  1.6519  0.0293
  906MPD2     N13276   2.961   1.310  11.233  0.3989  0.3676 -0.2669
  906MPD2    H513277   2.902   1.284  11.154  0.8309  0.0533 -0.4866
  906MPD2    N113278   3.048   1.708  10.985 -0.6924 -0.0117  0.7044
  906MPD2    H713279   2.989   1.661  10.917  1.9681 -1.6336 -0.4543
  907MPD2     C13280   1.903   0.968  15.664 -0.2199 -0.6453 -0.8233
  907MPD2    C113281   2.017   0.887  15.655 -0.6443  0.1337  0.2685
  907MPD2    C213282   2.118   0.883  15.752  0.4113 -0.4558  0.1880
  907MPD2    C313283   2.116   0.985  15.841 -0.2431  0.6178 -0.1832
  907MPD2    C413284   2.005   1.062  15.853 -0.6758  0.6313  1.0365
  907MPD2    C513285   1.899   1.059  15.766 -0.7559  0.0688 -0.6527
  907MPD2     H13286   2.200   0.812  15.745  0.7029  0.0527 -1.4626
  907MPD2    H113287   1.998   1.139  15.930  2.7870  1.7544  0.2194
  907MPD2    H213288   1.809   0.955  15.612  0.1898 -1.8911 -1.2445
  907MPD2    H313289   1.807   1.113  15.788 -0.2428  0.6259  0.1312
  907MPD2     N13290   2.225   0.992  15.934 -0.2654  0.4515  0.1429
  907MPD2    H513291   2.278   0.906  15.929  1.4253  1.4954  0.0415
  907MPD2    N113292   2.019   0.795  15.546 -0.1771 -0.4910  0.0991
  907MPD2    H713293   2.097   0.729  15.553 -0.8697 -1.1971  1.0901
  908MPD2     C13294   4.532   1.712   9.470 -0.1770  0.2355 -0.4555
  908MPD2    C113295   4.466   1.641   9.573 -0.1744 -0.7869  0.4502
  908MPD2    C213296   4.533   1.635   9.691  0.0423 -0.7117  0.8232
  908MPD2    C313297   4.667   1.676   9.701  1.1696  0.0489 -0.8299
  908MPD2    C413298   4.719   1.763   9.606  0.0031  0.3573  0.1471
  908MPD2    C513299   4.649   1.773   9.492  0.1933  0.1337 -0.2873
  908MPD2     H13300   4.477   1.594   9.775 -1.0152  0.4320  0.6709
  908MPD2    H113301   0.098   1.798   9.614  0.4279 -0.7240 -0.4822
  908MPD2    H213302   4.491   1.726   9.371  2.7635  1.7568 -1.4450
  908MPD2    H313303   4.696   1.832   9.413 -0.1188 -0.5795 -1.0098
  908MPD2     N13304   0.008   1.640   9.821 -0.4002 -0.0021 -0.0896
  908MPD2    H513305   4.665   1.588   9.878 -0.7502 -0.2724 -0.7405
  908MPD2    N113306   4.340   1.583   9.567 -0.5018  0.0397 -0.7528
  908MPD2    H713307   4.319   1.523   9.647 -1.7137  0.1282 -1.0138
  909MPD2     C13308   0.178   4.244  12.306  1.6541 -0.4411 -0.3658
  909MPD2    C113309   0.139   4.299  12.190  0.4782 -0.2418 -0.2701
  909MPD2    C213310   0.015   4.355  12.171  0.7091 -0.2237 -0.3225
  909MPD2    C313311   4.646   4.355  12.276  0.6580 -0.3615  0.5686
  909MPD2    C413312   4.688   4.305  12.399  0.2042 -0.4111  0.3888
  909MPD2    C513313   0.089   4.248  12.409  0.2458 -0.2362 -0.4480
  909MPD2     H13314   4.720   4.407  12.078  0.7159  0.7967  0.2367
  909MPD2    H113315   4.620   4.309  12.484 -2.0400  0.0746 -1.4234
  909MPD2    H213316   0.280   4.212  12.325  1.4871 -0.3362  0.7167
  909MPD2    H313317   0.119   4.216  12.508 -3.7648 -0.2689  0.7550
  909MPD2     N13318   4.521   4.425  12.253 -0.8849 -0.3289 -0.3234
  909MPD2    H513319   4.519   4.469  12.162  0.1029  0.0814 -0.1416
  909MPD2    N113320   0.229   4.317  12.083 -0.7644 -0.2822 -0.1339
  909MPD2    H713321   0.197   4.366  11.999 -0.0417 -0.6957 -0.6556
  910MPD2     C13322   1.936   1.884  16.083  0.4118  0.2660 -0.4319
  910MPD2    C113323   1.863   1.762  16.065  0.1362  1.2641  0.8093
  910MPD2    C213324   1.772   1.750  15.962  0.2733  0.0164  0.1365
  910MPD2    C313325   1.749   1.857  15.880 -0.1084 -0.3966 -0.3665
  910MPD2    C413326   1.840   1.961  15.881  0.4712 -0.2810  0.3966
  910MPD2    C513327   1.928   1.977  15.984 -0.8899 -0.2799 -0.2459
  910MPD2     H13328   1.711   1.663  15.943  1.1088 -0.6105  0.3571
  910MPD2    H113329   1.845   2.035  15.802  1.1874  0.6224  1.2882
  910MPD2    H213330   2.011   1.895  16.160  1.3703  0.8017 -1.4371
  910MPD2    H313331   1.990   2.066  15.990  0.7080 -1.4457  0.6706
  910MPD2     N13332   1.654   1.862  15.777  0.0848 -0.4584  0.0962
  910MPD2    H513333   1.672   1.935  15.708  3.1084 -1.6249 -0.3286
  910MPD2    N113334   1.895   1.645  16.142  0.3396  0.1422 -0.6962
  910MPD2    H713335   1.862   1.558  16.101  3.2097 -0.2156 -2.2795
  911MPD2     C13336   4.226   2.324  16.258 -0.0281  0.5802  0.6075
  911MPD2    C113337   4.268   2.400  16.365 -0.0530 -0.8872 -0.6201
  911MPD2    C213338   4.232   2.533  16.372 -0.6471 -0.6264 -0.5151
  911MPD2    C313339   4.170   2.596  16.268 -0.0011 -0.0711 -0.2263
  911MPD2    C413340   4.158   2.525  16.150 -0.1278  0.6030 -0.2655
  911MPD2    C513341   4.174   2.387  16.148 -0.2063 -0.4368 -0.1474
  911MPD2     H13342   4.256   2.593  16.459  0.4599  1.6226 -2.3925
  911MPD2    H113343   4.126   2.566  16.055 -0.8848 -0.2845 -0.3839
  911MPD2    H213344   4.237   2.216  16.260  0.8632  0.6318 -1.6931
  911MPD2    H313345   4.144   2.322  16.067 -1.6222 -1.4624  1.1964
  911MPD2     N13346   4.138   2.739  16.279  0.3646  0.3572  0.2160
  911MPD2    H513347   4.185   2.784  16.357 -3.3413  1.7182  1.6410
  911MPD2    N113348   4.344   2.323  16.459 -0.4048  0.0769 -0.3398
  911MPD2    H713349   4.385   2.239  16.420 -0.1516  0.2572 -0.4707
  912MPD2     C13350   3.839   2.143  15.972 -0.3632 -0.1275 -0.3420
  912MPD2    C113351   3.816   2.231  16.075 -0.2268 -0.4101 -0.3001
  912MPD2    C213352   3.769   2.180  16.194 -0.5527 -0.7194 -0.7573
  912MPD2    C313353   3.763   2.042  16.215  0.4647  0.0502 -0.3804
  912MPD2    C413354   3.788   1.959  16.110  0.4943 -0.2577  0.3944
  912MPD2    C513355   3.828   2.008  15.988  0.3369  0.0106 -0.4196
  912MPD2     H13356   3.730   2.243  16.274 -2.0012 -2.7284  0.1357
  912MPD2    H113357   3.776   1.852  16.122  0.9537 -0.3712 -0.1379
  912MPD2    H213358   3.879   2.170  15.875 -0.0936  1.1056  0.1215
  912MPD2    H313359   3.834   1.943  15.901  0.4608 -0.6580  0.0928
  912MPD2     N13360   3.708   1.996  16.338  0.3342  0.5553 -0.0805
  912MPD2    H513361   3.694   2.067  16.408 -0.7573 -1.8424  2.1421
  912MPD2    N113362   3.838   2.363  16.048 -0.3354  0.4533  0.7822
  912MPD2    H713363   3.857   2.395  15.954 -1.2850  3.2395  1.5497
  913MPD2     C13364   3.937   3.501  10.071  0.6134  0.3311  0.5267
  913MPD2    C113365   4.058   3.497  10.140 -0.6223 -0.4175 -0.1128
  913MPD2    C213366   4.149   3.587  10.113  0.0706 -0.8353 -0.4002
  913MPD2    C313367   4.128   3.681  10.014 -0.1175  0.3082  0.0099
  913MPD2    C413368   4.017   3.679   9.943 -0.2759 -0.6600  0.2696
  913MPD2    C513369   3.922   3.596   9.974 -0.0771  0.3531  0.0587
  913MPD2     H13370   4.229   3.597  10.185 -1.4902  0.3548  1.1668
  913MPD2    H113371   4.012   3.738   9.852  0.1707 -1.4648 -0.2894
  913MPD2    H213372   3.855   3.431  10.088 -0.5839  1.5356 -0.2764
  913MPD2    H313373   3.836   3.595   9.908 -2.1485  0.7081  2.7728
  913MPD2     N13374   4.222   3.774   9.972  0.3751 -0.2792 -0.5055
  913MPD2    H513375   4.193   3.840   9.901 -0.7096  0.5017  0.6710
  913MPD2    N113376   4.060   3.419  10.257 -0.0298 -1.1333 -0.3831
  913MPD2    H713377   3.991   3.348  10.275 -1.4574  1.0459  2.8647
  914MPD2     C13378   2.241   3.130  11.969 -0.1052 -0.2689  0.9050
  914MPD2    C113379   2.226   3.259  12.013  0.0994 -0.5285  0.3372
  914MPD2    C213380   2.290   3.286  12.136  0.8411 -0.0674  0.2161
  914MPD2    C313381   2.350   3.190  12.215 -0.4820 -0.1277  0.2591
  914MPD2    C413382   2.351   3.065  12.170 -0.3832  0.6590  0.1265
  914MPD2    C513383   2.298   3.037  12.047 -0.1527  0.5169  0.4619
  914MPD2     H13384   2.291   3.388  12.171 -0.7323  0.3959 -1.0901
  914MPD2    H113385   2.389   2.981  12.227  0.2656  0.8666 -0.0040
  914MPD2    H213386   2.221   3.106  11.865  1.8713  0.7973  0.2715
  914MPD2    H313387   2.301   2.935  12.010 -0.5103  0.6058  0.1909
  914MPD2     N13388   2.417   3.246  12.329 -0.2365  0.2466 -0.2375
  914MPD2    H513389   2.389   3.342  12.345  2.4862  1.6038 -3.6813
  914MPD2    N113390   2.168   3.350  11.927  0.0852 -0.0206  0.4957
  914MPD2    H713391   2.148   3.320  11.833  0.3575  0.7671  0.1846
  915MPD2     C13392   0.830   3.639  15.397  0.1789 -0.5786 -0.2028
  915MPD2    C113393   0.699   3.614  15.393  0.1794  0.1458  0.0566
  915MPD2    C213394   0.607   3.674  15.480  0.1680  0.0990 -0.4068
  915MPD2    C313395   0.654   3.769  15.571  0.1525 -0.0063  0.1083
  915MPD2    C413396   0.789   3.796  15.575  0.1351 -0.0982  0.3262
  915MPD2    C513397   0.874   3.732  15.488 -0.6688 -0.3532 -0.5602
  915MPD2     H13398   0.504   3.640  15.480  0.9215 -2.2155 -2.1412
  915MPD2    H113399   0.828   3.877  15.635  0.1275 -0.5467  0.9391
  915MPD2    H213400   0.894   3.580  15.332  1.0125 -0.2024  0.2696
  915MPD2    H313401   0.982   3.739  15.485 -0.5235 -1.6660  2.0154
  915MPD2     N13402   0.552   3.827  15.654 -0.3037  0.1981 -0.1054
  915MPD2    H513403   0.458   3.791  15.650  0.3687 -1.2585 -3.2833
  915MPD2    N113404   0.666   3.507  15.308  0.4906  0.9503  0.3704
  915MPD2    H713405   0.746   3.459  15.269  1.4107  1.6283  1.4065
  916MPD2     C13406   3.630   2.009  15.708  0.1506  0.4735  0.2365
  916MPD2    C113407   3.540   1.928  15.780  0.6689  0.2829  0.2206
  916MPD2    C213408   3.520   1.801  15.730 -0.0232  0.1949 -0.3402
  916MPD2    C313409   3.587   1.763  15.615 -0.2816  0.1121  0.0640
  916MPD2    C413410   3.679   1.843  15.559 -0.2986 -0.1709  0.1920
  916MPD2    C513411   3.698   1.973  15.595 -0.5060  0.1349 -0.1468
  916MPD2     H13412   3.447   1.733  15.772  3.3210 -3.1964 -0.0045
  916MPD2    H113413   3.743   1.821  15.474 -0.1825  0.2082  0.1788
  916MPD2    H213414   3.630   2.115  15.732  1.5850  1.2273 -3.1956
  916MPD2    H313415   3.767   2.044  15.551 -0.0781  0.6024  1.2936
  916MPD2     N13416   3.562   1.629  15.569  0.7542  0.0678 -0.7041
  916MPD2    H513417   3.523   1.558  15.630  0.1706  0.2598 -0.8479
  916MPD2    N113418   3.478   1.988  15.889  0.0541 -0.6945  0.4288
  916MPD2    H713419   3.509   2.084  15.902 -2.1822  0.0893 -0.1375
  917MPD2     C13420   3.522   3.777  11.009 -0.3676  0.4405  1.0438
  917MPD2    C113421   3.583   3.824  11.124  0.3459  0.7874  0.0723
  917MPD2    C213422   3.682   3.920  11.107 -0.4031 -0.0573  0.5992
  917MPD2    C313423   3.705   3.980  10.990 -0.1610  0.2386  0.0549
  917MPD2    C413424   3.627   3.949  10.879 -0.1330 -0.1826  0.0797
  917MPD2    C513425   3.541   3.842  10.882 -0.0994  0.1497  0.4699
  917MPD2     H13426   3.741   3.948  11.194  1.8030 -1.1385 -0.5717
  917MPD2    H113427   3.629   4.003  10.785  0.1119 -1.0799 -0.4327
  917MPD2    H213428   3.467   3.685  11.027 -0.3795 -0.0589 -1.6355
  917MPD2    H313429   3.493   3.801  10.794  0.1170  2.8877 -0.9143
  917MPD2     N13430   3.790   4.096  10.977  0.7757  0.1850 -0.7924
  917MPD2    H513431   3.773   4.154  10.895 -1.6856  1.5594  0.6884
  917MPD2    N113432   3.549   3.762  11.247 -0.4383 -0.3301 -0.5112
  917MPD2    H713433   3.468   3.700  11.248 -0.7080  0.0126 -2.4209
  918MPD2     C13434   3.748   4.047  12.197 -0.3263  0.1075 -0.1545
  918MPD2    C113435   3.834   4.040  12.086  0.4212 -0.2291  0.0463
  918MPD2    C213436   3.785   3.984  11.968  0.8922  0.2496 -0.0552
  918MPD2    C313437   3.659   3.928  11.964 -0.5093  0.1675 -0.0549
  918MPD2    C413438   3.573   3.947  12.071  0.4548  0.0980 -0.6820
  918MPD2    C513439   3.618   4.011  12.183  0.2540  0.7940 -0.0993
  918MPD2     H13440   3.842   3.985  11.875  2.4400  3.2295  0.9205
  918MPD2    H113441   3.475   3.903  12.084 -0.7775  3.1277  0.2815
  918MPD2    H213442   3.787   4.073  12.295  1.8669  1.6724 -1.4423
  918MPD2    H313443   3.552   4.019  12.269  0.1175 -1.0673 -0.0376
  918MPD2     N13444   3.599   3.879  11.848 -0.6310 -0.8297  0.3835
  918MPD2    H513445   3.647   3.887  11.759 -3.3282  0.0493 -0.9832
  918MPD2    N113446   3.974   4.069  12.104 -0.8255 -0.2787  0.0217
  918MPD2    H713447   4.028   4.073  12.018 -0.6156  1.0780  0.2184
  919MPD2     C13448   4.325   2.892  11.368  0.2121 -0.2816 -0.5780
  919MPD2    C113449   4.296   2.764  11.327  0.0213 -0.2630 -0.1237
  919MPD2    C213450   4.227   2.751  11.205  0.2549 -0.0302  0.0164
  919MPD2    C313451   4.188   2.866  11.137  0.9239 -0.6600 -0.6977
  919MPD2    C413452   4.222   2.991  11.180  0.0689 -0.2728 -0.2471
  919MPD2    C513453   4.303   3.001  11.289  0.1827  0.3122  0.5945
  919MPD2     H13454   4.191   2.649  11.189  1.2897 -0.0281 -2.3360
  919MPD2    H113455   4.200   3.087  11.134 -0.4528 -0.1127  0.3349
  919MPD2    H213456   4.376   2.904  11.463 -0.6093  0.1637 -0.2019
  919MPD2    H313457   4.323   3.100  11.329  0.1664 -0.2116  1.9231
  919MPD2     N13458   4.090   2.856  11.042 -0.0238 -0.1076 -0.5236
  919MPD2    H513459   4.054   2.944  11.008 -2.8256 -0.6503  1.0266
  919MPD2    N113460   4.322   2.653  11.406 -0.1536 -0.2202  0.4878
  919MPD2    H713461   4.315   2.557  11.373  0.6754 -0.6938  1.6883
  920MPD2     C13462   3.675   3.365  10.306 -0.5735 -0.5191 -0.3168
  920MPD2    C113463   3.601   3.246  10.306  0.3555 -0.2245 -0.0579
  920MPD2    C213464   3.623   3.155  10.407 -0.0828 -0.0351 -0.5030
  920MPD2    C313465   3.703   3.186  10.511 -0.4526 -0.4605 -0.1775
  920MPD2    C413466   3.767   3.305  10.518 -0.4444 -0.3982 -0.2920
  920MPD2    C513467   3.752   3.397  10.420 -0.5630  0.3708 -0.1027
  920MPD2     H13468   3.558   3.068  10.408 -0.3876  0.1954 -0.1661
  920MPD2    H113469   3.843   3.331  10.591  0.2862  1.0765 -1.5699
  920MPD2    H213470   3.672   3.447  10.235  0.0245  0.6823  1.0522
  920MPD2    H313471   3.801   3.493  10.431 -1.4562  0.6878  1.1781
  920MPD2     N13472   3.718   3.077  10.603  0.0445  0.3903 -0.4810
  920MPD2    H513473   3.672   2.990  10.576 -1.0082  0.7243  0.2174
  920MPD2    N113474   3.504   3.212  10.201  0.3010 -0.0392  0.1823
  920MPD2    H713475   3.462   3.120  10.207  2.7826 -1.0518  2.0967
  921MPD2     C13476   0.535   2.579  16.957  0.1317 -0.8000 -0.2309
  921MPD2    C113477   0.526   2.550  16.821  1.1003  0.0820  0.0168
  921MPD2    C213478   0.403   2.509  16.770 -0.4984 -0.1922 -0.4577
  921MPD2    C313479   0.291   2.485  16.844  0.3029  0.3284  0.3586
  921MPD2    C413480   0.304   2.526  16.973  0.1933  0.0237 -0.2654
  921MPD2    C513481   0.424   2.572  17.029  0.2335  0.2336  0.4929
  921MPD2     H13482   0.395   2.479  16.666  0.1178 -0.7414 -0.3493
  921MPD2    H113483   0.220   2.504  17.037  0.6794  0.4519  0.5292
  921MPD2    H213484   0.624   2.625  16.997 -1.5561  1.6883  0.6929
  921MPD2    H313485   0.429   2.604  17.132  0.2058  1.6029  0.0668
  921MPD2     N13486   0.169   2.434  16.788  0.3132  0.4399  0.3154
  921MPD2    H513487   0.152   2.406  16.692 -0.9267 -2.7923  1.4956
  921MPD2    N113488   0.647   2.551  16.751 -0.3732  0.9192  0.2453
  921MPD2    H713489   0.730   2.555  16.809 -1.4756 -2.3842  2.0083
  922MPD2     C13490   0.932   4.631  17.343  0.1867  0.2997 -0.3872
  922MPD2    C113491   0.803   4.663  17.296 -0.2038 -0.0207 -0.4468
  922MPD2    C213492   0.704   4.678  17.390  0.4189  0.3253  0.2132
  922MPD2    C313493   0.721   4.683  17.528 -0.2860  0.4639  0.4701
  922MPD2    C413494   0.848   4.668  17.574  0.7502 -0.7580  0.1690
  922MPD2    C513495   0.949   4.633  17.482  0.1003 -0.0406  0.4443
  922MPD2     H13496   0.611   4.721  17.355 -0.6717 -1.4064  0.9514
  922MPD2    H113497   0.879   4.681  17.677 -0.6689  1.7488  0.2786
  922MPD2    H213498   1.015   4.610  17.276 -0.0689 -0.8275 -0.3619
  922MPD2    H313499   1.049   4.612  17.518 -1.1394 -0.3570  3.6778
  922MPD2     N13500   0.611   0.007  17.607  0.2016  0.7528 -0.1935
  922MPD2    H513501   0.519   0.012  17.565  0.0527 -2.0285 -0.1908
  922MPD2    N113502   0.781   4.713  17.166  0.0467  0.1429 -0.2633
  922MPD2    H713503   0.693   0.039  17.148  0.8643  2.3879  1.7422
  923MPD2     C13504   1.589   1.130   9.026  0.0884 -0.4478  0.0722
  923MPD2    C113505   1.645   1.244   9.081 -0.2265 -0.1858  0.4566
  923MPD2    C213506   1.774   1.230   9.126 -0.4728  0.5268 -0.0311
  923MPD2    C313507   1.827   1.100   9.131 -0.0707  0.6448 -0.3279
  923MPD2    C413508   1.766   0.986   9.088  0.2211  0.6440 -0.2994
  923MPD2    C513509   1.644   1.001   9.030  0.1878 -0.3034 -0.0076
  923MPD2     H13510   1.829   1.313   9.170 -1.0100 -0.0256  1.7164
  923MPD2    H113511   1.808   0.886   9.092 -2.3233 -0.3469  1.6049
  923MPD2    H213512   1.500   1.148   8.966  0.7033  2.0236 -0.1111
  923MPD2    H313513   1.587   0.920   8.986 -0.6285 -0.5060  1.4438
  923MPD2     N13514   1.965   1.067   9.171  0.2643  0.6169  0.0345
  923MPD2    H513515   1.994   0.970   9.165  0.0098  0.7235 -3.0013
  923MPD2    N113516   1.563   1.360   9.106  0.5009  0.3520  0.2703
  923MPD2    H713517   1.467   1.360   9.075  1.0654  3.3310 -1.4396
  924MPD2     C13518   2.544   0.292  16.208 -0.1340  0.2204  0.2794
  924MPD2    C113519   2.510   0.357  16.323  0.0449  0.4286  0.1376
  924MPD2    C213520   2.535   0.494  16.323 -0.5688  0.6776 -0.4462
  924MPD2    C313521   2.589   0.558  16.214 -0.0480 -0.4329 -0.0004
  924MPD2    C413522   2.629   0.485  16.100  0.8021  0.2270 -0.0361
  924MPD2    C513523   2.604   0.350  16.098  0.3234  0.9294  0.3722
  924MPD2     H13524   2.486   0.557  16.397 -0.4276 -0.1848  0.3807
  924MPD2    H113525   2.665   0.539  16.013 -2.3116  0.6723 -1.0465
  924MPD2    H213526   2.518   0.186  16.200  0.8114  0.2850 -3.5626
  924MPD2    H313527   2.630   0.287  16.014  0.3709  3.7913 -1.7873
  924MPD2     N13528   2.581   0.701  16.217  0.2892 -0.7629 -0.0990
  924MPD2    H513529   2.542   0.742  16.301 -2.3902 -1.4488 -1.0093
  924MPD2    N113530   2.423   0.292  16.406  0.0771  0.3376 -0.0338
  924MPD2    H713531   2.376   0.209  16.370  0.3434  1.0879 -2.0647
  925MPD2     C13532   1.467   2.416  14.695  0.2035  0.0507 -0.0702
  925MPD2    C113533   1.362   2.478  14.640  0.2781 -0.0169  0.5132
  925MPD2    C213534   1.280   2.544  14.726  0.4024 -0.1518 -0.1523
  925MPD2    C313535   1.289   2.545  14.860  0.5859 -0.3652 -0.6484
  925MPD2    C413536   1.391   2.467  14.915  0.3411  0.1357 -0.4551
  925MPD2    C513537   1.474   2.397  14.829 -0.0021 -0.1890  0.0751
  925MPD2     H13538   1.198   2.593  14.676 -0.3677 -0.5020  0.7873
  925MPD2    H113539   1.406   2.461  15.022  1.3426 -0.7334 -0.6499
  925MPD2    H213540   1.538   2.366  14.630 -0.4133 -1.0609  0.1134
  925MPD2    H313541   1.560   2.345  14.869  1.5926  1.5936 -1.0034
  925MPD2     N13542   1.198   2.610  14.944  0.9363  0.2031  0.0338
  925MPD2    H513543   1.201   2.587  15.043  0.1753  0.3256  0.0921
  925MPD2    N113544   1.334   2.488  14.497 -0.4376 -0.7350 -0.0354
  925MPD2    H713545   1.249   2.530  14.462  0.7553  0.4751 -1.4801
  926MPD2     C13546   0.141   1.373  13.694 -0.3355 -0.3464  0.0749
  926MPD2    C113547   0.028   1.407  13.630 -0.1490 -0.1049 -0.0391
  926MPD2    C213548   0.042   1.486  13.517 -0.5200 -0.5604  0.5697
  926MPD2    C313549   0.164   1.533  13.477  0.4905  0.6406  0.4274
  926MPD2    C413550   0.280   1.495  13.539 -0.0768  0.0439 -0.0413
  926MPD2    C513551   0.265   1.426  13.657 -0.0734 -0.2078 -0.2564
  926MPD2     H13552   4.676   1.506  13.459 -0.3192  2.6664  1.3956
  926MPD2    H113553   0.379   1.522  13.503  0.0065 -1.3589 -0.9035
  926MPD2    H213554   0.140   1.304  13.777  0.8356 -1.0741 -0.5172
  926MPD2    H313555   0.356   1.395  13.709 -0.4081 -0.0930  0.3986
  926MPD2     N13556   0.179   1.606  13.356 -0.6669  0.4730 -0.2371
  926MPD2    H513557   0.274   1.637  13.337 -0.1812 -0.0325  1.3468
  926MPD2    N113558   4.623   1.366  13.667  0.6637  0.0895  0.0583
  926MPD2    H713559   4.553   1.383  13.595 -0.2257 -3.1293  0.1593
  927MPD2     C13560   0.210   3.793  17.353  0.2914 -0.3384  0.0394
  927MPD2    C113561   0.209   3.924  17.362 -0.2135 -0.3816 -0.2081
  927MPD2    C213562   0.233   4.007  17.248  0.0908  0.2268  0.0540
  927MPD2    C313563   0.234   3.945  17.124 -0.0816 -0.4188  0.3033
  927MPD2    C413564   0.213   3.812  17.115  0.0450  0.9357  0.4460
  927MPD2    C513565   0.215   3.738  17.230 -0.5444 -0.5975  0.0596
  927MPD2     H13566   0.238   4.115  17.257  0.9317  0.1067  0.9610
  927MPD2    H113567   0.214   3.755  17.023  1.0142  3.2013 -0.9686
  927MPD2    H213568   0.199   3.728  17.439 -2.0816  1.2363  0.9198
  927MPD2    H313569   0.208   3.630  17.221 -0.0922 -0.3256 -3.6528
  927MPD2     N13570   0.262   4.024  17.005 -0.7613 -0.6908  0.1283
  927MPD2    H513571   0.276   4.123  17.023  1.2693 -0.5114 -2.4136
  927MPD2    N113572   0.181   3.977  17.493  0.2375 -0.2142 -0.0039
  927MPD2    H713573   0.178   3.911  17.570  0.5356 -2.7584 -2.1765
  928MPD2     C13574   3.558   2.050   1.141 -0.2832 -1.1431  0.7864
  928MPD2    C113575   3.688   2.089   1.117 -0.2588  0.0327  0.1221
  928MPD2    C213576   3.715   2.174   1.008  0.8362 -0.8210  1.1114
  928MPD2    C313577   3.610   2.231   0.937  0.1296 -0.0449 -0.3506
  928MPD2    C413578   3.484   2.173   0.951 -0.3020 -0.1791  0.3829
  928MPD2    C513579   3.455   2.083   1.053 -0.3337 -0.0346 -0.2567
  928MPD2     H13580   3.815   2.207   0.981  2.0157 -2.3004  3.6582
  928MPD2    H113581   3.404   2.219   0.893 -1.2057  2.1897  3.5136
  928MPD2    H213582   3.527   1.995   1.229  0.0488 -1.6486  0.5853
  928MPD2    H313583   3.353   2.048   1.063 -0.2813 -0.6404 -1.8078
  928MPD2     N13584   3.623   2.324   0.828  0.0074 -0.3944 -0.2182
  928MPD2    H513585   3.546   2.330   0.762 -0.3373 -2.7052 -0.0405
  928MPD2    N113586   3.780   2.049   1.217 -0.0862  0.1227 -0.6595
  928MPD2    H713587   3.746   2.002   1.300 -0.9795  1.1123 -0.4742
  929MPD2     C13588   2.447   1.501  10.375 -0.2483 -0.5405 -0.1891
  929MPD2    C113589   2.370   1.410  10.438  0.2623  0.2784 -0.2907
  929MPD2    C213590   2.238   1.392  10.396 -0.5306 -0.5900  0.8297
  929MPD2    C313591   2.188   1.478  10.301  0.2490 -0.0603  0.2236
  929MPD2    C413592   2.275   1.563  10.233 -0.2519  0.1142  0.1112
  929MPD2    C513593   2.410   1.573  10.266  0.0633 -0.2938  1.0618
  929MPD2     H13594   2.164   1.336  10.453  0.4187 -3.3040 -0.5813
  929MPD2    H113595   2.231   1.639  10.169  0.9033  0.4388 -0.2982
  929MPD2    H213596   2.553   1.508  10.395 -0.2156 -0.2559 -0.4768
  929MPD2    H313597   2.468   1.645  10.210  0.0903 -1.1366  0.0258
  929MPD2     N13598   2.050   1.475  10.264 -0.0508  0.5084  0.9755
  929MPD2    H513599   2.018   1.538  10.191 -0.1217 -1.1244 -0.4144
  929MPD2    N113600   2.423   1.350  10.551  0.3732  0.3011  0.6501
  929MPD2    H713601   2.513   1.385  10.584  0.6773 -0.8293  1.0200
  930MPD2     C13602   4.710   3.980  14.153 -0.5809 -0.1232 -0.5502
  930MPD2    C113603   4.673   4.060  14.047 -0.1932 -0.5250  0.5561
  930MPD2    C213604   4.573   4.012  13.971  0.6168  0.6453  0.0100
  930MPD2    C313605   4.523   3.884  13.987  0.2628  0.3025 -0.5414
  930MPD2    C413606   4.557   3.804  14.099 -0.4663 -0.0407  1.1136
  930MPD2    C513607   4.651   3.852  14.177  1.0207 -0.0975 -0.2629
  930MPD2     H13608   4.550   4.071  13.883 -1.8257 -1.2811 -0.6547
  930MPD2    H113609   4.516   3.703  14.104  0.4413 -0.4760 -0.1366
  930MPD2    H213610   0.057   4.017  14.226 -2.0490  1.0475  0.2660
  930MPD2    H313611   4.665   3.793  14.266 -1.1293  1.2636  0.9881
  930MPD2     N13612   4.438   3.836  13.890 -0.4192 -0.5379  0.6145
  930MPD2    H513613   4.424   3.736  13.881  0.7552 -0.4909 -1.6857
  930MPD2    N113614   0.011   4.186  14.031 -0.0138  0.3756  0.0607
  930MPD2    H713615   0.102   4.196  14.075  0.1605  1.3752 -0.5422
  931MPD2     C13616   0.256   3.643   0.276  0.3477 -0.3815 -0.4830
  931MPD2    C113617   0.262   3.766   0.328 -0.3944  0.4551  0.1279
  931MPD2    C213618   0.325   3.786   0.453  0.4558 -0.3007 -0.5549
  931MPD2    C313619   0.383   3.686   0.516  0.2264 -0.1413 -0.6005
  931MPD2    C413620   0.351   3.559   0.473 -0.4840  0.3912 -0.2210
  931MPD2    C513621   0.302   3.535   0.349  0.4064  0.0016  0.3848
  931MPD2     H13622   0.352   3.885   0.488  0.8799 -0.4873 -0.3618
  931MPD2    H113623   0.392   3.472   0.523 -0.8493  0.6341  0.4946
  931MPD2    H213624   0.197   3.617   0.188 -1.1366  0.2002  0.3339
  931MPD2    H313625   0.277   3.434   0.320  3.1992 -0.0944 -1.7125
  931MPD2     N13626   0.464   3.704   0.633  0.7026  0.3852  0.3136
  931MPD2    H513627   0.512   3.622   0.668 -0.0144  0.1298  0.6820
  931MPD2    N113628   0.208   3.872   0.254  0.0772  0.3975  0.1405
  931MPD2    H713629   0.167   3.846   0.164  3.5536 -1.5565 -0.8897
  932MPD2     C13630   0.831   2.598  11.535  0.2712 -0.0218 -0.5891
  932MPD2    C113631   0.951   2.661  11.565  0.0612  0.1516 -0.1092
  932MPD2    C213632   1.055   2.592  11.617 -0.3656 -0.7482 -0.0029
  932MPD2    C313633   1.048   2.455  11.633  0.2301 -0.1379 -0.7912
  932MPD2    C413634   0.932   2.387  11.597  0.3120  0.1474 -0.1432
  932MPD2    C513635   0.819   2.465  11.564 -0.7797  0.0269  0.1087
  932MPD2     H13636   1.145   2.641  11.651 -1.3880 -0.0502  1.7140
  932MPD2    H113637   0.929   2.278  11.598 -0.7738  0.1706 -0.5273
  932MPD2    H213638   0.746   2.652  11.494  0.6172 -0.0617 -1.3608
  932MPD2    H313639   0.729   2.410  11.540 -1.4222  0.3845  1.6819
  932MPD2     N13640   1.154   2.376  11.687 -0.1421  0.2148  0.2897
  932MPD2    H513641   1.137   2.276  11.686 -0.0383  0.2165 -1.0478
  932MPD2    N113642   0.978   2.801  11.525 -0.2995 -0.0609  0.0546
  932MPD2    H713643   1.066   2.836  11.559  0.3450 -1.7488  0.1519
  933MPD2     C13644   4.124   1.590   1.851  0.6483 -0.0494  0.4624
  933MPD2    C113645   4.017   1.649   1.790  0.3243  0.3022  0.5004
  933MPD2    C213646   3.894   1.593   1.801  0.4511  0.7136 -0.1338
  933MPD2    C313647   3.870   1.483   1.881  0.3755 -0.5149  0.2407
  933MPD2    C413648   3.982   1.435   1.948 -0.1797 -0.1480  0.5301
  933MPD2    C513649   4.106   1.486   1.933 -0.7783 -0.2937 -0.3294
  933MPD2     H13650   3.805   1.634   1.753  1.0122  0.8705 -1.0451
  933MPD2    H113651   3.975   1.347   2.010 -0.5100  0.0727  0.8087
  933MPD2    H213652   4.226   1.621   1.831  1.6407 -1.8715  2.6960
  933MPD2    H313653   4.193   1.451   1.987 -1.5754 -0.4463  0.8496
  933MPD2     N13654   3.742   1.422   1.881  0.2030  0.1296 -0.3974
  933MPD2    H513655   3.669   1.464   1.823  2.2354 -0.0150 -3.0745
  933MPD2    N113656   4.050   1.754   1.703 -1.0327 -0.6589  0.4901
  933MPD2    H713657   4.148   1.750   1.676 -1.8475 -1.0163 -2.4248
  934MPD2     C13658   2.728   0.123   1.648  1.0557  0.0030  0.4964
  934MPD2    C113659   2.797   0.017   1.586  0.7705  0.2410 -0.2876
  934MPD2    C213660   2.725   4.641   1.524 -0.2990  0.2062 -0.1151
  934MPD2    C313661   2.584   4.657   1.506  0.5360 -0.0892 -0.1191
  934MPD2    C413662   2.520   0.044   1.553 -0.2038  0.5708  0.0695
  934MPD2    C513663   2.589   0.134   1.631  0.2886  0.5321  0.8212
  934MPD2     H13664   2.785   4.557   1.491 -1.6567 -0.7886 -0.0675
  934MPD2    H113665   2.412   0.059   1.548 -0.2878  0.5364  1.7310
  934MPD2    H213666   2.779   0.191   1.714  1.1502 -0.6247  1.0716
  934MPD2    H313667   2.528   0.206   1.684 -0.7993  0.0218  0.2721
  934MPD2     N13668   2.506   4.556   1.443  0.1907  0.1296 -0.1706
  934MPD2    H513669   2.408   4.574   1.425 -0.4142 -1.5557  1.4960
  934MPD2    N113670   2.934   0.009   1.591 -0.2734  0.0885 -0.0795
  934MPD2    H713671   2.975   4.659   1.534  0.6982 -0.2146  1.0356
  935MPD2     C13672   2.886   3.768   1.392  0.1365 -1.1445  0.7280
  935MPD2    C113673   2.828   3.840   1.285  0.7891  0.5872  0.2428
  935MPD2    C213674   2.698   3.880   1.302 -0.4770 -0.2644 -0.2260
  935MPD2    C313675   2.637   3.878   1.428  0.2968 -0.7012 -0.3991
  935MPD2    C413676   2.701   3.818   1.530 -0.3260 -0.1785 -0.2622
  935MPD2    C513677   2.824   3.756   1.513  0.3488 -0.7013 -0.8161
  935MPD2     H13678   2.648   3.930   1.220  1.0790  0.8373 -0.5031
  935MPD2    H113679   2.654   3.814   1.628 -0.3726  6.3600 -0.0448
  935MPD2    H213680   2.988   3.730   1.387  0.3043 -0.6051 -0.0087
  935MPD2    H313681   2.869   3.701   1.595 -1.0806 -0.6894 -0.0279
  935MPD2     N13682   2.518   3.946   1.452  0.5950  0.1599 -0.1267
  935MPD2    H513683   2.494   3.966   1.548  2.1205  2.6974 -0.2564
  935MPD2    N113684   2.890   3.862   1.162 -0.0968  0.2968 -1.0395
  935MPD2    H713685   2.830   3.883   1.083  1.2088  0.1242 -2.0622
  936MPD2     C13686   1.508   1.309  12.649  0.1709  0.0456  0.1095
  936MPD2    C113687   1.543   1.380  12.760 -0.5556 -1.2519  0.1357
  936MPD2    C213688   1.640   1.476  12.754  0.2489  0.3336 -0.2803
  936MPD2    C313689   1.704   1.508  12.635 -0.0647 -0.1225  0.4055
  936MPD2    C413690   1.675   1.433  12.520 -0.0793 -0.2184  0.6517
  936MPD2    C513691   1.583   1.328  12.534 -0.0969 -0.9253  0.4698
  936MPD2     H13692   1.658   1.538  12.840 -0.5507  2.1846 -1.4526
  936MPD2    H113693   1.715   1.449  12.421 -1.1085 -0.4479  0.1968
  936MPD2    H213694   1.435   1.229  12.644 -0.3703  0.5391  0.1132
  936MPD2    H313695   1.548   1.280  12.444 -0.0370 -2.1122  1.0834
  936MPD2     N13696   1.776   1.635  12.631 -0.1888 -0.4006  0.5876
  936MPD2    H513697   1.785   1.679  12.722 -0.2917 -0.4250  0.6103
  936MPD2    N113698   1.486   1.362  12.885  0.0257 -0.1040 -0.2722
  936MPD2    H713699   1.537   1.411  12.958  1.2616 -0.4715 -0.8756
  937MPD2     C13700   4.689   2.030  11.487 -0.2199 -1.1332  1.1026
  937MPD2    C113701   4.716   2.164  11.507  0.1805  0.0151  0.7068
  937MPD2    C213702   0.096   2.218  11.435 -0.2960  0.6708 -0.8484
  937MPD2    C313703   0.183   2.130  11.365  0.5865  0.0861 -0.0981
  937MPD2    C413704   0.155   1.998  11.353  0.0210  0.4483 -0.5608
  937MPD2    C513705   0.038   1.955  11.403 -0.3630  1.0672  0.0540
  937MPD2     H13706   0.117   2.324  11.440  3.0879 -0.0321 -0.7054
  937MPD2    H113707   0.201   1.924  11.288  0.1072 -1.0139  1.1774
  937MPD2    H213708   4.595   1.984  11.515 -1.4578  1.7783  1.8007
  937MPD2    H313709   0.021   1.848  11.398  1.2475  0.9024 -1.7374
  937MPD2     N13710   0.291   2.189  11.292  0.9681  0.0670  0.2603
  937MPD2    H513711   0.284   2.289  11.275 -3.2604 -0.1729  0.5440
  937MPD2    N113712   4.620   2.256  11.561 -0.2197  0.7623  0.3088
  937MPD2    H713713   4.648   2.354  11.561  0.2273  0.6365  0.1370
  938MPD2     C13714   2.157   3.578   1.048 -0.4165  0.2214  0.4953
  938MPD2    C113715   2.254   3.679   1.047  0.0484 -0.4158  0.3451
  938MPD2    C213716   2.389   3.656   1.055 -0.1951 -0.1696  0.4210
  938MPD2    C313717   2.440   3.525   1.060 -0.1770 -0.3090 -0.5814
  938MPD2    C413718   2.348   3.427   1.078 -0.1934  0.0942 -0.6022
  938MPD2    C513719   2.214   3.448   1.064 -0.0425 -0.1459 -0.6264
  938MPD2     H13720   2.454   3.742   1.040 -1.4802  0.5873 -0.7742
  938MPD2    H113721   2.383   3.326   1.093  1.6473  0.8459  0.1838
  938MPD2    H213722   2.051   3.593   1.032 -0.4087 -0.3905 -0.1386
  938MPD2    H313723   2.142   3.368   1.075  0.8649 -0.5323  2.6523
  938MPD2     N13724   2.576   3.496   1.063 -0.6400 -0.3266 -0.0604
  938MPD2    H513725   2.594   3.396   1.064  2.2775  0.1713 -1.9225
  938MPD2    N113726   2.225   3.817   1.036 -0.2652 -0.2492  0.0956
  938MPD2    H713727   2.307   3.877   1.029 -2.2889  2.8352  2.4386
  939MPD2     C13728   3.613   0.807   0.310  0.7341  0.5810  0.7654
  939MPD2    C113729   3.543   0.746   0.411 -0.1767  0.3575 -0.7346
  939MPD2    C213730   3.545   0.608   0.424  0.0071  0.4023 -0.1991
  939MPD2    C313731   3.627   0.541   0.335  0.6901 -0.6723 -0.0240
  939MPD2    C413732   3.696   0.603   0.233  0.3982  0.4219  0.0959
  939MPD2    C513733   3.687   0.741   0.227 -0.7909 -0.7121 -1.2182
  939MPD2     H13734   3.484   0.558   0.499 -2.9813  2.9781 -0.9392
  939MPD2    H113735   3.757   0.546   0.163  0.7698  1.3258 -0.3234
  939MPD2    H213736   3.610   0.915   0.302  1.9212  0.5099 -0.8110
  939MPD2    H313737   3.733   0.791   0.143  0.6164  2.3237  1.3350
  939MPD2     N13738   3.638   0.401   0.358 -0.4362  0.0197  0.0390
  939MPD2    H513739   3.590   0.364   0.440  0.5855 -1.6253 -0.1045
  939MPD2    N113740   3.471   0.831   0.499 -0.3639 -0.5197 -0.5582
  939MPD2    H713741   3.499   0.929   0.493  1.0273 -0.8095  1.1987
  940MPD2     C13742   2.359   0.657  13.315 -0.3225 -0.8851 -0.0428
  940MPD2    C113743   2.458   0.743  13.357  0.0711 -0.1680  0.8814
  940MPD2    C213744   2.493   0.853  13.283 -0.5515  0.3065 -0.2382
  940MPD2    C313745   2.429   0.886  13.166 -0.4504 -0.3817 -0.1799
  940MPD2    C413746   2.333   0.802  13.120  0.7000 -0.3868  0.3131
  940MPD2    C513747   2.296   0.687  13.194 -0.1917 -0.3544  0.3325
  940MPD2     H13748   2.581   0.907  13.315  0.8345 -2.0838  0.0067
  940MPD2    H113749   2.296   0.804  13.018  0.7956  0.5408  0.3034
  940MPD2    H213750   2.324   0.576  13.378  2.0166 -1.6950  0.2147
  940MPD2    H313751   2.225   0.619  13.149  0.0587  1.4831 -2.8300
  940MPD2     N13752   2.452   0.999  13.089 -0.0093 -0.5208 -0.1778
  940MPD2    H513753   2.391   1.008  13.008  0.5569  3.6096 -0.1099
  940MPD2    N113754   2.528   0.743  13.478 -0.0202  0.3943  0.4202
  940MPD2    H713755   2.604   0.807  13.499 -1.1585  2.0998 -0.7163
  941MPD2     C13756   1.219   0.169   9.508  0.2844 -0.2510  0.3393
  941MPD2    C113757   1.355   0.132   9.533  1.0259 -0.4564 -0.0652
  941MPD2    C213758   1.380   0.000   9.590 -0.7032 -0.3357 -0.2291
  941MPD2    C313759   1.276   4.629   9.596  0.5718 -0.6061 -0.1580
  941MPD2    C413760   1.150   4.670   9.555 -0.7559 -0.1229 -0.3743
  941MPD2    C513761   1.122   0.072   9.514  0.1354  0.7546 -0.0338
  941MPD2     H13762   1.480   4.698   9.623 -1.0184 -0.3882  0.6981
  941MPD2    H113763   1.058   4.615   9.569 -0.9902  0.5564  0.7884
  941MPD2    H213764   1.192   0.270   9.479 -1.7798 -0.5694  1.1681
  941MPD2    H313765   1.019   0.093   9.491 -0.0105  1.1213  0.9686
  941MPD2     N13766   1.287   4.495   9.626 -0.2178 -0.3430 -0.2093
  941MPD2    H513767   1.206   4.435   9.616 -0.7976  0.0045  2.6454
  941MPD2    N113768   1.463   0.218   9.527  0.3674  0.2158 -0.1420
  941MPD2    H713769   1.549   0.195   9.576  0.8056 -2.2864 -2.0688
  942MPD2     C13770   1.165   1.697   9.563 -0.3547 -1.0592 -0.5038
  942MPD2    C113771   1.121   1.591   9.488  0.2718 -0.2385 -0.1420
  942MPD2    C213772   1.216   1.483   9.462 -0.1205 -0.0496  0.2243
  942MPD2    C313773   1.347   1.493   9.514 -0.5918  0.8242  0.0733
  942MPD2    C413774   1.389   1.608   9.581 -0.0873  0.2198 -0.1072
  942MPD2    C513775   1.294   1.702   9.613  0.2589 -0.4271 -0.3451
  942MPD2     H13776   1.183   1.401   9.400  1.8855 -0.7656  0.1118
  942MPD2    H113777   1.492   1.624   9.610  0.3418  2.1120 -2.6590
  942MPD2    H213778   1.102   1.775   9.602  1.7104 -0.3807  1.5127
  942MPD2    H313779   1.325   1.787   9.671 -0.4986  0.3623 -1.0903
  942MPD2     N13780   1.448   1.401   9.478 -0.0206 -0.3125  0.6800
  942MPD2    H513781   1.545   1.425   9.496 -0.2407  2.0254 -1.1805
  942MPD2    N113782   0.984   1.582   9.451 -0.3481  1.0641 -0.3070
  942MPD2    H713783   0.951   1.499   9.403 -1.1849  0.7693  0.7730
  943MPD2     C13784   0.503   0.230   9.996  0.5452  0.1819  0.6927
  943MPD2    C113785   0.553   0.164  10.103 -0.5234  0.1969  0.7363
  943MPD2    C213786   0.532   0.217  10.228  0.1123 -0.2411  0.2083
  943MPD2    C313787   0.443   0.325  10.248  0.1638 -0.6588  0.4774
  943MPD2    C413788   0.397   0.394  10.133  0.6187 -0.1301 -0.1354
  943MPD2    C513789   0.424   0.335  10.007 -0.8873  0.6200  0.5191
  943MPD2     H13790   0.567   0.160  10.312  4.1073  3.2772  0.9209
  943MPD2    H113791   0.326   0.476  10.127  1.4547  0.7525  1.9324
  943MPD2    H213792   0.530   0.200   9.895  0.6409  1.3098  0.3773
  943MPD2    H313793   0.376   0.386   9.924  0.2613  0.6099 -0.1418
  943MPD2     N13794   0.417   0.377  10.375 -0.3502 -0.4145  0.6903
  943MPD2    H513795   0.340   0.444  10.374 -0.6287 -0.7289  0.9689
  943MPD2    N113796   0.633   0.054  10.082  0.5127  0.0628  0.5113
  943MPD2    H713797   0.621   4.723   9.997 -1.2210  2.0576 -0.5052
  944MPD2     C13798   0.567   3.777  10.735 -0.0043  0.2953  0.0805
  944MPD2    C113799   0.440   3.810  10.692 -0.0706  0.0037 -0.8220
  944MPD2    C213800   0.348   3.841  10.788 -0.6340  0.3283 -0.6120
  944MPD2    C313801   0.370   3.828  10.924  0.1428 -0.2020 -0.3150
  944MPD2    C413802   0.500   3.792  10.962 -0.6532  0.3991  0.6032
  944MPD2    C513803   0.596   3.777  10.868 -0.6674 -0.5681 -0.4894
  944MPD2     H13804   0.249   3.874  10.761 -0.3520  2.9640  1.6231
  944MPD2    H113805   0.530   3.792  11.066  1.1436 -0.7337  0.0748
  944MPD2    H213806   0.651   3.764  10.668 -0.0348 -1.0211  0.2945
  944MPD2    H313807   0.701   3.769  10.893 -1.1848 -1.7393  1.3085
  944MPD2     N13808   0.262   3.870  11.007 -1.1877  0.3968 -0.0929
  944MPD2    H513809   0.178   3.911  10.968 -0.6935  1.9731  0.5188
  944MPD2    N113810   0.420   3.824  10.550 -0.3710 -0.3708 -0.1534
  944MPD2    H713811   0.498   3.833  10.486  0.4824 -1.1820  0.7682
    1TCq1    O113812   2.849   0.830  13.429  0.2114  0.1825 -0.1146
    1TCq1    C113813   2.932   0.742  13.487  0.6481  0.4065 -0.0387
    1TCq1    O213814   2.910   0.625  13.485 -0.1062 -0.2385 -0.7353
    1TCq1    C213815   3.002   0.811  13.596  1.1297 -0.1333  0.1002
    1TCq1    C313816   3.025   0.946  13.602  0.2809 -0.0926 -0.0839
    1TCq1    C413817   3.081   0.992  13.719  0.2846 -1.2675  0.1992
    1TCq1    C513818   3.108   0.912  13.828  0.8167 -0.4329  0.0031
    1TCq1    C613819   3.089   0.775  13.819  0.0105  0.1994 -0.7693
    1TCq1    C713820   3.032   0.727  13.702  0.1629 -0.0735 -0.1752
    1TCq1    C813821   3.097   0.681  13.925  0.5888  0.9412 -0.3435
    1TCq1    O413822   3.018   0.589  13.926 -0.8120 -0.3883 -0.1866
    1TCq1    C913823   3.100   1.135  13.730 -0.0100  0.3033 -0.3830
    1TCq1    O513824   3.041   1.215  13.652  0.3110 -0.1003  0.0960
    1TCq1    O613825   3.170   1.165  13.826  0.1695 -0.3648  0.7453
    1TCq1    H113826   2.872   0.924  13.439 -4.2946  1.0768  1.6017
    1TCq1    H213827   2.998   1.021  13.529 -1.7062 -0.3210  0.4100
    1TCq1    H313828   3.165   0.964  13.904  0.2516  0.0506  0.0922
    1TCq1    H413829   3.028   0.620  13.684  0.8884 -0.0752 -0.3259
    2MPD2     C13830   3.194   0.631  14.432  0.1130 -0.4002  0.3096
    2MPD2    C113831   3.232   0.761  14.391 -0.4682 -0.2324 -0.1821
    2MPD2    C213832   3.226   0.791  14.259  0.4641 -0.6589 -0.1214
    2MPD2    C313833   3.171   0.698  14.163  0.7334  0.2808  0.9059
    2MPD2    C413834   3.131   0.574  14.203  0.2522  0.0377  0.4639
    2MPD2    C513835   3.134   0.542  14.336  0.3637  0.0911 -0.1265
    2MPD2     H13836   3.245   0.888  14.215 -1.8562 -1.2124 -2.3217
    2MPD2    H113837   3.083   0.507  14.133  0.5241  0.4172 -0.0927
    2MPD2    H213838   3.186   0.595  14.535 -0.6939  1.6320  0.9543
    2MPD2    H313839   3.085   0.452  14.372 -1.4287 -1.1386 -5.7016
    2MPD2     N13840   3.166   0.735  14.024 -0.2868 -0.4589  0.8194
    2MPD2    H513841   3.219   0.818  13.999 -0.4682  0.0041  1.9692
    2MPD2    N113842   3.263   0.856  14.487 -0.0931  0.4014  0.2312
    2MPD2    H713843   3.259   0.825  14.584 -0.6639  0.1068  0.1163
    3TMC2    C113844   3.325   1.060  14.588  0.4361 -0.1666 -0.0233
    3TMC2    C213845   3.390   0.986  14.685 -0.6036  0.3924  0.2231
    3TMC2    C313846   3.470   1.060  14.769  0.3021  0.2925  0.4856
    3TMC2    C413847   3.346   1.194  14.564  0.0524 -0.0692  0.3542
    3TMC2    C513848   3.429   1.261  14.646 -0.2868 -0.9056 -0.3604
    3TMC2    C613849   3.490   1.198  14.754 -0.7231  0.3147 -0.5494
    3TMC2     C13850   3.285   0.989  14.466  0.5607 -0.0435 -0.1898
    3TMC2     O13851   3.267   1.054  14.361  0.8898 -0.3899 -0.5645
    3TMC2     H13852   3.379   0.879  14.698  2.2477  0.0962  0.1275
    3TMC2    H113853   3.296   1.240  14.479 -1.8628 -2.4130  0.2152
    3TMC2    H213854   3.562   1.239  14.824 -0.2353 -0.9657 -0.3027
    3TMC2    C713855   3.485   1.382  14.590 -0.9616  0.3414 -0.0781
    3TMC2    C813856   3.542   1.001  14.879 -0.2939 -0.9905  0.5116
    3TMC2    O113857   3.597   1.421  14.622 -0.0656  0.5241  0.1130
    3TMC2    O213858   3.534   1.045  14.993  0.1183  0.2883  0.3241
    3TMC2    O513859   3.627   0.913  14.826  0.0095 -0.0478  0.0456
    3TMC2    H513860   3.620   0.907  14.729 -1.4854  0.6094  0.1074
    4MPD2     C13861   2.172   1.765  13.829 -0.2276 -0.0780 -0.6902
    4MPD2    C113862   2.262   1.811  13.738  0.0442  0.0246  0.1013
    4MPD2    C213863   2.392   1.790  13.765 -0.3045 -0.5387 -0.4062
    4MPD2    C313864   2.440   1.743  13.883 -0.2178 -0.1110 -0.6677
    4MPD2    C413865   2.342   1.705  13.978  0.0442  0.3932 -0.2386
    4MPD2    C513866   2.206   1.706  13.950 -0.1281  0.2083  0.3747
    4MPD2     H13867   2.471   1.812  13.695 -2.1157 -1.7725 -2.8159
    4MPD2    H113868   2.379   1.663  14.071  1.5417  1.1322 -0.4848
    4MPD2    H213869   2.065   1.762  13.811 -0.2524  2.4390 -0.8452
    4MPD2    H313870   2.125   1.668  14.011 -0.3031 -0.7755 -0.4694
    4MPD2     N13871   2.580   1.721  13.893  0.2083  0.0448 -0.5988
    4MPD2    H513872   2.646   1.739  13.818 -1.4389  1.4596 -1.6972
    4MPD2    N113873   2.227   1.872  13.618 -0.4440 -0.4044  0.3851
    4MPD2    H713874   2.136   1.917  13.625  0.8805  2.5898 -1.4262
    5TCq2    C113875   2.648   1.703  14.012  0.0188  0.0830  0.4611
    5TCq2    O213876   2.604   1.697  14.122  0.3467 -0.0220  0.4056
    5TCq2    C213877   2.790   1.701  13.987  0.2724 -0.7580  0.4670
    5TCq2    C313878   2.835   1.658  13.864  0.1966  0.0199  0.0901
    5TCq2    C413879   2.964   1.632  13.860  0.0368 -0.2616 -0.0891
    5TCq2    C513880   3.052   1.684  13.954  0.1678  0.2422  0.6254
    5TCq2    C613881   3.008   1.732  14.074  0.0233 -0.1154  0.2772
    5TCq2    C713882   2.873   1.737  14.088 -0.2572  0.8423  0.3740
    5TCq2    C813883   3.089   1.713  14.191  0.0614 -0.5508 -0.3656
    5TCq2    O413884   3.036   1.643  14.276  0.0587  0.2046 -0.1602
    5TCq2    C913885   3.007   1.550  13.754 -0.1057  0.3041  0.0048
    5TCq2    O513886   3.128   1.515  13.746  0.2835 -0.1948  0.5887
    5TCq2    O613887   2.918   1.502  13.678 -0.2898  0.6374 -0.3791
    5TCq2    H213888   2.775   1.620  13.783  2.0296 -2.1940 -0.2148
    5TCq2    H313889   3.159   1.676  13.936  0.4318  0.8448  1.9046
    5TCq2    H413890   2.846   1.756  14.191  0.5988 -1.5113  1.0447
    6MPD1     C13891   1.158   3.313  12.908 -0.8597  0.3321  0.3207
    6MPD1    C113892   1.116   3.185  12.871 -0.4432 -0.2409 -0.5889
    6MPD1    C213893   1.189   3.077  12.919 -0.0349 -0.0101  0.2308
    6MPD1    C313894   1.284   3.093  13.025 -0.1833 -0.0590 -0.1079
    6MPD1    C413895   1.318   3.218  13.061  0.0857 -0.1103 -0.2663
    6MPD1    C513896   1.263   3.325  12.997  0.2373 -0.2310 -0.3308
    6MPD1     H13897   1.165   2.977  12.884 -3.0141  0.7095  0.2587
    6MPD1    H113898   1.386   3.239  13.144 -0.5020 -1.0748  0.4623
    6MPD1    H213899   1.115   3.399  12.860  2.2287  1.1613 -0.9916
    6MPD1    H313900   1.307   3.421  13.019  1.4818 -0.3862 -2.1575
    6MPD1     N13901   1.347   2.978  13.085 -0.2225  0.1586  0.0487
    6MPD1    H513902   1.417   2.996  13.157 -0.6305 -0.2180  0.5392
    6MPD1    N113903   1.019   3.171  12.772 -0.5735  0.0442 -0.4484
    6MPD1    H613904   0.973   3.081  12.762  0.2239 -0.2821 -1.2053
    6MPD1    H713905   0.944   3.240  12.772 -0.3262  0.2707  4.8645
    7MPD2     C13906   1.478   2.161  13.028 -0.4621 -0.3102 -0.3259
    7MPD2    C113907   1.536   2.205  13.147 -0.6369  0.1758 -0.3571
    7MPD2    C213908   1.643   2.129  13.198  0.1056 -0.3192 -0.3792
    7MPD2    C313909   1.690   2.020  13.131  0.2602 -0.8738  0.3681
    7MPD2    C413910   1.624   1.978  13.019 -0.0551 -0.8395  0.9906
    7MPD2    C513911   1.521   2.050  12.970  0.0188  0.2812  0.0267
    7MPD2     H13912   1.693   2.172  13.284  0.8059 -0.3905 -0.7530
    7MPD2    H113913   1.649   1.889  12.963 -1.9212  0.4142 -1.8409
    7MPD2    H213914   1.395   2.217  12.987  0.0285  0.5814 -0.0861
    7MPD2    H313915   1.471   2.027  12.876 -0.0840 -0.8379  0.3686
    7MPD2     N13916   1.817   1.960  13.162  0.1571 -0.0555 -0.6223
    7MPD2    H513917   1.856   1.888  13.102  0.1189  1.8324 -2.8878
    7MPD2    N113918   1.514   2.326  13.216 -0.4504  0.4249 -0.1508
    7MPD2    H713919   1.573   2.357  13.293 -1.1695 -2.5659  1.6103
    8TMC3    C113920   2.024   1.945  13.264  0.5038  0.3736 -0.1847
    8TMC3    C213921   2.093   1.916  13.379 -0.5496 -0.9142  0.4187
    8TMC3    C313922   2.228   1.927  13.388  0.0126 -0.6702  0.1763
    8TMC3    C413923   2.093   2.022  13.172 -0.1682 -0.1045 -0.1576
    8TMC3    C513924   2.227   2.047  13.192  0.1719 -0.5354  0.0765
    8TMC3    C613925   2.298   1.996  13.299  0.1996  0.0797  0.1471
    8TMC3     C13926   1.884   1.985  13.278  0.6418 -0.3567 -0.2418
    8TMC3     O13927   1.850   2.034  13.387 -0.3406 -0.0970  0.0402
    8TMC3     H13928   2.033   1.864  13.452 -2.2399  0.0051 -0.3142
    8TMC3    H113929   2.040   2.056  13.083 -0.5895 -1.5030 -0.4374
    8TMC3    H213930   2.402   2.014  13.324  0.8055 -2.0939 -0.8587
    8TMC3    C713931   2.243   2.189  13.188 -0.9656 -0.3341  0.7589
    8TMC3    C813932   2.298   1.885  13.506  0.2833  0.0707 -0.5953
    8TMC3    O113933   2.357   2.230  13.176  0.2200  0.0462  0.0452
    8TMC3    O213934   2.401   1.827  13.479 -0.4455  0.5224 -0.0788
    9TMC3    C113935   1.382   2.763  13.155  0.8814 -0.4207  0.2709
    9TMC3    C213936   1.518   2.797  13.170 -0.7468  0.1275  0.3761
    9TMC3    C313937   1.591   2.701  13.232  0.2152 -0.0293  0.8827
    9TMC3    C413938   1.338   2.636  13.176  0.2015  0.3116  0.3001
    9TMC3    C513939   1.418   2.541  13.241 -0.6164 -0.6553 -0.0440
    9TMC3    C613940   1.539   2.585  13.287 -0.4446  0.7562 -0.2845
    9TMC3     C13941   1.313   2.848  13.057  0.2755  0.5550  0.6822
    9TMC3     O13942   1.216   2.793  12.995  0.8324 -0.1826  0.3776
    9TMC3     H13943   1.569   2.882  13.127  0.0589 -0.4967  0.0954
    9TMC3    H113944   1.235   2.607  13.163  0.0223  0.3491  1.6501
    9TMC3    H213945   1.604   2.523  13.347  0.4529 -0.5123 -2.5537
    9TMC3    C713946   1.405   2.402  13.191 -0.1910  0.6312 -0.6990
    9TMC3    C813947   1.739   2.720  13.228  0.3013 -0.4594  0.5041
    9TMC3    O113948   1.304   2.366  13.135  0.3594 -0.4397  0.0576
    9TMC3    O213949   1.792   2.828  13.205  0.0916 -0.4232  0.0733
   10MPD2     C13950   2.193   2.489  13.161 -0.1394  0.0005  0.9041
   10MPD2    C113951   2.105   2.399  13.200  0.4903 -0.5905 -0.1856
   10MPD2    C213952   1.976   2.438  13.220 -0.2156 -0.3342  0.0655
   10MPD2    C313953   1.940   2.568  13.206  0.7826 -0.0270  0.0485
   10MPD2    C413954   2.033   2.664  13.175  0.6470  0.2733  0.2308
   10MPD2    C513955   2.154   2.626  13.143 -0.5918 -0.4981 -0.4968
   10MPD2     H13956   1.897   2.369  13.248 -0.5597  0.3357  0.7383
   10MPD2    H113957   2.011   2.770  13.174 -1.6646 -0.1973 -0.7502
   10MPD2    H213958   2.294   2.457  13.142  0.4776  1.7681  1.2356
   10MPD2    H313959   2.225   2.701  13.110  0.6928 -1.0670  0.9395
   10MPD2     N13960   1.806   2.601  13.232  0.7724 -0.0911 -0.3143
   10MPD2    H513961   1.747   2.518  13.229  1.4678 -0.6898  2.2427
   10MPD2    N113962   2.128   2.255  13.203 -0.0828  0.2972 -0.0948
   10MPD2    H713963   2.044   2.202  13.222  0.4541  0.4654  2.7343
   11MPD2     C13964   3.548   1.618  14.412  0.0988  0.3528  0.0914
   11MPD2    C113965   3.420   1.562  14.433 -1.2923  0.0782 -0.3389
   11MPD2    C213966   3.318   1.609  14.357 -0.4183 -0.4676 -0.0388
   11MPD2    C313967   3.329   1.707  14.262 -0.3973 -0.2193  0.5149
   11MPD2    C413968   3.451   1.769  14.254  0.4829  1.0484 -1.0152
   11MPD2    C513969   3.558   1.727  14.335 -0.1124 -0.2898  0.4075
   11MPD2     H13970   3.220   1.566  14.375 -0.2026 -1.1798 -0.5722
   11MPD2    H113971   3.477   1.852  14.189  3.8944  1.0221  0.3366
   11MPD2    H213972   3.636   1.580  14.463 -0.8670 -0.7439  0.9545
   11MPD2    H313973   3.657   1.767  14.322 -0.5879  0.8099  0.1681
   11MPD2     N13974   3.218   1.752  14.176 -0.0319 -0.1732 -0.2148
   11MPD2    H513975   3.233   1.832  14.116  1.8010 -0.1406  0.3132
   11MPD2    N113976   3.391   1.449  14.509  0.3398 -0.4529 -0.2612
   11MPD2    H713977   3.294   1.421  14.518 -0.7026  2.7326 -1.3760
    1MPD1     C13978   0.959   3.700  16.625 -0.1515  0.2037 -0.5485
    1MPD1    C113979   0.984   3.673  16.488  0.5657  0.6487  0.0080
    1MPD1    C213980   1.097   3.603  16.457  0.0764  0.2502  0.0149
    1MPD1    C313981   1.194   3.564  16.549  0.1217 -0.1094  0.2571
    1MPD1    C413982   1.173   3.599  16.678 -0.3456  0.9056 -0.0931
    1MPD1    C513983   1.061   3.668  16.713 -0.2419 -0.3553 -0.0836
    1MPD1     H13984   1.106   3.565  16.355 -2.0727 -0.6013  0.1300
    1MPD1    H113985   1.245   3.572  16.754 -1.0484  0.2908  0.3516
    1MPD1    H213986   0.863   3.739  16.656  0.5404  0.1129  1.7475
    1MPD1    H313987   1.033   3.711  16.809  0.7890 -1.2224  0.6153
    1MPD1     N13988   1.301   3.475  16.529  0.0011  0.0163  0.0912
    1MPD1    H513989   1.337   3.425  16.609 -1.9324  0.3496  1.1728
    1MPD1    N113990   0.879   3.685  16.392 -0.3445  0.3611  0.1092
    1MPD1    H613991   0.920   3.713  16.303  2.0008 -0.4134  0.9756
    1MPD1    H713992   0.795   3.729  16.429 -1.9855 -1.3209 -1.6011
    2MPD1     C13993   1.906   3.236  17.081 -0.5556 -0.2314 -0.0670
    2MPD1    C113994   1.772   3.250  17.094 -0.6792 -0.3510  0.7288
    2MPD1    C213995   1.690   3.257  16.981 -0.0981 -0.6044  0.4796
    2MPD1    C313996   1.744   3.250  16.857 -0.1657 -0.4240 -0.3527
    2MPD1    C413997   1.879   3.236  16.844 -0.1825 -0.3108 -0.6930
    2MPD1    C513998   1.958   3.227  16.954 -0.8845 -0.2739 -0.1179
    2MPD1     H13999   1.584   3.275  16.993 -0.2022 -0.5788 -0.4713
    2MPD1    H114000   1.937   3.233  16.752 -0.1804 -0.4919 -0.6855
    2MPD1    H214001   1.967   3.238  17.171 -1.1572 -4.0847  0.4522
    2MPD1    H314002   2.064   3.204  16.958 -1.1612 -1.6119 -0.4076
    2MPD1     N14003   1.663   3.243  16.742 -0.6167  0.1956  0.2931
    2MPD1    H514004   1.565   3.264  16.754 -0.7704 -0.2942 -0.0939
    2MPD1    N114005   1.718   3.254  17.226 -0.1278 -0.0644 -0.0703
    2MPD1    H614006   1.629   3.304  17.228 -1.0985 -1.6512 -3.1397
    2MPD1    H714007   1.778   3.285  17.302 -0.4401  2.0197 -0.6890
    3TMC3    C114008   1.596   3.208  16.518 -0.6313  1.2569 -0.0027
    3TMC3    C214009   1.594   3.113  16.418  0.6539 -0.0440 -0.0329
    3TMC3    C314010   1.514   3.138  16.311  0.2404 -0.0159  0.4975
    3TMC3    C414011   1.511   3.315  16.524  0.2982  0.2773  0.3523
    3TMC3    C514012   1.438   3.336  16.412  0.4412 -0.0114  0.1818
    3TMC3    C614013   1.437   3.254  16.301 -0.6722  0.2415  0.2934
    3TMC3     C14014   1.699   3.198  16.615 -0.1411 -0.0494  0.2139
    3TMC3     O14015   1.799   3.132  16.581 -0.2254  0.5531 -0.6669
    3TMC3     H14016   1.668   3.034  16.419  1.1433  0.4282  4.0033
    3TMC3    H114017   1.526   3.395  16.595 -3.3577  1.3157 -0.0478
    3TMC3    H214018   1.375   3.267  16.213 -1.7145  3.4365  1.4665
    3TMC3    C714019   1.345   3.443  16.407  0.1298  0.3493  0.0704
    3TMC3    C814020   1.565   3.083  16.185 -0.1486 -0.5120  0.7142
    3TMC3    O114021   1.321   3.493  16.298 -0.3059  0.0270 -0.3207
    3TMC3    O214022   1.560   3.159  16.089 -0.7400  0.0441 -0.2583
    4MPD1     C14023   1.665   2.692  15.855  0.0702  0.3296  0.0841
    4MPD1    C114024   1.639   2.641  15.977 -0.1711 -1.0197  0.5200
    4MPD1    C214025   1.624   2.730  16.077  0.2980  0.3527  0.9406
    4MPD1    C314026   1.621   2.872  16.064 -0.8496  0.2029  0.3231
    4MPD1    C414027   1.645   2.919  15.937 -0.7800  0.0124  0.3565
    4MPD1    C514028   1.660   2.825  15.841  0.4825 -0.7205 -0.1445
    4MPD1     H14029   1.621   2.690  16.177  0.9611 -1.3386  0.2898
    4MPD1    H114030   1.655   3.025  15.915  1.5071 -0.1449  0.6758
    4MPD1    H214031   1.690   2.624  15.775  4.1218  1.7274  0.1936
    4MPD1    H314032   1.689   2.867  15.745  1.7725  1.8520  1.3366
    4MPD1     N14033   1.599   2.953  16.186 -0.4496 -0.4456  0.6272
    4MPD1    H514034   1.576   2.897  16.268 -1.3640  1.4264  1.6486
    4MPD1    N114035   1.667   2.499  16.009 -0.1668 -0.6881  0.4283
    4MPD1    H614036   1.620   2.435  15.945  0.7946 -0.1415 -0.8394
    4MPD1    H714037   1.631   2.469  16.099 -3.8078  0.7467 -0.5581
    1TCq1    O114038   2.319   2.128  12.353 -0.1451  0.2984 -0.5022
    1TCq1    C114039   2.300   2.253  12.303 -0.0624 -0.0209  0.8795
    1TCq1    O214040   2.257   2.347  12.368 -0.2060  0.1718  0.4058
    1TCq1    C214041   2.291   2.233  12.158  0.2418  0.2916 -0.3445
    1TCq1    C314042   2.364   2.135  12.099  0.6591 -0.3997 -0.3441
    1TCq1    C414043   2.328   2.102  11.972 -0.3034  0.0978 -0.1369
    1TCq1    C514044   2.198   2.128  11.927  0.3745  0.4603 -0.6107
    1TCq1    C614045   2.121   2.223  11.993  0.3455 -0.0639  0.3751
    1TCq1    C714046   2.177   2.283  12.102 -0.1219  0.3939 -0.1661
    1TCq1    C814047   2.011   2.272  11.917 -0.1092 -0.2376  0.1173
    1TCq1    O414048   1.994   2.218  11.809  0.1742  0.3659  0.3995
    1TCq1    C914049   2.398   1.987  11.912  0.2758 -0.0831  0.0476
    1TCq1    O514050   2.521   1.986  11.938 -0.2310  0.3526  0.3650
    1TCq1    O614051   2.344   1.928  11.816  0.0999 -0.5902 -0.5781
    1TCq1    H114052   2.319   2.064  12.278 -1.4660  1.0730 -1.1651
    1TCq1    H214053   2.462   2.105  12.135  0.2309  0.9044  1.9335
    1TCq1    H314054   2.169   2.074  11.838  1.0144 -0.1441 -0.4458
    1TCq1    H414055   2.112   2.347  12.160  0.6438 -1.1191  2.3653
    2MPD1     C14056   1.681   2.646  11.811 -0.6208 -0.2116 -0.3810
    2MPD1    C114057   1.682   2.629  11.952  0.3955  0.2689 -0.0304
    2MPD1    C214058   1.781   2.545  12.005 -0.9411  0.0483  1.0372
    2MPD1    C314059   1.831   2.443  11.927 -0.6064 -0.6995  0.2047
    2MPD1    C414060   1.801   2.433  11.793  0.2091 -0.1066  0.2432
    2MPD1    C514061   1.734   2.538  11.734  0.5583  0.1425 -0.5467
    2MPD1     H14062   1.795   2.546  12.112  0.9210  0.8472  0.7916
    2MPD1    H114063   1.847   2.360  11.727 -1.5351  1.0506 -2.2708
    2MPD1    H214064   1.639   2.733  11.762  0.0164  1.1757  1.5620
    2MPD1    H314065   1.738   2.530  11.626  0.8353  2.1989 -0.6954
    2MPD1     N14066   1.941   2.373  11.983  0.5805 -0.2006 -0.3605
    2MPD1    H514067   1.971   2.409  12.073 -1.7620 -1.3660  0.8730
    2MPD1    N114068   1.620   2.720  12.037  0.3602 -0.2209  0.5383
    2MPD1    H614069   1.535   2.747  11.989 -0.1883 -3.5989 -0.4000
    2MPD1    H714070   1.595   2.671  12.123  0.3838  0.4628  0.9307
    1TCq1    O114071   2.153   0.390  17.419  0.4598 -0.0011  0.1988
    1TCq1    C114072   2.219   0.503  17.416 -0.0961  0.4163  0.2856
    1TCq1    O214073   2.293   0.546  17.328 -0.0347 -0.1094 -0.9630
    1TCq1    C214074   2.164   0.587  17.517 -0.3970  0.3274 -0.6455
    1TCq1    C314075   2.115   0.532  17.633  0.3837  0.6157  0.3791
    1TCq1    C414076   2.050   0.616   0.027 -0.3420  0.2447  0.0169
    1TCq1    C514077   2.068   0.746   0.016  0.4008 -0.0415  0.2117
    1TCq1    C614078   2.144   0.804  17.604 -0.1794 -0.1487  0.0133
    1TCq1    C714079   2.175   0.725  17.501 -0.9992 -0.0080  0.8725
    1TCq1    C814080   2.145   0.949  17.591 -0.5425 -0.1978  0.6969
    1TCq1    O414081   2.165   0.994  17.483  0.3473 -0.2004 -0.5464
    1TCq1    C914082   1.985   0.566   0.144 -0.2897 -0.2652 -0.9653
    1TCq1    O514083   2.020   0.450   0.174  0.8927 -0.7652  0.6540
    1TCq1    O614084   1.950   0.654   0.230 -0.0455  0.0793 -0.1415
    1TCq1    H114085   2.092   0.376  17.495 -0.0785  1.6188  0.0634
    1TCq1    H214086   2.117   0.424  17.644 -0.7375  0.5948  0.3165
    1TCq1    H314087   2.033   0.810   0.096 -2.6955  0.3299 -1.4317
    1TCq1    H414088   2.236   0.771  17.424  0.7474 -1.4699  1.3650
    2MPD1     C14089   2.000   1.415   0.056 -0.1908  1.0164 -0.8619
    2MPD1    C114090   2.012   1.338   0.169  0.4229  0.5969  0.5692
    2MPD1    C214091   2.046   1.202   0.153  0.3221  0.0291  0.5518
    2MPD1    C314092   2.084   1.155   0.030 -0.4168  0.1429 -0.1390
    2MPD1    C414093   2.074   1.233  17.620  0.4771 -0.6521 -0.0531
    2MPD1    C514094   2.039   1.363  17.635  0.2475 -0.2803  0.4038
    2MPD1     H14095   2.071   1.139   0.237 -0.4356 -1.3742 -0.2670
    2MPD1    H114096   2.101   1.197  17.521  1.6825 -1.3172  0.5263
    2MPD1    H214097   1.969   1.518   0.066 -2.2901  0.2885 -0.0582
    2MPD1    H314098   2.047   1.427  17.548 -3.0663 -0.2810  0.0845
    2MPD1     N14099   2.115   1.016   0.016  0.8540 -0.2424  0.1190
    2MPD1    H514100   2.113   0.960   0.100  0.9183 -1.8750 -0.9834
    2MPD1    N114101   1.956   1.383   0.291 -0.1415 -0.2385 -0.0868
    2MPD1    H614102   1.987   1.338   0.377  0.0626  1.1148  0.5374
    2MPD1    H714103   1.958   1.484   0.303  3.3521 -0.2473 -0.6477
    1MPD1     C14104   2.906   2.104  12.403  0.0585  0.6636  0.8900
    1MPD1    C114105   2.873   2.164  12.278  0.1271 -0.3477  0.4582
    1MPD1    C214106   2.977   2.243  12.231  0.6115 -0.5795  0.1814
    1MPD1    C314107   3.108   2.249  12.282  0.4241  0.4044 -0.2998
    1MPD1    C414108   3.131   2.173  12.398  0.0805 -0.4814  0.6416
    1MPD1    C514109   3.031   2.107  12.459 -0.7558  0.4082  0.6139
    1MPD1     H14110   2.946   2.312  12.153  1.4082  0.9273  1.2017
    1MPD1    H114111   3.225   2.181  12.452  0.5589 -2.0985  0.0423
    1MPD1    H214112   2.820   2.053  12.445 -1.7886  1.1189 -2.3507
    1MPD1    H314113   3.039   2.055  12.553 -2.7616 -2.3797 -0.7518
    1MPD1     N14114   3.198   2.350  12.228  0.3664  0.6484 -0.0881
    1MPD1    H514115   3.156   2.413  12.161  3.1952 -0.2295 -2.6766
    1MPD1    N114116   2.748   2.164  12.220  0.0539  0.7320 -0.5318
    1MPD1    H614117   2.707   2.071  12.221  1.8847 -0.0407  1.4550
    1MPD1    H714118   2.749   2.198  12.124 -1.3395  1.5746 -0.2386
    2MPD1     C14119   2.856   2.648  11.754 -0.4086  0.1716 -0.3029
    2MPD1    C114120   2.758   2.595  11.675 -1.0386  0.0713 -0.0285
    2MPD1    C214121   2.798   2.518  11.569 -0.5360  0.1116 -0.4973
    2MPD1    C314122   2.928   2.517  11.523  0.0090  0.1411  0.0241
    2MPD1    C414123   3.023   2.592  11.593 -0.0158 -0.0686 -0.3322
    2MPD1    C514124   2.982   2.648  11.715  1.1277  0.3062  0.5299
    2MPD1     H14125   2.724   2.455  11.521 -0.2901  1.8989 -3.2541
    2MPD1    H114126   3.122   2.602  11.550 -0.6030  3.4904 -0.8296
    2MPD1    H214127   2.843   2.695  11.851 -2.2909 -1.2439  0.1261
    2MPD1    H314128   3.038   2.715  11.779 -1.7219  1.1712  2.0870
    2MPD1     N14129   2.971   2.452  11.405  0.2613  0.1223  0.6571
    2MPD1    H514130   3.067   2.448  11.372 -0.4287  0.5052 -1.4208
    2MPD1    N114131   2.626   2.583  11.718 -0.1000 -0.3251 -0.2055
    2MPD1    H614132   2.563   2.583  11.637  0.3374  1.5447 -0.5440
    2MPD1    H714133   2.599   2.663  11.776 -1.2728  0.2103 -1.4695
    3MPD1     C14134   2.853   2.064  10.395  0.0197 -0.5051  0.8291
    3MPD1    C114135   2.987   2.078  10.417  1.1562  0.0295  0.4460
    3MPD1    C214136   3.028   2.112  10.544 -0.0522  0.2867  0.8850
    3MPD1    C314137   2.937   2.142  10.652 -0.4562  0.6187 -0.3661
    3MPD1    C414138   2.799   2.145  10.617 -0.7829  0.0455 -0.0345
    3MPD1    C514139   2.769   2.111  10.492 -0.5085 -0.5269  0.5203
    3MPD1     H14140   3.136   2.119  10.555  0.2065 -2.5112  0.0223
    3MPD1    H114141   2.714   2.172  10.679 -1.3264  1.5130 -1.3959
    3MPD1    H214142   2.815   2.044  10.295  1.1718 -2.4425  0.7733
    3MPD1    H314143   2.668   2.134  10.460 -0.9180 -0.2369  2.0014
    3MPD1     N14144   2.981   2.172  10.782  0.1000  0.0052  0.1303
    3MPD1    H514145   3.081   2.183  10.798 -0.1864  1.9231  0.6895
    3MPD1    N114146   3.079   2.024  10.328  0.0170 -0.2517 -0.0099
    3MPD1    H614147   3.170   2.067  10.341 -0.5953  1.0143  0.1235
    3MPD1    H714148   3.050   2.017  10.231 -0.6319  0.0791  0.1585
    4MPD2     C14149   3.450   2.861  11.716  0.0653 -0.1276  0.0126
    4MPD2    C114150   3.532   2.758  11.749 -0.3791 -0.1419 -0.6351
    4MPD2    C214151   3.639   2.732  11.668 -0.1541  0.9050  0.0512
    4MPD2    C314152   3.661   2.814  11.554  0.2335  0.7339 -0.3946
    4MPD2    C414153   3.584   2.920  11.519 -0.0711 -0.2351  0.5949
    4MPD2    C514154   3.474   2.939  11.602  0.0208  0.1009 -0.3807
    4MPD2     H14155   3.708   2.652  11.691 -1.7149 -0.2616  0.6889
    4MPD2    H114156   3.582   2.969  11.423 -2.0904 -0.0760  0.6997
    4MPD2    H214157   3.360   2.885  11.772  0.1585 -0.7764  0.4466
    4MPD2    H314158   3.407   3.021  11.578 -2.0052 -1.4431  0.0676
    4MPD2     N14159   3.765   2.773  11.473  0.1346  0.0052 -0.1871
    4MPD2    H514160   3.827   2.706  11.519  1.6342  1.4130 -0.1557
    4MPD2    N114161   3.519   2.692  11.874 -0.6941 -0.1799  0.1820
    4MPD2    H714162   3.597   2.632  11.894  1.1056  1.4841 -1.8250
    5TMC3    C114163   3.452   2.649  12.086  0.9114  0.5879 -0.6206
    5TMC3    C214164   3.364   2.553  12.118 -0.2735 -0.2402  0.2017
    5TMC3    C314165   3.416   2.432  12.165  0.3101 -0.3492  0.2706
    5TMC3    C414166   3.584   2.621  12.089  0.0235 -0.5254  0.8155
    5TMC3    C514167   3.636   2.492  12.112 -0.0702 -1.5572  0.5086
    5TMC3    C614168   3.545   2.402  12.163 -0.8539 -0.7633 -0.1004
    5TMC3     C14169   3.416   2.711  11.964  1.3159 -0.5910  0.1019
    5TMC3     O14170   3.304   2.753  11.952  0.0469 -0.3793 -0.1855
    5TMC3     H14171   3.261   2.588  12.123 -1.2107 -2.8468 -0.7340
    5TMC3    H114172   3.657   2.699  12.075 -0.6005  0.0392  0.7289
    5TMC3    H214173   3.581   2.306  12.199 -2.4714 -0.9707  0.9362
    5TMC3    C714174   3.693   2.449  11.985  0.3478 -0.9524 -1.0466
    5TMC3    C814175   3.336   2.338  12.244  0.2766  0.1425  0.3431
    5TMC3    O114176   3.742   2.537  11.916 -0.1587 -0.3416 -0.3992
    5TMC3    O214177   3.399   2.251  12.299 -0.1831  0.2013 -0.2023
    6TMC3    C114178   2.961   2.325  11.223 -0.0769  0.1228 -0.9509
    6TMC3    C214179   2.898   2.301  11.099  0.6258  0.5258  0.0157
    6TMC3    C314180   2.971   2.237  11.001 -0.6374  0.1193  0.1748
    6TMC3    C414181   3.088   2.275  11.253  0.2487  1.0999  0.0434
    6TMC3    C514182   3.148   2.199  11.158 -0.0667  0.4984 -0.4803
    6TMC3    C614183   3.094   2.187  11.029 -0.2969 -0.8272  0.3513
    6TMC3     C14184   2.886   2.409  11.311  0.0161 -0.0736  0.3546
    6TMC3     O14185   2.766   2.421  11.294  0.1539  0.0721  0.3847
    6TMC3     H14186   2.799   2.332  11.067 -0.9370 -1.4453  2.9556
    6TMC3    H114187   3.133   2.280  11.352  1.0692 -0.3356 -0.2504
    6TMC3    H214188   3.149   2.129  10.956 -1.7853  0.3945 -1.7674
    6TMC3    C714189   3.297   2.211  11.158  0.1796  0.2598  0.0348
    6TMC3    C814190   2.899   2.192  10.887 -0.0940 -0.4397 -0.1053
    6TMC3    O114191   3.343   2.313  11.208 -0.0353  0.0465  0.7280
    6TMC3    O214192   2.780   2.175  10.896 -0.6302  0.1401  0.1569
    7MPD2     C14193   3.781   2.165  11.562 -0.2160  0.6067  0.6161
    7MPD2    C114194   3.836   2.283  11.610 -0.1133  0.4439 -0.4279
    7MPD2    C214195   3.798   2.332  11.734 -0.9687 -0.3373  0.0073
    7MPD2    C314196   3.711   2.267  11.818  0.5100  0.9272 -0.1377
    7MPD2    C414197   3.662   2.148  11.774 -0.0334  0.3724 -1.1231
    7MPD2    C514198   3.708   2.096  11.652  0.0042  0.3331 -0.5845
    7MPD2     H14199   3.831   2.431  11.766 -0.1044 -0.5288 -0.3040
    7MPD2    H114200   3.610   2.078  11.839  0.3447  1.0493 -0.0876
    7MPD2    H214201   3.796   2.120  11.464 -2.8601  1.1947 -0.0661
    7MPD2    H314202   3.662   2.001  11.626  0.8968 -1.1510  3.2391
    7MPD2     N14203   3.663   2.320  11.937 -0.2119  0.1187 -0.2291
    7MPD2    H514204   3.598   2.265  11.993 -0.6648  1.4994  0.5926
    7MPD2    N114205   3.914   2.353  11.518  0.1736 -0.5404 -0.7895
    7MPD2    H714206   3.938   2.306  11.432  2.0702  0.1013 -0.6110
    8TMC3    C114207   3.994   2.529  11.393 -0.1715 -0.1162  0.0860
    8TMC3    C214208   3.962   2.445  11.294 -0.1991 -0.3700 -0.4240
    8TMC3    C314209   3.875   2.502  11.195  0.0173  0.6123  0.0149
    8TMC3    C414210   3.978   2.667  11.380  0.5559  0.9401  0.0008
    8TMC3    C514211   3.894   2.716  11.289  0.2327 -0.9607 -0.5843
    8TMC3    C614212   3.849   2.634  11.190 -0.3784  0.9345 -0.6013
    8TMC3     C14213   3.960   2.483  11.526  0.1070 -0.8031  0.5576
    8TMC3     O14214   3.939   2.580  11.599 -0.0240 -0.4036  0.1232
    8TMC3     H14215   3.978   2.338  11.288  0.3512 -0.2461 -1.1904
    8TMC3    H114216   4.006   2.732  11.462  3.8224 -0.0510 -0.3241
    8TMC3    H214217   3.766   2.671  11.131  1.9241  2.5936 -2.8044
    8TMC3    C714218   3.782   2.798  11.341  0.1165  0.4633 -0.6661
    8TMC3    C814219   3.774   2.418  11.123 -0.9384  0.5508  0.3332
    8TMC3    O114220   3.708   2.856  11.262  0.4189 -0.1031 -0.1049
    8TMC3    O214221   3.670   2.474  11.096  0.3022 -0.0091 -0.2426
    9MPD2     C14222   3.754   2.073  10.989 -0.2320  0.1929 -0.1971
    9MPD2    C114223   3.719   2.189  11.053  0.0962  0.2442 -0.2996
    9MPD2    C214224   3.586   2.202  11.068  0.5384 -0.7502 -0.2945
    9MPD2    C314225   3.496   2.105  11.046 -0.6920  0.3754 -0.2343
    9MPD2    C414226   3.537   1.990  10.980  0.8317  0.2714 -0.3772
    9MPD2    C514227   3.673   1.964  10.962  0.3630 -0.3371  0.4684
    9MPD2     H14228   3.543   2.285  11.123  0.3314  0.0984 -1.7211
    9MPD2    H114229   3.475   1.901  10.975 -0.4599  1.3153 -3.0691
    9MPD2    H214230   3.856   2.048  10.962 -0.0277  3.0930 -2.1120
    9MPD2    H314231   3.711   1.880  10.905  0.2671  0.9103 -1.4297
    9MPD2     N14232   3.357   2.113  11.083 -1.2572  0.2333 -0.0202
    9MPD2    H514233   3.303   2.031  11.059  1.4319 -1.3346 -0.7385
    9MPD2    N114234   3.812   2.285  11.090 -0.4187 -0.0747  0.0451
    9MPD2    H714235   3.910   2.260  11.102 -0.5117  0.4006  1.7516
    1MPD1     C14236   2.956   4.608   0.254 -0.1278  0.0297 -0.3663
    1MPD1    C114237   2.861   4.674   0.325 -0.4107  0.0792 -0.1054
    1MPD1    C214238   2.835   0.087   0.305  0.1584  0.3034 -0.7367
    1MPD1    C314239   2.894   0.149   0.201 -0.1097  0.2630 -0.3194
    1MPD1    C414240   2.990   0.087   0.119 -0.0661 -0.8947  0.3275
    1MPD1    C514241   3.027   4.679   0.161 -0.0546 -0.1360  0.1949
    1MPD1     H14242   2.759   0.139   0.362  0.9096 -1.5137  1.9165
    1MPD1    H114243   3.046   0.138   0.041 -0.6107 -0.3200  0.3162
    1MPD1    H214244   2.973   4.502   0.264  2.0250  0.6541  2.6179
    1MPD1    H314245   3.101   4.620   0.109 -0.0398  1.1733 -1.2554
    1MPD1     N14246   2.860   0.280   0.155 -0.6045  0.4513  0.0402
    1MPD1    H514247   2.903   0.306   0.067 -2.4542 -2.2962 -1.7049
    1MPD1    N114248   2.790   4.598   0.422  0.2783 -0.0710 -0.5341
    1MPD1    H614249   2.817   4.500   0.430 -1.8930 -0.7164 -1.0159
    1MPD1    H714250   2.781   4.639   0.514  0.6319 -0.0199 -0.5220
    2MPD1     C14251   2.769   1.359   0.273 -0.0855  0.1000 -0.4046
    2MPD1    C114252   2.776   1.323   0.141  0.6838  0.3877  0.2456
    2MPD1    C214253   2.783   1.185   0.113  0.0196 -0.3469  0.6772
    2MPD1    C314254   2.796   1.089   0.209 -0.4386  0.8603 -0.2150
    2MPD1    C414255   2.787   1.132   0.343 -0.1435  0.3278  0.6336
    2MPD1    C514256   2.773   1.261   0.375  0.0566 -0.9400  0.1150
    2MPD1     H14257   2.790   1.145   0.013 -1.5390  1.2568 -0.0826
    2MPD1    H114258   2.794   1.059   0.422  1.4972  1.0961  1.1989
    2MPD1    H214259   2.743   1.462   0.296 -2.5131 -1.3624  3.3161
    2MPD1    H314260   2.758   1.291   0.478  1.3204 -0.3707  0.1311
    2MPD1     N14261   2.808   0.957   0.163  0.0799  0.5721  0.0667
    2MPD1    H514262   2.818   0.941   0.063 -2.0858  1.1364 -0.2449
    2MPD1    N114263   2.739   1.411   0.043 -0.0158  0.4437 -0.1550
    2MPD1    H614264   2.763   1.506   0.068 -0.1436  0.5519 -0.4372
    2MPD1    H714265   2.784   1.392  17.647 -0.6356  0.1997 -0.4129
    3TCq2    C114266   2.777   0.845   0.236 -0.4048  0.5697 -0.4721
    3TCq2    O214267   2.737   0.836   0.353 -0.3412 -0.4258  0.2149
    3TCq2    C214268   2.791   0.731   0.149 -0.8307 -0.1688  0.5428
    3TCq2    C314269   2.841   0.736   0.018 -0.2776 -0.0787 -0.3380
    3TCq2    C414270   2.852   0.619  17.648  0.1399 -0.2670 -0.1534
    3TCq2    C514271   2.825   0.498   0.008 -0.0059 -0.0930  0.2358
    3TCq2    C614272   2.778   0.498   0.144 -0.0432  0.1305 -0.1882
    3TCq2    C714273   2.773   0.611   0.212  0.2980 -0.8271 -0.5366
    3TCq2    C814274   2.791   0.375   0.225 -0.0239  0.1194 -0.2240
    3TCq2    O414275   2.759   0.375   0.342 -0.0257 -0.0078 -0.2498
    3TCq2    C914276   2.886   0.621  17.501 -0.6620  0.2232  0.1671
    3TCq2    O514277   2.866   0.732  17.443  0.5225  0.5531  0.2617
    3TCq2    O614278   2.927   0.512  17.446 -0.1068 -0.1074 -0.9609
    3TCq2    H214279   2.867   0.829  17.663 -1.2918 -0.0934 -0.9120
    3TCq2    H314280   2.810   0.416  17.633 -1.0061 -0.1735  0.5515
    3TCq2    H414281   2.745   0.602   0.316  0.0233  0.1384 -0.5290
    1TCq1    O114282   1.115   0.747  12.866 -0.5963  0.7235  0.6793
    1TCq1    C114283   1.240   0.738  12.824 -0.4322 -0.4050 -0.5780
    1TCq1    O214284   1.272   0.697  12.714 -0.4067 -0.6129  0.4437
    1TCq1    C214285   1.321   0.817  12.915  0.6008  0.0658  0.5957
    1TCq1    C314286   1.279   0.832  13.045 -0.2955 -0.0184 -0.3697
    1TCq1    C414287   1.363   0.887  13.131  0.4783 -0.4370  0.0165
    1TCq1    C514288   1.487   0.926  13.096  0.0346  0.4706 -1.0440
    1TCq1    C614289   1.525   0.923  12.960 -0.4395  0.9066  0.0024
    1TCq1    C714290   1.442   0.867  12.872 -0.2205  0.1737 -0.2053
    1TCq1    C814291   1.623   1.015  12.906 -0.7779 -1.0733  0.1214
    1TCq1    O414292   1.618   1.039  12.783 -0.2550 -0.2480  0.1326
    1TCq1    C914293   1.316   0.893  13.262  0.2247  0.1620 -0.5808
    1TCq1    O514294   1.396   0.945  13.346  0.2934  0.3485 -0.5249
    1TCq1    O614295   1.204   0.838  13.288  0.4124 -0.2323  0.2400
    1TCq1    H114296   1.108   0.811  12.940 -0.7338 -0.4248  1.6716
    1TCq1    H214297   1.186   0.785  13.076  0.1670 -0.1985  0.7441
    1TCq1    H314298   1.557   0.966  13.170  0.5745  1.1999 -1.9438
    1TCq1    H414299   1.475   0.856  12.770  0.4944  1.1858 -0.0931
    2MPD2     C14300   1.861   1.197  12.851  0.9905 -0.6973 -0.1194
    2MPD2    C114301   1.832   1.140  12.970 -0.3328 -0.0732 -0.1252
    2MPD2    C214302   1.919   1.154  13.078  0.0709  1.0242 -0.0387
    2MPD2    C314303   2.023   1.248  13.071  0.0126 -0.0436 -0.2829
    2MPD2    C414304   2.044   1.320  12.960 -0.1082 -0.7609  0.5221
    2MPD2    C514305   1.968   1.284  12.850 -0.1135 -0.1127 -0.1893
    2MPD2     H14306   1.906   1.096  13.169  0.5176 -0.4756 -0.9252
    2MPD2    H114307   2.128   1.387  12.944 -0.4788 -0.0030  1.7312
    2MPD2    H214308   1.799   1.186  12.763 -2.2554  1.6254  1.8644
    2MPD2    H314309   1.981   1.331  12.754  0.9935  0.4398  0.2379
    2MPD2     N14310   2.108   1.257  13.180  0.1759 -0.1892 -0.5262
    2MPD2    H514311   2.086   1.194  13.256  3.0592 -1.9005 -1.1218
    2MPD2    N114312   1.718   1.061  12.994  0.5361 -0.3726 -0.0339
    2MPD2    H714313   1.712   1.020  13.087 -3.7308  1.4921  0.4798
    3TCq1    O114314   2.235   0.974  13.544 -0.0598  0.1301 -0.2595
    3TCq1    C114315   2.332   1.053  13.583  0.6568 -0.3226 -0.2059
    3TCq1    O214316   2.412   1.025  13.673 -0.5019 -0.6762  0.8542
    3TCq1    C214317   2.362   1.150  13.478  0.0923  0.4765  0.3003
    3TCq1    C314318   2.494   1.196  13.481  0.3255 -0.3852 -0.2002
    3TCq1    C414319   2.523   1.306  13.399 -0.0161 -0.1326 -0.4630
    3TCq1    C514320   2.424   1.356  13.318 -0.6099 -0.5210 -0.2813
    3TCq1    C614321   2.301   1.297  13.309 -0.4601 -0.1132 -0.0427
    3TCq1    C714322   2.264   1.196  13.397 -0.0989 -0.4057 -0.1902
    3TCq1    C814323   2.234   1.319  13.179 -0.8172 -0.3599  0.1916
    3TCq1    O414324   2.301   1.364  13.087  0.1337  0.1817  0.2230
    3TCq1    C914325   2.641   1.379  13.426  0.5541 -0.0868  0.5986
    3TCq1    O514326   2.667   1.486  13.360  0.5738  0.0898  0.3579
    3TCq1    O614327   2.735   1.320  13.482  0.2617 -0.2952  0.4140
    3TCq1    H114328   2.224   0.978  13.447  2.5210  1.2547 -0.5253
    3TCq1    H214329   2.568   1.154  13.548 -0.2057 -0.2131  0.4977
    3TCq1    H314330   2.448   1.444  13.260  3.2773  0.4582  2.7782
    3TCq1    H414331   2.162   1.172  13.423  0.1484 -1.2684 -0.0267
    1MPD2     C14332   1.217   1.431  15.187 -0.1609  0.2721 -0.5709
    1MPD2    C114333   1.158   1.311  15.150  0.1491 -0.4055  0.4121
    1MPD2    C214334   1.223   1.246  15.048  0.2461  0.2082  0.0099
    1MPD2    C314335   1.347   1.290  14.990 -0.4930 -0.2737 -0.3063
    1MPD2    C414336   1.405   1.404  15.042  0.0642  0.4717 -0.4210
    1MPD2    C514337   1.333   1.477  15.134  0.3064 -0.2389  0.1391
    1MPD2     H14338   1.184   1.149  15.020 -0.0142  0.1631  0.5183
    1MPD2    H114339   1.500   1.444  15.009  0.5223 -0.1589  0.1452
    1MPD2    H214340   1.170   1.489  15.266 -2.1174  2.1469 -3.1013
    1MPD2    H314341   1.371   1.572  15.168  0.8453  0.0099 -1.1522
    1MPD2     N14342   1.415   1.213  14.891 -0.0529 -0.4108  0.2935
    1MPD2    H514343   1.516   1.214  14.903  0.0627  0.4247 -0.7908
    1MPD2    N114344   1.034   1.274  15.214  0.0125  0.0768 -0.2249
    1MPD2    H714345   0.992   1.346  15.272 -1.7449 -0.3487 -0.9547
    2TMC3    C114346   0.829   1.152  15.222 -0.1876 -0.2055 -0.2451
    2TMC3    C214347   0.780   1.023  15.239  0.4797  0.7897 -0.0010
    2TMC3    C314348   0.651   1.000  15.183 -0.0861  0.0099  0.3728
    2TMC3    C414349   0.757   1.259  15.171 -0.1975  0.4143  0.5495
    2TMC3    C514350   0.625   1.235  15.140 -0.0690 -0.1059  0.5732
    2TMC3    C614351   0.571   1.111  15.152 -0.2157  0.1382  0.2108
    2TMC3     C14352   0.971   1.157  15.195  0.0859  0.4204  0.3935
    2TMC3     O14353   1.013   1.051  15.146 -0.2520  0.5909  0.3498
    2TMC3     H14354   0.848   0.946  15.274  1.5085  0.6167 -2.3215
    2TMC3    H114355   0.808   1.354  15.164  1.0277 -0.1493  1.9070
    2TMC3    H214356   0.469   1.091  15.120  0.4746 -4.1687  0.6673
    2TMC3    C714357   0.565   1.310  15.034  0.2438 -0.1435 -0.5735
    2TMC3    C814358   0.636   0.893  15.084  0.3808 -0.2390  0.4943
    2TMC3    O114359   0.452   1.285  14.999  0.8493  0.5239  0.1440
    2TMC3    O214360   0.526   0.859  15.048 -0.0774 -0.8298  0.2620
    3TCq1    O114361   1.194   2.194  14.338  0.5021 -0.7751  0.5056
    3TCq1    C114362   1.072   2.157  14.374  0.2882  0.1553  0.1666
    3TCq1    O214363   0.971   2.226  14.364  0.0944 -0.4997 -0.2062
    3TCq1    C214364   1.071   2.025  14.433 -0.1500  0.5960  0.2061
    3TCq1    C314365   1.166   1.929  14.405 -0.1776 -0.0505 -0.0399
    3TCq1    C414366   1.143   1.798  14.433  0.0376 -0.0196  0.2001
    3TCq1    C514367   1.032   1.771  14.510  0.8292  0.3994  0.1396
    3TCq1    C614368   0.936   1.868  14.532 -0.1656  0.5311  0.0820
    3TCq1    C714369   0.954   1.996  14.492 -0.1250  0.5648 -0.4386
    3TCq1    C814370   0.804   1.837  14.579 -0.2946 -0.3995 -0.1263
    3TCq1    O414371   0.707   1.894  14.533 -0.2039  0.0451 -0.1339
    3TCq1    C914372   1.249   1.705  14.412  0.3576 -0.3738  0.1437
    3TCq1    O514373   1.223   1.583  14.411 -0.7695 -0.1966 -0.0560
    3TCq1    O614374   1.358   1.747  14.369  0.7399  0.6033  0.1909
    3TCq1    H114375   1.267   2.138  14.373  2.6266  0.8326 -1.2946
    3TCq1    H214376   1.254   1.944  14.343 -1.2731 -0.9399 -1.8118
    3TCq1    H314377   1.018   1.671  14.549  1.1550  0.0632 -0.6158
    3TCq1    H414378   0.872   2.067  14.500 -1.7711 -1.6830  2.4205
    4MPD2     C14379   0.570   1.693  14.685 -0.0814 -0.1185  0.2299
    4MPD2    C114380   0.701   1.664  14.725 -0.5482 -0.2203  0.6224
    4MPD2    C214381   0.727   1.571  14.823 -0.3743  0.5052  0.2475
    4MPD2    C314382   0.625   1.500  14.876  0.6880 -0.6978 -0.2132
    4MPD2    C414383   0.492   1.522  14.836 -0.0857 -0.5660 -0.1199
    4MPD2    C514384   0.468   1.618  14.734  0.1005  0.0418  0.3222
    4MPD2     H14385   0.828   1.550  14.856 -0.4886  1.1683  1.0238
    4MPD2    H114386   0.401   1.483  14.881  0.1410 -1.3904 -0.3876
    4MPD2    H214387   0.546   1.769  14.610  2.2573  0.7010  0.3090
    4MPD2    H314388   0.367   1.641  14.703  0.1844 -1.9655 -1.4339
    4MPD2     N14389   0.652   1.405  14.984  0.0038 -0.7896 -0.0587
    4MPD2    H514390   0.743   1.408  15.028  0.2137 -1.9604 -0.4248
    4MPD2    N114391   0.807   1.738  14.674  0.1584  0.4517 -0.6517
    4MPD2    H714392   0.892   1.716  14.724 -0.0205 -0.1407 -0.6021
    5TMC2    C114393   1.355   0.779  14.802 -0.1399 -1.6405  0.3368
    5TMC2    C214394   1.461   0.765  14.888  0.8249  0.5043  0.3428
    5TMC2    C314395   1.553   0.870  14.912 -0.9854  0.0511  0.0328
    5TMC2    C414396   1.336   0.903  14.748  0.1520 -0.0742 -0.8432
    5TMC2    C514397   1.421   1.003  14.779 -1.0486 -0.0823  0.1764
    5TMC2    C614398   1.535   0.989  14.847  0.0135 -0.0088 -0.2002
    5TMC2     C14399   1.226   0.748  14.866  0.3336  0.1132 -0.8556
    5TMC2     O14400   1.221   0.785  14.982  0.1949  0.3822  0.4256
    5TMC2     H14401   1.499   0.669  14.922  0.6510 -0.2917 -1.7398
    5TMC2    H114402   1.241   0.919  14.699 -0.6359  1.2474  1.1165
    5TMC2    H214403   1.618   1.059  14.854  2.6900 -3.1941  0.0896
    5TMC2    C714404   1.350   1.126  14.812  0.7790 -0.1848  0.1116
    5TMC2    C814405   1.671   0.837  14.989  0.5744  0.4421 -0.0291
    5TMC2    O114406   1.229   1.128  14.780 -0.4282 -0.3778  0.2957
    5TMC2    O214407   1.689   0.725  15.022 -0.0886 -0.1423  0.3680
    5TMC2    O514408   1.700   0.942  15.067  0.1637  0.5503  0.9485
    5TMC2    H514409   1.694   1.028  15.019 -3.9082 -0.0053  0.4567
    6MPD2     C14410   0.726   0.741  14.823 -0.2915  0.4108  0.0500
    6MPD2    C114411   0.803   0.783  14.926  0.4046 -0.0706  0.3168
    6MPD2    C214412   0.944   0.772  14.910  0.3642 -0.7866 -0.0064
    6MPD2    C314413   0.997   0.721  14.791 -0.1249 -0.6151  0.2408
    6MPD2    C414414   0.912   0.668  14.699 -0.6569 -0.2612  0.0918
    6MPD2    C514415   0.777   0.677  14.710  0.2667 -0.5124  0.2871
    6MPD2     H14416   1.000   0.827  14.984  0.3132  1.6781 -1.8052
    6MPD2    H114417   0.945   0.627  14.604  0.1783 -0.9214  0.6655
    6MPD2    H214418   0.618   0.746  14.828 -0.3978 -0.8727 -1.0930
    6MPD2    H314419   0.718   0.630  14.633 -1.3985 -1.2462  2.0188
    6MPD2     N14420   1.139   0.721  14.767 -0.3790  0.6878 -0.1777
    6MPD2    H514421   1.181   0.693  14.679  0.2782  1.1246 -0.0003
    6MPD2    N114422   0.763   0.856  15.040 -0.8195  0.3995  0.4773
    6MPD2    H714423   0.836   0.915  15.078 -2.3283  1.4386  1.7426
  945NH3     N114424   0.548   4.356   9.637  0.6214 -0.1362 -0.3869
  945NH3     H214425   0.629   4.344   9.696  1.4593  0.7064 -1.3635
  945NH3     H314426   0.475   4.358   9.707 -2.3461  1.2073 -3.5370
  945NH3     H414427   0.544   4.267   9.588 -2.2602 -1.6812  2.6501
  946SOD     NA14428   0.592   4.507  12.817 -0.4492 -0.0306  0.5043
  947SOD     NA14429   4.393   4.216  14.029  0.3339 -0.2035 -0.2679
  948SOD     NA14430   0.083   4.083   0.823  0.1954 -0.4540 -0.3452
  949SOD     NA14431   1.297   3.964  10.931 -0.6768  0.4852 -0.0161
  950SOD     NA14432   3.473   4.622   5.656  0.3861  0.2037  0.6397
  951SOD     NA14433   1.597   1.304  14.210  0.0727  0.4605  0.1361
  952SOD     NA14434   0.958   2.734   6.737  0.0314 -0.1565  0.3517
  953SOD     NA14435   0.644   0.749  10.857  0.3243 -0.0870  0.4158
  954SOD     NA14436   0.806   3.973  10.011 -0.0680  0.2991 -0.3846
  955SOD     NA14437   4.651   2.661  17.353  0.0335 -0.0680 -0.0545
  956SOD     NA14438   4.026   4.370   9.473 -0.4063 -0.1399 -0.1877
  957SOD     NA14439   2.997   1.040  10.828 -0.3411 -0.2420  0.4952
  958SOD     NA14440   1.198   0.830  15.203 -0.3461 -0.2526 -0.0720
  959SOD     NA14441   4.028   1.315  15.034  0.0568  0.6805 -0.6844
  960SOD     NA14442   3.266   1.358  13.841  0.0486  0.3011 -0.3070
  961SOD     NA14443   1.804   3.973   7.943  0.4263 -0.1482  0.3202
  962SOD     NA14444   2.838   1.293  13.677  0.1899 -0.1338  0.1743
  963SOD     NA14445   4.487   0.955   5.377  0.5223 -0.0218  0.4585
  964SOD     NA14446   3.585   0.722  12.917  0.3120 -0.0861 -0.4991
  965SOD     NA14447   4.246   0.847   2.621  0.0878 -0.0324 -0.6564
  966SOD     NA14448   2.620   4.564  13.043  0.5728  0.1271  0.2999
  967SOD     NA14449   2.783   0.265  13.813  0.0220  0.1589 -0.1966
  968SOD     NA14450   4.536   2.444   2.103 -0.3650  0.0797  0.1534
  969SOD     NA14451   1.144   3.977  11.183  0.3189  0.3244 -0.3443
  970SOD     NA14452   1.138   4.158  11.466  0.1944 -0.2798  0.2438
  971SOD     NA14453   3.083   1.416  13.555 -0.8766  0.1215  0.6716
  972SOD     NA14454   4.613   1.035  15.778 -0.4294  0.1416 -0.4740
  973SOD     NA14455   0.371   3.389   9.337  0.2257 -0.2252 -0.1009
  974SOD     NA14456   2.896   3.163  13.577  0.0278 -0.3266  0.2483
  975SOD     NA14457   1.965   0.141   0.760  0.4882 -0.4052  0.3544
  976SOD     NA14458   2.128   2.412  10.364  0.0039  0.1926 -0.1671
  977SOD     NA14459   1.160   1.279  14.616  0.2729 -0.0132  0.0705
  978SOD     NA14460   1.361   1.473   1.404 -0.0214 -0.0536 -0.2795
  979SOD     NA14461   1.640   0.516  11.702 -0.2998 -0.2350  0.3246
  980SOD     NA14462   0.549   2.757   0.322  0.6664  1.2485 -0.1580
  981SOD     NA14463   3.331   4.399   0.649  0.6946  0.7301 -0.2630
  982SOD     NA14464   3.760   1.535  16.264 -0.3287 -0.4456  0.0455
  983SOD     NA14465   1.994   4.329   0.579  0.2131 -0.4607 -0.1102
  984SOD     NA14466   4.258   0.358  12.077 -0.1385  0.1271  0.1870
  985SOD     NA14467   1.738   0.945  12.065 -0.1140 -0.4431  0.2979
  986SOD     NA14468   2.219   4.223  11.172  0.2846 -0.2989  0.0300
  987SOD     NA14469   0.114   4.212   3.287  0.2306 -0.2203 -0.2016
  988SOD     NA14470   2.260   1.773  17.682 -0.2261  0.1152 -0.2611
  989SOD     NA14471   2.445   2.970  16.217 -0.1580 -0.0629 -0.2200
  990SOD     NA14472   3.099   4.508   0.834  0.0801 -0.0346  0.3879
  991SOD     NA14473   3.070   1.405  15.864  0.1266  0.0871 -0.3690
  992SOD     NA14474   3.314   1.600  13.631 -0.0742  0.4059  0.0812
  993SOD     NA14475   0.741   0.134  10.494 -0.1574 -0.3471  0.2439
  994SOD     NA14476   2.069   0.893  11.995 -0.2968  0.3127  0.3637
  995SOD     NA14477   3.449   1.083  14.208 -0.0453  0.5320  0.2680
  996SOD     NA14478   4.306   2.874   5.354  0.2343 -0.1503 -0.1297
  997SOD     NA14479   1.985   2.071  11.651  0.0015 -0.2834  0.0644
  998SOD     NA14480   1.298   3.940   1.285 -0.3264  0.0280  0.2082
  999SOD     NA14481   0.968   4.441  15.324 -0.5062  0.0436 -0.4690
 1000SOD     NA14482   2.136   0.006  12.492  0.2812  0.3026 -0.1511
 1001SOD     NA14483   4.343   0.364  11.063 -0.2588  0.2430  0.0232
 1002SOD     NA14484   4.186   0.803  13.095  0.2174 -0.3448 -0.3188
 1003SOD     NA14485   0.633   0.472  11.027  0.5186  0.3182  0.1069
 1004SOD     NA14486   1.572   0.872  12.380  0.0098 -0.4113  0.0688
 1005SOD     NA14487   3.417   4.017   0.866 -0.8007 -0.5781 -0.2864
 1006SOD     NA14488   1.267   1.444   1.045  0.0744  0.1389 -0.3220
 1007SOD     NA14489   0.821   4.063  10.308  0.5401 -0.2036 -0.3273
 1008SOD     NA14490   4.194   0.285   1.999  0.0246 -0.2297  0.6351
 1009SOD     NA14491   3.492   4.151   0.390  0.1197  0.2306  0.0107
 1010SOD     NA14492   1.409   1.527   3.989  0.0397 -0.4448  0.1597
 1011SOD     NA14493   1.196   4.163  10.699  0.5392 -0.0643  0.6180
 1012SOL     OW14494   2.486   3.723   3.172  0.8970  0.5627  0.3106
 1012SOL    HW114495   2.548   3.793   3.190 -2.0527  3.3654 -0.4494
 1012SOL    HW214496   2.407   3.765   3.204  0.7648 -0.2348  1.0283
 1013SOL     OW14497   4.605   3.923   6.272 -0.0551 -0.9448 -0.0255
 1013SOL    HW114498   4.691   3.963   6.267 -1.1115  1.0404 -2.3330
 1013SOL    HW214499   4.617   3.873   6.353  0.5012 -3.3549 -1.5982
 1014SOL     OW14500   2.922   0.429  11.913  0.0258 -0.4977 -0.0786
 1014SOL    HW114501   2.895   0.384  11.993  1.5082 -2.2079 -0.5579
 1014SOL    HW214502   2.832   0.449  11.887  0.7426  0.9515 -1.4727
 1015SOL     OW14503   2.803   2.813  16.192 -0.0410 -0.5458  0.2929
 1015SOL    HW114504   2.730   2.849  16.241  0.0994 -0.2094  0.2540
 1015SOL    HW214505   2.778   2.836  16.102  1.7829  2.5811  0.6032
 1016SOL     OW14506   1.031   1.044   2.193 -0.3973 -0.2007 -0.0022
 1016SOL    HW114507   0.987   0.979   2.248  0.6127 -0.6767  0.2373
 1016SOL    HW214508   0.955   1.094   2.162  2.0821  2.7248 -1.3693
 1017SOL     OW14509   0.582   3.215   4.388 -0.3561  0.1400 -0.1350
 1017SOL    HW114510   0.674   3.239   4.398 -0.2248 -0.3055 -0.2411
 1017SOL    HW214511   0.554   3.261   4.309 -0.4183 -1.3146 -0.9737
 1018SOL     OW14512   1.304   3.028  10.027  0.1033 -0.4764 -0.3666
 1018SOL    HW114513   1.281   2.941   9.994 -1.2658  0.0939 -0.9244
 1018SOL    HW214514   1.400   3.031  10.028  0.1653 -2.3373  0.3157
 1019SOL     OW14515   0.857   2.009   5.686  0.1714  0.2210  0.1473
 1019SOL    HW114516   0.901   2.092   5.704 -1.2806  0.9070  0.6247
 1019SOL    HW214517   0.930   1.954   5.658  0.5740  0.8529 -0.0370
 1020SOL     OW14518   3.892   4.310   6.239  0.0347 -0.0880  1.1711
 1020SOL    HW114519   3.926   4.395   6.267 -1.4128  0.7973  0.2475
 1020SOL    HW214520   3.972   4.275   6.201 -1.0484 -0.2787 -0.9463
 1021SOL     OW14521   2.353   3.812   7.833  0.0687  0.1522 -0.5281
 1021SOL    HW114522   2.376   3.754   7.761  0.2088 -1.4149  0.7618
 1021SOL    HW214523   2.402   3.889   7.804  0.4796  0.2857  0.5034
 1022SOL     OW14524   2.127   2.614   1.217  0.8121 -0.6218 -0.6544
 1022SOL    HW114525   2.121   2.690   1.275  0.1863  0.0131 -1.5362
 1022SOL    HW214526   2.204   2.637   1.164  1.3632  0.5907  0.6864
 1023SOL     OW14527   4.285   2.242   0.112  0.6490 -0.2462  0.4843
 1023SOL    HW114528   4.309   2.273   0.025  0.3182 -0.9886  0.1290
 1023SOL    HW214529   4.320   2.310   0.169 -0.7822 -0.1572  1.2655
 1024SOL     OW14530   1.469   1.053   0.938  0.0930  0.7651 -0.3416
 1024SOL    HW114531   1.499   1.033   0.849 -0.3859 -2.2671  0.2106
 1024SOL    HW214532   1.401   0.988   0.953 -0.3535  1.5808  1.1928
 1025SOL     OW14533   0.969   2.063   3.421 -0.5461  0.1299  0.0812
 1025SOL    HW114534   0.964   1.968   3.428 -1.5715  0.0301 -2.0364
 1025SOL    HW214535   1.058   2.086   3.394 -0.2761  1.4104  2.0167
 1026SOL     OW14536   4.704   1.130   5.540  0.2771 -0.1012  0.2150
 1026SOL    HW114537   4.705   1.036   5.525  2.4123 -0.3051  1.7467
 1026SOL    HW214538   0.054   1.148   5.599  0.3720  0.7991 -0.1644
 1027SOL     OW14539   0.585   4.528   4.611 -0.0556 -0.2433 -0.0304
 1027SOL    HW114540   0.581   4.445   4.658 -4.1345  0.3375  0.6154
 1027SOL    HW214541   0.518   4.516   4.544 -1.0512  1.1070  0.7242
 1028SOL     OW14542   2.412   3.957   5.488 -0.1849  0.2796  0.2506
 1028SOL    HW114543   2.363   4.034   5.459 -1.4498 -0.7020 -0.2273
 1028SOL    HW214544   2.392   3.954   5.582  0.2705  3.6809  0.4308
 1029SOL     OW14545   1.805   2.818   6.462 -0.7845 -0.2935 -0.2510
 1029SOL    HW114546   1.726   2.834   6.514 -0.3889  1.4253 -0.1673
 1029SOL    HW214547   1.795   2.724   6.449  0.1958 -0.7925  2.6862
 1030SOL     OW14548   2.700   2.947   4.215  0.5412 -0.0918 -0.0566
 1030SOL    HW114549   2.739   2.872   4.170 -1.5234 -1.4753  0.4620
 1030SOL    HW214550   2.635   2.908   4.273 -0.4092  0.7928 -0.5328
 1031SOL     OW14551   1.150   0.476   0.897 -0.5022  0.1363  0.1465
 1031SOL    HW114552   1.201   0.425   0.959 -2.8146 -1.4676  0.7274
 1031SOL    HW214553   1.171   0.430   0.816 -2.5234 -0.9865  0.2663
 1032SOL     OW14554   2.068   3.775  12.865  0.2373  0.6247  0.0277
 1032SOL    HW114555   2.048   3.819  12.948 -2.3610  1.1749 -0.9051
 1032SOL    HW214556   2.106   3.843  12.810  1.7598  0.3517  0.7371
 1033SOL     OW14557   3.495   3.839   2.776  0.0391 -0.5305 -0.0594
 1033SOL    HW114558   3.531   3.925   2.755  1.2628 -0.6760  1.4746
 1033SOL    HW214559   3.411   3.854   2.731  0.0237 -0.0443  0.1306
 1034SOL     OW14560   4.473   4.052   8.626  0.7516 -0.3945 -0.2691
 1034SOL    HW114561   4.513   3.965   8.621  2.2859  0.3294 -0.4691
 1034SOL    HW214562   4.492   4.081   8.715  0.5032  0.4572 -0.4925
 1035SOL     OW14563   2.580   1.262   8.916 -0.1812  0.6289 -0.0846
 1035SOL    HW114564   2.640   1.210   8.968  0.5664  2.0421  0.4855
 1035SOL    HW214565   2.497   1.219   8.936 -0.3545  0.1700 -1.7886
 1036SOL     OW14566   0.125   2.534  15.063 -0.2775  0.4288 -0.6087
 1036SOL    HW114567   0.046   2.565  15.019 -0.8567 -1.3310 -0.7870
 1036SOL    HW214568   0.202   2.553  15.009  0.2859 -0.0265  0.0316
 1037SOL     OW14569   0.578   4.148   4.075  0.4989  0.0458  0.0710
 1037SOL    HW114570   0.503   4.193   4.114  0.4803  0.5625 -0.5714
 1037SOL    HW214571   0.612   4.225   4.030  0.6761  1.4163  2.5277
 1038SOL     OW14572   1.147   1.298   5.945  0.1400  0.1559  0.0829
 1038SOL    HW114573   1.173   1.385   5.974 -0.1176  0.5880 -0.9819
 1038SOL    HW214574   1.201   1.290   5.866 -0.1882 -1.3068  0.0091
 1039SOL     OW14575   4.061   3.455   7.118 -0.4112  0.1394 -0.2945
 1039SOL    HW114576   3.992   3.389   7.118  1.1916 -1.5378 -1.2442
 1039SOL    HW214577   4.123   3.428   7.185 -1.2557  1.9537  1.2167
 1040SOL     OW14578   0.964   1.226   5.341 -0.6876 -0.1614  1.0415
 1040SOL    HW114579   0.882   1.178   5.329  0.1667 -1.1099 -1.0367
 1040SOL    HW214580   1.015   1.152   5.374 -0.1454 -0.8298 -1.3551
 1041SOL     OW14581   1.377   4.276   7.986 -0.4562  0.3532  0.1884
 1041SOL    HW114582   1.304   4.267   7.925 -0.6905 -1.5626  0.7552
 1041SOL    HW214583   1.354   4.363   8.019  0.7257  1.6404 -2.4339
 1042SOL     OW14584   3.702   2.513  17.348  0.5465  0.2593 -0.3251
 1042SOL    HW114585   3.650   2.433  17.340  0.8087 -0.2395  2.7876
 1042SOL    HW214586   3.669   2.565  17.274  1.3247  0.2701 -0.6602
 1043SOL     OW14587   3.386   0.143   8.713  0.0366 -0.4876  0.0351
 1043SOL    HW114588   3.366   0.184   8.797 -0.9323 -0.8620 -0.0082
 1043SOL    HW214589   3.336   0.196   8.651  2.7532  1.2866 -0.6348
 1044SOL     OW14590   3.329   0.686   5.001 -0.1408  0.0923  0.0208
 1044SOL    HW114591   3.248   0.729   5.029  0.0396  0.4234  0.0287
 1044SOL    HW214592   3.388   0.698   5.075  0.3147 -1.6506 -0.0613
 1045SOL     OW14593   2.094   3.215  17.391  0.3663  0.3417 -0.1519
 1045SOL    HW114594   2.137   3.160  17.326  1.0280  0.1298  0.4663
 1045SOL    HW214595   2.009   3.242  17.355  0.0747 -0.9310 -0.4059
 1046SOL     OW14596   3.617   3.029   2.966  0.1681 -0.5508 -0.3203
 1046SOL    HW114597   3.563   3.107   2.968  0.1216 -0.5804 -0.4197
 1046SOL    HW214598   3.699   3.069   2.994  0.0793 -0.2458 -0.5065
 1047SOL     OW14599   0.909   2.109   8.082 -0.2812  0.4482  0.2723
 1047SOL    HW114600   0.876   2.086   7.995  0.4375 -1.7443  0.5680
 1047SOL    HW214601   0.995   2.139   8.054 -0.6265  1.4214  0.2509
 1048SOL     OW14602   4.254   0.279  10.829  0.1182  0.4984  0.3258
 1048SOL    HW114603   4.209   0.199  10.856  1.3293 -0.1134  0.5302
 1048SOL    HW214604   4.289   0.257  10.742 -0.2835  0.0798  0.2710
 1049SOL     OW14605   4.426   2.984   7.218  0.0424  0.0876 -0.4289
 1049SOL    HW114606   4.373   2.930   7.160  0.8468  0.4171 -1.4662
 1049SOL    HW214607   4.511   2.942   7.209  0.0614  0.2807 -1.1142
 1050SOL     OW14608   1.155   1.767   8.023  0.1129 -0.2213 -0.5677
 1050SOL    HW114609   1.213   1.817   7.965  1.4394  0.3054  1.2119
 1050SOL    HW214610   1.071   1.782   7.979 -1.5712  1.0715  3.0205
 1051SOL     OW14611   0.754   3.889   8.122 -0.0941  0.3244 -0.5851
 1051SOL    HW114612   0.725   3.978   8.144 -1.1408  0.1663 -1.3067
 1051SOL    HW214613   0.813   3.857   8.190  0.2562  0.4054 -0.8506
 1052SOL     OW14614   3.498   1.007  16.907  0.3309 -0.4395 -0.4230
 1052SOL    HW114615   3.510   1.102  16.913  2.5172 -0.7031 -0.6251
 1052SOL    HW214616   3.572   0.985  16.965 -0.0690  0.8998  0.6016
 1053SOL     OW14617   0.404   3.453   4.726 -0.3065  0.2379  0.4097
 1053SOL    HW114618   0.408   3.430   4.818  0.7779 -0.4637  0.1844
 1053SOL    HW214619   0.336   3.395   4.693 -1.3614  1.5596  0.2670
 1054SOL     OW14620   0.408   1.532   4.953  0.0338 -0.0407  0.3230
 1054SOL    HW114621   0.496   1.515   4.986  0.6460  0.6360 -0.9594
 1054SOL    HW214622   0.427   1.498   4.866  0.3239 -1.8725  1.0845
 1055SOL     OW14623   3.537   1.627   5.532  0.3460  0.3294  0.6205
 1055SOL    HW114624   3.532   1.707   5.583 -1.0895 -0.4425  1.6838
 1055SOL    HW214625   3.446   1.609   5.509  1.0512 -1.4766 -0.8223
 1056SOL     OW14626   1.515   4.343   6.628  0.0055  0.4827  0.1737
 1056SOL    HW114627   1.563   4.396   6.692  0.8366 -2.5136  1.9887
 1056SOL    HW214628   1.425   4.370   6.648 -0.0747  0.1685  0.2295
 1057SOL     OW14629   0.269   3.138   9.705 -0.4292  0.0288 -0.2669
 1057SOL    HW114630   0.234   3.051   9.688  0.7046 -0.0062 -2.4579
 1057SOL    HW214631   0.280   3.135   9.800 -1.9112 -0.1530 -0.1097
 1058SOL     OW14632   1.782   1.312   6.721 -0.9647 -0.2957  0.5589
 1058SOL    HW114633   1.764   1.219   6.707 -1.6938 -0.1135  0.3039
 1058SOL    HW214634   1.707   1.346   6.770  0.0128  2.1490  0.3663
 1059SOL     OW14635   0.341   1.528   5.698 -0.1139 -0.2397  0.0550
 1059SOL    HW114636   0.372   1.460   5.638 -0.2666 -1.2049  1.0683
 1059SOL    HW214637   0.402   1.529   5.772 -0.0856  1.0990  0.0115
 1060SOL     OW14638   2.421   1.838  14.537 -0.2630  0.0205  0.0739
 1060SOL    HW114639   2.424   1.801  14.625  2.2337 -0.4909 -0.2285
 1060SOL    HW214640   2.447   1.929  14.552  1.9215 -0.3331 -1.5525
 1061SOL     OW14641   3.661   0.492  17.070  0.1375  0.5084 -0.1461
 1061SOL    HW114642   3.650   0.567  17.012  0.3514  0.8280  0.2290
 1061SOL    HW214643   3.581   0.443  17.051  0.0894  0.4565  0.2020
 1062SOL     OW14644   1.837   0.676   7.338  0.3103 -0.2365 -0.5550
 1062SOL    HW114645   1.794   0.761   7.333  0.9554  0.0183 -1.7106
 1062SOL    HW214646   1.826   0.646   7.428  5.5290  0.7476  0.4120
 1063SOL     OW14647   1.559   0.643   0.569  0.2795 -0.5043  0.3525
 1063SOL    HW114648   1.615   0.607   0.501 -0.3443 -1.6458  0.4304
 1063SOL    HW214649   1.531   0.724   0.527  1.4894 -0.3052 -0.0807
 1064SOL     OW14650   4.362   0.686   9.132  0.1627 -0.3323 -0.1574
 1064SOL    HW114651   4.322   0.717   9.213 -1.3498 -0.8493 -0.6971
 1064SOL    HW214652   4.297   0.629   9.090  0.8966 -0.5410 -1.0076
 1065SOL     OW14653   3.525   0.480   2.627 -0.3518  0.1893 -0.0458
 1065SOL    HW114654   3.573   0.557   2.597  0.7527  0.7248  3.0175
 1065SOL    HW214655   3.468   0.460   2.553  0.4676  2.2746 -1.2247
 1066SOL     OW14656   0.992   1.639   7.292 -0.3933 -0.3243  0.1554
 1066SOL    HW114657   0.959   1.721   7.256 -2.2443 -1.6211 -1.0691
 1066SOL    HW214658   0.979   1.578   7.220 -0.8534  2.7426 -2.3701
 1067SOL     OW14659   0.192   4.674   4.393 -0.0171  0.6170 -0.1133
 1067SOL    HW114660   0.118   4.618   4.370 -0.7381  2.0763 -1.3859
 1067SOL    HW214661   0.159   0.035   4.361 -1.7588  0.5681  1.5386
 1068SOL     OW14662   2.979   2.057  11.885  0.5684 -0.4289 -0.6316
 1068SOL    HW114663   3.027   2.007  11.819  0.7886  0.0698 -0.8497
 1068SOL    HW214664   2.909   1.994  11.901  0.3929 -0.4409 -1.4445
 1069SOL     OW14665   4.475   3.584   3.109 -0.0243 -0.3797  0.0118
 1069SOL    HW114666   4.440   3.495   3.106  0.0969 -0.4855  1.5921
 1069SOL    HW214667   4.507   3.580   3.019  0.2703  1.8154  0.0172
 1070SOL     OW14668   3.634   1.973   7.164 -0.3637  0.1121  0.4391
 1070SOL    HW114669   3.563   2.031   7.136 -0.3720 -0.1217 -0.0260
 1070SOL    HW214670   3.608   1.945   7.252  2.3453 -3.1959  0.2075
 1071SOL     OW14671   2.764   1.164   1.023 -0.5190 -0.3504 -0.7521
 1071SOL    HW114672   2.798   1.160   0.933  1.2447 -2.6539  0.0302
 1071SOL    HW214673   2.842   1.138   1.073 -0.7229  1.2765  0.4043
 1072SOL     OW14674   0.629   2.616   7.957  0.2276 -0.4573 -0.3754
 1072SOL    HW114675   0.666   2.534   7.924  0.6282  0.2616 -1.7185
 1072SOL    HW214676   0.617   2.598   8.050  1.2270  3.9855  0.5605
 1073SOL     OW14677   3.214   0.849  16.101  0.0946 -0.3154 -0.0531
 1073SOL    HW114678   3.122   0.855  16.076  0.4698  0.9294 -1.1039
 1073SOL    HW214679   3.233   0.758  16.080 -0.5598 -0.3281 -0.5755
 1074SOL     OW14680   1.215   3.490   2.341 -0.1356  0.5729 -0.5705
 1074SOL    HW114681   1.224   3.546   2.264 -0.4541 -2.2787 -2.6922
 1074SOL    HW214682   1.132   3.452   2.313  0.1785 -0.8617  0.4516
 1075SOL     OW14683   3.879   2.546   9.523 -0.0910  0.1331  0.1986
 1075SOL    HW114684   3.918   2.617   9.472  0.0476 -0.6945 -0.8454
 1075SOL    HW214685   3.788   2.557   9.497 -0.2286 -1.5438 -0.0743
 1076SOL     OW14686   3.310   4.162   4.082  0.2489 -0.2418  0.3864
 1076SOL    HW114687   3.406   4.153   4.082  0.5048  2.6048 -0.8350
 1076SOL    HW214688   3.301   4.214   4.003 -0.6169  1.6751  1.7312
 1077SOL     OW14689   4.218   2.055   3.794 -0.1326  0.2669  0.9169
 1077SOL    HW114690   4.282   1.987   3.815 -0.1659  0.2607  1.0009
 1077SOL    HW214691   4.264   2.129   3.834 -0.1674  0.7013  0.1520
 1078SOL     OW14692   2.914   2.468  13.030 -0.0192  0.6184 -0.8058
 1078SOL    HW114693   2.908   2.449  13.124 -1.6963  0.1414 -1.0144
 1078SOL    HW214694   2.834   2.519  13.017  1.2802  3.3590  1.9119
 1079SOL     OW14695   2.352   1.407   1.172  0.1191  0.4024 -0.1929
 1079SOL    HW114696   2.417   1.341   1.149 -3.7321 -3.3471 -0.3775
 1079SOL    HW214697   2.288   1.358   1.225 -1.5618  0.5981 -2.0554
 1080SOL     OW14698   1.529   0.151   4.926  0.4469  0.3088  0.3878
 1080SOL    HW114699   1.476   0.227   4.902 -0.7864 -1.0579 -1.1285
 1080SOL    HW214700   1.581   0.199   4.991  0.5074  0.0439  0.5346
 1081SOL     OW14701   3.174   3.724   8.841 -0.1178 -0.5614 -0.2048
 1081SOL    HW114702   3.151   3.637   8.874 -0.4736  0.4436  2.1390
 1081SOL    HW214703   3.206   3.702   8.753  1.1147 -0.5071  0.2322
 1082SOL     OW14704   2.290   1.306   3.632 -0.2743  0.3812  0.1454
 1082SOL    HW114705   2.370   1.267   3.597 -0.0809  2.3582 -1.5865
 1082SOL    HW214706   2.313   1.316   3.725 -0.2157  1.4272  0.0181
 1083SOL     OW14707   3.605   0.925   5.767  0.5702 -0.4950  0.0670
 1083SOL    HW114708   3.696   0.940   5.740  0.1966  1.5833 -0.0018
 1083SOL    HW214709   3.610   0.874   5.848 -0.8374 -2.0076 -0.7901
 1084SOL     OW14710   3.848   3.999  11.595 -0.4188 -0.2635  0.6214
 1084SOL    HW114711   3.835   3.936  11.524  0.5704  0.7790 -0.4868
 1084SOL    HW214712   3.908   4.056  11.547 -0.8295 -0.0696  0.3337
 1085SOL     OW14713   4.547   4.180   8.398 -0.2043  0.1945  0.3111
 1085SOL    HW114714   4.514   4.136   8.476 -1.3980 -0.6311 -0.6511
 1085SOL    HW214715   4.569   4.267   8.433 -1.6059  1.2414 -1.3987
 1086SOL     OW14716   1.910   2.130   7.650 -0.5225  0.5034  0.0504
 1086SOL    HW114717   1.925   2.179   7.569  2.7264  0.1266  0.4155
 1086SOL    HW214718   1.998   2.114   7.684 -0.9791  0.3376  1.1324
 1087SOL     OW14719   4.562   4.012   2.412  0.0164 -0.0083  0.4472
 1087SOL    HW114720   4.524   3.967   2.488  1.3218  0.1643  1.1984
 1087SOL    HW214721   4.654   3.989   2.415  0.2375  0.5914 -1.8584
 1088SOL     OW14722   1.420   4.238   3.716  0.2531  0.5624 -0.2866
 1088SOL    HW114723   1.486   4.197   3.773 -0.6952  0.4998  0.7750
 1088SOL    HW214724   1.436   4.185   3.638 -0.2367 -0.0374  0.0180
 1089SOL     OW14725   1.526   2.227   4.068  0.3239  0.4129 -0.1016
 1089SOL    HW114726   1.574   2.188   4.141 -0.3905 -1.2522 -0.5160
 1089SOL    HW214727   1.439   2.207   4.103  0.5014 -1.8267 -0.9295
 1090SOL     OW14728   1.142   0.361   1.179 -0.1833 -0.1539 -0.0276
 1090SOL    HW114729   1.057   0.389   1.144 -0.1896  1.1521  1.0154
 1090SOL    HW214730   1.126   0.366   1.273  1.0810  0.3631  0.1576
 1091SOL     OW14731   2.729   1.556  15.466  0.0426 -0.0403 -0.0871
 1091SOL    HW114732   2.736   1.472  15.511 -0.6096 -0.1064 -0.1042
 1091SOL    HW214733   2.694   1.614  15.533  0.5058  1.3776 -1.0634
 1092SOL     OW14734   2.986   4.218   9.259 -0.1825  0.1164 -0.4882
 1092SOL    HW114735   3.038   4.161   9.203 -0.1956 -1.2478  0.9008
 1092SOL    HW214736   2.977   4.166   9.339 -1.6518  1.3163  0.1346
 1093SOL     OW14737   3.387   3.989   9.260  0.0580  0.3988  0.2069
 1093SOL    HW114738   3.414   3.926   9.328 -0.3917  0.0128  0.0301
 1093SOL    HW214739   3.472   4.021   9.230  0.8833 -0.9991  1.0738
 1094SOL     OW14740   4.571   2.202   2.071 -0.2238  0.0439  0.4734
 1094SOL    HW114741   4.538   2.148   2.000  1.8320  0.1723 -0.5879
 1094SOL    HW214742   4.546   2.145   2.143 -1.7972 -0.4022 -0.4273
 1095SOL     OW14743   2.787   1.425   9.717 -0.0225 -0.6650 -0.2072
 1095SOL    HW114744   2.727   1.494   9.746  0.3215  0.0022 -1.0768
 1095SOL    HW214745   2.787   1.430   9.622 -0.3892 -2.5172 -0.2969
 1096SOL     OW14746   2.363   2.709   3.040 -0.0625 -0.1519  0.3828
 1096SOL    HW114747   2.365   2.660   2.957  1.1366  0.4224  0.0685
 1096SOL    HW214748   2.457   2.721   3.052  0.1902 -1.2397 -0.5330
 1097SOL     OW14749   2.043   2.784  17.645 -0.1692  0.0209  0.4721
 1097SOL    HW114750   2.015   2.808  17.557 -2.1176 -2.3451  0.4519
 1097SOL    HW214751   1.963   2.786   0.003 -1.2176  0.3751 -1.1711
 1098SOL     OW14752   3.602   4.226  13.154  0.3535  0.0086 -0.1963
 1098SOL    HW114753   3.568   4.313  13.172 -0.3923 -0.2428 -0.3741
 1098SOL    HW214754   3.684   4.238  13.105  0.0235  1.2752 -0.4241
 1099SOL     OW14755   4.091   4.675   4.233 -0.2212 -0.3721 -0.0717
 1099SOL    HW114756   4.155   4.635   4.174 -0.1528 -0.5503  0.1262
 1099SOL    HW214757   4.098   4.623   4.313 -1.8081 -0.3174  0.1184
 1100SOL     OW14758   0.472   2.144  13.726  0.2383  0.3021 -0.2941
 1100SOL    HW114759   0.405   2.145  13.657 -0.3172  1.4040  0.2698
 1100SOL    HW214760   0.461   2.063  13.776 -1.6801 -0.2431 -1.5925
 1101SOL     OW14761   4.616   2.987   8.582  0.0303  0.1797  0.3094
 1101SOL    HW114762   4.531   2.943   8.579 -0.0474  0.4511 -1.2989
 1101SOL    HW214763   4.677   2.939   8.527  0.8971  0.2355  1.2286
 1102SOL     OW14764   4.145   3.690   5.988 -0.2994  0.0652  0.1536
 1102SOL    HW114765   4.190   3.774   5.988 -0.8349  0.3508  0.5086
 1102SOL    HW214766   4.082   3.708   5.919 -0.5820 -1.0469  0.1193
 1103SOL     OW14767   2.372   4.651  10.281  0.6951 -0.0706 -0.2933
 1103SOL    HW114768   2.420   4.594  10.342  0.7070  0.7438  0.4577
 1103SOL    HW214769   2.440   4.707  10.244  0.4974 -0.1416 -0.7613
 1104SOL     OW14770   4.545   0.080   1.888  0.4519  0.2331 -0.1245
 1104SOL    HW114771   4.573   0.004   1.940 -1.7573  0.0141  0.7072
 1104SOL    HW214772   4.603   0.074   1.811  1.2506  0.0084  0.4946
 1105SOL     OW14773   3.733   4.505   7.614  0.3031 -0.8584 -0.2301
 1105SOL    HW114774   3.821   4.480   7.643 -0.0333  1.0661  2.4459
 1105SOL    HW214775   3.742   4.599   7.634 -1.5490 -0.8667  0.6977
 1106SOL     OW14776   4.061   0.640  12.198 -0.1213 -0.8646 -0.2751
 1106SOL    HW114777   4.104   0.693  12.131 -0.4412  0.5841  0.6561
 1106SOL    HW214778   4.086   0.549  12.185  0.8385 -0.5575 -0.5554
 1107SOL     OW14779   1.085   1.399  12.828  0.8984 -0.3597  0.6888
 1107SOL    HW114780   1.166   1.351  12.813  0.6197 -0.7033  0.2788
 1107SOL    HW214781   1.021   1.344  12.874 -0.0067 -0.7845 -1.0641
 1108SOL     OW14782   1.533   0.438  11.896 -0.1507 -0.4352  0.0359
 1108SOL    HW114783   1.577   0.455  11.979 -0.6766  0.0368  0.2216
 1108SOL    HW214784   1.450   0.403  11.931  0.0755  0.0484  1.0605
 1109SOL     OW14785   3.483   2.593   4.587 -0.1019 -0.4899  0.1964
 1109SOL    HW114786   3.435   2.516   4.619 -0.8926  0.1962  0.6627
 1109SOL    HW214787   3.444   2.601   4.500  0.3610 -2.0161 -0.1577
 1110SOL     OW14788   3.808   2.562   4.172 -0.2803  0.0765 -0.1684
 1110SOL    HW114789   3.749   2.612   4.228 -0.9116  2.4233 -2.9454
 1110SOL    HW214790   3.890   2.610   4.173 -1.0344  1.3751 -1.6466
 1111SOL     OW14791   2.593   2.509   3.670  0.1717  0.0070  0.2388
 1111SOL    HW114792   2.537   2.439   3.636  1.8032 -0.4867 -1.4421
 1111SOL    HW214793   2.675   2.461   3.683  0.7181  0.9843  0.3922
 1112SOL     OW14794   0.137   0.101   2.203 -0.2238  0.0867  0.3642
 1112SOL    HW114795   0.190   0.088   2.124  1.0340 -0.1030  1.2578
 1112SOL    HW214796   0.088   0.019   2.200  0.5621 -0.3794  0.2249
 1113SOL     OW14797   2.467   4.209  10.481 -0.2162  0.0566 -0.0787
 1113SOL    HW114798   2.470   4.304  10.486  0.6567  0.1574 -2.4308
 1113SOL    HW214799   2.561   4.192  10.486 -0.2171 -0.1795 -0.8515
 1114SOL     OW14800   2.675   1.660   7.667  0.4179 -0.8067  0.0560
 1114SOL    HW114801   2.710   1.695   7.585 -0.2983  2.7823  1.2924
 1114SOL    HW214802   2.706   1.720   7.734  0.1329  1.8751 -2.2441
 1115SOL     OW14803   3.842   0.936   4.650  0.0008  0.1535  0.4213
 1115SOL    HW114804   3.787   0.999   4.604  1.5185  0.5177 -0.8888
 1115SOL    HW214805   3.895   0.986   4.713  1.0299 -2.4730  1.6027
 1116SOL     OW14806   3.736   0.413  11.175 -0.1207  0.0104  0.2442
 1116SOL    HW114807   3.724   0.332  11.125 -0.1621  0.0811  0.1415
 1116SOL    HW214808   3.691   0.473  11.117  0.5199  0.0884 -0.1759
 1117SOL     OW14809   4.239   0.722   5.986  0.4830  1.7368  0.1312
 1117SOL    HW114810   4.195   0.729   6.070  0.5462  1.7873  0.1605
 1117SOL    HW214811   4.319   0.761   6.021  0.1321  2.4208  0.1842
 1118SOL     OW14812   2.938   3.130   8.763 -0.5425 -0.4085 -0.4876
 1118SOL    HW114813   2.856   3.091   8.793  0.9564 -2.2494  1.1860
 1118SOL    HW214814   2.954   3.070   8.691  2.0659  0.9747 -1.0795
 1119SOL     OW14815   2.173   4.245  15.208  0.5184 -0.5703 -0.4408
 1119SOL    HW114816   2.104   4.263  15.145 -1.7101  0.5712  2.3242
 1119SOL    HW214817   2.251   4.226  15.157  0.1149 -0.7360 -0.9927
 1120SOL     OW14818   4.100   2.470  16.626  0.1149 -0.7324 -0.3536
 1120SOL    HW114819   4.194   2.450  16.624  0.3840  0.6857 -1.5019
 1120SOL    HW214820   4.074   2.384  16.592 -1.0595 -0.4544 -0.1291
 1121SOL     OW14821   2.233   1.365   3.184 -0.1062  0.0923 -0.4907
 1121SOL    HW114822   2.208   1.338   3.095  0.1307  1.0887 -0.8548
 1121SOL    HW214823   2.315   1.411   3.167  0.9155 -0.5984  2.6532
 1122SOL     OW14824   2.177   4.421   2.322 -0.2024 -0.1298  0.1338
 1122SOL    HW114825   2.124   4.399   2.399  1.4356 -0.4741  1.1555
 1122SOL    HW214826   2.232   4.494   2.350  1.3808 -1.2303 -0.1115
 1123SOL     OW14827   4.252   2.910   1.751  0.0841  0.3156  0.7129
 1123SOL    HW114828   4.287   2.948   1.671  1.2415 -1.6063  0.3048
 1123SOL    HW214829   4.245   2.819   1.723 -0.9654  0.9113 -1.0259
 1124SOL     OW14830   1.209   1.658  10.131 -0.0473 -0.9341  0.2461
 1124SOL    HW114831   1.129   1.706  10.110  0.3627 -0.2656  0.1783
 1124SOL    HW214832   1.252   1.651  10.046  0.5384 -0.0033  0.4572
 1125SOL     OW14833   4.279   4.038   2.904 -0.2134 -0.0668  0.1372
 1125SOL    HW114834   4.243   3.963   2.858  0.8513 -1.0371  0.9022
 1125SOL    HW214835   4.230   4.106   2.858  1.4485  0.5073 -0.7698
 1126SOL     OW14836   3.629   1.821  13.030  0.1507  0.1733 -0.3050
 1126SOL    HW114837   3.582   1.745  12.995  1.0727 -1.0265  1.0706
 1126SOL    HW214838   3.575   1.857  13.100 -0.5393 -2.8520  0.7474
 1127SOL     OW14839   1.669   2.041  10.738 -0.8426 -0.2718  0.3132
 1127SOL    HW114840   1.646   2.002  10.654  2.6646  0.8063 -1.1646
 1127SOL    HW214841   1.582   2.067  10.768  0.0073  0.3539  2.2512
 1128SOL     OW14842   3.937   2.374   4.916 -0.1036 -0.6377 -0.4935
 1128SOL    HW114843   4.009   2.387   4.978 -0.4141  1.1509 -0.5128
 1128SOL    HW214844   3.871   2.379   4.985  0.9866  1.1302  0.4149
 1129SOL     OW14845   0.287   1.814   3.896  0.7660 -0.0129 -0.3734
 1129SOL    HW114846   0.322   1.726   3.887  2.8836  0.8816 -1.0940
 1129SOL    HW214847   0.332   1.851   3.972  1.8828 -2.7996  0.2969
 1130SOL     OW14848   2.347   1.559  12.910  0.2083  0.2039 -0.1191
 1130SOL    HW114849   2.342   1.629  12.976 -0.7466 -0.8638  0.9484
 1130SOL    HW214850   2.334   1.480  12.963  1.5494  0.0300 -0.0556
 1131SOL     OW14851   0.603   1.076  10.520  0.0607 -1.1291  0.1615
 1131SOL    HW114852   0.566   1.146  10.574 -4.1905 -1.1223 -2.7598
 1131SOL    HW214853   0.589   1.126  10.440 -0.2552 -0.7934  0.4217
 1132SOL     OW14854   2.894   3.040   9.130  0.2216  0.4728  0.1639
 1132SOL    HW114855   2.880   3.133   9.150 -1.0352  0.1428  0.8180
 1132SOL    HW214856   2.987   3.026   9.111 -0.2679  0.3495 -2.1720
 1133SOL     OW14857   0.913   1.996   6.083  0.1039  0.2177 -0.3287
 1133SOL    HW114858   0.969   1.981   6.159 -0.7979  2.5084  0.8217
 1133SOL    HW214859   0.843   2.053   6.118  0.3496 -0.0410  0.5774
 1134SOL     OW14860   0.321   2.914   9.147 -0.0616 -0.3133 -0.2811
 1134SOL    HW114861   0.305   2.855   9.221  3.8552 -0.4738  0.4466
 1134SOL    HW214862   0.241   2.898   9.096 -0.3241 -0.6804  0.2488
 1135SOL     OW14863   3.051   2.981   5.995 -0.3045  0.5015  0.1387
 1135SOL    HW114864   2.996   2.904   6.009  1.0579 -0.1595  1.7847
 1135SOL    HW214865   3.029   3.042   6.065  1.8846 -0.3386  1.5390
 1136SOL     OW14866   0.315   0.275  13.734  0.4123  0.1517 -0.0864
 1136SOL    HW114867   0.366   0.196  13.713  2.1454  0.5544  2.6323
 1136SOL    HW214868   0.328   0.275  13.829  0.5228 -2.1815 -0.1003
 1137SOL     OW14869   3.284   4.213   7.616  0.1205 -0.2976 -0.0236
 1137SOL    HW114870   3.339   4.146   7.577  0.3976 -0.5534  0.8219
 1137SOL    HW214871   3.309   4.202   7.708  0.2837 -2.1437 -0.3058
 1138SOL     OW14872   0.462   2.083   0.811 -0.0382  0.3286  0.1572
 1138SOL    HW114873   0.488   2.100   0.720  0.8262  0.2496  0.3856
 1138SOL    HW214874   0.510   2.151   0.858 -0.2119  0.7046 -0.2050
 1139SOL     OW14875   3.067   3.255  11.825  0.4486 -0.3944 -0.3962
 1139SOL    HW114876   3.135   3.321  11.809 -0.7245  0.4009 -2.1380
 1139SOL    HW214877   3.120   3.189  11.870 -0.9256 -2.0485 -1.1956
 1140SOL     OW14878   1.474   0.072   9.911  0.2540  0.6903 -0.4683
 1140SOL    HW114879   1.411   0.023   9.964  1.5088 -0.2475  0.1556
 1140SOL    HW214880   1.405   0.125   9.870  0.9639  1.9699 -0.0098
 1141SOL     OW14881   0.144   4.612   5.004 -0.0145  0.2567  0.3834
 1141SOL    HW114882   0.161   4.679   4.937 -2.7511  0.0552 -0.5094
 1141SOL    HW214883   0.109   4.664   5.076 -3.7385 -0.4750 -0.8990
 1142SOL     OW14884   3.064   4.141  13.730  0.1733 -0.8200 -0.3557
 1142SOL    HW114885   3.024   4.060  13.698  0.0152 -0.5788 -0.7625
 1142SOL    HW214886   3.153   4.111  13.710  0.7965  2.6851 -2.8117
 1143SOL     OW14887   4.220   0.722   2.438  0.1556  0.5738 -0.1413
 1143SOL    HW114888   4.302   0.677   2.418 -0.5703  0.2121 -2.2828
 1143SOL    HW214889   4.199   0.774   2.360  0.7815  2.0434  0.6760
 1144SOL     OW14890   0.270   0.879   2.328 -0.0792  0.1997 -0.3552
 1144SOL    HW114891   0.315   0.963   2.330  0.0782  0.1356 -1.3895
 1144SOL    HW214892   0.185   0.913   2.300 -0.0615 -0.4811 -1.2363
 1145SOL     OW14893   2.958   3.025   7.632  0.1367  0.2425 -0.0674
 1145SOL    HW114894   2.927   2.966   7.562  0.3104 -0.4010  0.3987
 1145SOL    HW214895   2.876   3.051   7.673  0.6583  0.5629  0.7571
 1146SOL     OW14896   2.750   2.697   7.128 -0.0415  0.7877  0.4578
 1146SOL    HW114897   2.837   2.736   7.133  0.6131 -0.4017 -1.6130
 1146SOL    HW214898   2.691   2.767   7.156  0.0765  0.9321  0.3444
 1147SOL     OW14899   4.667   1.158   7.125 -0.3359 -0.1692  0.2982
 1147SOL    HW114900   4.604   1.197   7.065  1.5014  1.6744 -0.4454
 1147SOL    HW214901   4.643   1.065   7.126 -1.5771  0.1606 -0.0279
 1148SOL     OW14902   1.299   2.874  14.284 -0.3458  1.0661  0.1558
 1148SOL    HW114903   1.271   2.926  14.359 -4.1287 -0.3709 -0.3009
 1148SOL    HW214904   1.394   2.865  14.290 -0.2608  3.3528  2.5086
 1149SOL     OW14905   4.386   3.245   9.531 -0.1625  0.7250 -0.3220
 1149SOL    HW114906   4.434   3.182   9.477  0.7024  0.1239  1.1270
 1149SOL    HW214907   4.346   3.187   9.596 -0.4432  0.9298 -0.3108
 1150SOL     OW14908   3.767   3.448   3.516 -0.2560  0.1609 -0.6784
 1150SOL    HW114909   3.769   3.391   3.439  0.7925  2.4006 -2.2970
 1150SOL    HW214910   3.817   3.405   3.585 -0.1656 -0.6835 -1.2717
 1151SOL     OW14911   1.919   2.918   4.011  0.2783 -0.6882 -0.4851
 1151SOL    HW114912   1.977   2.970   4.066 -0.1080 -0.5939 -0.1673
 1151SOL    HW214913   1.980   2.869   3.956 -0.1896 -2.5947  0.6818
 1152SOL     OW14914   1.280   3.596   4.196  0.0975  0.6779  0.0762
 1152SOL    HW114915   1.249   3.550   4.118  1.2223 -1.9478  1.1592
 1152SOL    HW214916   1.365   3.616   4.157 -0.2850  2.5052  0.1866
 1153SOL     OW14917   1.446   2.977  10.278 -0.0529 -0.3404 -0.5982
 1153SOL    HW114918   1.482   2.901  10.231  3.0434  1.5608 -1.3398
 1153SOL    HW214919   1.434   2.929  10.360  1.6635  0.3055  0.0356
 1154SOL     OW14920   0.361   1.500   8.825  0.0250  0.2493 -0.0854
 1154SOL    HW114921   0.370   1.557   8.749 -1.8734 -1.0881 -1.3113
 1154SOL    HW214922   0.436   1.441   8.814  0.0290  0.1981  0.2320
 1155SOL     OW14923   1.021   2.840   5.456  0.0677  0.5090  0.1337
 1155SOL    HW114924   0.972   2.916   5.488 -0.8836 -0.6144  1.3894
 1155SOL    HW214925   1.073   2.820   5.535  1.9813 -3.6630 -2.1863
 1156SOL     OW14926   0.832   2.166   1.952  0.2634  0.3893 -0.2561
 1156SOL    HW114927   0.772   2.110   2.002 -1.8052  0.5056 -2.5812
 1156SOL    HW214928   0.901   2.103   1.935 -0.3197  0.0517 -1.3483
 1157SOL     OW14929   2.018   1.523  15.452  0.2900  0.7782  0.0838
 1157SOL    HW114930   1.958   1.456  15.419  0.8521  0.6430 -0.6732
 1157SOL    HW214931   2.077   1.470  15.505 -1.5018 -2.1484 -0.8546
 1158SOL     OW14932   0.209   2.814   4.377 -0.3194 -0.1958 -0.5981
 1158SOL    HW114933   0.167   2.822   4.463  2.0780  0.6058  0.4941
 1158SOL    HW214934   0.248   2.900   4.360  1.1752 -1.0540 -1.4145
 1159SOL     OW14935   3.881   4.502   1.251  0.0496 -0.1098 -0.6260
 1159SOL    HW114936   3.975   4.519   1.249  0.3391 -1.4130  1.9733
 1159SOL    HW214937   3.853   4.528   1.339 -0.9722 -0.1097 -0.9476
 1160SOL     OW14938   0.456   2.498   1.781 -0.4021 -0.1257  0.2611
 1160SOL    HW114939   0.427   2.467   1.867  1.4142 -0.4638  0.7692
 1160SOL    HW214940   0.532   2.440   1.774  0.7147  1.5001 -1.0164
 1161SOL     OW14941   2.894   4.656   7.212 -0.3391 -0.3047 -0.0623
 1161SOL    HW114942   2.865   4.573   7.175  1.7588 -0.8214 -0.5382
 1161SOL    HW214943   2.864   4.718   7.144  0.2816 -0.9687 -0.9389
 1162SOL     OW14944   2.538   2.831   0.322 -0.7617  0.3324  0.4588
 1162SOL    HW114945   2.491   2.751   0.300 -1.4904  1.5306 -2.2532
 1162SOL    HW214946   2.593   2.839   0.244 -0.4230 -1.3408  0.5260
 1163SOL     OW14947   4.147   4.414   1.652  0.1909 -0.3633  0.0684
 1163SOL    HW114948   4.192   4.350   1.596  0.9792  0.3846 -0.1509
 1163SOL    HW214949   4.153   4.363   1.733  0.3343  0.9473  0.8673
 1164SOL     OW14950   2.526   2.247   2.356 -0.4644 -0.6408  0.2984
 1164SOL    HW114951   2.512   2.202   2.440  0.5695 -0.5810  0.5006
 1164SOL    HW214952   2.436   2.275   2.337  0.2397  0.9512 -0.7002
 1165SOL     OW14953   4.542   3.051   0.466 -0.2585 -0.5081  0.4844
 1165SOL    HW114954   4.509   3.065   0.378 -2.2086 -0.7796  1.1820
 1165SOL    HW214955   4.474   2.993   0.500 -1.1277 -0.9274 -1.9655
 1166SOL     OW14956   4.100   0.760   6.229 -0.0024  0.1562 -0.0516
 1166SOL    HW114957   4.114   0.845   6.269 -0.0973 -0.1286  0.5822
 1166SOL    HW214958   4.107   0.697   6.301 -0.0143  1.7901  1.3824
 1167SOL     OW14959   2.824   0.709   3.976  0.2145 -0.0009 -0.9000
 1167SOL    HW114960   2.915   0.717   3.948  0.4152  2.6520  0.5302
 1167SOL    HW214961   2.812   0.617   4.001 -0.8395 -0.5602 -3.3841
 1168SOL     OW14962   1.883   2.849  12.064  0.0584 -0.2967 -0.3906
 1168SOL    HW114963   1.791   2.843  12.036 -0.0112 -1.5526  0.0746
 1168SOL    HW214964   1.919   2.762  12.046 -1.6160 -1.3305  1.2995
 1169SOL     OW14965   0.334   0.840   9.158 -0.1178 -0.0297 -0.4527
 1169SOL    HW114966   0.351   0.867   9.067 -0.4487  0.2194 -0.4429
 1169SOL    HW214967   0.315   0.927   9.194 -0.3973 -0.4003  0.2768
 1170SOL     OW14968   0.038   3.523   2.428 -0.3128 -0.4354 -0.6146
 1170SOL    HW114969   4.673   3.489   2.411 -0.7127  0.3686 -0.1405
 1170SOL    HW214970   0.041   3.508   2.523  1.6913  2.9881 -0.1560
 1171SOL     OW14971   4.461   3.782  11.558 -0.2430  0.1747 -0.4300
 1171SOL    HW114972   4.507   3.706  11.594  1.1854  0.4442 -1.6857
 1171SOL    HW214973   4.426   3.740  11.479  1.9548 -2.0089 -0.2580
 1172SOL     OW14974   2.734   2.944   8.455  0.7988  0.0341  0.0300
 1172SOL    HW114975   2.691   3.018   8.499  0.3262 -0.3041  0.1377
 1172SOL    HW214976   2.817   2.935   8.502  0.1898 -0.0179  1.1084
 1173SOL     OW14977   3.871   3.284   3.333 -0.0077 -0.1134  0.3852
 1173SOL    HW114978   3.936   3.320   3.393  1.4966 -1.0276 -0.6644
 1173SOL    HW214979   3.894   3.193   3.354 -0.8517 -0.0164  1.7388
 1174SOL     OW14980   2.143   2.388  14.310 -0.6799  0.7683  0.0760
 1174SOL    HW114981   2.090   2.465  14.290  0.5077  1.0646 -1.8411
 1174SOL    HW214982   2.083   2.335  14.362 -0.0358 -0.6792 -0.6727
 1175SOL     OW14983   2.681   0.402   3.949 -0.8575 -0.0502  0.4464
 1175SOL    HW114984   2.630   0.451   4.013 -0.3990  1.6402 -0.4728
 1175SOL    HW214985   2.649   0.320   3.984 -1.6241  0.2021  0.3322
 1176SOL     OW14986   0.838   4.534   4.472  0.3210 -0.3676  0.7642
 1176SOL    HW114987   0.860   4.449   4.435  1.5927 -0.7412  2.3778
 1176SOL    HW214988   0.749   4.523   4.507 -0.4048  2.3542 -0.2294
 1177SOL     OW14989   4.665   3.962   3.976  0.3123  0.0752  0.2375
 1177SOL    HW114990   0.023   3.956   3.925 -1.4708  1.8039 -2.8023
 1177SOL    HW214991   4.651   4.056   3.985  0.3113  0.1639 -0.6935
 1178SOL     OW14992   2.321   1.763   4.725 -0.3990 -0.1225 -0.3246
 1178SOL    HW114993   2.344   1.696   4.660  2.5216  1.4617 -0.9034
 1178SOL    HW214994   2.378   1.837   4.705 -1.2732  0.2250 -1.5444
 1179SOL     OW14995   3.449   2.696   3.357  0.6741  0.4910 -0.5427
 1179SOL    HW114996   3.389   2.770   3.365  0.4808  0.3563 -0.7340
 1179SOL    HW214997   3.409   2.658   3.278 -0.5409 -0.7351  0.6678
 1180SOL     OW14998   4.583   0.399   0.119  0.1965 -0.0422 -0.2145
 1180SOL    HW114999   4.525   0.338   0.072  2.5653 -2.6802  0.2739
 1180SOL    HW215000   4.666   0.352   0.110  1.7275  2.6371 -0.0643
 1181SOL     OW15001   3.892   3.178  10.144 -0.4057  0.3051  0.0750
 1181SOL    HW115002   3.827   3.209  10.081 -0.3969  0.3519  0.0895
 1181SOL    HW215003   3.973   3.179  10.094 -1.0396 -0.0859 -0.9740
 1182SOL     OW15004   0.046   0.082   9.649 -0.2505  0.7647  0.2493
 1182SOL    HW115005   0.020   0.058   9.738 -2.2954 -1.0187 -0.8217
 1182SOL    HW215006   0.092   0.001   9.627  1.8003  2.2304 -0.8620
 1183SOL     OW15007   4.207   1.845   8.763 -0.1392 -0.2010  0.1936
 1183SOL    HW115008   4.153   1.774   8.797  0.8769  0.0375  2.3186
 1183SOL    HW215009   4.287   1.798   8.739  1.1563  2.3168 -0.4867
 1184SOL     OW15010   4.129   0.797  17.022 -0.4290 -0.0188 -0.4790
 1184SOL    HW115011   4.087   0.726  17.070  0.0132  0.3971  0.5397
 1184SOL    HW215012   4.122   0.779  16.929  1.7113 -1.8992 -0.2628
 1185SOL     OW15013   0.470   0.991   4.595 -0.2786 -0.2488  0.2907
 1185SOL    HW115014   0.403   0.923   4.599 -0.1885 -0.4882 -2.1669
 1185SOL    HW215015   0.420   1.065   4.627  2.8403  0.5555  3.2866
 1186SOL     OW15016   4.607   2.041   4.301  0.0206  0.2759 -0.5742
 1186SOL    HW115017   4.620   1.949   4.323 -0.0242  0.5805  0.7404
 1186SOL    HW215018   4.700   2.066   4.297  0.3099 -0.6249  0.3711
 1187SOL     OW15019   1.635   3.393   0.533 -0.6117 -0.3403  0.1364
 1187SOL    HW115020   1.715   3.391   0.480 -0.5840 -2.0265  0.2374
 1187SOL    HW215021   1.650   3.318   0.591 -2.1387 -1.5192 -0.9945
 1188SOL     OW15022   4.181   0.849  14.088 -0.3748  0.9781 -0.2150
 1188SOL    HW115023   4.224   0.856  14.002 -1.9359 -0.0165 -1.0786
 1188SOL    HW215024   4.258   0.855  14.145  0.6789  0.5036 -1.5739
 1189SOL     OW15025   2.782   3.441  17.347  0.0071 -0.4986  0.5573
 1189SOL    HW115026   2.721   3.398  17.288  1.5283  0.4664 -1.7253
 1189SOL    HW215027   2.856   3.432  17.287 -0.6321 -1.8789 -0.0364
 1190SOL     OW15028   3.897   0.990   2.869  0.2844  0.0109 -0.3883
 1190SOL    HW115029   3.947   0.947   2.938  0.6837  0.6156 -0.2961
 1190SOL    HW215030   3.809   0.968   2.901  0.3510  0.3753  0.0531
 1191SOL     OW15031   1.758   4.140   1.139  0.5184  0.1889 -0.1266
 1191SOL    HW115032   1.841   4.172   1.175 -0.2520  1.1093  0.8549
 1191SOL    HW215033   1.768   4.163   1.046  2.2596  0.3693  0.1060
 1192SOL     OW15034   1.150   2.418   5.848 -0.2566  0.6446 -0.2500
 1192SOL    HW115035   1.217   2.417   5.779 -0.8896 -2.3287 -0.7996
 1192SOL    HW215036   1.131   2.325   5.860  0.2710  0.7344  1.2507
 1193SOL     OW15037   0.951   2.365  10.902  0.3542 -0.1985 -0.3427
 1193SOL    HW115038   0.984   2.308  10.971 -1.4146  0.0294  0.6731
 1193SOL    HW215039   0.890   2.307  10.856  1.6503 -0.9589 -1.1220
 1194SOL     OW15040   4.212   1.671  10.591  0.1386  0.2693  0.2505
 1194SOL    HW115041   4.230   1.656  10.499 -0.0750 -1.1564  0.4473
 1194SOL    HW215042   4.296   1.710  10.615  0.2475 -1.0475  1.9867
 1195SOL     OW15043   1.712   2.340  13.467  0.0824  0.7135  0.3740
 1195SOL    HW115044   1.767   2.403  13.515  2.9144 -1.6055  0.1898
 1195SOL    HW215045   1.700   2.265  13.526  2.0541  1.3570  1.6012
 1196SOL     OW15046   3.027   4.018   2.790 -0.2776  0.0390  0.2296
 1196SOL    HW115047   3.060   3.941   2.836 -2.2468 -1.2154 -0.5011
 1196SOL    HW215048   2.964   3.983   2.728 -0.2386 -0.3367  0.4032
 1197SOL     OW15049   1.997   0.793   1.616 -0.0707  0.2279 -0.1036
 1197SOL    HW115050   1.988   0.732   1.544  1.4930  0.7370 -0.7264
 1197SOL    HW215051   2.076   0.758   1.657  0.0825  0.2877 -0.3450
 1198SOL     OW15052   3.856   2.300   3.911 -0.4935  0.0212  0.4388
 1198SOL    HW115053   3.786   2.359   3.940  0.3561  1.6327 -0.8559
 1198SOL    HW215054   3.843   2.296   3.816 -0.4008 -1.6601  0.4933
 1199SOL     OW15055   1.000   1.482   3.917  0.1812 -0.2831  0.6898
 1199SOL    HW115056   0.912   1.476   3.879  1.0972  0.7974 -1.5476
 1199SOL    HW215057   0.993   1.540   3.993 -1.0780 -0.2815  0.5774
 1200SOL     OW15058   0.338   3.896   4.463 -1.0354  0.4677 -0.3909
 1200SOL    HW115059   0.410   3.882   4.402 -1.2624  0.6400 -0.6992
 1200SOL    HW215060   0.352   3.986   4.489 -2.9334  0.4557  0.6679
 1201SOL     OW15061   3.583   3.345   5.762 -0.4562 -0.2969 -0.2267
 1201SOL    HW115062   3.501   3.322   5.805 -0.8244  0.7678 -0.3691
 1201SOL    HW215063   3.653   3.333   5.826  0.3369  0.8992 -0.8676
 1202SOL     OW15064   0.131   2.355   4.753 -0.1078  0.0313 -0.0269
 1202SOL    HW115065   0.138   2.284   4.689  0.6647 -0.7384  0.9233
 1202SOL    HW215066   0.224   2.363   4.774  0.0628 -1.9693 -0.0055
 1203SOL     OW15067   0.983   1.962   7.492 -0.3200 -0.1824 -0.2739
 1203SOL    HW115068   1.051   1.901   7.520  0.2432  0.1340 -0.9692
 1203SOL    HW215069   1.028   1.996   7.415 -1.2917  0.8128 -0.4087
 1204SOL     OW15070   0.944   0.825   6.915  0.0180 -0.1052 -0.2001
 1204SOL    HW115071   0.998   0.863   6.845 -0.5301  1.5161  0.2377
 1204SOL    HW215072   0.887   0.760   6.875 -1.7402  2.5168 -2.0335
 1205SOL     OW15073   4.643   4.457   7.782 -0.3131 -0.0879 -1.2034
 1205SOL    HW115074   4.635   4.389   7.848  1.0176  0.5794 -0.3380
 1205SOL    HW215075   4.677   4.532   7.831  1.8842 -1.5821 -0.4479
 1206SOL     OW15076   1.733   3.560   8.049 -0.3370 -0.3252  0.6302
 1206SOL    HW115077   1.773   3.583   7.965  0.4677 -1.1923  0.7731
 1206SOL    HW215078   1.797   3.500   8.088 -1.0264 -2.1408 -1.0224
 1207SOL     OW15079   3.820   4.460   4.536  0.5867 -0.3772 -0.3503
 1207SOL    HW115080   3.742   4.456   4.481  1.0293 -0.1793 -0.9996
 1207SOL    HW215081   3.780   4.462   4.622 -2.1925  1.2412 -1.7024
 1208SOL     OW15082   3.361   0.414  17.080 -0.3501 -0.4679 -0.3265
 1208SOL    HW115083   3.370   0.389  16.989 -0.9512 -1.2594 -0.1653
 1208SOL    HW215084   3.348   0.326  17.117 -0.3638 -0.1757  0.3754
 1209SOL     OW15085   3.440   3.171   9.073 -0.1054 -0.5140 -0.0217
 1209SOL    HW115086   3.486   3.110   9.130 -1.8953 -0.6041  1.3107
 1209SOL    HW215087   3.447   3.251   9.126  0.1003  0.1191 -1.0047
 1210SOL     OW15088   1.200   3.035   2.230 -0.3647  0.9551  0.3595
 1210SOL    HW115089   1.136   3.078   2.286 -0.4876 -0.0720  0.9999
 1210SOL    HW215090   1.252   2.996   2.300  1.1359 -0.2708 -1.4318
 1211SOL     OW15091   1.456   3.467   6.335  0.6805  0.5899 -0.5443
 1211SOL    HW115092   1.509   3.388   6.327  2.5886  1.6182  1.6828
 1211SOL    HW215093   1.429   3.458   6.426 -0.9019  1.5789 -0.9199
 1212SOL     OW15094   1.862   4.257   6.409 -0.4448  1.0741 -0.1908
 1212SOL    HW115095   1.830   4.167   6.417 -0.1374  0.9552 -0.2806
 1212SOL    HW215096   1.941   4.237   6.358  0.0184  0.4975  0.7490
 1213SOL     OW15097   0.172   4.596   0.388 -0.1234 -0.3092  0.4162
 1213SOL    HW115098   0.248   4.646   0.416 -0.9190  0.0427  1.9516
 1213SOL    HW215099   0.169   4.520   0.447  0.5240  1.4582  2.7052
 1214SOL     OW15100   4.320   1.861   6.670  0.4298 -0.1728 -0.1515
 1214SOL    HW115101   4.327   1.776   6.626 -0.5404  0.5995 -1.7931
 1214SOL    HW215102   4.331   1.921   6.596  1.2043 -0.4839 -0.2882
 1215SOL     OW15103   0.117   1.663   5.158  1.1610 -0.2380 -0.0641
 1215SOL    HW115104   0.032   1.672   5.202  0.7467  3.2456 -1.5509
 1215SOL    HW215105   0.131   1.749   5.118  0.2698 -0.8533 -1.7373
 1216SOL     OW15106   2.347   3.421   7.784  0.3773  0.2109 -0.1883
 1216SOL    HW115107   2.356   3.479   7.709  0.0648  0.1340 -0.2872
 1216SOL    HW215108   2.417   3.458   7.838 -0.6391 -1.7449  2.4712
 1217SOL     OW15109   3.366   2.331   3.184  0.5186 -0.0975  0.0953
 1217SOL    HW115110   3.395   2.279   3.109 -4.7759 -3.5292  0.3910
 1217SOL    HW215111   3.342   2.414   3.144  0.0735 -0.1048  0.3411
 1218SOL     OW15112   3.732   1.790   7.589  0.2987  0.3033 -0.0253
 1218SOL    HW115113   3.717   1.712   7.642  0.9474  0.0127 -0.2685
 1218SOL    HW215114   3.799   1.819   7.651  0.8329  2.7786 -1.7546
 1219SOL     OW15115   2.616   4.443  11.800  0.0755 -0.4978 -0.4770
 1219SOL    HW115116   2.670   4.432  11.879  0.4095  0.4737 -0.5700
 1219SOL    HW215117   2.653   4.528  11.775  1.2446 -1.2029 -1.1653
 1220SOL     OW15118   2.544   3.960   4.950 -0.1597  0.6954 -0.0296
 1220SOL    HW115119   2.570   3.877   4.991 -1.1885  0.9896  1.2198
 1220SOL    HW215120   2.467   3.987   5.000 -0.5862  2.1083 -1.4351
 1221SOL     OW15121   0.396   0.503   1.071  0.6066 -0.0692 -0.0780
 1221SOL    HW115122   0.345   0.431   1.108 -0.9783  1.5009  0.7958
 1221SOL    HW215123   0.327   0.565   1.046 -0.9532 -1.3769  1.0541
 1222SOL     OW15124   4.212   3.043   4.326 -0.4153 -0.3420  0.1984
 1222SOL    HW115125   4.288   2.993   4.353  0.1103  0.7224  0.6877
 1222SOL    HW215126   4.134   2.998   4.359 -0.8327 -0.9850 -1.6330
 1223SOL     OW15127   2.954   3.030  13.964 -0.3285 -0.0484 -0.0235
 1223SOL    HW115128   2.986   3.121  13.959 -0.7165  0.0120 -1.3275
 1223SOL    HW215129   2.990   3.008  14.050  1.1740  1.5313 -0.2340
 1224SOL     OW15130   0.363   1.928   7.416 -0.1140 -0.3260  0.1116
 1224SOL    HW115131   0.402   1.847   7.383 -0.5619 -1.1115  1.5093
 1224SOL    HW215132   0.281   1.928   7.367  0.4267  2.3353 -0.7639
 1225SOL     OW15133   4.026   0.542   8.309  0.1752 -0.4796 -0.1069
 1225SOL    HW115134   4.040   0.479   8.380 -0.1798  0.2159  0.5803
 1225SOL    HW215135   4.016   0.623   8.360 -0.9513 -0.9437  0.3978
 1226SOL     OW15136   0.235   2.370  16.488  0.1624  0.0468  0.2797
 1226SOL    HW115137   0.155   2.384  16.438  0.1377  2.4537  0.9597
 1226SOL    HW215138   0.284   2.434  16.436  0.1330 -1.0093 -1.0097
 1227SOL     OW15139   2.134   1.326   2.908 -0.1760  0.5499  0.1976
 1227SOL    HW115140   2.097   1.239   2.922 -3.7724  1.9609 -0.6511
 1227SOL    HW215141   2.055   1.379   2.902 -1.1413 -0.6418  2.1016
 1228SOL     OW15142   1.619   0.669   6.736 -0.5853 -0.2539  0.4489
 1228SOL    HW115143   1.531   0.704   6.721 -0.4884 -1.3006 -2.6079
 1228SOL    HW215144   1.669   0.737   6.781 -0.9679  0.2002  0.1961
 1229SOL     OW15145   1.580   3.288   4.766  1.0052 -0.1930 -0.3537
 1229SOL    HW115146   1.553   3.223   4.701  1.4491 -2.5027  1.7984
 1229SOL    HW215147   1.656   3.333   4.728  0.4544 -0.2589 -1.5245
 1230SOL     OW15148   3.185   0.907  16.580  0.2022  0.3247  0.5668
 1230SOL    HW115149   3.188   0.819  16.544 -0.8292  1.2197 -1.7287
 1230SOL    HW215150   3.144   0.890  16.665 -1.0364  0.2264 -0.0474
 1231SOL     OW15151   0.182   1.128   2.574  0.3530 -0.1901  0.1557
 1231SOL    HW115152   0.108   1.069   2.592 -0.7755  1.3288  0.5542
 1231SOL    HW215153   0.205   1.103   2.485 -0.3099 -0.9675  0.1960
 1232SOL     OW15154   3.592   1.893   4.787 -0.0019  0.6123  0.2060
 1232SOL    HW115155   3.529   1.955   4.750 -0.0687 -0.2062 -1.0542
 1232SOL    HW215156   3.598   1.925   4.876 -1.0342 -0.0131  0.5046
 1233SOL     OW15157   0.656   0.204   6.950 -0.4317  0.1805 -0.4652
 1233SOL    HW115158   0.703   0.284   6.925 -2.4712  1.0803 -1.4039
 1233SOL    HW215159   0.712   0.168   7.018 -0.8894 -1.2741 -0.8699
 1234SOL     OW15160   0.055   0.415  10.181  0.6384  0.4475 -0.0326
 1234SOL    HW115161   0.072   0.469  10.258  1.3380 -0.6077  0.5551
 1234SOL    HW215162   4.712   0.359  10.220 -1.5027  3.2885  0.4267
 1235SOL     OW15163   0.654   1.337   8.066 -0.2101 -0.4842 -0.1527
 1235SOL    HW115164   0.699   1.352   8.150 -1.3432  0.8325  0.2343
 1235SOL    HW215165   0.661   1.242   8.075  0.8850  0.0855  5.4302
 1236SOL     OW15166   4.348   0.506   3.173  0.2060 -1.0775  0.0149
 1236SOL    HW115167   4.440   0.481   3.160  0.9932  1.8735 -0.1463
 1236SOL    HW215168   4.295   0.454   3.113 -0.7353 -0.9524  0.7333
 1237SOL     OW15169   1.627   0.635   2.898 -0.0444 -0.2531 -0.1382
 1237SOL    HW115170   1.686   0.661   2.827  0.9896 -2.4255 -0.0744
 1237SOL    HW215171   1.658   0.546   2.882  1.5118  0.1061  0.8346
 1238SOL     OW15172   0.951   2.221   7.773 -0.3531 -0.0008  0.0059
 1238SOL    HW115173   0.892   2.147   7.789  0.0233 -0.4398 -0.6445
 1238SOL    HW215174   1.009   2.180   7.709  0.8061  4.0331 -1.5458
 1239SOL     OW15175   0.863   1.501   4.420 -0.6753 -0.6137 -0.3035
 1239SOL    HW115176   0.911   1.537   4.494  2.7209  0.6922 -3.1747
 1239SOL    HW215177   0.839   1.579   4.370  1.1517 -0.9339 -1.6994
 1240SOL     OW15178   3.795   1.204   4.012  0.4491  0.2234 -0.6932
 1240SOL    HW115179   3.816   1.252   3.932 -1.7769 -0.8364 -1.9106
 1240SOL    HW215180   3.712   1.240   4.044  1.0719  1.7958 -0.8464
 1241SOL     OW15181   1.602   1.410  13.729  0.2620 -0.2326  0.1214
 1241SOL    HW115182   1.548   1.485  13.754 -0.7159 -0.3646 -1.6207
 1241SOL    HW215183   1.616   1.432  13.637 -0.3195 -0.3495 -0.0005
 1242SOL     OW15184   0.136   1.603  10.691 -0.0983 -0.1291 -0.0964
 1242SOL    HW115185   0.196   1.639  10.756  0.5900  1.3575 -1.5646
 1242SOL    HW215186   0.112   1.685  10.649 -1.2771 -0.1136  0.6153
 1243SOL     OW15187   0.236   2.867   6.845  0.4517  0.1907  0.1917
 1243SOL    HW115188   0.201   2.846   6.758 -0.5521  1.0070  0.4034
 1243SOL    HW215189   0.214   2.784   6.886  1.5306  0.7861  1.9919
 1244SOL     OW15190   4.156   0.193   2.998  0.1355 -0.1092 -0.2277
 1244SOL    HW115191   4.064   0.218   2.997 -0.0136 -0.6335  0.0082
 1244SOL    HW215192   4.152   0.109   2.953 -1.9569  0.4386 -1.0613
 1245SOL     OW15193   1.374   1.784   0.674  0.1454  0.2538 -0.0875
 1245SOL    HW115194   1.399   1.774   0.582 -1.2888  0.3098 -0.4863
 1245SOL    HW215195   1.411   1.870   0.697  0.0728  0.1361  0.4513
 1246SOL     OW15196   3.534   3.203  15.607  0.4204 -0.3520 -0.2519
 1246SOL    HW115197   3.462   3.155  15.648 -0.8135 -0.2460 -2.2857
 1246SOL    HW215198   3.507   3.291  15.633  0.7978 -0.0666 -0.8350
 1247SOL     OW15199   1.855   0.686   4.499  0.1583  0.5340  0.3578
 1247SOL    HW115200   1.916   0.672   4.427 -1.5195 -1.6298 -0.6346
 1247SOL    HW215201   1.822   0.597   4.512 -0.6271  0.9295  1.0372
 1248SOL     OW15202   1.868   0.343   0.676 -0.1184 -0.0800  0.1197
 1248SOL    HW115203   1.818   0.412   0.721  1.3059  1.4917 -0.6938
 1248SOL    HW215204   1.912   0.390   0.605 -1.3212  1.4221  0.3782
 1249SOL     OW15205   4.246   2.071   7.720 -0.2979 -0.4933 -0.2345
 1249SOL    HW115206   4.283   1.982   7.721 -2.1276 -1.2768 -1.9282
 1249SOL    HW215207   4.164   2.074   7.670  0.0507 -0.9473 -0.8259
 1250SOL     OW15208   1.640   4.058   5.910 -0.3559 -0.6727 -0.4333
 1250SOL    HW115209   1.561   4.031   5.862 -0.6581  1.6543 -1.2623
 1250SOL    HW215210   1.644   3.987   5.973  1.9813 -0.1771 -0.0496
 1251SOL     OW15211   3.274   3.525   7.378 -0.3910 -0.1684 -0.0461
 1251SOL    HW115212   3.198   3.511   7.435 -0.3372 -1.5501 -0.3294
 1251SOL    HW215213   3.237   3.549   7.294  1.6011  2.6386 -0.1189
 1252SOL     OW15214   3.305   1.088   3.562  0.3290 -0.6815 -0.5033
 1252SOL    HW115215   3.332   1.052   3.647  2.5001  0.9679 -0.4954
 1252SOL    HW215216   3.315   1.008   3.511  0.8977 -2.2124  2.0103
 1253SOL     OW15217   3.124   4.490   0.575 -0.1144  0.5275  0.1277
 1253SOL    HW115218   3.129   4.586   0.569 -0.4629  0.4315 -1.8175
 1253SOL    HW215219   3.062   4.466   0.507  0.0395  0.1476  0.1193
 1254SOL     OW15220   4.440   3.523   7.003 -0.4370 -0.1674 -0.0382
 1254SOL    HW115221   4.360   3.560   7.041 -0.5471 -0.6053  0.1607
 1254SOL    HW215222   4.411   3.433   6.985 -0.1478 -0.7516  2.3223
 1255SOL     OW15223   3.418   1.203   6.283 -0.0396 -0.2160 -0.3165
 1255SOL    HW115224   3.445   1.197   6.374  1.2542  1.8177 -0.5569
 1255SOL    HW215225   3.503   1.196   6.239  0.1408 -0.6803  0.1061
 1256SOL     OW15226   2.711   4.122  14.223 -0.5182 -0.4646  0.1225
 1256SOL    HW115227   2.657   4.058  14.176 -1.4011 -1.2882  2.2488
 1256SOL    HW215228   2.798   4.086  14.211  0.2289  1.6494 -0.8314
 1257SOL     OW15229   4.497   1.677  13.430  0.3777  0.3391  0.4424
 1257SOL    HW115230   4.569   1.674  13.368 -2.9193  1.3386 -3.4621
 1257SOL    HW215231   4.430   1.619  13.393  1.4693  0.1984 -1.2934
 1258SOL     OW15232   2.175   4.153   5.480 -0.7619 -0.3083  0.6970
 1258SOL    HW115233   2.146   4.244   5.484  0.4231  0.0329  1.5663
 1258SOL    HW215234   2.147   4.131   5.569 -2.4645 -2.1910 -0.3059
 1259SOL     OW15235   0.167   3.851  12.945 -0.0219 -0.2645  0.4689
 1259SOL    HW115236   0.160   3.768  12.992 -0.4662 -0.6736 -0.3308
 1259SOL    HW215237   0.181   3.911  13.018  1.4558 -0.7785  0.6066
 1260SOL     OW15238   4.531   0.508   5.347  0.0222  0.0888  0.0021
 1260SOL    HW115239   4.447   0.551   5.330 -0.7029 -2.5066 -2.8703
 1260SOL    HW215240   4.497   0.431   5.391 -0.3826 -0.3934 -1.1494
 1261SOL     OW15241   2.923   1.584  15.877  0.1613  0.5752  0.6352
 1261SOL    HW115242   2.845   1.626  15.840 -2.3555 -2.6236  2.2895
 1261SOL    HW215243   2.906   1.602  15.969  0.8033  1.5669  0.5552
 1262SOL     OW15244   0.155   3.686   4.692 -0.4602  0.5896  0.4909
 1262SOL    HW115245   0.125   3.761   4.642 -0.7238 -0.1232 -0.4255
 1262SOL    HW215246   0.227   3.719   4.746  2.1410 -1.5577 -1.6309
 1263SOL     OW15247   0.589   3.998   4.798 -0.3862  0.1153 -0.4120
 1263SOL    HW115248   0.565   4.083   4.763  0.6170  0.3474 -0.5534
 1263SOL    HW215249   0.579   4.005   4.893 -0.5472  2.6792 -0.6346
 1264SOL     OW15250   3.434   4.304  11.516 -0.6025  0.0951 -0.0503
 1264SOL    HW115251   3.465   4.380  11.467  0.1960 -1.3343 -1.7751
 1264SOL    HW215252   3.515   4.263  11.546 -0.9079  1.0587  2.1173
 1265SOL     OW15253   2.919   2.503   8.459 -0.0432 -0.4063 -0.5138
 1265SOL    HW115254   2.845   2.505   8.520  0.1556 -1.2189 -0.2471
 1265SOL    HW215255   2.912   2.409   8.446 -1.2836 -0.3792 -0.0696
 1266SOL     OW15256   2.266   1.845   4.983 -0.1917  0.2280  0.1576
 1266SOL    HW115257   2.358   1.856   5.010 -0.0028  0.4798 -0.5898
 1266SOL    HW215258   2.267   1.829   4.889 -0.5185 -1.3147  0.4228
 1267SOL     OW15259   3.523   4.283   0.195 -0.3520 -0.1559  0.0526
 1267SOL    HW115260   3.511   4.338   0.117  0.0126  0.5328  0.4751
 1267SOL    HW215261   3.612   4.309   0.220 -0.8958  0.4308  1.3531
 1268SOL     OW15262   4.399   0.026   6.866  0.3677 -0.2180 -0.2333
 1268SOL    HW115263   4.435   0.060   6.947  1.5927  0.6749 -1.1442
 1268SOL    HW215264   4.360   4.664   6.888  1.7340 -0.6315  0.5252
 1269SOL     OW15265   1.663   0.360   5.039 -0.2976  0.4322 -0.0748
 1269SOL    HW115266   1.612   0.413   5.101  1.6512  0.5054  1.4314
 1269SOL    HW215267   1.738   0.415   5.018  0.8063 -1.5449 -1.2655
 1270SOL     OW15268   3.069   3.758  15.322 -0.3236 -0.0892 -0.0693
 1270SOL    HW115269   3.135   3.802  15.375 -3.3862  2.2867  1.7130
 1270SOL    HW215270   3.094   3.807  15.244 -0.6286  0.5090  0.2136
 1271SOL     OW15271   0.702   1.686   2.111  0.1000 -0.2906 -0.1592
 1271SOL    HW115272   0.725   1.609   2.164 -0.1869 -0.9524 -1.0074
 1271SOL    HW215273   0.785   1.715   2.072 -0.0940  0.2182 -0.1935
 1272SOL     OW15274   0.062   3.389   1.308  0.3784  0.0059  0.1632
 1272SOL    HW115275   0.017   3.424   1.232  2.0753  2.3476  0.2465
 1272SOL    HW215276   0.105   3.465   1.346 -1.1727 -0.1158  2.1560
 1273SOL     OW15277   1.531   3.034  11.125 -0.1017  0.1960 -0.5035
 1273SOL    HW115278   1.504   2.942  11.131  1.2725 -0.2516 -1.1970
 1273SOL    HW215279   1.455   3.083  11.094 -0.5539 -0.7814 -0.9403
 1274SOL     OW15280   0.801   1.440   3.431  0.0576 -0.3579  0.0534
 1274SOL    HW115281   0.748   1.520   3.432 -1.6049 -1.4224 -1.9805
 1274SOL    HW215282   0.779   1.409   3.519  1.4700 -0.5362  0.3475
 1275SOL     OW15283   3.362   3.832   7.209  0.0914 -0.2831  0.5125
 1275SOL    HW115284   3.436   3.807   7.264  1.2000 -1.6768 -1.6152
 1275SOL    HW215285   3.309   3.753   7.218  0.3157 -0.5267 -0.2749
 1276SOL     OW15286   0.374   3.713   3.027  0.1686 -0.2688  0.3660
 1276SOL    HW115287   0.338   3.795   3.060 -0.6054 -0.7049  0.5913
 1276SOL    HW215288   0.401   3.733   2.937  0.0402 -2.0846 -0.0898
 1277SOL     OW15289   2.128   2.115   0.342  0.1154 -0.0309  0.1463
 1277SOL    HW115290   2.186   2.188   0.363  1.0001 -0.5670 -0.4275
 1277SOL    HW215291   2.046   2.165   0.338  0.7332  0.7372 -3.1163
 1278SOL     OW15292   1.388   1.944   3.885  0.4852  0.8521 -0.2273
 1278SOL    HW115293   1.408   2.011   3.819 -0.8207  1.0530 -0.4246
 1278SOL    HW215294   1.479   1.925   3.906  0.4850  0.2193 -0.8054
 1279SOL     OW15295   4.342   0.451   8.896  0.1135  0.2452 -0.0636
 1279SOL    HW115296   4.342   0.377   8.836  0.4150  0.1086  0.1020
 1279SOL    HW215297   4.422   0.489   8.861  0.6392 -2.4725 -1.7682
 1280SOL     OW15298   2.411   1.867   3.844  0.5773 -0.4226 -0.3082
 1280SOL    HW115299   2.396   1.852   3.937 -0.1345  0.2213 -0.3210
 1280SOL    HW215300   2.374   1.955   3.837 -0.1129 -0.6233  0.7780
 1281SOL     OW15301   1.335   1.188   1.929 -0.0203  0.1774 -0.3803
 1281SOL    HW115302   1.318   1.268   1.979  0.5962  0.4519 -0.5971
 1281SOL    HW215303   1.366   1.130   1.998  1.4083 -0.6274 -1.6864
 1282SOL     OW15304   0.293   4.487  16.863  0.2352  0.5210 -0.4876
 1282SOL    HW115305   0.297   4.565  16.807 -0.4603  1.7379  1.1606
 1282SOL    HW215306   0.241   4.523  16.935 -2.5745 -0.1126 -2.1798
 1283SOL     OW15307   3.118   4.418  10.666  0.1174 -0.0823  0.6083
 1283SOL    HW115308   3.204   4.455  10.686  0.0581 -0.2757  1.2137
 1283SOL    HW215309   3.059   4.457  10.730 -1.1605  0.0857 -0.6913
 1284SOL     OW15310   0.758   4.541   3.502  0.2899 -0.3314  0.0198
 1284SOL    HW115311   0.803   4.625   3.496 -3.1333  1.5303  0.0607
 1284SOL    HW215312   0.691   4.539   3.432 -1.0702 -1.7291  1.3612
 1285SOL     OW15313   4.578   3.966  13.101  0.1381  0.2394  0.0542
 1285SOL    HW115314   4.620   3.881  13.088 -2.5689 -1.2855  1.2722
 1285SOL    HW215315   4.509   3.969  13.035  0.3949 -1.4320 -0.2961
 1286SOL     OW15316   3.138   0.181   6.089 -0.0630  0.3389  0.2971
 1286SOL    HW115317   3.161   0.092   6.116  0.2419 -0.1359 -1.5402
 1286SOL    HW215318   3.131   0.223   6.175  1.0347 -0.4424  0.7793
 1287SOL     OW15319   2.719   0.276   9.483 -0.1252  0.0203 -0.8130
 1287SOL    HW115320   2.784   0.213   9.513  1.1994  1.8191  0.0864
 1287SOL    HW215321   2.710   0.335   9.557 -0.3964 -0.0649 -0.7788
 1288SOL     OW15322   2.629   3.104   4.531  0.4861 -0.4442  0.4154
 1288SOL    HW115323   2.653   3.165   4.601  0.1574 -1.1863  1.1691
 1288SOL    HW215324   2.705   3.111   4.473  0.9517 -0.4015  1.0346
 1289SOL     OW15325   0.956   4.026   3.632 -0.2048 -0.1021  0.2198
 1289SOL    HW115326   1.035   4.050   3.679  0.1322 -1.2727  0.2580
 1289SOL    HW215327   0.945   3.941   3.676 -1.3931 -1.2290 -2.2463
 1290SOL     OW15328   0.036   2.779  11.623  0.3853 -0.6977 -0.2920
 1290SOL    HW115329   0.030   2.690  11.588 -0.8984 -0.6932 -0.0839
 1290SOL    HW215330   0.109   2.774  11.685 -1.5153  0.1220  2.0217
 1291SOL     OW15331   2.515   3.798   5.893  0.8272  0.5528 -0.4591
 1291SOL    HW115332   2.450   3.728   5.899  0.6308  1.0324  2.8792
 1291SOL    HW215333   2.454   3.856   5.847  0.3677  1.8375  1.7495
 1292SOL     OW15334   2.573   1.296   5.251  0.3859  0.1599 -0.3286
 1292SOL    HW115335   2.551   1.244   5.329 -2.2102  1.4877 -0.1985
 1292SOL    HW215336   2.498   1.354   5.236  0.0605 -0.1013  0.2787
 1293SOL     OW15337   4.411   1.040  11.541  0.3591 -0.0623  0.2935
 1293SOL    HW115338   4.450   0.989  11.470  0.7588 -1.6892  1.6723
 1293SOL    HW215339   4.433   0.985  11.617 -0.0699 -0.6570 -0.0117
 1294SOL     OW15340   1.730   0.650   1.788  0.0144 -0.2266  0.1938
 1294SOL    HW115341   1.716   0.744   1.784  0.2448 -0.3441 -3.3786
 1294SOL    HW215342   1.820   0.635   1.817  0.1283  2.2902  1.1056
 1295SOL     OW15343   3.377   4.537   1.073  0.4430  0.0422 -0.1666
 1295SOL    HW115344   3.451   4.589   1.105  0.6069 -0.3579  0.1038
 1295SOL    HW215345   3.396   4.520   0.980  0.1540 -2.5907  0.2570
 1296SOL     OW15346   3.544   1.896   7.420 -0.4266  0.1111 -0.4953
 1296SOL    HW115347   3.489   1.929   7.491  0.4074 -1.1840  0.7670
 1296SOL    HW215348   3.614   1.856   7.472  0.9719  0.1494 -2.3776
 1297SOL     OW15349   4.686   2.010  10.359 -0.1910 -0.0263 -0.5843
 1297SOL    HW115350   4.611   1.951  10.367  0.9713 -1.2739  0.9843
 1297SOL    HW215351   4.650   2.086  10.405  0.5045  0.1548 -0.3495
 1298SOL     OW15352   1.287   2.735   2.285 -0.3860  0.5287 -0.0272
 1298SOL    HW115353   1.219   2.694   2.338 -0.1398 -1.5808 -1.3388
 1298SOL    HW215354   1.289   2.824   2.322 -0.7912 -0.0600  1.3968
 1299SOL     OW15355   0.802   2.385  14.258 -0.3039  0.4985  0.0388
 1299SOL    HW115356   0.848   2.324  14.316 -0.3164  1.8922  1.5303
 1299SOL    HW215357   0.860   2.461  14.254  0.2440  0.0875  0.2773
 1300SOL     OW15358   4.717   3.016   3.616 -0.0086  0.1627 -0.2316
 1300SOL    HW115359   4.689   3.006   3.525  1.1989  2.5244 -0.8510
 1300SOL    HW215360   4.679   3.099   3.645  0.5065  0.9212 -1.7621
 1301SOL     OW15361   1.107   0.832   7.973  0.2037 -0.0930 -0.1776
 1301SOL    HW115362   1.028   0.882   7.954 -0.3469 -0.5882  0.7965
 1301SOL    HW215363   1.104   0.762   7.907 -1.4938  1.4691 -1.7492
 1302SOL     OW15364   2.460   3.135   4.291 -0.3271  0.6463  0.5058
 1302SOL    HW115365   2.415   3.076   4.229 -0.7395  0.2045  1.2315
 1302SOL    HW215366   2.556   3.135   4.287 -0.3123  1.7840  1.0458
 1303SOL     OW15367   0.407   4.614   5.103  0.3733  0.0667  0.7654
 1303SOL    HW115368   0.357   4.655   5.173 -0.6897  0.7218 -0.3642
 1303SOL    HW215369   0.383   4.655   5.019 -0.4389 -0.4093  0.7649
 1304SOL     OW15370   2.907   3.984   4.904 -0.2434  0.4980 -0.1498
 1304SOL    HW115371   2.840   4.038   4.946  0.1658 -0.0020  1.1502
 1304SOL    HW215372   2.881   3.996   4.812  1.4125  0.4578 -0.6223
 1305SOL     OW15373   3.193   3.607  10.550  0.0453 -0.6081 -0.0268
 1305SOL    HW115374   3.196   3.514  10.570 -1.5212 -0.8034 -0.7023
 1305SOL    HW215375   3.148   3.641  10.628  0.3768 -1.5977  0.5891
 1306SOL     OW15376   3.572   1.734   7.054  0.2895  0.0781  0.0950
 1306SOL    HW115377   3.655   1.733   7.006 -0.1653  4.0590 -0.7614
 1306SOL    HW215378   3.590   1.810   7.110 -1.3534  0.2363  0.4074
 1307SOL     OW15379   0.975   1.689   2.041 -0.2356 -0.0795  0.3663
 1307SOL    HW115380   0.986   1.594   2.047  0.3730  0.0953  2.1163
 1307SOL    HW215381   0.955   1.691   1.948  2.0163  4.9627  0.0069
 1308SOL     OW15382   3.605   1.738   6.236 -0.2984  0.4411  0.3065
 1308SOL    HW115383   3.518   1.730   6.276  0.1827  2.0065  1.6736
 1308SOL    HW215384   3.584   1.771   6.149 -0.5593 -0.4442  0.0344
 1309SOL     OW15385   0.891   3.182   8.483 -0.4152 -0.1624 -0.7665
 1309SOL    HW115386   0.796   3.175   8.477 -0.3480 -0.9585 -0.9605
 1309SOL    HW215387   0.900   3.274   8.509  0.2844  0.0495 -1.7270
 1310SOL     OW15388   0.187   0.804   2.665  0.4015  0.2457 -0.5935
 1310SOL    HW115389   0.120   0.855   2.620  1.8723  1.3104 -1.5600
 1310SOL    HW215390   0.211   0.736   2.601  0.6186 -0.2344 -0.0057
 1311SOL     OW15391   3.919   1.391   7.864 -0.4492  0.5093  0.4672
 1311SOL    HW115392   3.870   1.311   7.884  2.0106 -1.1462 -0.1906
 1311SOL    HW215393   3.868   1.465   7.897  3.4609  2.8472  1.3276
 1312SOL     OW15394   3.890   0.305   2.610 -0.2934  0.4746  0.6777
 1312SOL    HW115395   3.891   0.214   2.637  0.6301 -0.4663 -2.5108
 1312SOL    HW215396   3.820   0.335   2.668 -1.2300 -1.9179  0.7734
 1313SOL     OW15397   0.245   0.903   4.990 -0.2167  0.1308  0.0106
 1313SOL    HW115398   0.231   0.998   4.986  2.3097  0.4698 -0.4257
 1313SOL    HW215399   0.335   0.892   4.959 -0.6215 -2.4946 -0.1911
 1314SOL     OW15400   3.345   0.478   0.784 -0.4316 -0.0565  0.3311
 1314SOL    HW115401   3.340   0.557   0.730  0.0516 -0.2396  0.0151
 1314SOL    HW215402   3.316   0.415   0.719 -1.7744  1.1283 -0.2163
 1315SOL     OW15403   0.741   2.305   3.741  0.0606  0.3136  0.2000
 1315SOL    HW115404   0.683   2.290   3.666 -0.2539 -0.8039  0.6735
 1315SOL    HW215405   0.816   2.247   3.734 -0.6853 -0.7503  1.0673
 1316SOL     OW15406   4.219   0.043   7.666  0.7234  0.7335  0.0224
 1316SOL    HW115407   4.149   0.048   7.602  2.1558 -0.9566 -1.6739
 1316SOL    HW215408   4.283   4.711   7.620  0.0434 -0.6884  0.7759
 1317SOL     OW15409   1.678   1.808   1.388 -0.3353 -0.2898  0.1869
 1317SOL    HW115410   1.595   1.763   1.372  0.6151 -1.0242 -2.6812
 1317SOL    HW215411   1.721   1.814   1.302 -1.3969 -1.3886 -0.4273
 1318SOL     OW15412   4.311   4.167   4.404  0.1078  0.1776  0.2101
 1318SOL    HW115413   4.317   4.260   4.425 -0.4164  0.2152  0.1827
 1318SOL    HW215414   4.303   4.126   4.490  0.7702 -0.5379 -0.0643
 1319SOL     OW15415   0.295   3.354   4.280  0.4812 -0.3342 -0.0890
 1319SOL    HW115416   0.288   3.433   4.334  2.2495  0.2441 -0.7156
 1319SOL    HW215417   0.376   3.360   4.229  0.0432  2.5432 -0.4564
 1320SOL     OW15418   2.578   3.148   9.008 -0.0431  0.5246  0.0505
 1320SOL    HW115419   2.570   3.217   9.074 -0.9813  0.3149  0.1618
 1320SOL    HW215420   2.486   3.150   8.981 -0.5681 -0.4236  1.7871
 1321SOL     OW15421   3.471   4.590  14.256  0.9826 -0.5710  0.3893
 1321SOL    HW115422   3.434   4.678  14.247 -0.3387 -0.9361  2.2277
 1321SOL    HW215423   3.559   4.611  14.227  0.4665 -0.8304 -1.3602
 1322SOL     OW15424   3.707   3.786   6.450 -0.3608  0.2694 -0.1342
 1322SOL    HW115425   3.758   3.798   6.370  1.4250 -1.6357  0.7239
 1322SOL    HW215426   3.660   3.870   6.453 -0.1864  0.3978 -1.2666
 1323SOL     OW15427   3.263   1.536   0.781  0.0554 -0.2810  0.5533
 1323SOL    HW115428   3.301   1.462   0.827 -0.0458 -0.8373 -0.2515
 1323SOL    HW215429   3.303   1.615   0.816 -0.9472 -0.0738  1.2234
 1324SOL     OW15430   4.108   3.657  16.304  0.4648 -0.2248 -0.4614
 1324SOL    HW115431   4.045   3.586  16.294 -0.5154  0.4624  0.7821
 1324SOL    HW215432   4.080   3.682  16.392 -0.6129 -2.0176 -0.2942
 1325SOL     OW15433   2.864   3.358   8.615 -0.3350  0.0328  0.2676
 1325SOL    HW115434   2.881   3.280   8.667  3.6995 -1.1454 -2.7795
 1325SOL    HW215435   2.825   3.413   8.682  2.1745  0.7823  1.1058
 1326SOL     OW15436   2.641   3.806   4.260  0.7110  0.3014  0.5820
 1326SOL    HW115437   2.622   3.766   4.345  1.7468  0.3012  0.8156
 1326SOL    HW215438   2.695   3.740   4.216 -0.2760  0.7545 -1.3053
 1327SOL     OW15439   3.579   1.470   1.004 -0.0896 -1.1458 -0.0164
 1327SOL    HW115440   3.513   1.432   0.947 -0.1465 -1.0035 -0.0456
 1327SOL    HW215441   3.635   1.523   0.948 -0.2816 -0.5660  0.3429
 1328SOL     OW15442   2.852   4.633  16.869  0.5118  0.1362 -0.3049
 1328SOL    HW115443   2.885   4.598  16.952 -0.3166 -1.8727 -0.8297
 1328SOL    HW215444   2.829   0.002  16.879  1.1499  0.3449 -0.8133
 1329SOL     OW15445   3.205   2.397   3.428 -0.0434  0.2033 -0.7346
 1329SOL    HW115446   3.277   2.345   3.463 -1.8339 -0.6014  1.7526
 1329SOL    HW215447   3.216   2.380   3.334  0.3859 -0.4632 -0.5603
 1330SOL     OW15448   4.694   4.359   1.329  0.0238 -0.1756 -0.4106
 1330SOL    HW115449   4.712   4.443   1.286  3.1078 -1.0557 -0.7927
 1330SOL    HW215450   4.598   4.366   1.329  0.1131  0.6761  3.6545
 1331SOL     OW15451   4.714   1.264   6.076  0.6993 -0.3981  0.3243
 1331SOL    HW115452   4.711   1.183   6.127  0.3885 -2.3576 -2.7832
 1331SOL    HW215453   0.080   1.290   6.099  0.2598  0.0989  1.5058
 1332SOL     OW15454   1.446   2.762   5.471  0.7547 -0.2326  0.1169
 1332SOL    HW115455   1.511   2.691   5.476  0.5514 -0.5560 -1.7381
 1332SOL    HW215456   1.500   2.839   5.489 -0.2397  0.2383  1.1334
 1333SOL     OW15457   0.513   4.344  12.986  0.3285  0.2598 -0.2263
 1333SOL    HW115458   0.441   4.386  13.034  0.5524  0.2138  0.1513
 1333SOL    HW215459   0.516   4.260  13.031  0.5089  0.7084  0.6151
 1334SOL     OW15460   2.732   3.769   7.725 -0.3960 -0.1347 -0.0870
 1334SOL    HW115461   2.712   3.691   7.672  2.1197 -1.1313  0.4403
 1334SOL    HW215462   2.683   3.837   7.679  1.5979  1.6264  0.4528
 1335SOL     OW15463   1.877   2.425  16.607  0.1041 -0.2343  0.0741
 1335SOL    HW115464   1.827   2.369  16.667  1.8957 -1.3384  0.5092
 1335SOL    HW215465   1.948   2.458  16.661  0.7635 -0.1532 -0.8354
 1336SOL     OW15466   1.328   2.980   3.892  0.2408 -0.3186  0.1311
 1336SOL    HW115467   1.237   3.004   3.907  0.3850  0.7590 -0.7265
 1336SOL    HW215468   1.343   3.016   3.805 -1.4749  1.9908  0.7918
 1337SOL     OW15469   2.289   4.282   8.086  0.3505  0.3636  0.0525
 1337SOL    HW115470   2.224   4.343   8.121  0.2034  0.7568 -0.9262
 1337SOL    HW215471   2.257   4.195   8.112  0.7241  0.0554 -0.5194
 1338SOL     OW15472   1.383   1.667  14.770  0.4871  0.5190  0.0835
 1338SOL    HW115473   1.452   1.634  14.828 -0.1113 -1.5450 -0.3752
 1338SOL    HW215474   1.425   1.733  14.716  0.4014  0.4426 -0.0773
 1339SOL     OW15475   0.519   2.126   2.914 -0.4373  0.5289 -0.3301
 1339SOL    HW115476   0.468   2.141   2.994 -0.6532 -1.1488 -0.1602
 1339SOL    HW215477   0.608   2.156   2.932  0.0840 -0.0242 -2.0110
 1340SOL     OW15478   2.746   0.208   0.834 -0.3251  0.0008  0.0986
 1340SOL    HW115479   2.798   0.279   0.873 -0.2024 -0.0539  0.0360
 1340SOL    HW215480   2.781   0.214   0.745  1.8415 -2.8864  0.7666
 1341SOL     OW15481   4.380   0.397   7.255 -0.4482 -0.3251 -0.1723
 1341SOL    HW115482   4.338   0.444   7.327 -2.2373 -1.6299 -0.3759
 1341SOL    HW215483   4.315   0.328   7.243 -1.4637  0.7063 -0.6452
 1342SOL     OW15484   0.978   2.313   8.774 -0.5975 -0.0245 -0.3116
 1342SOL    HW115485   0.884   2.313   8.755 -0.8154  0.5074  0.7536
 1342SOL    HW215486   1.013   2.241   8.721  0.0812 -0.8607  1.2601
 1343SOL     OW15487   4.287   0.623   4.297  0.6001  0.8452 -0.5041
 1343SOL    HW115488   4.376   0.608   4.328 -0.0963 -1.4764  0.4010
 1343SOL    HW215489   4.302   0.668   4.214  0.9562 -1.2600 -1.5850
 1344SOL     OW15490   1.087   4.208   8.818  0.2941  0.2806 -0.4498
 1344SOL    HW115491   1.095   4.120   8.855  0.9795 -0.1235 -1.5389
 1344SOL    HW215492   0.997   4.209   8.786 -0.2138  0.6369  1.0280
 1345SOL     OW15493   2.212   3.318   6.162 -0.1743 -0.3604 -0.2385
 1345SOL    HW115494   2.261   3.294   6.083 -0.0672 -0.3337 -0.1804
 1345SOL    HW215495   2.183   3.408   6.149  3.3187  0.8313  0.2716
 1346SOL     OW15496   2.198   2.680   3.535  0.2124 -0.2486 -0.3917
 1346SOL    HW115497   2.233   2.591   3.543  0.1642  0.0252  2.7406
 1346SOL    HW215498   2.209   2.698   3.442  0.7922 -1.3961 -0.5492
 1347SOL     OW15499   2.685   4.457   2.951 -0.0371  0.5827 -0.8733
 1347SOL    HW115500   2.728   4.436   3.034  2.6802 -0.6067 -2.5665
 1347SOL    HW215501   2.744   4.416   2.887  0.7128 -2.1794  1.5958
 1348SOL     OW15502   3.043   4.057  10.030  0.1542  0.4096 -0.2526
 1348SOL    HW115503   3.033   4.142  10.074  1.6705 -0.2021  1.2916
 1348SOL    HW215504   3.101   4.002  10.083 -1.2203 -0.1270  0.6886
 1349SOL     OW15505   0.424   0.428   5.042  0.8013  0.2728 -0.2499
 1349SOL    HW115506   0.516   0.403   5.038  0.7903  0.0851  0.6695
 1349SOL    HW215507   0.406   0.408   5.134 -0.1722 -2.5898 -1.0831
 1350SOL     OW15508   2.669   0.185   2.790 -0.1514  0.1808  0.3973
 1350SOL    HW115509   2.656   0.100   2.748  0.5958 -0.8463  2.2151
 1350SOL    HW215510   2.761   0.171   2.813 -0.4680 -0.8334  1.0584
 1351SOL     OW15511   3.352   1.350  11.992 -0.2044 -0.0252 -0.1729
 1351SOL    HW115512   3.424   1.294  12.021  0.6901  0.5293 -1.3318
 1351SOL    HW215513   3.359   1.425  12.051  0.9010  1.0525 -1.6938
 1352SOL     OW15514   2.010   3.998   3.999 -0.3269  0.2348 -0.1721
 1352SOL    HW115515   1.928   4.041   4.024 -0.2650 -0.2885  0.9618
 1352SOL    HW215516   1.996   3.915   4.044  0.8900  0.6062  0.9025
 1353SOL     OW15517   3.198   1.219   4.900 -0.2778  0.0003  0.1968
 1353SOL    HW115518   3.224   1.192   4.988 -1.1751  0.6378  0.6600
 1353SOL    HW215519   3.277   1.187   4.857 -1.6540 -3.3771  0.1694
 1354SOL     OW15520   0.656   4.684   6.824 -0.1195 -0.0222  0.3438
 1354SOL    HW115521   0.733   0.015   6.805 -1.0708  1.6665  1.2813
 1354SOL    HW215522   0.639   0.008   6.905  0.4389 -0.3420  0.6441
 1355SOL     OW15523   2.252   1.127  16.880  0.0323  0.9667 -0.0587
 1355SOL    HW115524   2.235   1.194  16.813  1.4076  0.0043 -1.3545
 1355SOL    HW215525   2.294   1.062  16.823  1.8477  0.8457  1.4227
 1356SOL     OW15526   0.682   0.763  12.101  0.7108 -0.1560 -0.2616
 1356SOL    HW115527   0.604   0.810  12.073 -1.0786 -2.6480  0.4989
 1356SOL    HW215528   0.643   0.679  12.127  0.8254  0.5792  2.2485
 1357SOL     OW15529   4.137   2.248   3.582  0.4448  0.3402 -0.2851
 1357SOL    HW115530   4.151   2.208   3.668 -3.3790 -1.3008 -0.4357
 1357SOL    HW215531   4.168   2.337   3.601  2.1893 -0.4125  0.4352
 1358SOL     OW15532   3.297   1.097   1.306  0.3166  0.2268 -0.0598
 1358SOL    HW115533   3.334   1.141   1.383  1.9376  0.6445 -1.0807
 1358SOL    HW215534   3.359   1.126   1.239 -1.6977  0.7961 -1.6863
 1359SOL     OW15535   2.991   4.473   5.677 -0.2414 -0.4563 -0.2081
 1359SOL    HW115536   2.997   4.380   5.657  1.1382 -0.8616  2.1522
 1359SOL    HW215537   2.941   4.505   5.602 -1.3328 -2.3249 -0.2713
 1360SOL     OW15538   0.478   0.633  11.543  0.3827  0.2568 -0.7727
 1360SOL    HW115539   0.447   0.724  11.547 -0.3673 -0.1567  3.7232
 1360SOL    HW215540   0.404   0.590  11.586  1.2748  0.0212  0.5552
 1361SOL     OW15541   4.227   0.661   2.067 -0.0474  0.5800 -0.0245
 1361SOL    HW115542   4.243   0.598   1.997  1.0533  0.3122  0.4660
 1361SOL    HW215543   4.214   0.591   2.131 -1.2739  0.9304  0.1029
 1362SOL     OW15544   3.507   2.420   7.478 -0.3697  0.4238  0.0605
 1362SOL    HW115545   3.536   2.509   7.455 -0.2213  0.5577  0.7834
 1362SOL    HW215546   3.413   2.436   7.477 -0.0609  2.2894  1.9526
 1363SOL     OW15547   0.475   2.326   6.774  0.3708  0.0700  0.2504
 1363SOL    HW115548   0.449   2.315   6.682  1.2915 -0.0226  0.0062
 1363SOL    HW215549   0.418   2.268   6.825 -0.9005  2.6245  1.7476
 1364SOL     OW15550   0.390   2.689  14.279 -0.2900 -0.0303 -0.1050
 1364SOL    HW115551   0.444   2.615  14.253 -0.7892 -0.7144  0.8460
 1364SOL    HW215552   0.344   2.719  14.201 -1.2739 -2.4868 -0.4422
 1365SOL     OW15553   1.214   0.480   2.499 -0.0362 -0.5584  0.1550
 1365SOL    HW115554   1.234   0.409   2.560  0.6478 -0.6951 -0.2197
 1365SOL    HW215555   1.155   0.436   2.438 -1.9421 -0.2419  1.7797
 1366SOL     OW15556   0.857   3.688   4.966 -0.5722  0.2007 -0.2115
 1366SOL    HW115557   0.896   3.603   4.987  0.4901  1.0015  1.1266
 1366SOL    HW215558   0.891   3.725   4.884  0.0096 -0.1837 -0.1463
 1367SOL     OW15559   4.064   2.323   7.483 -0.2812 -0.4415 -0.1315
 1367SOL    HW115560   4.024   2.244   7.522  0.6887 -1.0067 -0.2811
 1367SOL    HW215561   4.132   2.280   7.431 -1.7744 -1.1170 -1.5460
 1368SOL     OW15562   0.571   2.898  12.321  0.0041 -0.0981  0.2162
 1368SOL    HW115563   0.637   2.828  12.327 -1.4325 -1.3726  1.2065
 1368SOL    HW215564   0.621   2.963  12.271 -0.4157 -0.8610 -1.2013
 1369SOL     OW15565   4.455   1.512   2.665  0.3331 -0.1227  0.5346
 1369SOL    HW115566   4.485   1.528   2.754  1.1247  0.5956  0.1496
 1369SOL    HW215567   4.503   1.586   2.627  1.4655 -1.0742  0.1363
 1370SOL     OW15568   2.228   0.212   2.591 -0.1067 -0.3644  0.1511
 1370SOL    HW115569   2.149   0.207   2.645 -0.8421 -0.4206 -0.9506
 1370SOL    HW215570   2.270   0.127   2.602 -0.9063 -1.2769 -4.0874
 1371SOL     OW15571   2.546   2.222   3.597 -0.0041  0.5250  0.1038
 1371SOL    HW115572   2.591   2.146   3.561 -2.9232 -0.3892 -1.6182
 1371SOL    HW215573   2.459   2.188   3.619  0.4779 -0.0871  1.0697
 1372SOL     OW15574   1.286   1.085  13.559 -0.0652  0.4316 -0.8204
 1372SOL    HW115575   1.367   1.120  13.595 -0.9742 -1.7050  3.3070
 1372SOL    HW215576   1.320   1.035  13.485 -0.3396 -0.2102 -0.5137
 1373SOL     OW15577   0.709   0.028   2.408 -0.4692  0.2125  0.4822
 1373SOL    HW115578   0.789   4.719   2.367 -0.7223  2.1780 -1.5797
 1373SOL    HW215579   0.645   4.689   2.375 -0.9122  0.9768 -0.1161
 1374SOL     OW15580   2.920   4.310   7.960 -0.0861  0.2290 -0.1768
 1374SOL    HW115581   2.932   4.216   7.975  0.2353  0.4256  0.7953
 1374SOL    HW215582   2.900   4.316   7.866 -0.1413  0.4525 -0.1526
 1375SOL     OW15583   2.994   0.532   2.710 -0.2208 -0.0701 -0.3597
 1375SOL    HW115584   3.071   0.561   2.660  2.2234 -2.4248  1.9965
 1375SOL    HW215585   2.992   0.442   2.678  3.8209 -1.0134  1.9316
 1376SOL     OW15586   2.037   2.241   1.376 -0.0552  0.2956 -0.6160
 1376SOL    HW115587   2.082   2.321   1.406 -0.3980  0.7344 -1.2639
 1376SOL    HW215588   1.967   2.257   1.439 -0.0756  0.6082 -0.7174
 1377SOL     OW15589   2.995   1.094   1.152  0.2105 -0.8380  0.9171
 1377SOL    HW115590   3.013   1.002   1.172  0.2441 -1.1442 -0.4922
 1377SOL    HW215591   3.083   1.131   1.164  0.5461 -0.6629 -1.9782
 1378SOL     OW15592   0.892   3.052   4.831  0.4355  0.4010 -0.1485
 1378SOL    HW115593   0.931   3.120   4.886  1.6192  1.1881 -1.9925
 1378SOL    HW215594   0.914   2.969   4.874 -1.2622 -0.8761 -1.7049
 1379SOL     OW15595   1.890   2.471   4.499 -0.1127 -0.0728  0.4276
 1379SOL    HW115596   1.914   2.378   4.498 -0.3673 -0.1395  0.5802
 1379SOL    HW215597   1.972   2.517   4.481 -1.2751  1.8619  0.0831
 1380SOL     OW15598   2.456   1.449   6.453  0.2791  0.1513  0.0191
 1380SOL    HW115599   2.463   1.418   6.543 -0.5151 -3.0432 -1.0135
 1380SOL    HW215600   2.362   1.468   6.446 -0.1973 -2.0507  0.5349
 1381SOL     OW15601   2.036   0.351  11.908 -0.4915  0.0508 -0.3339
 1381SOL    HW115602   2.057   0.410  11.835 -0.3401  0.2366 -0.1369
 1381SOL    HW215603   2.076   0.402  11.978 -0.3984 -0.0068 -0.3452
 1382SOL     OW15604   3.703   1.380   1.488  0.1452  0.8987  0.2245
 1382SOL    HW115605   3.658   1.464   1.495  0.2951  1.0393 -0.4656
 1382SOL    HW215606   3.677   1.366   1.397  0.8281 -0.4225  0.2367
 1383SOL     OW15607   4.470   4.278   1.164  0.1783 -0.2277  0.6210
 1383SOL    HW115608   4.389   4.329   1.158 -0.0381 -0.8781 -2.4107
 1383SOL    HW215609   4.430   4.193   1.180 -0.7033  0.4022  1.7241
 1384SOL     OW15610   4.518   2.565   0.971  1.0086 -0.2300 -0.6227
 1384SOL    HW115611   4.562   2.575   1.055 -2.9144 -2.8305  1.7335
 1384SOL    HW215612   4.462   2.489   0.990  0.6028  0.2085 -0.0879
 1385SOL     OW15613   4.057   2.116   3.130 -0.3370  0.5882 -0.3829
 1385SOL    HW115614   4.092   2.028   3.123 -0.3013  0.4887  1.1921
 1385SOL    HW215615   4.095   2.155   3.209 -1.1266  1.8885 -0.6389
 1386SOL     OW15616   0.278   2.759   5.922  0.1322 -0.5214 -0.0949
 1386SOL    HW115617   0.311   2.742   6.010  0.6607 -1.5571 -0.4999
 1386SOL    HW215618   0.270   2.855   5.919  0.9897 -0.4210  0.7369
 1387SOL     OW15619   3.915   3.019   3.408 -0.2117  0.1926 -0.3421
 1387SOL    HW115620   3.981   2.976   3.353  0.7691  1.9746 -0.5425
 1387SOL    HW215621   3.850   2.950   3.422  0.3115 -0.3242 -0.4579
 1388SOL     OW15622   4.569   0.532   4.364  0.1216  0.1861 -0.0098
 1388SOL    HW115623   4.574   0.441   4.394 -1.1675  1.6240  4.5105
 1388SOL    HW215624   4.580   0.566   4.453 -0.2277  0.5683 -0.1143
 1389SOL     OW15625   1.809   4.668   4.851 -0.2672 -0.3965 -0.2518
 1389SOL    HW115626   1.730   4.618   4.868 -0.6125  0.3569  0.3676
 1389SOL    HW215627   1.876   4.630   4.909 -1.2095 -0.7583  0.5972
 1390SOL     OW15628   1.567   2.091   8.951 -0.4020  0.0680  0.0030
 1390SOL    HW115629   1.550   2.049   9.035  0.3848  1.3842  0.8301
 1390SOL    HW215630   1.508   2.166   8.957 -0.3035 -0.0039  1.7196
 1391SOL     OW15631   1.633   0.885   0.356  0.1351  0.2750  0.2483
 1391SOL    HW115632   1.629   0.814   0.292  0.5591 -1.6674  2.3646
 1391SOL    HW215633   1.547   0.925   0.345 -0.0158 -0.2858 -0.5390
 1392SOL     OW15634   0.743   2.124   4.548 -0.7788 -0.0701 -0.0936
 1392SOL    HW115635   0.831   2.153   4.524 -0.9822 -0.8944 -1.9089
 1392SOL    HW215636   0.684   2.165   4.483 -0.3297 -1.8334 -1.6059
 1393SOL     OW15637   2.090   2.634  12.107 -0.7770 -0.4149 -0.5364
 1393SOL    HW115638   2.147   2.590  12.045  0.4317  2.0665 -1.1724
 1393SOL    HW215639   2.159   2.667  12.164 -0.2954  0.3233 -1.5402
 1394SOL     OW15640   3.591   2.085   6.720  0.3368 -0.1314  0.4889
 1394SOL    HW115641   3.585   2.004   6.668  0.5108  0.7816 -0.9446
 1394SOL    HW215642   3.678   2.084   6.758  0.7873 -1.1483 -0.5842
 1395SOL     OW15643   2.156   1.836   9.812  0.1691  0.4477  0.2620
 1395SOL    HW115644   2.209   1.756   9.817 -1.3651 -0.5606  0.4383
 1395SOL    HW215645   2.122   1.834   9.902  0.2430  0.9212  0.2999
 1396SOL     OW15646   3.433   1.699   2.041  0.4839  0.4454  0.2326
 1396SOL    HW115647   3.466   1.681   1.954  1.4090 -1.0551  0.9006
 1396SOL    HW215648   3.374   1.772   2.022  1.2251  0.1628 -3.1104
 1397SOL     OW15649   2.542   0.804   6.140 -0.6044  0.2563  0.0059
 1397SOL    HW115650   2.623   0.833   6.096 -0.4180 -0.9219 -0.4315
 1397SOL    HW215651   2.535   0.851   6.223 -3.4842  0.2698 -0.2752
 1398SOL     OW15652   2.586   3.007   9.251 -0.0594  0.1531 -0.2474
 1398SOL    HW115653   2.666   3.026   9.300 -0.3608  0.0667  0.2796
 1398SOL    HW215654   2.608   3.054   9.171  0.0409 -0.4631 -0.5861
 1399SOL     OW15655   2.040   0.599   3.650  0.3542 -0.4288 -0.0044
 1399SOL    HW115656   2.100   0.651   3.597 -2.4974  0.4756 -2.3111
 1399SOL    HW215657   2.072   0.630   3.735 -1.5512  4.7829 -1.1325
 1400SOL     OW15658   1.005   1.824  10.032  0.1556  0.2648  0.8493
 1400SOL    HW115659   0.918   1.793  10.010 -0.5997  1.1620  2.5738
 1400SOL    HW215660   0.991   1.919  10.034 -0.1780  0.2466 -0.4933
 1401SOL     OW15661   3.643   2.018   5.333 -0.5867 -0.3374 -0.3983
 1401SOL    HW115662   3.634   2.111   5.314 -0.1502 -0.3366 -0.6024
 1401SOL    HW215663   3.736   2.016   5.354 -0.0053  2.4164 -2.7137
 1402SOL     OW15664   0.257   4.238   5.415  0.1525  0.1966 -0.1702
 1402SOL    HW115665   0.333   4.245   5.474  0.0997  2.1640 -0.3380
 1402SOL    HW215666   0.204   4.180   5.470  1.4461 -2.0446 -1.3068
 1403SOL     OW15667   4.404   1.201   7.030  0.6394 -0.1539  0.4893
 1403SOL    HW115668   4.348   1.182   6.955 -1.6502  1.3015  1.7828
 1403SOL    HW215669   4.357   1.281   7.057 -0.7393 -0.9532  0.4844
 1404SOL     OW15670   3.296   0.505   2.174  0.3973  0.6205  0.5820
 1404SOL    HW115671   3.274   0.438   2.108  2.5172  1.1156 -0.6377
 1404SOL    HW215672   3.391   0.503   2.169  0.1803  0.2545 -3.5306
 1405SOL     OW15673   1.826   1.360   4.202 -0.3152  0.8661  0.3323
 1405SOL    HW115674   1.887   1.417   4.156 -0.3367  1.1395  0.6405
 1405SOL    HW215675   1.878   1.340   4.279 -2.5322 -0.5818  1.4634
 1406SOL     OW15676   4.572   4.049   2.882 -0.0387  0.4365  0.0474
 1406SOL    HW115677   4.606   3.960   2.889  0.6756  0.6079 -1.1991
 1406SOL    HW215678   4.519   4.046   2.802  0.1336 -2.0212  0.0253
 1407SOL     OW15679   0.375   4.155   7.631 -0.1914 -0.1874 -0.1626
 1407SOL    HW115680   0.302   4.100   7.602 -1.3110  0.4867  1.3273
 1407SOL    HW215681   0.447   4.105   7.592 -0.0802 -0.0968 -0.0726
 1408SOL     OW15682   1.470   1.015  13.904 -0.0037  0.2377  0.3380
 1408SOL    HW115683   1.422   1.009  13.987 -1.2164  1.0118 -0.2999
 1408SOL    HW215684   1.447   0.930  13.868  0.0256  0.1445  0.5378
 1409SOL     OW15685   1.013   3.857   7.700 -0.4088  0.4876 -0.4660
 1409SOL    HW115686   1.012   3.817   7.787 -4.3663 -1.2272 -1.3030
 1409SOL    HW215687   0.960   3.792   7.653  1.7686 -0.3738 -1.7112
 1410SOL     OW15688   1.827   0.422  15.935 -0.2330  0.5827 -0.3609
 1410SOL    HW115689   1.901   0.479  15.917 -0.0646  0.2580 -0.7058
 1410SOL    HW215690   1.838   0.369  15.855 -0.9484 -2.4571  1.5331
 1411SOL     OW15691   0.755   3.994  16.320 -0.3990  0.6023 -0.5492
 1411SOL    HW115692   0.744   3.934  16.246  1.0097 -0.8112  0.3918
 1411SOL    HW215693   0.844   4.022  16.298 -0.6647  0.1213 -2.3101
 1412SOL     OW15694   1.517   3.127   5.811  0.3545  0.2386  0.6000
 1412SOL    HW115695   1.454   3.185   5.767  0.8517  0.0543 -0.3591
 1412SOL    HW215696   1.453   3.075   5.860  0.8789 -0.9415  0.0191
 1413SOL     OW15697   3.024   4.091   7.645  0.8123 -0.3383 -0.4092
 1413SOL    HW115698   3.100   4.148   7.633  1.0774 -0.2746  1.5354
 1413SOL    HW215699   3.048   4.046   7.726  0.8377  2.0358  0.9030
 1414SOL     OW15700   3.641   4.705   2.203 -0.1849  0.8515 -0.4677
 1414SOL    HW115701   3.695   4.651   2.146 -1.1805  0.2303 -0.8307
 1414SOL    HW215702   3.586   0.020   2.134 -0.8873 -0.4692 -0.6317
 1415SOL     OW15703   4.223   0.231   5.706  0.1473  0.1714 -0.6923
 1415SOL    HW115704   4.178   0.227   5.790  0.2425 -1.9789 -0.7446
 1415SOL    HW215705   4.148   0.197   5.657 -2.2924  0.6529  2.7011
 1416SOL     OW15706   0.542   2.784   1.853  0.1192 -0.2515  0.3927
 1416SOL    HW115707   0.483   2.743   1.789 -2.5720  0.1242  2.6276
 1416SOL    HW215708   0.587   2.851   1.803  1.1620 -0.3636  1.1899
 1417SOL     OW15709   2.878   3.168   2.824 -0.3432  0.1334  0.0182
 1417SOL    HW115710   2.833   3.212   2.752  0.3709 -1.2415 -1.2794
 1417SOL    HW215711   2.872   3.073   2.808 -0.3158  0.0119  0.7360
 1418SOL     OW15712   3.924   0.717   6.592 -0.0738 -0.3079  0.6878
 1418SOL    HW115713   3.986   0.776   6.633 -1.3876  0.5671  1.4157
 1418SOL    HW215714   3.847   0.709   6.649 -0.3753 -0.3336  0.2851
 1419SOL     OW15715   2.710   2.177   6.383 -0.0200  0.2533  0.0194
 1419SOL    HW115716   2.757   2.216   6.309 -0.4876  0.0115 -0.4015
 1419SOL    HW215717   2.693   2.087   6.355  0.3998  0.2007 -0.0768
 1420SOL     OW15718   3.312   3.454  14.005 -0.2878 -0.1712  0.2393
 1420SOL    HW115719   3.342   3.531  14.053 -0.9759  0.1079  0.2152
 1420SOL    HW215720   3.290   3.497  13.922  0.3890  0.2910  0.3005
 1421SOL     OW15721   2.289   4.407   6.147 -0.3527 -0.3963  0.0044
 1421SOL    HW115722   2.232   4.417   6.223  0.7174 -3.3111  1.2016
 1421SOL    HW215723   2.253   4.468   6.082 -0.3547  0.1003  0.4677
 1422SOL     OW15724   3.285   1.024  12.262  0.1459  0.1367 -0.9189
 1422SOL    HW115725   3.374   1.038  12.294  0.7540 -2.5785 -1.4018
 1422SOL    HW215726   3.249   1.108  12.292 -0.8318 -0.7671  0.3840
 1423SOL     OW15727   4.312   1.674  10.300 -0.3602  0.2336 -0.5699
 1423SOL    HW115728   4.392   1.694  10.349  0.2211  0.1298 -1.4762
 1423SOL    HW215729   4.352   1.646  10.218 -1.2974 -1.3833 -0.4804
 1424SOL     OW15730   2.875   4.527  11.245  0.8564  0.2832  0.4260
 1424SOL    HW115731   2.961   4.517  11.286  0.8405 -2.0429 -0.1358
 1424SOL    HW215732   2.844   4.606  11.290 -0.3084  0.0818 -0.0360
 1425SOL     OW15733   4.508   4.127   5.801  0.7717 -0.6623  0.2211
 1425SOL    HW115734   4.441   4.071   5.761  0.3066 -0.6122  0.9163
 1425SOL    HW215735   4.528   4.062   5.869  0.5241 -2.5566 -1.5068
 1426SOL     OW15736   1.920   1.449   0.958  0.5387 -0.0148 -0.4957
 1426SOL    HW115737   1.855   1.394   0.913 -2.8282  0.5507  3.6389
 1426SOL    HW215738   1.872   1.529   0.980 -0.5911 -0.9837  0.6462
 1427SOL     OW15739   4.281   2.135   6.874 -0.5617 -0.0673  0.1345
 1427SOL    HW115740   4.355   2.074   6.879 -0.9959 -0.5269  0.8658
 1427SOL    HW215741   4.280   2.156   6.780 -0.8853  0.3781  0.2407
 1428SOL     OW15742   1.508   2.723  10.149  0.7545 -0.1853 -0.1211
 1428SOL    HW115743   1.432   2.736  10.093  0.6668  1.2625  0.3252
 1428SOL    HW215744   1.499   2.628  10.156 -0.2177  0.0330  1.7895
 1429SOL     OW15745   1.501   2.969  17.146  0.2145 -0.0701 -0.3746
 1429SOL    HW115746   1.593   2.944  17.146 -0.1738 -1.4826  0.7841
 1429SOL    HW215747   1.502   2.983  17.051 -0.4817 -0.5664 -0.4529
 1430SOL     OW15748   1.786   1.089   1.371 -0.6094  0.5109 -0.5506
 1430SOL    HW115749   1.732   1.100   1.292  1.4775  0.5648 -1.9781
 1430SOL    HW215750   1.784   0.995   1.388 -0.9008  0.9639  1.9665
 1431SOL     OW15751   2.311   3.690   9.428  0.1744 -0.3020 -0.1604
 1431SOL    HW115752   2.309   3.688   9.524 -0.7071  0.9503 -0.1609
 1431SOL    HW215753   2.269   3.775   9.415 -0.1399 -0.3301  0.6709
 1432SOL     OW15754   1.683   4.464   8.831 -0.1590 -0.3618 -0.4369
 1432SOL    HW115755   1.691   4.454   8.926  1.1424 -0.9210 -0.6170
 1432SOL    HW215756   1.763   4.419   8.806 -0.7716 -0.9260 -1.3503
 1433SOL     OW15757   3.621   1.653  15.111 -0.7418 -0.1085  0.0901
 1433SOL    HW115758   3.561   1.726  15.093 -0.5979  0.0224  0.1430
 1433SOL    HW215759   3.610   1.645  15.206  0.5674  0.4308  0.2846
 1434SOL     OW15760   2.695   1.520   6.333 -0.1584 -0.2103 -0.5969
 1434SOL    HW115761   2.606   1.487   6.331 -1.2049  2.6544 -1.0183
 1434SOL    HW215762   2.709   1.530   6.427  0.6153  4.1007 -1.1997
 1435SOL     OW15763   2.379   3.583   5.949  0.0570 -0.2091 -0.0506
 1435SOL    HW115764   2.378   3.494   5.914 -0.5062  0.6104 -2.1097
 1435SOL    HW215765   2.291   3.587   5.986 -0.5599 -0.7588 -1.4803
 1436SOL     OW15766   4.244   4.578   5.455 -0.4541  0.1102 -0.2613
 1436SOL    HW115767   4.264   4.670   5.438 -0.0457  0.4972  2.3395
 1436SOL    HW215768   4.270   4.524   5.380  0.6258  0.5434 -0.2045
 1437SOL     OW15769   0.395   1.170  10.691 -0.1402 -0.4808  0.2024
 1437SOL    HW115770   0.354   1.112  10.627  1.1037 -1.5549  0.3714
 1437SOL    HW215771   0.334   1.243  10.681 -1.6058 -1.8875 -1.0702
 1438SOL     OW15772   3.900   0.998   6.020  0.2645  0.4295  0.5145
 1438SOL    HW115773   3.930   1.056   6.091  1.0637  0.6782 -0.0264
 1438SOL    HW215774   3.939   1.046   5.947 -0.2311  0.2522  0.1405
 1439SOL     OW15775   3.345   1.493  16.308 -0.4855  0.0171 -0.1523
 1439SOL    HW115776   3.344   1.510  16.402  0.6267 -1.2083  0.0968
 1439SOL    HW215777   3.272   1.432  16.295 -1.3546  1.0559 -0.0353
 1440SOL     OW15778   4.552   4.060   8.903 -1.2750  0.2492  0.2670
 1440SOL    HW115779   4.577   4.096   8.988  0.6753  0.2154 -0.2725
 1440SOL    HW215780   4.616   3.988   8.904 -3.0243 -1.2803  0.5356
 1441SOL     OW15781   3.060   0.826  16.816 -0.0417  0.0398  0.3871
 1441SOL    HW115782   3.122   0.808  16.887 -0.4400  1.6282  1.1452
 1441SOL    HW215783   2.981   0.810  16.868  1.0979 -1.5116  1.6715
 1442SOL     OW15784   2.343   1.333   8.005  0.0619 -0.1323 -1.2255
 1442SOL    HW115785   2.409   1.401   8.020 -0.4382 -0.5147  2.6383
 1442SOL    HW215786   2.289   1.351   8.081  1.5534  0.4705 -0.2992
 1443SOL     OW15787   1.162   0.043  10.682 -0.4928  0.0893 -0.2455
 1443SOL    HW115788   1.140   0.043  10.589 -2.2241  1.7832  0.1611
 1443SOL    HW215789   1.102   4.701  10.718 -0.1049 -0.2810 -0.2765
 1444SOL     OW15790   0.217   1.090   5.947 -0.2877 -0.3400  0.1335
 1444SOL    HW115791   0.311   1.072   5.949  0.3023  2.7152  0.9493
 1444SOL    HW215792   0.217   1.166   6.005  2.7106  0.0227 -0.3510
 1445SOL     OW15793   4.054   0.156   8.819  0.1422 -0.0473  0.0340
 1445SOL    HW115794   4.120   0.133   8.884 -0.7424 -0.3745  0.8258
 1445SOL    HW215795   3.981   0.112   8.862  0.7584  0.0228  1.1332
 1446SOL     OW15796   2.390   0.656   8.573  0.4268  0.0504 -0.3583
 1446SOL    HW115797   2.321   0.593   8.592 -0.0808  0.7329  0.0363
 1446SOL    HW215798   2.444   0.647   8.651 -0.3851  1.0314  0.3038
 1447SOL     OW15799   2.009   2.216   4.229 -0.0164 -0.4965 -0.3345
 1447SOL    HW115800   1.969   2.235   4.314 -1.6229 -1.0072 -0.9774
 1447SOL    HW215801   2.097   2.196   4.261  0.5764 -0.6339 -2.0192
 1448SOL     OW15802   1.879   0.869   0.530 -0.3160  0.1939 -0.1978
 1448SOL    HW115803   1.785   0.858   0.516 -0.1283  0.9830 -2.1331
 1448SOL    HW215804   1.877   0.854   0.624 -1.1183 -0.6791 -0.3468
 1449SOL     OW15805   3.377   0.013  11.715  0.1970  0.4979  0.2433
 1449SOL    HW115806   3.306   4.715  11.654  0.7378  2.5024 -1.0897
 1449SOL    HW215807   3.419   4.650  11.723  0.0759  0.2302 -1.9410
 1450SOL     OW15808   0.795   3.935  12.851  0.2205  0.2882 -0.2804
 1450SOL    HW115809   0.864   3.985  12.895 -0.6210  2.2808 -1.2247
 1450SOL    HW215810   0.846   3.877  12.794 -1.2560  0.3605 -1.6730
 1451SOL     OW15811   1.807   0.220   3.921  0.1096  0.3743  0.5348
 1451SOL    HW115812   1.832   0.281   3.990  1.0156  1.0482 -0.3885
 1451SOL    HW215813   1.838   0.254   3.837 -0.3868  0.8335  0.5330
 1452SOL     OW15814   3.771   4.510   5.032  0.1140  0.4079  0.2762
 1452SOL    HW115815   3.753   4.558   5.113  3.5957  2.6237 -0.2630
 1452SOL    HW215816   3.770   4.422   5.070  0.3336 -0.0519 -0.7792
 1453SOL     OW15817   2.495   0.729   1.184  0.0342 -0.2161  0.3134
 1453SOL    HW115818   2.526   0.639   1.173  0.6418  0.1203 -0.6788
 1453SOL    HW215819   2.463   0.727   1.275  2.5219  0.9504  1.2124
 1454SOL     OW15820   4.627   2.025   3.132  0.2890 -0.2849 -0.3422
 1454SOL    HW115821   4.569   1.973   3.188  0.8085  0.4616  0.8999
 1454SOL    HW215822   4.573   2.042   3.056  1.9225  0.0128 -1.4224
 1455SOL     OW15823   3.873   1.023  16.921  0.0653 -0.2139  0.0071
 1455SOL    HW115824   3.848   0.970  16.845  1.0657 -0.7356  0.0369
 1455SOL    HW215825   3.952   1.057  16.877  0.6509 -0.7300  0.6645
 1456SOL     OW15826   0.479   3.219   3.021  0.6166  0.4770  0.0971
 1456SOL    HW115827   0.437   3.144   2.979  1.3378 -0.2148  0.6035
 1456SOL    HW215828   0.456   3.292   2.963  2.8078  0.6932 -0.4976
 1457SOL     OW15829   3.113   1.350   9.582  0.0782  0.0631 -0.0298
 1457SOL    HW115830   3.072   1.431   9.612  0.0938 -0.1373  0.5316
 1457SOL    HW215831   3.205   1.366   9.604 -0.3598  1.5672  0.6762
 1458SOL     OW15832   4.554   4.612   3.763 -1.0467 -0.2479 -0.3682
 1458SOL    HW115833   4.526   4.701   3.784  0.9071  0.7656 -1.9938
 1458SOL    HW215834   4.500   4.597   3.686 -1.3363 -1.0076 -0.0206
 1459SOL     OW15835   3.472   3.866   7.876  0.3354 -0.4472 -0.9672
 1459SOL    HW115836   3.475   3.953   7.835 -2.0953  0.8294  1.5547
 1459SOL    HW215837   3.552   3.866   7.928  0.8022  2.5631 -1.6521
 1460SOL     OW15838   0.953   2.442   5.147 -0.0922  0.2588 -0.1066
 1460SOL    HW115839   0.938   2.534   5.172 -2.4932 -0.0127 -0.5903
 1460SOL    HW215840   0.881   2.408   5.199  0.0565  1.2017  0.7325
 1461SOL     OW15841   3.907   3.052   5.298  0.3975  0.5486 -0.2430
 1461SOL    HW115842   3.833   2.999   5.326  1.2530 -0.2886  0.4348
 1461SOL    HW215843   3.872   3.109   5.230 -0.8352  0.5086  0.3574
 1462SOL     OW15844   1.632   3.877   7.393 -0.2479  0.0330  0.1637
 1462SOL    HW115845   1.707   3.912   7.345  0.4251 -1.9481 -0.2049
 1462SOL    HW215846   1.629   3.915   7.481 -3.0592  2.5621 -1.0056
 1463SOL     OW15847   1.298   3.005   6.711 -0.3524  0.3894 -0.2819
 1463SOL    HW115848   1.328   3.021   6.622  0.8415 -0.9858 -0.1364
 1463SOL    HW215849   1.285   3.091   6.751 -0.4318 -1.0837  2.8708
 1464SOL     OW15850   1.227   2.195   8.302 -0.3937 -0.1847 -0.2978
 1464SOL    HW115851   1.311   2.172   8.263  0.1770  0.9733  0.2491
 1464SOL    HW215852   1.177   2.176   8.222  1.2887 -0.5584 -1.2626
 1465SOL     OW15853   3.416   0.936   5.346 -0.0168 -0.2303 -0.7603
 1465SOL    HW115854   3.406   0.859   5.401  2.2452  0.8388  1.1395
 1465SOL    HW215855   3.351   0.999   5.377  1.5905  1.7013 -1.3191
 1466SOL     OW15856   3.785   0.210   2.042  0.1782 -0.4216  0.0268
 1466SOL    HW115857   3.835   0.194   2.122  3.4724 -1.2458 -2.2190
 1466SOL    HW215858   3.715   0.269   2.070  0.7793 -0.3151  1.2870
 1467SOL     OW15859   0.078   4.208   9.612 -0.2098 -0.0995 -0.5208
 1467SOL    HW115860   0.019   4.250   9.675 -1.3813 -2.3843 -0.0905
 1467SOL    HW215861   0.159   4.257   9.625 -0.6750  0.5092  0.0724
 1468SOL     OW15862   0.954   3.623  10.405  0.0597  0.3332  0.1050
 1468SOL    HW115863   1.040   3.585  10.385 -0.5478  0.3875 -2.5978
 1468SOL    HW215864   0.971   3.659  10.492  2.2612  1.0607 -0.6396
 1469SOL     OW15865   3.323   1.403   8.643  0.0766 -0.0043 -0.2812
 1469SOL    HW115866   3.335   1.308   8.647  1.8168  0.1958 -0.7363
 1469SOL    HW215867   3.293   1.416   8.733 -0.2297 -0.3246 -0.3371
 1470SOL     OW15868   4.003   2.668   3.279 -0.4497 -0.3268 -0.0640
 1470SOL    HW115869   4.065   2.596   3.264 -0.8436 -0.8417  0.7693
 1470SOL    HW215870   3.988   2.701   3.190  1.2178  1.3863  0.2836
 1471SOL     OW15871   0.736   4.396   8.056  0.1477 -0.4805 -0.1055
 1471SOL    HW115872   0.760   4.347   7.977  0.4746 -0.7107  0.1404
 1471SOL    HW215873   0.651   4.427   8.024  0.7873 -0.3462 -1.6972
 1472SOL     OW15874   3.059   2.433  15.889  0.4226  0.3833  0.1750
 1472SOL    HW115875   3.109   2.434  15.807 -2.9428 -1.4114 -1.8849
 1472SOL    HW215876   3.091   2.518  15.920  2.0832  0.7460 -2.4405
 1473SOL     OW15877   3.472   2.147  17.035 -0.1079 -0.7953 -0.6904
 1473SOL    HW115878   3.533   2.074  17.023  1.3216  0.1832  0.6674
 1473SOL    HW215879   3.457   2.166  16.942  2.7718  0.3471 -0.9272
 1474SOL     OW15880   1.104   1.973   0.597 -0.3175 -0.5923  0.2064
 1474SOL    HW115881   1.070   1.926   0.674  1.8395 -2.1107  0.2388
 1474SOL    HW215882   1.180   2.015   0.637 -1.0422  0.9847 -0.0873
 1475SOL     OW15883   4.380   4.453   4.797 -0.4182  0.1641 -0.1368
 1475SOL    HW115884   4.370   4.407   4.880 -0.6020 -0.5282 -0.5439
 1475SOL    HW215885   4.460   4.500   4.822 -1.8759  2.3442  0.4814
 1476SOL     OW15886   1.722   1.247   0.896 -0.5108  0.0565  0.1463
 1476SOL    HW115887   1.733   1.153   0.913 -1.2794 -0.1010 -0.1832
 1476SOL    HW215888   1.708   1.258   0.802  0.2693  0.0555  0.0336
 1477SOL     OW15889   4.371   3.757   0.387 -0.0469 -0.4637  0.0269
 1477SOL    HW115890   4.288   3.783   0.347 -1.1475 -1.8187  1.4446
 1477SOL    HW215891   4.337   3.696   0.452 -1.5881 -0.1225 -0.4595
 1478SOL     OW15892   3.567   0.890   4.960 -0.1619 -0.1095  0.2536
 1478SOL    HW115893   3.591   0.971   5.005 -0.4292 -0.0481  0.2800
 1478SOL    HW215894   3.542   0.828   5.028 -2.5407  1.7470  1.0689
 1479SOL     OW15895   3.412   3.965   5.821 -0.0427  0.6274 -0.1947
 1479SOL    HW115896   3.474   3.896   5.842 -2.4454 -1.8055 -1.0153
 1479SOL    HW215897   3.368   3.996   5.900 -0.3732  0.1007 -0.1706
 1480SOL     OW15898   0.366   2.652   8.171  0.4770 -0.0125  0.1672
 1480SOL    HW115899   0.412   2.638   8.254  1.1674  0.3603 -0.1508
 1480SOL    HW215900   0.389   2.562   8.146  1.9176  0.4810 -0.2935
 1481SOL     OW15901   3.334   0.334  16.831  0.3035 -0.2872 -0.2892
 1481SOL    HW115902   3.252   0.286  16.826 -0.2139  0.5309  0.3820
 1481SOL    HW215903   3.396   0.261  16.827  1.2977  0.5331  0.2286
 1482SOL     OW15904   2.966   3.547   4.676  0.3423  0.0557 -0.4531
 1482SOL    HW115905   2.954   3.484   4.605 -0.9583 -1.0219  0.7017
 1482SOL    HW215906   2.913   3.508   4.746 -2.5878  0.1765 -2.5999
 1483SOL     OW15907   2.676   4.562  14.395 -0.1354  1.2591 -0.2407
 1483SOL    HW115908   2.592   4.565  14.350  0.5704  2.8261 -1.4591
 1483SOL    HW215909   2.725   4.500  14.341 -1.0841 -0.6251  1.0938
 1484SOL     OW15910   4.117   2.921   9.544 -0.1809 -0.6399 -0.5766
 1484SOL    HW115911   4.087   2.849   9.489  0.3155 -2.5892  1.6879
 1484SOL    HW215912   4.044   2.923   9.606 -1.7757  1.3759 -2.5561
 1485SOL     OW15913   0.947   3.863   8.304 -0.1334 -0.3615 -0.1796
 1485SOL    HW115914   0.932   3.906   8.388 -0.4025 -1.4066  0.3148
 1485SOL    HW215915   1.012   3.796   8.322 -0.4700 -0.8200 -0.6556
 1486SOL     OW15916   3.413   3.129   4.325  0.0939  0.0334  0.0821
 1486SOL    HW115917   3.392   3.107   4.235  1.6216  0.6409 -0.4190
 1486SOL    HW215918   3.507   3.149   4.321  0.4381 -1.7379 -0.6386
 1487SOL     OW15919   1.129   1.200   5.101  0.0677 -0.4928  0.3985
 1487SOL    HW115920   1.161   1.283   5.066 -2.3800  0.1156 -0.3767
 1487SOL    HW215921   1.070   1.236   5.167 -1.8682 -0.3332 -1.4257
 1488SOL     OW15922   3.323   3.610   2.645 -0.1308  0.1821 -0.0671
 1488SOL    HW115923   3.327   3.521   2.681 -1.8605  0.7033  1.3511
 1488SOL    HW215924   3.416   3.608   2.620  0.5568  0.1981  2.4863
 1489SOL     OW15925   3.469   1.149   5.715 -0.4915  0.0747  0.5221
 1489SOL    HW115926   3.399   1.093   5.679  1.0711 -0.3841 -1.7947
 1489SOL    HW215927   3.529   1.083   5.749 -2.3094 -0.7487  2.1041
 1490SOL     OW15928   3.633   3.635   1.945 -0.0396 -0.4055  0.5065
 1490SOL    HW115929   3.606   3.681   1.866  1.0291  0.8327  0.8529
 1490SOL    HW215930   3.727   3.646   1.927 -0.0859  1.6905  1.5700
 1491SOL     OW15931   1.741   2.169   1.147 -0.0149  0.0756  0.1942
 1491SOL    HW115932   1.713   2.255   1.116 -2.6611 -0.8493 -0.0072
 1491SOL    HW215933   1.699   2.171   1.233 -1.9361 -1.3511 -0.7113
 1492SOL     OW15934   3.222   0.640  17.152  0.6970 -0.5106  0.2382
 1492SOL    HW115935   3.270   0.564  17.119  2.1472  0.2545  0.5728
 1492SOL    HW215936   3.243   0.700  17.082 -3.8813  1.4677  0.5359
 1493SOL     OW15937   0.598   2.573  12.593  0.2012  0.3206 -0.2092
 1493SOL    HW115938   0.645   2.493  12.617 -0.3025  0.1250  0.1128
 1493SOL    HW215939   0.675   2.629  12.582  0.1413  0.5986  0.7948
 1494SOL     OW15940   2.558   3.721   1.843 -0.1971 -0.2127  0.4754
 1494SOL    HW115941   2.484   3.697   1.787  2.1558  0.6031 -2.9728
 1494SOL    HW215942   2.516   3.772   1.913  1.0519  0.3149  0.8416
 1495SOL     OW15943   3.676   3.835   8.062  0.4351 -0.1318  0.1773
 1495SOL    HW115944   3.642   3.827   8.151 -1.9757 -0.8030 -0.7998
 1495SOL    HW215945   3.771   3.828   8.074  0.2934 -0.6837  0.9306
 1496SOL     OW15946   3.263   3.376   1.957  0.4261 -0.0473 -0.0755
 1496SOL    HW115947   3.343   3.374   1.904  1.0316 -0.4233  0.8411
 1496SOL    HW215948   3.229   3.460   1.926 -1.1052 -1.0124 -0.9895
 1497SOL     OW15949   3.839   0.410  16.841 -0.0920  0.0681  0.4140
 1497SOL    HW115950   3.844   0.499  16.877 -1.4341 -0.1053  1.0516
 1497SOL    HW215951   3.777   0.361  16.896 -2.0040  0.9523 -0.9338
 1498SOL     OW15952   4.431   1.306   8.409 -0.0091  0.3751 -0.0627
 1498SOL    HW115953   4.407   1.314   8.317  1.2898 -0.5411 -0.4836
 1498SOL    HW215954   4.519   1.273   8.394 -1.4555 -3.0511 -0.9284
 1499SOL     OW15955   0.100   1.881  17.301 -0.5521  0.2145  0.0901
 1499SOL    HW115956   0.178   1.930  17.276 -0.7985  1.0921  1.0471
 1499SOL    HW215957   0.092   1.831  17.220  0.1995  1.0444 -0.4885
 1500SOL     OW15958   3.592   3.435   7.256  0.7244  0.1416 -0.1017
 1500SOL    HW115959   3.558   3.348   7.236 -1.1017  0.7978  0.1200
 1500SOL    HW215960   3.567   3.446   7.348  1.6916  1.3199  0.0070
 1501SOL     OW15961   1.830   2.492   5.674 -0.3155 -0.4713  0.4500
 1501SOL    HW115962   1.923   2.493   5.654 -0.4157  1.0198  0.0611
 1501SOL    HW215963   1.823   2.473   5.768 -2.0745  2.1644  0.8767
 1502SOL     OW15964   4.279   3.590   3.786  0.0871 -0.6697  0.6946
 1502SOL    HW115965   4.372   3.576   3.801  0.2559 -0.7188 -0.4067
 1502SOL    HW215966   4.261   3.555   3.699  1.1283 -1.6593  0.8812
 1503SOL     OW15967   0.186   0.131  10.078  0.2961 -0.0670  0.4515
 1503SOL    HW115968   0.167   0.085  10.160  1.7789  1.6785  1.7406
 1503SOL    HW215969   0.255   0.192  10.102  0.6143 -1.1970  2.3794
 1504SOL     OW15970   4.427   3.019   6.413  0.1166 -0.0785  0.1147
 1504SOL    HW115971   4.494   2.974   6.464  0.7663  2.3807  1.4563
 1504SOL    HW215972   4.365   2.948   6.398  0.3946 -0.1160 -0.8351
 1505SOL     OW15973   0.742   2.389   4.322 -0.7739 -1.2059 -0.4022
 1505SOL    HW115974   0.689   2.323   4.366 -0.5233 -1.8635 -1.0908
 1505SOL    HW215975   0.777   2.444   4.391  1.2077 -2.9917  0.0010
 1506SOL     OW15976   3.089   1.466  12.671 -0.6874 -0.5496 -0.0257
 1506SOL    HW115977   3.124   1.495  12.586 -0.9304 -0.0449  0.0461
 1506SOL    HW215978   3.128   1.379  12.672 -2.8061 -1.5334 -1.8526
 1507SOL     OW15979   4.553   0.485   9.147  0.2058 -0.7210  0.9240
 1507SOL    HW115980   4.588   0.562   9.191 -1.4518  0.9698 -0.7345
 1507SOL    HW215981   4.493   0.533   9.090 -0.5528 -1.4291  1.1404
 1508SOL     OW15982   2.379   1.203  17.502  0.1455  0.2766 -0.0642
 1508SOL    HW115983   2.312   1.136  17.493 -0.4680  0.6699  1.5985
 1508SOL    HW215984   2.374   1.221  17.596  1.6960 -1.2711  0.3029
 1509SOL     OW15985   0.242   3.500  15.710 -0.1284  0.1877 -0.0446
 1509SOL    HW115986   0.234   3.493  15.615 -1.0286 -1.0835  0.1219
 1509SOL    HW215987   0.260   3.594  15.714  2.1056 -0.2698  0.4389
 1510SOL     OW15988   2.259   1.776   6.850  0.9144 -0.2173 -0.0485
 1510SOL    HW115989   2.334   1.805   6.798  2.2838  3.0031  3.7444
 1510SOL    HW215990   2.256   1.840   6.920  0.5565 -0.5762  0.2633
 1511SOL     OW15991   2.314   1.896  17.507 -0.0752  0.5542  0.1522
 1511SOL    HW115992   2.280   1.963  17.449  0.1469 -1.0293 -1.8167
 1511SOL    HW215993   2.372   1.843  17.452 -0.0145 -0.1720  0.8975
 1512SOL     OW15994   1.940   2.964   6.236  0.3365  0.2089 -0.6065
 1512SOL    HW115995   1.903   2.884   6.274 -0.0698  1.0890  0.8472
 1512SOL    HW215996   1.964   3.014   6.314  0.0753 -0.4260 -0.1140
 1513SOL     OW15997   2.967   4.068  13.336 -0.1912  1.3485  0.2503
 1513SOL    HW115998   2.958   4.038  13.427 -0.7157 -1.2164 -0.6568
 1513SOL    HW215999   3.059   4.093  13.328  0.1785  0.8446  2.7903
 1514SOL     OW16000   3.796   4.673  14.701  0.6541  0.6962  0.2046
 1514SOL    HW116001   3.741   0.007  14.755  0.2898  0.2711  0.2859
 1514SOL    HW216002   3.735   4.599  14.705  0.1289  1.2047  1.5315
 1515SOL     OW16003   1.575   4.351  13.727 -0.0476  0.2962 -0.6861
 1515SOL    HW116004   1.591   4.433  13.679 -1.7093  0.5548 -0.8257
 1515SOL    HW216005   1.495   4.383  13.769  0.5982  0.7403  0.1895
 1516SOL     OW16006   2.463   3.694  16.295  0.3126  0.3583  0.0505
 1516SOL    HW116007   2.528   3.746  16.247 -1.7275  0.4795 -2.5980
 1516SOL    HW216008   2.441   3.629  16.227  0.2626 -1.4633  1.7924
 1517SOL     OW16009   3.022   4.452   1.815 -0.7515 -0.0066 -0.1306
 1517SOL    HW116010   2.927   4.440   1.815 -0.6657 -0.7066  1.6928
 1517SOL    HW216011   3.019   4.514   1.888  2.4018 -1.1474  0.9788
 1518SOL     OW16012   3.783   4.041   8.820 -0.0269  0.3868 -0.2286
 1518SOL    HW116013   3.783   4.019   8.727 -0.2236 -1.1325  0.1286
 1518SOL    HW216014   3.876   4.053   8.839 -0.3075  0.6686  1.0237
 1519SOL     OW16015   2.447   1.088  14.124  0.0257  0.0822  0.1164
 1519SOL    HW116016   2.391   1.072  14.200  0.6000 -2.4403  0.0102
 1519SOL    HW216017   2.419   1.020  14.062  1.8144  0.0769 -0.6656
 1520SOL     OW16018   2.173   1.616   5.315  0.7228  0.6698  0.5522
 1520SOL    HW116019   2.144   1.667   5.391 -0.4289 -0.2905  0.7462
 1520SOL    HW216020   2.103   1.551   5.308  1.4692 -0.0561 -0.0989
 1521SOL     OW16021   1.968   1.887   0.417 -0.8107 -0.0179 -0.1928
 1521SOL    HW116022   2.030   1.830   0.463 -0.1412  0.0357 -1.0230
 1521SOL    HW216023   2.022   1.965   0.399 -0.8181  0.9653  3.9308
 1522SOL     OW16024   0.537   4.717  10.538 -0.0280 -0.2682  0.3726
 1522SOL    HW116025   0.534   4.687  10.629  1.3042 -0.0896  0.4796
 1522SOL    HW216026   0.481   4.649  10.502  0.6426 -0.6758  0.1074
 1523SOL     OW16027   0.158   2.819   7.661  0.3251  0.1859 -0.1711
 1523SOL    HW116028   0.180   2.786   7.574 -1.8432  3.7564 -2.0593
 1523SOL    HW216029   0.124   2.736   7.693 -2.2411  1.3270  0.0209
 1524SOL     OW16030   0.307   2.233   4.547  0.1927  0.0719 -0.1103
 1524SOL    HW116031   0.387   2.280   4.570  2.2664 -1.9090 -3.2282
 1524SOL    HW216032   0.289   2.180   4.624  3.7137  1.2448  1.5224
 1525SOL     OW16033   0.857   0.963   1.861 -0.3211 -0.0488 -0.1229
 1525SOL    HW116034   0.929   0.899   1.861 -1.3451 -1.1973  0.5022
 1525SOL    HW216035   0.892   1.035   1.809  2.2610 -0.2829  1.2292
 1526SOL     OW16036   4.444   4.523   8.707  0.6261 -0.1885  0.4922
 1526SOL    HW116037   4.511   4.461   8.735  0.3352 -0.3673  0.7960
 1526SOL    HW216038   4.414   4.469   8.634  0.3694  0.9903 -0.2836
 1527SOL     OW16039   0.797   4.237   5.528  0.1088  0.1367 -0.0666
 1527SOL    HW116040   0.839   4.318   5.501  1.4636 -0.6386 -0.2772
 1527SOL    HW216041   0.871   4.193   5.570  0.0588  1.0029  0.9511
 1528SOL     OW16042   3.843   1.664  17.344  0.2476 -0.7597 -0.1272
 1528SOL    HW116043   3.775   1.634  17.403 -0.1258  0.4936  0.0799
 1528SOL    HW216044   3.886   1.722  17.406  1.9632 -1.8214 -0.3164
 1529SOL     OW16045   2.522   2.465   6.304  0.8211  0.5445  0.6997
 1529SOL    HW116046   2.576   2.420   6.369  0.6683 -1.4027 -0.5237
 1529SOL    HW216047   2.435   2.461   6.343  1.4582  0.7010  2.1373
 1530SOL     OW16048   2.146   2.897  10.771 -0.3537 -0.1957 -0.1009
 1530SOL    HW116049   2.126   2.977  10.819  1.7903 -0.8281  1.8376
 1530SOL    HW216050   2.136   2.918  10.678  0.6207  1.8987  0.2507
 1531SOL     OW16051   0.003   2.611   6.203 -0.0357  0.1076  0.0845
 1531SOL    HW116052   0.042   2.552   6.138  2.1558  1.4680  0.1388
 1531SOL    HW216053   4.636   2.603   6.173 -0.5115  0.1490  1.5042
 1532SOL     OW16054   0.117   3.836   8.328  0.0795  0.2133  0.4497
 1532SOL    HW116055   0.108   3.742   8.311  2.3801 -0.1948  1.5132
 1532SOL    HW216056   0.027   3.860   8.353  0.9148  2.4810  1.2380
 1533SOL     OW16057   1.664   3.805  10.920  0.0293 -0.2395  0.1604
 1533SOL    HW116058   1.704   3.721  10.941 -0.0482 -0.7265 -1.6681
 1533SOL    HW216059   1.739   3.862  10.933 -0.0539  0.5991 -2.9710
 1534SOL     OW16060   3.583   3.465   2.170 -0.0495 -0.2750 -0.3262
 1534SOL    HW116061   3.632   3.389   2.138  0.0815  0.4947 -1.9593
 1534SOL    HW216062   3.584   3.525   2.095 -0.9923 -1.9075 -1.6442
 1535SOL     OW16063   2.815   2.989   9.830  0.4295  0.0830  0.1115
 1535SOL    HW116064   2.908   2.964   9.828  0.5325  0.3930  1.2484
 1535SOL    HW216065   2.771   2.919   9.879 -0.7846  0.9761  0.2832
 1536SOL     OW16066   1.765   4.517   3.514 -0.1662 -0.0305  0.1299
 1536SOL    HW116067   1.672   4.536   3.519 -0.0065  0.7445  0.1081
 1536SOL    HW216068   1.799   4.599   3.550 -1.6945 -0.0876  1.7208
 1537SOL     OW16069   4.418   3.636   6.525 -0.3060 -0.0094 -0.8427
 1537SOL    HW116070   4.507   3.646   6.491  0.3207 -2.4584  0.0787
 1537SOL    HW216071   4.403   3.727   6.549 -0.6289  0.3394 -2.3780
 1538SOL     OW16072   3.714   0.314  17.292 -0.1751  0.5805  0.2820
 1538SOL    HW116073   3.698   0.400  17.254 -0.3179 -0.3852 -1.8554
 1538SOL    HW216074   3.698   0.335  17.385  0.0606  0.6418  0.3069
 1539SOL     OW16075   2.525   2.334  10.607 -0.2948  0.2704 -0.1050
 1539SOL    HW116076   2.499   2.388  10.681 -3.3006  2.7696 -2.9230
 1539SOL    HW216077   2.443   2.335  10.556  0.5518 -1.3354 -1.4836
 1540SOL     OW16078   2.835   4.052   7.456  0.1479 -0.2118 -0.0446
 1540SOL    HW116079   2.898   4.078   7.389 -0.0685 -1.0618 -0.5787
 1540SOL    HW216080   2.903   4.032   7.520 -2.2541 -1.7284  2.0116
 1541SOL     OW16081   1.996   1.829  10.809  0.5887 -0.5794  0.1594
 1541SOL    HW116082   2.013   1.752  10.756  3.3064  1.2514 -1.5997
 1541SOL    HW216083   2.033   1.793  10.890  1.2078  0.9395  0.5556
 1542SOL     OW16084   2.105   1.551   9.319  0.4811 -0.1720  0.0674
 1542SOL    HW116085   2.082   1.465   9.285 -0.2669 -0.0765  0.3396
 1542SOL    HW216086   2.192   1.564   9.281  1.4544  1.3412  2.8451
 1543SOL     OW16087   3.108   4.019   6.520 -0.5689 -0.6439 -0.7225
 1543SOL    HW116088   3.080   4.098   6.475  0.1587  0.1214  0.1711
 1543SOL    HW216089   3.194   4.049   6.547 -0.1587 -2.2462 -0.2251
 1544SOL     OW16090   0.220   3.604   5.509  0.0740  0.0576  0.8339
 1544SOL    HW116091   0.156   3.544   5.547 -1.4040  0.0715 -1.6840
 1544SOL    HW216092   0.162   3.677   5.486 -0.9739 -1.0889 -0.1552
 1545SOL     OW16093   2.925   3.971  14.145 -0.1323 -0.3813  0.0462
 1545SOL    HW116094   2.955   3.884  14.118 -0.3133  0.1650 -1.8968
 1545SOL    HW216095   2.982   4.022  14.089  1.6321 -2.7665 -0.3589
 1546SOL     OW16096   4.177   3.312   8.122 -0.0448 -0.0564  0.1225
 1546SOL    HW116097   4.224   3.233   8.150  1.7756  0.8426 -0.4318
 1546SOL    HW216098   4.090   3.291   8.158  0.3986 -0.5785  0.8907
 1547SOL     OW16099   1.183   3.167   7.259 -0.0152  0.6266 -0.4286
 1547SOL    HW116100   1.213   3.214   7.337 -3.1791  2.0193 -0.0211
 1547SOL    HW216101   1.113   3.114   7.298 -0.1498  0.5947 -0.7163
 1548SOL     OW16102   4.129   0.914  16.571 -0.4333 -0.3672 -0.0963
 1548SOL    HW116103   4.091   0.922  16.484 -0.6931  0.9145  0.1367
 1548SOL    HW216104   4.205   0.971  16.560 -0.2358 -0.5658  0.2389
 1549SOL     OW16105   4.087   4.544   9.333 -0.1735 -0.7280 -0.6796
 1549SOL    HW116106   4.159   4.533   9.271 -1.0481 -0.0678 -1.8216
 1549SOL    HW216107   4.040   4.612   9.285 -1.1872 -1.2362 -0.4153
 1550SOL     OW16108   0.842   0.217  11.094 -0.4427 -0.1722  0.1185
 1550SOL    HW116109   0.864   0.145  11.034 -0.6726  0.2513 -0.4834
 1550SOL    HW216110   0.766   0.249  11.045  0.6608  0.9274 -0.8718
 1551SOL     OW16111   1.042   0.764   3.970  0.0145 -0.2744 -0.3967
 1551SOL    HW116112   1.073   0.749   4.059  1.5935  0.4135 -0.8346
 1551SOL    HW216113   0.947   0.751   3.976 -0.1602 -0.0035 -2.8079
 1552SOL     OW16114   3.331   3.049   2.625 -0.3426 -0.2854  0.5205
 1552SOL    HW116115   3.340   3.111   2.552 -1.3361  0.1006  0.7262
 1552SOL    HW216116   3.243   3.054   2.661  0.5141 -1.8348  2.8244
 1553SOL     OW16117   4.355   3.497   3.518  0.2606 -0.3067 -0.4349
 1553SOL    HW116118   4.423   3.562   3.534 -1.2938  0.7726  1.8294
 1553SOL    HW216119   4.411   3.436   3.470 -0.4476 -0.2442 -1.3402
 1554SOL     OW16120   1.565   2.772   8.883  0.4487  0.0740 -0.0772
 1554SOL    HW116121   1.641   2.831   8.886  1.4538 -1.2715  0.9188
 1554SOL    HW216122   1.516   2.805   8.807  0.6213 -0.0538 -0.2423
 1555SOL     OW16123   0.282   2.194  13.499 -0.4044  0.4778 -0.0810
 1555SOL    HW116124   0.188   2.202  13.481 -0.2422  0.6515 -0.8609
 1555SOL    HW216125   0.319   2.163  13.416 -1.7530 -0.0071 -0.4985
 1556SOL     OW16126   2.581   3.435   4.324  0.3845  0.5856  0.2175
 1556SOL    HW116127   2.579   3.446   4.229  1.5126 -2.5217 -0.1698
 1556SOL    HW216128   2.540   3.350   4.333  0.7955  0.6402  2.8863
 1557SOL     OW16129   0.491   1.862   9.791  0.5037  0.3152 -0.1817
 1557SOL    HW116130   0.536   1.778   9.787 -0.3961 -0.2314  1.6826
 1557SOL    HW216131   0.397   1.845   9.783  0.2502  0.6833  2.1633
 1558SOL     OW16132   2.796   2.556   3.234 -0.0523  0.8340 -0.0717
 1558SOL    HW116133   2.834   2.505   3.305  1.8109  2.3663  0.0387
 1558SOL    HW216134   2.716   2.583   3.280  1.0700  1.3135  1.6148
 1559SOL     OW16135   4.459   1.770  12.973 -0.1721 -0.1882 -0.2634
 1559SOL    HW116136   4.472   1.837  12.906  2.3096  1.2828  1.6668
 1559SOL    HW216137   4.452   1.832  13.046 -1.6387 -0.5770 -0.0776
 1560SOL     OW16138   3.580   2.652   8.390  0.0168  0.0628  0.0733
 1560SOL    HW116139   3.650   2.660   8.326 -0.1090 -1.3214 -0.2483
 1560SOL    HW216140   3.581   2.556   8.395 -0.1931  0.0111 -0.8918
 1561SOL     OW16141   1.764   3.693   8.908 -0.0189  0.4892  0.3802
 1561SOL    HW116142   1.720   3.709   8.991 -0.8457 -1.0859  0.2264
 1561SOL    HW216143   1.696   3.662   8.849 -1.1197  1.8402  0.9525
 1562SOL     OW16144   3.027   4.511   1.429 -0.0499 -0.5682 -0.1524
 1562SOL    HW116145   2.993   4.560   1.354 -0.5196 -0.7866 -0.0824
 1562SOL    HW216146   3.045   4.423   1.396  1.4191 -0.1328 -0.5002
 1563SOL     OW16147   3.586   2.897   4.697  0.1590 -0.0219  0.2435
 1563SOL    HW116148   3.565   2.804   4.686  0.4478  0.1110 -1.3426
 1563SOL    HW216149   3.675   2.889   4.732 -0.6088 -1.5914  1.8598
 1564SOL     OW16150   0.398   2.476   7.207 -0.3987 -0.0945  0.1015
 1564SOL    HW116151   0.478   2.507   7.250  0.4414 -1.5046 -0.4418
 1564SOL    HW216152   0.402   2.381   7.217 -3.4650 -0.3337 -1.0161
 1565SOL     OW16153   4.378   1.273   8.138  0.1821 -0.1788 -0.0425
 1565SOL    HW116154   4.311   1.334   8.107  0.2695 -0.3792 -0.6253
 1565SOL    HW216155   4.358   1.202   8.077  0.3302 -1.2229  1.1235
 1566SOL     OW16156   1.166   2.797   6.812  0.6231  0.5265  0.0461
 1566SOL    HW116157   1.157   2.821   6.904 -0.1705  0.0048  0.1078
 1566SOL    HW216158   1.210   2.876   6.781  0.9275  0.0949 -0.6304
 1567SOL     OW16159   3.540   0.765  17.245  0.1619  0.1451 -0.4559
 1567SOL    HW116160   3.582   0.823  17.181 -0.2668 -0.9818 -1.7631
 1567SOL    HW216161   3.514   0.688  17.193 -1.4136  0.5766 -0.3025
 1568SOL     OW16162   1.969   0.273   3.612 -0.3808 -0.0974 -0.3487
 1568SOL    HW116163   1.972   0.326   3.532  1.6099  1.0287  0.4840
 1568SOL    HW216164   2.052   0.300   3.651 -0.2840  0.9105 -1.2401
 1569SOL     OW16165   4.100   2.287   2.161 -0.2750  0.2775  0.2596
 1569SOL    HW116166   4.036   2.352   2.191 -1.9166 -0.5850 -1.3673
 1569SOL    HW216167   4.042   2.212   2.168 -0.6692  0.5561 -0.0371
 1570SOL     OW16168   2.837   4.472   3.658 -0.0700 -0.2552 -0.3444
 1570SOL    HW116169   2.801   4.554   3.625  0.5764  1.1929  2.4617
 1570SOL    HW216170   2.927   4.473   3.626  0.3290  0.7423  0.7832
 1571SOL     OW16171   1.948   4.608   3.021 -0.6849  0.0147 -0.0311
 1571SOL    HW116172   1.861   4.586   3.055 -0.0364 -0.3470  1.3595
 1571SOL    HW216173   1.943   4.575   2.931 -0.0214  2.4947 -0.9645
 1572SOL     OW16174   3.940   2.692  16.524  0.4395  0.4307 -0.3954
 1572SOL    HW116175   4.028   2.674  16.556  0.5495  1.8198  0.0864
 1572SOL    HW216176   3.958   2.772  16.474 -4.1467  0.2685 -2.3616
 1573SOL     OW16177   1.077   0.408   6.660 -0.5587 -0.3266 -0.1689
 1573SOL    HW116178   1.090   0.382   6.751  0.0556  1.6641  0.3003
 1573SOL    HW216179   1.094   0.502   6.659 -1.8912 -0.0842  0.5175
 1574SOL     OW16180   0.002   3.929  10.688 -0.0261  0.4565 -0.1793
 1574SOL    HW116181   4.706   3.843  10.727  0.7552  0.4213  0.1349
 1574SOL    HW216182   0.056   3.890  10.619  0.3956  1.8739 -0.6375
 1575SOL     OW16183   3.981   2.074   7.545 -0.7424  0.2076  0.2147
 1575SOL    HW116184   3.899   2.080   7.595 -2.1080 -0.7429 -1.9156
 1575SOL    HW216185   3.952   2.027   7.467 -0.5180  1.0454 -0.3792
 1576SOL     OW16186   2.406   0.529   3.000 -0.0635 -0.1506 -0.0603
 1576SOL    HW116187   2.338   0.474   2.962 -0.5548  0.2252  0.2760
 1576SOL    HW216188   2.478   0.498   2.945 -0.2476  0.2052 -0.5002
 1577SOL     OW16189   1.922   2.597   2.821 -0.0948 -0.0270 -0.4140
 1577SOL    HW116190   1.994   2.619   2.761  0.3106 -0.8751 -0.2340
 1577SOL    HW216191   1.926   2.502   2.813 -0.5364  0.0121 -1.1552
 1578SOL     OW16192   3.702   3.386   4.937 -0.4355 -0.3060 -0.2112
 1578SOL    HW116193   3.622   3.342   4.966  1.5915 -2.4079  2.1379
 1578SOL    HW216194   3.696   3.381   4.841  1.8861 -1.8403 -0.2861
 1579SOL     OW16195   0.348   3.853   5.373  0.2985  0.7946 -0.3047
 1579SOL    HW116196   0.386   3.878   5.457 -0.4444  1.7559 -0.2549
 1579SOL    HW216197   0.311   3.768   5.395  0.4777  0.1774 -2.3786
 1580SOL     OW16198   4.199   2.283   8.050 -0.5564  0.1351 -0.0210
 1580SOL    HW116199   4.203   2.305   8.143 -0.7403  0.2191 -0.0345
 1580SOL    HW216200   4.132   2.343   8.017 -1.9356 -1.7748 -0.7352
 1581SOL     OW16201   0.157   2.303  10.910  0.2511 -0.1049  0.3505
 1581SOL    HW116202   0.185   2.390  10.938 -0.4195  0.3701 -0.4391
 1581SOL    HW216203   0.185   2.293  10.819 -2.6778  0.8705 -0.6467
 1582SOL     OW16204   1.886   1.078   4.857  0.0712 -0.1426  0.1253
 1582SOL    HW116205   1.832   1.117   4.789  0.6057  2.0497  0.9201
 1582SOL    HW216206   1.976   1.082   4.825 -0.1158  0.9153 -0.2850
 1583SOL     OW16207   3.247   1.624   4.445 -0.2739  0.0434  0.1862
 1583SOL    HW116208   3.273   1.646   4.355 -4.3125  0.2112 -0.9870
 1583SOL    HW216209   3.297   1.544   4.464  0.3474  0.0464 -1.4108
 1584SOL     OW16210   4.103   4.085   9.918 -0.1187  0.0154 -0.1100
 1584SOL    HW116211   4.049   4.160   9.893  2.9021  2.1767 -0.2285
 1584SOL    HW216212   4.081   4.024   9.847  1.8472 -1.0822  0.2011
 1585SOL     OW16213   0.569   2.329   5.725 -0.1981 -0.1178  0.0795
 1585SOL    HW116214   0.578   2.290   5.638  1.5948 -0.7421  0.5548
 1585SOL    HW216215   0.476   2.353   5.717 -0.3628 -1.4099 -1.9955
 1586SOL     OW16216   1.028   2.602   1.798 -0.2309  0.0905 -0.2712
 1586SOL    HW116217   1.106   2.607   1.853  0.1135 -2.9102 -0.4803
 1586SOL    HW216218   1.034   2.514   1.763 -1.2542  0.4826 -1.4194
 1587SOL     OW16219   0.597   2.920   0.181  0.1790 -0.3218 -0.5305
 1587SOL    HW116220   0.619   2.942   0.090  2.5969 -2.5319 -0.4681
 1587SOL    HW216221   0.648   2.976   0.238 -0.8988 -2.8330  2.8850
 1588SOL     OW16222   2.604   0.680   2.850 -0.2604  0.2654 -0.1277
 1588SOL    HW116223   2.521   0.724   2.868  0.0703  1.0632 -0.5831
 1588SOL    HW216224   2.653   0.751   2.809  0.8340  0.4166  1.4230
 1589SOL     OW16225   1.124   0.318   6.416  0.5159  0.6127 -0.0480
 1589SOL    HW116226   1.099   0.352   6.501 -0.1264 -3.0187  1.2409
 1589SOL    HW216227   1.107   0.403   6.375  0.1966  0.4347 -0.2897
 1590SOL     OW16228   1.368   0.548  11.362  0.3543 -0.2099 -0.8199
 1590SOL    HW116229   1.396   0.551  11.270  1.3242  2.0469 -0.4463
 1590SOL    HW216230   1.366   0.642  11.378  0.0674 -0.2481 -0.6375
 1591SOL     OW16231   0.813   2.948  14.374 -0.2451 -0.1254  0.3074
 1591SOL    HW116232   0.884   2.954  14.309 -1.1747  0.1668 -0.6944
 1591SOL    HW216233   0.856   2.888  14.434  1.5248  0.1811 -0.6309
 1592SOL     OW16234   3.784   0.233   3.798  0.4613  0.6827 -0.1897
 1592SOL    HW116235   3.821   0.144   3.799 -0.6609  0.2098 -0.4551
 1592SOL    HW216236   3.826   0.276   3.872  3.7616 -1.2760 -0.9310
 1593SOL     OW16237   1.619   1.069  13.369  0.0478  0.3029 -0.1141
 1593SOL    HW116238   1.536   1.022  13.366 -0.1848  0.9098 -3.0103
 1593SOL    HW216239   1.603   1.119  13.449 -0.8718  1.1116 -0.7954
 1594SOL     OW16240   1.740   2.070   4.718 -0.5111 -0.3332 -0.0705
 1594SOL    HW116241   1.677   2.003   4.691  0.0561 -1.5848  1.7338
 1594SOL    HW216242   1.770   2.037   4.802 -3.0500 -0.7427  0.6645
 1595SOL     OW16243   3.266   4.706  17.367  0.5398  0.2760  0.3678
 1595SOL    HW116244   3.179   0.003  17.402  0.3529  0.1315 -0.0166
 1595SOL    HW216245   3.277   0.070  17.327  0.1846 -0.0190 -0.3900
 1596SOL     OW16246   3.143   3.479   3.847 -0.2822  0.7276 -0.2912
 1596SOL    HW116247   3.210   3.515   3.789 -1.2155 -0.2790 -1.9960
 1596SOL    HW216248   3.166   3.387   3.853  0.7817  0.9596 -0.8057
 1597SOL     OW16249   4.319   2.024   8.217 -0.2370 -0.2112  0.0266
 1597SOL    HW116250   4.298   2.043   8.126 -0.6673 -0.0708  0.1527
 1597SOL    HW216251   4.260   1.950   8.233  1.5606 -1.5464  0.5479
 1598SOL     OW16252   1.132   3.443   3.504  0.0197 -0.0480 -0.4718
 1598SOL    HW116253   1.093   3.360   3.476  0.9854 -0.8925  0.7074
 1598SOL    HW216254   1.153   3.417   3.594  1.3491  1.8250 -0.2284
 1599SOL     OW16255   3.329   1.470   7.744 -0.2306 -0.4366  0.0154
 1599SOL    HW116256   3.291   1.541   7.796  1.5767 -0.9886  2.1081
 1599SOL    HW216257   3.257   1.407   7.741  1.0881 -2.0755  3.0632
 1600SOL     OW16258   3.415   3.414   1.521  0.1329  0.3106 -0.6922
 1600SOL    HW116259   3.350   3.433   1.453 -1.1806  1.9497  1.0262
 1600SOL    HW216260   3.370   3.350   1.576  0.1780 -0.3595 -1.4283
 1601SOL     OW16261   1.322   3.319   1.846 -0.1286  0.0031  0.4335
 1601SOL    HW116262   1.374   3.398   1.862 -0.6123  0.4783 -0.3154
 1601SOL    HW216263   1.327   3.277   1.931 -1.2435 -0.7196  0.1428
 1602SOL     OW16264   4.122   1.814  11.250  0.1257 -0.0398 -0.3570
 1602SOL    HW116265   4.168   1.736  11.280  1.3974  1.1198  0.7485
 1602SOL    HW216266   4.034   1.781  11.230 -0.0600  0.2288  0.0238
 1603SOL     OW16267   4.202   2.529   7.266  0.1689  0.2276  0.1206
 1603SOL    HW116268   4.178   2.469   7.337 -0.2555  1.1910  0.7773
 1603SOL    HW216269   4.218   2.467   7.194  0.5482  0.4049  0.0554
 1604SOL     OW16270   0.088   0.353   9.673  0.5558 -0.1046  0.0914
 1604SOL    HW116271   0.069   0.260   9.663  2.5221 -0.6751  1.7951
 1604SOL    HW216272   0.076   0.362   9.768  1.5687 -1.3487  0.3423
 1605SOL     OW16273   2.822   1.407  12.639 -0.0812 -0.1326 -0.2818
 1605SOL    HW116274   2.873   1.328  12.621 -3.7622 -2.5022 -0.3754
 1605SOL    HW216275   2.893   1.462  12.672 -0.3872  0.8162 -1.1927
 1606SOL     OW16276   2.422   1.537   3.097  0.0365 -0.1672 -0.4558
 1606SOL    HW116277   2.363   1.603   3.133  0.2354  1.1769 -2.6189
 1606SOL    HW216278   2.448   1.576   3.013 -0.9305 -0.8822 -1.0963
 1607SOL     OW16279   3.710   4.675   9.602 -0.4651 -1.0215 -0.0032
 1607SOL    HW116280   3.741   0.038   9.575 -0.4454 -0.4737  1.7680
 1607SOL    HW216281   3.632   4.697   9.653 -1.4366 -0.2204 -1.8217
 1608SOL     OW16282   0.741   4.685   7.806 -0.1278  0.1341 -0.2350
 1608SOL    HW116283   0.656   0.001   7.784 -0.0506  0.5113  0.1353
 1608SOL    HW216284   0.740   4.592   7.784 -0.7907 -0.0944  0.7380
 1609SOL     OW16285   2.128   3.340   8.574 -0.0518 -0.0519 -1.6411
 1609SOL    HW116286   2.115   3.264   8.631  0.4865  1.2099  0.1917
 1609SOL    HW216287   2.179   3.307   8.501  1.7897 -0.4159 -0.1855
 1610SOL     OW16288   3.501   3.483  15.575  0.5136 -0.1750  0.1346
 1610SOL    HW116289   3.435   3.483  15.505 -0.4683 -1.3736  1.0578
 1610SOL    HW216290   3.493   3.574  15.604  1.0283  0.4179 -1.5561
 1611SOL     OW16291   2.402   2.268  16.963 -0.2549  0.1025 -0.4656
 1611SOL    HW116292   2.461   2.237  17.032 -2.9196  0.1762  1.8422
 1611SOL    HW216293   2.470   2.303  16.906 -0.3138  1.0896  0.0772
 1612SOL     OW16294   1.735   3.957   1.736  0.1845 -0.1063 -0.6584
 1612SOL    HW116295   1.653   3.939   1.689  0.3183 -0.6309 -0.6948
 1612SOL    HW216296   1.796   3.984   1.667 -0.7174 -0.5665 -1.6516
 1613SOL     OW16297   0.462   2.353  14.506  0.2796 -0.1854 -0.2619
 1613SOL    HW116298   0.370   2.326  14.509  0.1425  0.4200  1.3067
 1613SOL    HW216299   0.455   2.397  14.591  1.8666  2.6124 -1.5836
 1614SOL     OW16300   2.654   4.712  10.168  0.1540 -0.5333  0.6415
 1614SOL    HW116301   2.641   4.654  10.094 -0.0063  0.2427  0.0643
 1614SOL    HW216302   2.748   0.006  10.167 -0.1170  1.0057  1.0878
 1615SOL     OW16303   4.655   1.390   5.475 -0.0024  0.3250  0.1158
 1615SOL    HW116304   4.560   1.390   5.463 -0.0222  0.1914  0.2733
 1615SOL    HW216305   4.663   1.297   5.497 -0.8539  0.9183  2.9102
 1616SOL     OW16306   2.544   0.686   5.672  0.0205  0.3972 -0.4191
 1616SOL    HW116307   2.521   0.688   5.765 -1.0797  0.7476 -0.6989
 1616SOL    HW216308   2.619   0.744   5.662  0.3312  0.1289  0.4179
 1617SOL     OW16309   1.961   0.855   8.102  0.3248  0.4518  0.3027
 1617SOL    HW116310   1.890   0.828   8.161 -1.0357 -1.1036 -2.0303
 1617SOL    HW216311   2.006   0.771   8.099 -2.7995 -1.2241 -0.2586
 1618SOL     OW16312   0.685   2.450   3.111 -0.1229 -0.1849 -0.2580
 1618SOL    HW116313   0.605   2.485   3.072  0.7585  0.3888 -1.5511
 1618SOL    HW216314   0.665   2.445   3.204 -1.8947 -4.2459 -0.8945
 1619SOL     OW16315   1.760   2.132  12.679  0.2983 -0.0239  0.2079
 1619SOL    HW116316   1.711   2.058  12.643 -0.8278  0.6622  0.3180
 1619SOL    HW216317   1.816   2.153  12.604 -0.8687  1.9795 -0.1294
 1620SOL     OW16318   2.632   3.854   3.634 -0.3478 -0.2733 -0.6608
 1620SOL    HW116319   2.609   3.836   3.725  0.3816 -1.1083 -0.6498
 1620SOL    HW216320   2.706   3.794   3.627 -0.4252 -0.2571 -1.7662
 1621SOL     OW16321   1.919   0.827  11.833 -0.1883  0.3750  0.0024
 1621SOL    HW116322   1.836   0.792  11.865 -0.5062  1.4524  0.3314
 1621SOL    HW216323   1.942   0.745  11.789  1.4360 -0.0952  1.7713
 1622SOL     OW16324   2.625   0.034  12.911 -0.1305  0.1388 -0.2034
 1622SOL    HW116325   2.695   0.007  12.852  1.1097 -0.2556  1.4737
 1622SOL    HW216326   2.660   0.111  12.954  1.2306 -0.1856 -0.7294
 1623SOL     OW16327   2.379   3.538   4.788 -0.5186  0.0576 -0.2438
 1623SOL    HW116328   2.346   3.621   4.754  1.4492  1.1039  0.4344
 1623SOL    HW216329   2.315   3.513   4.855 -1.3265 -0.5884 -1.2394
 1624SOL     OW16330   1.263   3.048   5.901 -0.6046  0.6696 -0.0956
 1624SOL    HW116331   1.209   3.117   5.941 -1.5516  1.1681 -2.2613
 1624SOL    HW216332   1.268   2.984   5.972  1.7623  3.1370  1.9587
 1625SOL     OW16333   1.935   2.569   8.794  0.1690  0.6847 -0.3280
 1625SOL    HW116334   2.004   2.518   8.836 -0.1112  1.4362  1.0414
 1625SOL    HW216335   1.969   2.657   8.812 -0.0432  0.5459  0.7713
 1626SOL     OW16336   1.441   1.698   4.146  0.9312  0.2954 -0.0226
 1626SOL    HW116337   1.513   1.760   4.154 -1.2612  2.9369 -0.9670
 1626SOL    HW216338   1.471   1.619   4.192 -1.2456 -1.2517 -1.2432
 1627SOL     OW16339   1.087   2.731   7.372  0.0193  0.2886 -0.1489
 1627SOL    HW116340   1.117   2.708   7.284  0.6144 -0.7470  0.3241
 1627SOL    HW216341   1.142   2.677   7.428 -0.0640  1.1928  0.8081
 1628SOL     OW16342   4.551   3.112   4.320 -0.5579  0.4775 -0.0478
 1628SOL    HW116343   4.595   3.096   4.403  1.5341 -0.4706 -1.3418
 1628SOL    HW216344   4.503   3.190   4.348 -0.6943 -0.1572  1.4734
 1629SOL     OW16345   3.744   0.780   3.738 -0.5867  0.0496 -0.5234
 1629SOL    HW116346   3.677   0.748   3.799 -0.1752  1.2884  0.5706
 1629SOL    HW216347   3.820   0.761   3.792 -1.7619 -2.3407  0.3275
 1630SOL     OW16348   1.077   1.850   0.166 -0.2647  0.0803  0.1291
 1630SOL    HW116349   1.131   1.793   0.113  0.3245  0.2004  0.5917
 1630SOL    HW216350   1.018   1.791   0.212  0.2427 -0.6192 -0.1176
 1631SOL     OW16351   1.722   1.170   4.434 -0.1774 -0.0455  0.5811
 1631SOL    HW116352   1.737   1.199   4.524  1.6943  4.1967 -1.0779
 1631SOL    HW216353   1.739   1.076   4.444 -2.9602 -0.5837  0.1894
 1632SOL     OW16354   0.776   1.405   2.619 -0.3108 -0.0371 -0.2247
 1632SOL    HW116355   0.831   1.336   2.582  0.5112 -0.4998  1.8630
 1632SOL    HW216356   0.723   1.436   2.546 -0.9484 -1.8654 -0.5335
 1633SOL     OW16357   3.821   3.930   2.945  0.2280 -0.2425 -0.1194
 1633SOL    HW116358   3.761   3.981   2.999  0.1552 -0.0616 -0.3715
 1633SOL    HW216359   3.897   3.918   3.003  1.3970 -3.2302 -2.2452
 1634SOL     OW16360   0.759   0.708   3.948  0.2274 -0.0395  0.0042
 1634SOL    HW116361   0.728   0.736   3.862 -0.1734 -1.6225 -0.3667
 1634SOL    HW216362   0.688   0.753   3.995  0.9177  0.7026  0.3337
 1635SOL     OW16363   3.293   0.657   6.914  0.0982  0.0014 -0.1457
 1635SOL    HW116364   3.337   0.603   6.980  0.1045  0.2890  0.0819
 1635SOL    HW216365   3.325   0.744   6.938  0.3955 -0.4831  1.1991
 1636SOL     OW16366   1.119   1.942  12.518  0.3003  0.7201  0.0745
 1636SOL    HW116367   1.196   1.994  12.498 -0.6545  1.0382 -2.6371
 1636SOL    HW216368   1.088   1.938  12.428 -0.0979  0.7746  0.2056
 1637SOL     OW16369   1.721   4.134   7.806  0.0062 -0.2987 -0.9769
 1637SOL    HW116370   1.793   4.169   7.753 -0.6934  0.8739 -1.1536
 1637SOL    HW216371   1.682   4.215   7.839  0.2452  0.4963 -2.6182
 1638SOL     OW16372   1.121   0.163   7.136 -0.0904 -0.0484  0.0502
 1638SOL    HW116373   1.201   0.167   7.189 -2.1665  3.7928  2.8485
 1638SOL    HW216374   1.049   0.157   7.199 -1.1391 -0.6224 -1.1982
 1639SOL     OW16375   3.880   1.710  11.197 -0.3684 -0.2892  0.0119
 1639SOL    HW116376   3.866   1.658  11.118  2.0090 -2.3920  0.9662
 1639SOL    HW216377   3.796   1.753  11.209  0.0083  1.3791 -3.5323
 1640SOL     OW16378   1.870   1.928   3.086  0.1338  0.1245  0.2318
 1640SOL    HW116379   1.897   1.857   3.028  0.3963 -1.3045  2.1001
 1640SOL    HW216380   1.790   1.963   3.049 -0.8369 -2.7078 -0.3633
 1641SOL     OW16381   4.235   3.221   8.911  0.6258  0.2349  0.0672
 1641SOL    HW116382   4.304   3.157   8.924  1.4651  0.7037 -2.1229
 1641SOL    HW216383   4.283   3.303   8.917  0.1137  0.5278  0.1731
 1642SOL     OW16384   1.606   1.091   6.508 -0.2619  0.1956 -0.3072
 1642SOL    HW116385   1.617   1.185   6.492 -0.0565  0.1084 -0.6839
 1642SOL    HW216386   1.649   1.079   6.593 -0.5458 -0.6452 -0.2846
 1643SOL     OW16387   1.206   3.881   3.584  0.2719  0.6252  0.4774
 1643SOL    HW116388   1.138   3.824   3.550  0.1468  1.4188 -0.5848
 1643SOL    HW216389   1.222   3.945   3.515  3.5966  0.9169  1.5034
 1644SOL     OW16390   4.716   1.984   4.892  0.2938 -0.2181  0.0146
 1644SOL    HW116391   4.677   2.034   4.963 -0.2777 -0.8168  0.1244
 1644SOL    HW216392   0.045   1.926   4.947  1.1367  0.5996  0.0695
 1645SOL     OW16393   3.754   1.355   3.022  0.4840 -0.2383  0.1734
 1645SOL    HW116394   3.714   1.275   3.054 -1.6005  1.6379  2.3010
 1645SOL    HW216395   3.727   1.418   3.089 -0.9825 -1.6930  0.9132
 1646SOL     OW16396   4.509   3.296   3.409  0.3063  0.2416  0.2988
 1646SOL    HW116397   4.605   3.295   3.405  0.2033 -2.5995 -1.2642
 1646SOL    HW216398   4.486   3.205   3.425  0.6049  0.1090 -0.0128
 1647SOL     OW16399   2.119   3.508  14.527 -0.7404  0.0177  0.0987
 1647SOL    HW116400   2.141   3.539  14.439  0.2945  1.5803  0.8915
 1647SOL    HW216401   2.024   3.519  14.522 -0.6868  0.6101  0.3377
 1648SOL     OW16402   1.103   4.460  13.973  0.6463 -0.1149 -0.4443
 1648SOL    HW116403   1.104   4.365  13.962  0.2558 -0.2666  0.8508
 1648SOL    HW216404   1.112   4.469  14.068  0.7719 -0.8175 -0.3882
 1649SOL     OW16405   2.438   0.655   4.562  0.2702  0.2900 -0.1288
 1649SOL    HW116406   2.483   0.597   4.624 -1.0507  0.1643  0.6995
 1649SOL    HW216407   2.481   0.625   4.482  2.7624  2.2028  0.4828
 1650SOL     OW16408   0.534   0.640   9.083 -0.1308 -0.0332 -0.1230
 1650SOL    HW116409   0.475   0.693   9.137 -0.1794  0.2184 -0.4186
 1650SOL    HW216410   0.577   0.708   9.031 -0.7195 -0.5660 -1.2951
 1651SOL     OW16411   3.979   2.069   7.934 -0.4593 -0.2526 -0.8825
 1651SOL    HW116412   3.958   2.125   7.859 -0.6016 -0.1498 -0.7647
 1651SOL    HW216413   4.043   2.120   7.982  1.0713 -2.1682 -0.8663
 1652SOL     OW16414   1.754   1.983   6.819  0.7238 -0.4575 -0.4850
 1652SOL    HW116415   1.795   1.991   6.904 -1.1202  0.0914  0.3553
 1652SOL    HW216416   1.716   1.895   6.828 -2.3239  0.7478 -1.4019
 1653SOL     OW16417   1.490   3.577  14.102 -0.1283 -1.0921 -0.0132
 1653SOL    HW116418   1.560   3.642  14.100 -0.7651 -0.3873  0.9431
 1653SOL    HW216419   1.535   3.495  14.082  0.6291 -0.9336  1.0614
 1654SOL     OW16420   2.611   4.670   5.215 -0.6922  0.0856  0.5335
 1654SOL    HW116421   2.646   4.581   5.218  0.9994  0.6774 -1.3084
 1654SOL    HW216422   2.668   4.714   5.151 -2.0207 -1.1863 -1.5379
 1655SOL     OW16423   1.709   3.381   8.774  0.3249 -0.5951 -0.5924
 1655SOL    HW116424   1.752   3.361   8.857 -1.3451  0.6999  0.5721
 1655SOL    HW216425   1.781   3.414   8.720  1.6981  1.7086  2.6550
 1656SOL     OW16426   1.453   2.695   4.560 -0.3410 -0.0855 -0.3110
 1656SOL    HW116427   1.531   2.644   4.585 -0.2107 -0.9071 -2.3815
 1656SOL    HW216428   1.403   2.699   4.641  0.8887 -3.1755  0.5982
 1657SOL     OW16429   1.465   0.695   7.815  0.5619  0.6580  0.6298
 1657SOL    HW116430   1.482   0.604   7.792  0.2720  0.6887  0.3054
 1657SOL    HW216431   1.530   0.701   7.886 -0.7945 -1.4310  2.0558
 1658SOL     OW16432   1.741   2.950   7.298  0.0908 -0.0027  0.0794
 1658SOL    HW116433   1.750   2.958   7.203 -1.7020 -0.5825 -0.1514
 1658SOL    HW216434   1.824   2.990   7.324 -0.2044  0.5176  0.2192
 1659SOL     OW16435   4.089   1.993   5.897 -0.9342 -1.0393  0.0963
 1659SOL    HW116436   4.054   1.976   5.984 -1.2351  0.4458  0.2705
 1659SOL    HW216437   4.067   2.084   5.879 -1.2176 -0.6715  2.2978
 1660SOL     OW16438   2.394   3.123   2.867 -0.3397  0.5658 -0.8226
 1660SOL    HW116439   2.418   3.084   2.952  1.7075  2.3094 -0.6138
 1660SOL    HW216440   2.401   3.042   2.816 -0.0748 -0.7009  1.1935
 1661SOL     OW16441   2.573   3.711   8.777  0.4098  0.0350  0.8425
 1661SOL    HW116442   2.565   3.793   8.827  1.0859  1.5976 -1.6576
 1661SOL    HW216443   2.496   3.714   8.720  1.4998  2.4807 -0.4897
 1662SOL     OW16444   1.662   3.358   4.442 -0.2573 -0.2092 -0.0542
 1662SOL    HW116445   1.672   3.437   4.389  0.8361 -0.0268  0.4270
 1662SOL    HW216446   1.578   3.325   4.410 -0.3300 -1.2834  1.2512
 1663SOL     OW16447   4.040   2.504   3.793  0.1417 -0.0214 -0.5265
 1663SOL    HW116448   3.950   2.534   3.787  0.6308  1.7060  0.7178
 1663SOL    HW216449   4.082   2.588   3.775 -1.4402  1.1076  1.0153
 1664SOL     OW16450   0.785   3.479   9.180 -0.1690  0.0105  0.2417
 1664SOL    HW116451   0.823   3.393   9.194 -0.9638 -0.3458  0.1782
 1664SOL    HW216452   0.806   3.487   9.087 -1.0210 -0.9741 -0.0335
 1665SOL     OW16453   3.534   3.919  12.503  0.5652  0.2804  0.1928
 1665SOL    HW116454   3.568   3.965  12.579 -0.6232 -2.3163  2.3134
 1665SOL    HW216455   3.596   3.847  12.490  0.8893  0.3923  1.1293
 1666SOL     OW16456   2.139   3.588  16.742 -0.1937 -0.6891 -0.3905
 1666SOL    HW116457   2.173   3.653  16.680 -0.6428 -1.7195 -1.7039
 1666SOL    HW216458   2.112   3.644  16.815  0.2212 -2.1482  0.8756
 1667SOL     OW16459   2.861   0.221   2.234 -0.3380 -0.2848 -0.2529
 1667SOL    HW116460   2.889   0.275   2.309  0.7976  0.8754 -1.5204
 1667SOL    HW216461   2.910   0.258   2.161 -0.3040 -1.8060 -0.9911
 1668SOL     OW16462   0.470   1.783   4.107  0.3389  0.4780 -0.4881
 1668SOL    HW116463   0.557   1.792   4.070  0.2774  3.2988 -0.0214
 1668SOL    HW216464   0.472   1.690   4.127 -0.0382  0.4128 -0.7503
 1669SOL     OW16465   3.658   4.188  11.620  0.5681 -0.4574  0.1351
 1669SOL    HW116466   3.734   4.132  11.634  1.0105 -0.6228 -2.8092
 1669SOL    HW216467   3.622   4.197  11.708 -1.5816  1.1478 -0.9010
 1670SOL     OW16468   3.660   4.411  14.659 -0.3448 -0.3508 -0.3045
 1670SOL    HW116469   3.579   4.408  14.608 -0.0790 -3.2037 -0.5254
 1670SOL    HW216470   3.669   4.318  14.677 -0.1385  0.0406  1.6173
 1671SOL     OW16471   1.224   3.977   8.550  0.1772 -0.3143  0.4633
 1671SOL    HW116472   1.243   3.883   8.561  2.2688  0.1730  0.9542
 1671SOL    HW216473   1.133   3.978   8.581  0.8521  0.7875  2.4231
 1672SOL     OW16474   2.540   1.450  14.797 -0.3110  0.3866  0.0173
 1672SOL    HW116475   2.497   1.395  14.863  2.3274  0.1179  1.5226
 1672SOL    HW216476   2.482   1.428  14.724 -0.5630  1.0546  0.0186
 1673SOL     OW16477   1.879   0.918   3.427 -0.5089  0.0934 -0.5206
 1673SOL    HW116478   1.952   0.889   3.372  0.5702 -0.1480  1.0462
 1673SOL    HW216479   1.842   0.998   3.388 -2.4552 -0.6062 -0.1016
 1674SOL     OW16480   2.894   1.076  10.125  0.9829  0.5154  0.6907
 1674SOL    HW116481   2.921   1.004  10.068  1.2625  1.2212 -0.0680
 1674SOL    HW216482   2.918   1.151  10.070  0.9413 -1.8573 -2.5799
 1675SOL     OW16483   2.915   3.500   6.465 -0.1292  0.0002  0.3557
 1675SOL    HW116484   2.845   3.533   6.409  1.7650  2.4755 -0.5405
 1675SOL    HW216485   2.995   3.546   6.439  0.2817 -1.2659 -0.6685
 1676SOL     OW16486   2.518   0.699   0.435 -0.2901 -0.7367 -0.2743
 1676SOL    HW116487   2.604   0.735   0.412 -0.3661 -0.5395 -0.2427
 1676SOL    HW216488   2.553   0.626   0.488 -0.8447 -0.8573 -0.0701
 1677SOL     OW16489   2.807   3.644  15.410  0.3342 -0.0401 -0.5040
 1677SOL    HW116490   2.785   3.735  15.388  0.9979 -0.1642 -1.6801
 1677SOL    HW216491   2.901   3.637  15.397  0.4884  0.1752  0.5225
 1678SOL     OW16492   0.193   1.293   1.768 -0.5000 -0.3487 -0.0555
 1678SOL    HW116493   0.264   1.332   1.820  0.1380 -1.8667  0.2113
 1678SOL    HW216494   0.228   1.208   1.741 -2.2026 -2.3068  3.7885
 1679SOL     OW16495   0.856   1.451   0.518 -0.4799  0.0619  0.1921
 1679SOL    HW116496   0.931   1.510   0.530 -0.4198 -0.2032  1.0851
 1679SOL    HW216497   0.877   1.373   0.569  3.2643  1.5735  0.9900
 1680SOL     OW16498   2.173   1.110   4.185 -0.6030  0.3863  0.1102
 1680SOL    HW116499   2.245   1.124   4.124 -0.6980  1.6375  0.2826
 1680SOL    HW216500   2.109   1.069   4.127 -1.4643  0.5093  0.9617
 1681SOL     OW16501   0.890   3.054   5.553 -0.4167 -0.0766 -0.4041
 1681SOL    HW116502   0.879   3.031   5.646 -0.8651  1.2216 -0.1337
 1681SOL    HW216503   0.969   3.107   5.558 -0.7034  0.0793  2.5431
 1682SOL     OW16504   2.013   1.661  10.564 -0.3891 -0.0222 -0.9291
 1682SOL    HW116505   2.009   1.638  10.471  1.0766 -2.2453 -0.4336
 1682SOL    HW216506   1.921   1.662  10.591 -0.5219  0.3715 -1.4043
 1683SOL     OW16507   4.608   3.016  11.716 -0.1356 -0.0932  0.1754
 1683SOL    HW116508   4.653   2.933  11.696 -2.6605 -1.7064  1.1858
 1683SOL    HW216509   4.634   3.027  11.807  0.6076  1.0634 -0.1706
 1684SOL     OW16510   3.742   3.730   0.571  0.1408 -0.2439  0.7747
 1684SOL    HW116511   3.722   3.648   0.525 -0.5479  0.3487 -0.0003
 1684SOL    HW216512   3.827   3.747   0.530  0.0496  1.3775  1.2522
 1685SOL     OW16513   2.596   2.665   6.519  0.6129  0.3821 -0.2808
 1685SOL    HW116514   2.587   2.575   6.552 -2.0709  0.4140 -0.9587
 1685SOL    HW216515   2.506   2.697   6.529  0.8812  0.5806  1.5983
 1686SOL     OW16516   4.147   2.326   9.316 -0.4963 -1.0148  0.4333
 1686SOL    HW116517   4.228   2.358   9.277 -0.8342 -0.5094  0.1393
 1686SOL    HW216518   4.166   2.233   9.326  1.1526 -0.8535 -1.1123
 1687SOL     OW16519   4.463   2.206   1.746  0.8581 -0.3253  0.0656
 1687SOL    HW116520   4.370   2.188   1.735  0.7102 -0.7788  2.0427
 1687SOL    HW216521   4.499   2.123   1.778  0.6826  0.1812  1.5441
 1688SOL     OW16522   0.051   1.099   4.710 -0.1169 -0.4499  0.2445
 1688SOL    HW116523   0.122   1.110   4.773 -0.7599  0.5925  0.7882
 1688SOL    HW216524   0.053   1.178   4.655 -1.6596 -0.5180  0.0698
 1689SOL     OW16525   2.523   2.911   5.509 -0.2555  0.1843  0.4168
 1689SOL    HW116526   2.577   2.876   5.438 -1.1388  2.9544 -1.5894
 1689SOL    HW216527   2.432   2.899   5.485 -0.3890  0.9867  0.5342
 1690SOL     OW16528   3.262   2.694   8.326  0.0727 -0.1055 -0.3873
 1690SOL    HW116529   3.240   2.715   8.235 -0.6946  1.5969  0.1852
 1690SOL    HW216530   3.340   2.750   8.331 -0.9789  1.3027  0.4156
 1691SOL     OW16531   3.106   1.819  17.398  0.1757 -0.0777 -0.2266
 1691SOL    HW116532   3.200   1.803  17.390  0.6799  2.6195  0.0268
 1691SOL    HW216533   3.098   1.910  17.367  1.7774 -0.4446 -1.7152
 1692SOL     OW16534   3.922   2.730  13.558  0.5587 -0.1028 -0.2645
 1692SOL    HW116535   3.877   2.721  13.642  0.1743 -0.1116 -0.4710
 1692SOL    HW216536   3.894   2.819  13.535 -0.0589  0.3235  2.1286
 1693SOL     OW16537   4.081   0.578   6.422 -0.0790 -0.1497 -0.3607
 1693SOL    HW116538   4.010   0.618   6.471  1.3453  0.8082  0.9385
 1693SOL    HW216539   4.135   0.554   6.497  0.6721 -0.5993 -1.0421
 1694SOL     OW16540   0.098   3.405  13.194  0.2119  0.2101  0.3005
 1694SOL    HW116541   0.149   3.324  13.196  1.8414  1.2577  0.7066
 1694SOL    HW216542   0.090   3.424  13.288  1.3881 -2.2438  0.8820
 1695SOL     OW16543   0.621   3.733   9.801  0.0199  0.1521  0.0213
 1695SOL    HW116544   0.607   3.802   9.866 -3.5251 -0.3216 -0.2529
 1695SOL    HW216545   0.580   3.764   9.721  0.0970  3.2076  1.1643
 1696SOL     OW16546   2.854   4.244  15.376  0.5577 -0.3554  0.2298
 1696SOL    HW116547   2.927   4.222  15.434 -0.3487  0.7267  1.7735
 1696SOL    HW216548   2.789   4.288  15.431  0.9452  0.9134 -0.3436
 1697SOL     OW16549   3.596   0.703   7.710  0.1141  0.2722  0.0158
 1697SOL    HW116550   3.544   0.665   7.781  1.1824 -0.4844  0.3822
 1697SOL    HW216551   3.678   0.657   7.727 -0.1595 -0.0776  0.3795
 1698SOL     OW16552   3.470   3.257   7.797 -0.5416 -0.0593  0.3021
 1698SOL    HW116553   3.401   3.314   7.763 -0.5285 -0.2370 -0.0212
 1698SOL    HW216554   3.519   3.321   7.848 -2.5456  2.1835 -0.6158
 1699SOL     OW16555   4.719   0.743   6.116 -0.2195  0.3724 -0.2622
 1699SOL    HW116556   4.722   0.791   6.033 -0.3680  1.2453  0.2453
 1699SOL    HW216557   0.068   0.681   6.104 -2.2621 -1.6531 -2.0954
 1700SOL     OW16558   4.270   4.455   8.396  0.5030  0.0905 -0.5346
 1700SOL    HW116559   4.189   4.454   8.344  1.1832 -0.8588 -1.5837
 1700SOL    HW216560   4.255   4.375   8.446  1.2060  0.4608  0.2631
 1701SOL     OW16561   0.087   0.495   7.758 -0.3684 -0.6784 -0.2189
 1701SOL    HW116562   0.015   0.488   7.695  1.3960 -1.4890 -2.1269
 1701SOL    HW216563   0.037   0.479   7.838  0.9093  1.3228  0.9665
 1702SOL     OW16564   3.082   2.945  11.890 -0.4352  0.4519 -0.0984
 1702SOL    HW116565   3.140   3.007  11.933 -0.5564  0.4711  0.0365
 1702SOL    HW216566   3.136   2.871  11.916  1.2060  1.8192  0.3422
 1703SOL     OW16567   3.214   0.587   8.500 -0.4084 -0.0523 -0.3262
 1703SOL    HW116568   3.125   0.589   8.464  0.1528 -0.1683 -1.7213
 1703SOL    HW216569   3.266   0.632   8.433 -0.3141  0.1497 -0.1160
 1704SOL     OW16570   0.943   0.140   7.350  0.1113 -0.0085 -0.3258
 1704SOL    HW116571   1.017   0.147   7.411 -0.8288 -1.0332  0.9311
 1704SOL    HW216572   0.891   0.208   7.392  0.5205  0.2788 -0.2799
 1705SOL     OW16573   4.692   3.676   0.530 -0.4335  0.0237 -0.1198
 1705SOL    HW116574   4.621   3.739   0.537  3.0645  3.6856  2.7216
 1705SOL    HW216575   0.044   3.722   0.493  1.8393 -2.1447  1.7868
 1706SOL     OW16576   1.776   3.212   5.790  0.1792 -0.5588  0.6769
 1706SOL    HW116577   1.799   3.215   5.697 -1.0166  0.9128  0.4351
 1706SOL    HW216578   1.682   3.196   5.785  0.1002 -0.4242  1.8395
 1707SOL     OW16579   4.521   0.011   6.392 -0.5622 -0.4141 -0.6825
 1707SOL    HW116580   4.547   0.063   6.468  0.6062 -1.5957 -0.2565
 1707SOL    HW216581   4.488   0.073   6.327 -0.3760  0.4433  0.0447
 1708SOL     OW16582   1.314   4.139   7.662  0.0581  0.3693  0.0788
 1708SOL    HW116583   1.287   4.102   7.746 -0.4348  0.1084 -0.1958
 1708SOL    HW216584   1.258   4.088   7.604 -0.0894 -0.9408  1.3985
 1709SOL     OW16585   1.630   2.636  16.716 -0.3651  0.5889 -0.5896
 1709SOL    HW116586   1.564   2.568  16.728  0.2669  0.4019  1.8093
 1709SOL    HW216587   1.707   2.583  16.695 -1.3521 -0.8628 -0.4909
 1710SOL     OW16588   0.411   1.550   2.551 -0.1484 -0.5793  0.7019
 1710SOL    HW116589   0.464   1.505   2.484  1.3764  1.3435  0.6140
 1710SOL    HW216590   0.393   1.481   2.614  0.3956 -1.4697 -0.1094
 1711SOL     OW16591   0.854   4.312  11.602 -0.2220 -0.5663  0.5354
 1711SOL    HW116592   0.880   4.224  11.576 -0.0042 -0.6724  1.0917
 1711SOL    HW216593   0.937   4.358  11.617 -0.5919 -0.9691  3.9631
 1712SOL     OW16594   0.779   0.277   5.400  0.6594  0.1078  0.0789
 1712SOL    HW116595   0.739   0.295   5.485 -0.7511  1.8624 -0.9584
 1712SOL    HW216596   0.871   0.297   5.418  0.3291  0.8569  0.9376
 1713SOL     OW16597   4.140   4.372   3.868  0.1783  0.4063  0.0440
 1713SOL    HW116598   4.130   4.328   3.783 -0.5963  1.2885 -0.3299
 1713SOL    HW216599   4.080   4.324   3.924  0.6896 -1.6936 -1.2145
 1714SOL     OW16600   1.099   1.738  12.873 -0.0314  0.3217 -0.2217
 1714SOL    HW116601   1.019   1.776  12.907 -0.2287  0.5765 -0.9708
 1714SOL    HW216602   1.069   1.704  12.789  0.2355  0.5973 -0.4330
 1715SOL     OW16603   3.894   1.968   3.659  0.1730 -0.1395  0.0084
 1715SOL    HW116604   3.968   1.988   3.602  0.3508 -2.5622 -0.6419
 1715SOL    HW216605   3.929   1.898   3.714 -0.9944 -0.8245 -0.1282
 1716SOL     OW16606   2.211   3.681  15.180 -0.1101 -0.3807  0.3350
 1716SOL    HW116607   2.180   3.703  15.268  1.0003  1.5494  0.2582
 1716SOL    HW216608   2.131   3.655  15.134 -0.1441  1.0282 -0.4099
 1717SOL     OW16609   2.769   0.301   4.634  0.3484  0.0189  0.1578
 1717SOL    HW116610   2.782   0.211   4.605 -2.3847 -0.2142 -0.4056
 1717SOL    HW216611   2.854   0.344   4.634  0.4011 -0.0876 -0.4771
 1718SOL     OW16612   3.114   0.257  13.592  0.4342 -0.2370  0.0004
 1718SOL    HW116613   3.057   0.277  13.517  1.9898  0.1715 -1.0848
 1718SOL    HW216614   3.186   0.221  13.539  0.4751  0.9808 -0.7874
 1719SOL     OW16615   1.331   0.958   8.104  0.0523  0.0489 -0.4723
 1719SOL    HW116616   1.363   0.868   8.109 -0.8234 -0.1400  1.7436
 1719SOL    HW216617   1.247   0.944   8.060 -0.4982  1.8735 -0.0116
 1720SOL     OW16618   4.034   0.646  16.294  0.0836  0.1464  0.0676
 1720SOL    HW116619   4.002   0.658  16.204  0.4106 -2.4173 -0.3696
 1720SOL    HW216620   3.952   0.648  16.344 -1.6339  3.3341 -2.8631
 1721SOL     OW16621   1.808   3.566   7.794  0.1932 -0.3166  0.4499
 1721SOL    HW116622   1.830   3.659   7.801  0.7750 -0.3214 -1.2927
 1721SOL    HW216623   1.732   3.558   7.737  0.1577 -0.5699  0.5340
 1722SOL     OW16624   2.300   1.766   3.167  0.3016  0.1815 -0.2158
 1722SOL    HW116625   2.344   1.828   3.108  1.9716 -0.3915  0.4226
 1722SOL    HW216626   2.208   1.792   3.162  0.5214  0.8546 -0.7744
 1723SOL     OW16627   3.983   0.258   1.642 -0.4032  0.0031 -0.1124
 1723SOL    HW116628   4.000   0.165   1.657  0.1588 -0.0241 -0.8508
 1723SOL    HW216629   3.982   0.289   1.732 -0.4655  0.2902 -0.2113
 1724SOL     OW16630   0.860   3.395   6.498  0.4308 -0.2362  0.1778
 1724SOL    HW116631   0.811   3.462   6.451 -1.3957 -0.8439  1.2396
 1724SOL    HW216632   0.944   3.440   6.511  0.4424 -0.1013 -0.3504
 1725SOL     OW16633   4.452   3.653   2.458  0.7176 -0.4912  0.1082
 1725SOL    HW116634   4.421   3.733   2.414  0.7221 -0.5639 -0.0291
 1725SOL    HW216635   4.384   3.628   2.520  1.7994  0.8625  1.8354
 1726SOL     OW16636   3.180   1.528   2.600 -0.1730 -0.7976 -0.0952
 1726SOL    HW116637   3.179   1.449   2.654 -1.3444 -0.9203 -0.2931
 1726SOL    HW216638   3.273   1.545   2.592 -0.6875  2.7749  1.8263
 1727SOL     OW16639   1.377   3.282   8.314  0.1070  0.5715 -0.3967
 1727SOL    HW116640   1.458   3.242   8.282  0.0839  1.0782 -1.0948
 1727SOL    HW216641   1.307   3.238   8.266 -0.2660 -0.9881  1.5852
 1728SOL     OW16642   4.631   1.707  11.838 -0.3630  0.3965 -1.0978
 1728SOL    HW116643   4.644   1.754  11.920 -1.6967 -0.7706 -0.2171
 1728SOL    HW216644   4.552   1.747  11.801 -2.4682 -0.1398  2.9111
 1729SOL     OW16645   1.391   4.649   3.895  0.1230 -0.3733 -0.0732
 1729SOL    HW116646   1.327   4.687   3.835 -0.6697 -0.5029  0.6709
 1729SOL    HW216647   1.460   4.715   3.900 -1.3647  1.1803 -0.0402
 1730SOL     OW16648   3.359   4.248   7.042  0.1479  0.2578  0.6138
 1730SOL    HW116649   3.281   4.294   7.013  0.0654 -0.3459 -0.1123
 1730SOL    HW216650   3.394   4.321   7.093  0.7234 -0.3624  1.1040
 1731SOL     OW16651   1.791   4.064   2.938  0.4731 -0.3044  0.3851
 1731SOL    HW116652   1.802   4.082   3.032  1.3363 -2.2953  0.6558
 1731SOL    HW216653   1.700   4.037   2.935  0.8050 -1.3070 -0.5592
 1732SOL     OW16654   3.718   0.077   1.443 -0.0117  0.7430  0.1830
 1732SOL    HW116655   3.733   4.711   1.472 -3.1454  0.4006  0.8068
 1732SOL    HW216656   3.700   0.118   1.528 -0.7391 -1.4700  1.0941
 1733SOL     OW16657   0.960   0.594  11.432  0.0655  0.0606 -0.1448
 1733SOL    HW116658   0.870   0.625  11.430 -0.7209 -2.2972 -1.2586
 1733SOL    HW216659   1.002   0.656  11.491  1.1772  1.1174 -2.0496
 1734SOL     OW16660   4.638   3.610  10.822 -0.1360  0.1171  0.0024
 1734SOL    HW116661   4.723   3.569  10.839 -0.2778 -0.7923 -1.4741
 1734SOL    HW216662   4.617   3.574  10.736  0.2749 -0.6480  0.2244
 1735SOL     OW16663   2.291   4.378   4.503 -0.4378  0.5530 -0.5767
 1735SOL    HW116664   2.330   4.452   4.457 -1.3653  1.6146  0.3252
 1735SOL    HW216665   2.365   4.324   4.529  1.5245  3.2773 -0.5694
 1736SOL     OW16666   4.479   1.834   6.037  0.2576 -0.3726  0.1342
 1736SOL    HW116667   4.539   1.780   6.088  1.9768  0.6588 -0.7820
 1736SOL    HW216668   4.526   1.917   6.031  0.1749 -0.2361  1.5557
 1737SOL     OW16669   4.433   3.362   5.207 -0.2623  0.1515 -0.5061
 1737SOL    HW116670   4.503   3.303   5.236 -0.2806  0.4758  0.1875
 1737SOL    HW216671   4.375   3.299   5.163 -2.0084 -0.1184  2.1776
 1738SOL     OW16672   1.406   3.767   9.080 -1.2392 -0.0345 -0.3868
 1738SOL    HW116673   1.323   3.736   9.117 -1.2109 -0.0146 -0.3063
 1738SOL    HW216674   1.421   3.847   9.132  0.0864  0.2237 -1.1698
 1739SOL     OW16675   1.666   2.043   4.232 -0.6452 -0.3584 -0.6904
 1739SOL    HW116676   1.615   1.964   4.245  0.9089 -1.1774  0.3174
 1739SOL    HW216677   1.757   2.014   4.238 -0.1977  0.7074 -2.1702
 1740SOL     OW16678   3.373   2.930   0.901  0.6512 -0.1403  0.1644
 1740SOL    HW116679   3.383   2.845   0.943  1.6957 -1.1117 -2.0684
 1740SOL    HW216680   3.350   2.984   0.977 -2.6756  0.9289 -1.5929
 1741SOL     OW16681   0.028   0.942   2.856  0.5910 -0.1329 -0.8239
 1741SOL    HW116682   4.722   0.907   2.940  0.3152  1.0606 -0.4121
 1741SOL    HW216683   0.108   0.894   2.832  0.5311 -0.6881  0.1110
 1742SOL     OW16684   0.327   2.397   4.163  0.3264 -0.0196 -0.2040
 1742SOL    HW116685   0.422   2.408   4.169  0.2619  1.2096 -1.4020
 1742SOL    HW216686   0.289   2.485   4.153 -0.1575 -0.4085 -1.8366
 1743SOL     OW16687   1.885   1.676   6.944  0.1001  0.2992  0.2111
 1743SOL    HW116688   1.964   1.622   6.947 -0.4198 -0.4639 -0.0233
 1743SOL    HW216689   1.923   1.763   6.961  2.2380 -0.4340 -0.8048
 1744SOL     OW16690   4.614   4.308  16.294 -0.2317  0.1765  0.4171
 1744SOL    HW116691   4.555   4.238  16.323  0.6417  0.0065  1.8080
 1744SOL    HW216692   4.665   4.327  16.372  0.8526  0.9516 -0.4903
 1745SOL     OW16693   1.693   1.652   6.533  0.1007  0.0208  0.5878
 1745SOL    HW116694   1.774   1.700   6.515  1.0577 -1.3980  1.0584
 1745SOL    HW216695   1.637   1.674   6.459  0.3530 -0.5271  0.2405
 1746SOL     OW16696   3.253   2.583   7.443  0.0864  0.4820  0.6476
 1746SOL    HW116697   3.283   2.561   7.355 -2.4519 -2.4561  0.5202
 1746SOL    HW216698   3.164   2.613   7.424 -0.1533  0.4241  1.6824
 1747SOL     OW16699   4.301   2.093  11.370  0.1399 -0.0268  0.0635
 1747SOL    HW116700   4.354   2.016  11.350 -1.4709 -1.3641  0.9917
 1747SOL    HW216701   4.298   2.092  11.466 -0.3751  0.3535  0.0531
 1748SOL     OW16702   1.509   2.589   2.612 -0.0569 -0.4941 -0.0176
 1748SOL    HW116703   1.542   2.566   2.525 -2.2701  0.6368 -1.1426
 1748SOL    HW216704   1.455   2.662   2.582  0.1947 -0.7375 -1.0638
 1749SOL     OW16705   1.517   1.679   5.798 -0.3209 -0.3915 -0.0756
 1749SOL    HW116706   1.524   1.774   5.789  0.0439 -0.3147  1.0199
 1749SOL    HW216707   1.450   1.648   5.737 -2.3887  0.5550  1.7019
 1750SOL     OW16708   4.429   0.140   0.859  0.0002  0.0220 -0.7940
 1750SOL    HW116709   4.385   0.165   0.778 -0.8666 -1.5557 -0.8137
 1750SOL    HW216710   4.508   0.102   0.820  1.7743  1.8100  1.0704
 1751SOL     OW16711   4.542   3.897   8.342  0.2796  0.6385  0.4429
 1751SOL    HW116712   4.536   3.993   8.342  0.4177  0.6390 -1.3390
 1751SOL    HW216713   4.455   3.877   8.376  0.7127 -2.2531 -0.1666
 1752SOL     OW16714   2.674   1.607   4.605  0.0462 -0.0528  0.0548
 1752SOL    HW116715   2.612   1.568   4.543 -1.7862  0.2704  1.6760
 1752SOL    HW216716   2.748   1.602   4.545 -1.6902  1.4925 -2.2120
 1753SOL     OW16717   1.320   4.169   8.387 -0.3279  0.1934  0.7118
 1753SOL    HW116718   1.367   4.121   8.319 -1.2144  0.6766 -0.2440
 1753SOL    HW216719   1.298   4.097   8.446  1.9469  2.3571  4.1864
 1754SOL     OW16720   1.464   0.164   0.991  0.2381  0.3502  0.1901
 1754SOL    HW116721   1.519   0.108   0.936 -0.1402 -0.1272  0.2962
 1754SOL    HW216722   1.377   0.124   0.983 -0.7563  2.3791  0.8584
 1755SOL     OW16723   0.885   1.149   9.259 -0.3580  0.1989  0.1128
 1755SOL    HW116724   0.803   1.176   9.300  0.5130  0.1677  1.8693
 1755SOL    HW216725   0.944   1.139   9.334 -0.0636  0.5587 -0.0745
 1756SOL     OW16726   3.687   0.317   7.699 -0.1135 -0.1001  0.3170
 1756SOL    HW116727   3.738   0.394   7.723 -0.1181 -0.1471  0.4773
 1756SOL    HW216728   3.606   0.368   7.693  0.0708  0.1707  0.0653
 1757SOL     OW16729   0.319   2.718  11.802  0.0519 -0.5982 -0.1642
 1757SOL    HW116730   0.327   2.694  11.709  2.6678 -0.4128  0.0124
 1757SOL    HW216731   0.273   2.642  11.838  0.3468 -0.6891  0.0179
 1758SOL     OW16732   3.667   3.138   4.516  0.0728 -0.1635  0.1908
 1758SOL    HW116733   3.654   3.062   4.572  0.1069 -0.9207 -0.8202
 1758SOL    HW216734   3.653   3.098   4.430  0.0226 -1.1772  0.6794
 1759SOL     OW16735   2.164   1.247   1.648 -0.7052  0.2845 -0.0592
 1759SOL    HW116736   2.163   1.185   1.575 -0.5664 -0.7099  0.7901
 1759SOL    HW216737   2.156   1.186   1.721  2.1618 -1.2901 -1.0616
 1760SOL     OW16738   2.936   0.931   4.608  0.0276 -0.4279  0.1423
 1760SOL    HW116739   3.022   0.937   4.566 -0.1836 -0.8405 -0.3516
 1760SOL    HW216740   2.952   0.933   4.702 -3.8251  0.5441  0.7811
 1761SOL     OW16741   1.574   1.276   7.749  1.0704  0.3259  0.3438
 1761SOL    HW116742   1.482   1.288   7.772  1.1094 -0.1891  0.7526
 1761SOL    HW216743   1.607   1.224   7.822  1.4569 -0.0414 -0.0858
 1762SOL     OW16744   0.612   3.225   7.802  0.1661  0.1802  0.0341
 1762SOL    HW116745   0.707   3.220   7.813 -0.1893 -1.8755  2.0641
 1762SOL    HW216746   0.578   3.161   7.865  0.5843 -0.0551  0.0277
 1763SOL     OW16747   2.114   4.477   3.983 -0.1538 -0.2594  0.1584
 1763SOL    HW116748   2.120   4.456   3.890  1.3045 -1.6987  0.5910
 1763SOL    HW216749   2.138   4.393   4.022 -0.9805 -1.1590 -1.2521
 1764SOL     OW16750   0.693   2.605   7.132 -0.0051 -0.9726  0.2175
 1764SOL    HW116751   0.770   2.619   7.187 -1.4929  2.7018  1.3550
 1764SOL    HW216752   0.653   2.692   7.128  1.4990 -0.2333  1.7408
 1765SOL     OW16753   1.391   3.845   2.854  0.2523 -0.0486  0.0120
 1765SOL    HW116754   1.364   3.836   2.762 -2.5932  0.8232  0.7517
 1765SOL    HW216755   1.308   3.811   2.888  2.3008 -3.0049  2.0847
 1766SOL     OW16756   1.125   2.099   0.226 -0.2010 -0.3788  0.1161
 1766SOL    HW116757   1.098   2.013   0.197  1.5973 -2.1108  3.5454
 1766SOL    HW216758   1.089   2.109   0.314 -1.0974 -0.3982 -0.2524
 1767SOL     OW16759   0.587   3.982   6.985 -0.0625 -0.4188  0.4843
 1767SOL    HW116760   0.614   4.073   6.972  1.3833 -0.7082  1.5117
 1767SOL    HW216761   0.522   3.991   7.054  0.0991  0.8468  0.4715
 1768SOL     OW16762   3.725   2.271   7.387 -0.7772  0.2393  0.4495
 1768SOL    HW116763   3.651   2.330   7.404  0.3045  1.1220  2.0769
 1768SOL    HW216764   3.731   2.208   7.458 -1.7566  1.0328  1.2433
 1769SOL     OW16765   3.498   4.695   5.878  0.4296  0.2014  0.0247
 1769SOL    HW116766   3.569   4.649   5.922 -0.1021 -1.8775 -1.3285
 1769SOL    HW216767   3.522   0.054   5.922  1.2788 -0.0455  0.0278
 1770SOL     OW16768   3.010   4.579   6.204 -0.2046  0.3545 -0.2708
 1770SOL    HW116769   2.940   4.626   6.250 -0.3642 -2.1260  2.0433
 1770SOL    HW216770   3.074   4.574   6.275 -2.2799 -1.0417  1.5301
 1771SOL     OW16771   2.259   0.501  10.601  0.0603  0.7566  0.3595
 1771SOL    HW116772   2.194   0.486  10.533 -0.1041  0.5249  0.5673
 1771SOL    HW216773   2.210   0.574  10.640  0.9564  1.7003 -0.2916
 1772SOL     OW16774   3.402   2.429   8.209 -0.0149  0.4143  0.1258
 1772SOL    HW116775   3.457   2.361   8.247  1.3296  1.3606 -0.1138
 1772SOL    HW216776   3.400   2.488   8.284  2.0347 -2.2291  2.2316
 1773SOL     OW16777   1.026   0.562   2.279 -0.2214  0.5000  0.4526
 1773SOL    HW116778   1.070   0.644   2.300 -0.0697  0.8414 -1.1827
 1773SOL    HW216779   1.057   0.539   2.191  0.8130  1.9459  0.4464
 1774SOL     OW16780   0.930   0.760  10.540 -0.7936  0.3265 -0.5467
 1774SOL    HW116781   0.950   0.666  10.540  1.2103  0.7468  1.2579
 1774SOL    HW216782   0.997   0.804  10.488  0.3943 -0.7293  0.0805
 1775SOL     OW16783   4.100   4.162   0.059 -0.1739 -0.0879 -0.1473
 1775SOL    HW116784   4.045   4.088   0.083 -1.1803  0.0658 -1.9531
 1775SOL    HW216785   4.104   4.168  17.658  1.5967 -0.3278 -0.0831
 1776SOL     OW16786   2.365   3.044   8.271 -0.0908 -0.2364 -0.2003
 1776SOL    HW116787   2.339   2.968   8.324  3.6931 -1.5404 -0.2282
 1776SOL    HW216788   2.442   3.012   8.224 -0.7626  1.1073 -2.1966
 1777SOL     OW16789   3.314   1.678   6.990 -0.0236  0.2717 -0.1523
 1777SOL    HW116790   3.405   1.687   7.017  0.3371  0.0324 -1.2746
 1777SOL    HW216791   3.290   1.771   6.993  3.2815  1.1434 -0.7473
 1778SOL     OW16792   2.524   4.084   3.425 -0.0667  0.0082  0.3899
 1778SOL    HW116793   2.563   4.164   3.461 -2.1610  2.0370 -1.8205
 1778SOL    HW216794   2.431   4.103   3.439 -0.2542 -0.4812 -0.1791
 1779SOL     OW16795   0.728   0.251   1.263  0.5882  0.1724  0.6160
 1779SOL    HW116796   0.688   0.319   1.317  1.1769  3.2227 -2.7488
 1779SOL    HW216797   0.798   0.313   1.242  2.8339 -2.2935  0.9405
 1780SOL     OW16798   3.059   0.927   2.717 -0.0262  0.4795 -0.2982
 1780SOL    HW116799   3.088   1.018   2.709  1.6126  0.0949  1.2030
 1780SOL    HW216800   3.055   0.900   2.626 -2.6545  0.7934 -0.2885
 1781SOL     OW16801   4.605   0.925  12.386  0.0057 -0.3090  0.0987
 1781SOL    HW116802   4.692   0.912  12.348 -0.1667  0.4892 -0.5672
 1781SOL    HW216803   4.619   0.928  12.481  0.7534 -0.5169 -0.0030
 1782SOL     OW16804   3.269   2.959   4.132 -0.1402 -0.3765 -0.0735
 1782SOL    HW116805   3.183   2.991   4.105  0.9266  2.4402 -0.0957
 1782SOL    HW216806   3.241   2.883   4.183  1.1595  0.2773  1.6381
 1783SOL     OW16807   4.255   2.827   5.899 -0.1926  0.1715 -0.0001
 1783SOL    HW116808   4.230   2.899   5.957  1.9118  0.9615 -0.0688
 1783SOL    HW216809   4.314   2.879   5.844 -0.9759  0.4684 -0.5631
 1784SOL     OW16810   1.024   1.295   8.868  0.1649  0.2895  0.1219
 1784SOL    HW116811   1.022   1.319   8.961  0.8621  0.4082  0.1085
 1784SOL    HW216812   0.986   1.207   8.869 -1.0880  0.8344  0.7562
 1785SOL     OW16813   2.116   0.071   8.879  0.0016  0.6031  0.4910
 1785SOL    HW116814   2.205   0.038   8.863  0.0040  0.7602  0.1987
 1785SOL    HW216815   2.139   0.157   8.913  0.9574 -0.1342  1.7461
 1786SOL     OW16816   1.999   1.003   4.005 -0.4093 -0.0968  0.0028
 1786SOL    HW116817   1.915   1.026   4.044 -1.0230 -0.9691 -0.8132
 1786SOL    HW216818   2.005   1.076   3.944  1.7483 -0.6372 -0.4099
 1787SOL     OW16819   4.550   1.999  16.263  0.4163  0.1410 -0.5220
 1787SOL    HW116820   4.606   1.982  16.339 -1.1495 -2.2742  0.1085
 1787SOL    HW216821   4.460   1.990  16.293  0.1319  0.1799 -1.3607
 1788SOL     OW16822   4.414   3.603   9.322  0.0669 -0.3524  0.8250
 1788SOL    HW116823   4.373   3.622   9.406  1.7117  0.0797  1.5273
 1788SOL    HW216824   4.366   3.524   9.298 -0.4650  0.1064  0.3697
 1789SOL     OW16825   3.503   4.652   3.544 -0.2983 -0.4095 -0.0168
 1789SOL    HW116826   3.525   0.017   3.575 -0.8664 -0.5903  0.9013
 1789SOL    HW216827   3.416   4.654   3.584 -0.2211  0.6861  0.1071
 1790SOL     OW16828   1.872   2.290  12.890  0.3698  0.1280 -0.0937
 1790SOL    HW116829   1.815   2.270  12.816  2.5815  0.1611 -1.7871
 1790SOL    HW216830   1.940   2.223  12.887 -0.6818 -0.9844  0.7378
 1791SOL     OW16831   2.247   1.815   4.080  0.2379 -0.4307 -0.1929
 1791SOL    HW116832   2.221   1.725   4.102 -4.0823  0.1273 -3.0622
 1791SOL    HW216833   2.262   1.856   4.165 -0.8449  0.4343 -0.4077
 1792SOL     OW16834   0.863   2.857   8.605 -0.8687  0.2447  0.3652
 1792SOL    HW116835   0.783   2.879   8.558  1.2481  1.3375 -2.7587
 1792SOL    HW216836   0.922   2.929   8.579 -1.1856  1.6474  3.4974
 1793SOL     OW16837   0.734   4.057   2.175 -0.5140 -0.5517  0.5240
 1793SOL    HW116838   0.670   4.116   2.214 -0.8173 -0.3199 -0.3303
 1793SOL    HW216839   0.750   3.997   2.249 -0.1133 -2.1423 -0.8512
 1794SOL     OW16840   0.722   4.392  10.719 -0.0414  0.0052  0.2341
 1794SOL    HW116841   0.695   4.478  10.749  0.9733  0.8751 -1.3470
 1794SOL    HW216842   0.813   4.388  10.747  0.4852  0.8376 -1.3579
 1795SOL     OW16843   2.380   2.605   4.385  0.4833 -0.2158 -0.2542
 1795SOL    HW116844   2.443   2.603   4.313 -0.9750 -4.6019 -1.4210
 1795SOL    HW216845   2.437   2.562   4.449 -1.0505 -0.4515  0.9741
 1796SOL     OW16846   2.152   0.906   5.008 -0.0307 -0.9513  0.3207
 1796SOL    HW116847   2.161   0.986   4.957 -1.6903 -1.6870 -1.0986
 1796SOL    HW216848   2.244   0.878   5.015  0.5405  0.4768 -1.4338
 1797SOL     OW16849   2.791   1.275   4.770 -0.0423  0.1437  0.4911
 1797SOL    HW116850   2.867   1.332   4.775 -0.0559  0.2392 -0.5020
 1797SOL    HW216851   2.750   1.284   4.857 -2.5574  1.7402 -0.8502
 1798SOL     OW16852   3.306   3.847   5.113 -0.0817 -0.3865 -0.0232
 1798SOL    HW116853   3.216   3.824   5.088 -0.6634  3.1988 -1.3601
 1798SOL    HW216854   3.356   3.790   5.056  0.3427  0.7748 -0.8106
 1799SOL     OW16855   4.222   1.457   7.643 -0.6583 -0.1128  0.0445
 1799SOL    HW116856   4.242   1.365   7.658 -0.6388 -0.4773 -2.1308
 1799SOL    HW216857   4.281   1.482   7.571 -1.3518 -0.5271 -0.6719
 1800SOL     OW16858   1.282   2.623   5.311 -0.1111 -0.0240  0.0130
 1800SOL    HW116859   1.213   2.589   5.367 -0.0122  0.8741  0.6754
 1800SOL    HW216860   1.327   2.685   5.368  0.0959 -0.6241  0.5098
 1801SOL     OW16861   2.699   2.437   8.681  0.0074 -0.5445  0.4507
 1801SOL    HW116862   2.647   2.403   8.754 -0.9207  1.1375  0.5812
 1801SOL    HW216863   2.750   2.504   8.728  0.7332  1.0134 -2.5706
 1802SOL     OW16864   3.205   2.554  11.243  0.0625  0.0013 -0.0965
 1802SOL    HW116865   3.258   2.475  11.257  0.5565  0.5763  1.2515
 1802SOL    HW216866   3.251   2.615  11.300  0.4613 -1.2698  0.9459
 1803SOL     OW16867   2.301   3.940   5.748  0.4243  0.0356 -0.2640
 1803SOL    HW116868   2.228   3.877   5.747  0.6881 -0.2992  0.9183
 1803SOL    HW216869   2.249   4.020   5.759  0.4141 -0.0761  0.4950
 1804SOL     OW16870   2.332   2.016   6.421  0.5551 -0.2390 -0.7657
 1804SOL    HW116871   2.360   1.988   6.508  0.8731  0.2105 -0.7273
 1804SOL    HW216872   2.277   2.092   6.436 -0.4690 -1.4081  1.3984
 1805SOL     OW16873   0.710   2.406   7.476  0.4504 -0.4725  0.1503
 1805SOL    HW116874   0.758   2.447   7.404 -0.0753 -0.9704 -0.4856
 1805SOL    HW216875   0.777   2.378   7.539  0.6237 -0.3765  0.0093
 1806SOL     OW16876   4.113   2.415   4.694  0.5676  0.1971 -0.0645
 1806SOL    HW116877   4.084   2.385   4.779 -1.1415  0.6594 -0.4843
 1806SOL    HW216878   4.055   2.491   4.682 -0.0333 -0.0805  1.1443
 1807SOL     OW16879   2.572   3.386   5.380 -0.3137 -0.1380  0.1637
 1807SOL    HW116880   2.636   3.445   5.342 -0.3072 -0.6558 -0.6274
 1807SOL    HW216881   2.506   3.450   5.408 -1.4924 -2.1070  1.9770
 1808SOL     OW16882   4.397   2.261   7.522  0.4190 -0.2566 -0.2897
 1808SOL    HW116883   4.464   2.196   7.542  1.4986  0.9655  0.0771
 1808SOL    HW216884   4.366   2.272   7.613  0.6953 -1.7778 -0.0176
 1809SOL     OW16885   3.236   2.352   2.192 -0.9296  0.3130 -0.0407
 1809SOL    HW116886   3.172   2.284   2.170 -1.3169  0.6160  0.1629
 1809SOL    HW216887   3.197   2.416   2.132 -1.0236  2.4276  2.2903
 1810SOL     OW16888   0.888   1.953   8.788  0.0832 -0.8692 -0.1172
 1810SOL    HW116889   0.937   1.893   8.731 -0.7855 -1.7898  0.1148
 1810SOL    HW216890   0.849   2.003   8.716 -1.0349 -0.4901  0.7740
 1811SOL     OW16891   1.224   2.211   3.782  0.2451  0.0727  0.5098
 1811SOL    HW116892   1.290   2.238   3.846  2.3281 -1.8990 -0.8314
 1811SOL    HW216893   1.146   2.222   3.836 -0.4926 -0.3164 -0.4834
 1812SOL     OW16894   2.439   2.772   6.081 -0.2178  0.3237  0.3618
 1812SOL    HW116895   2.476   2.851   6.119  2.7179 -1.6291  1.5293
 1812SOL    HW216896   2.516   2.716   6.078  1.5471  2.7754  0.1816
 1813SOL     OW16897   1.058   0.998   5.480 -0.9325 -0.0531  0.4123
 1813SOL    HW116898   0.985   0.965   5.533 -0.0593 -1.8429  0.4858
 1813SOL    HW216899   1.107   1.053   5.541 -0.1963 -1.5119  1.1229
 1814SOL     OW16900   1.702   3.871   3.906 -0.8262  0.6571 -0.3959
 1814SOL    HW116901   1.712   3.940   3.971  0.6732  0.7445 -0.7191
 1814SOL    HW216902   1.611   3.843   3.920  0.1320 -2.1650  0.2945
 1815SOL     OW16903   3.579   4.484  10.089 -0.5363 -0.0630 -0.4918
 1815SOL    HW116904   3.496   4.437  10.082 -0.6550 -0.3866  2.8895
 1815SOL    HW216905   3.606   4.458  10.001 -2.0765  0.0196 -0.9880
 1816SOL     OW16906   4.652   2.554  11.170 -0.2816 -0.3440  0.1390
 1816SOL    HW116907   4.631   2.606  11.092  2.6483 -0.9161 -1.0133
 1816SOL    HW216908   4.604   2.474  11.150 -2.0050  0.2401  1.8053
 1817SOL     OW16909   1.660   3.100   4.263 -0.7887 -0.7486 -0.1264
 1817SOL    HW116910   1.752   3.087   4.285 -0.8428 -1.0802 -0.0926
 1817SOL    HW216911   1.615   3.048   4.329  1.2349  0.9360  2.5617
 1818SOL     OW16912   2.856   0.400   9.250  0.0002 -0.0521  0.3586
 1818SOL    HW116913   2.808   0.374   9.328 -0.2913  1.3244  0.6357
 1818SOL    HW216914   2.802   0.348   9.190 -0.8490 -1.5737  2.4245
 1819SOL     OW16915   3.829   3.259   2.332 -0.0924 -0.0175  0.8555
 1819SOL    HW116916   3.900   3.195   2.321  0.2882  0.4635  0.5265
 1819SOL    HW216917   3.781   3.245   2.250  2.5634 -0.0472 -0.6917
 1820SOL     OW16918   2.094   4.521   8.521 -0.2418  0.3882 -0.3895
 1820SOL    HW116919   2.140   4.605   8.516  0.4678  0.0018 -0.2552
 1820SOL    HW216920   2.013   4.551   8.563  0.0246  1.4649 -0.6556
 1821SOL     OW16921   1.862   0.909   0.203 -0.2099  0.2269 -0.3222
 1821SOL    HW116922   1.899   0.821   0.207  1.1796  0.7904 -0.8698
 1821SOL    HW216923   1.787   0.884   0.257  0.2701 -1.7075 -0.5462
 1822SOL     OW16924   1.178   0.637   5.469  0.5795 -0.4735 -0.2485
 1822SOL    HW116925   1.137   0.600   5.391 -0.5153  0.5916 -0.1625
 1822SOL    HW216926   1.219   0.715   5.433  2.0417 -1.0869  0.0458
 1823SOL     OW16927   3.450   1.687   5.969 -0.1925  1.0683  0.0489
 1823SOL    HW116928   3.459   1.719   5.879  2.2706  2.7071  0.8789
 1823SOL    HW216929   3.517   1.618   5.973 -0.7001  0.4994 -1.1261
 1824SOL     OW16930   1.580   4.456   0.204  0.7086  0.1618  0.2725
 1824SOL    HW116931   1.585   4.386   0.269 -0.7660 -1.4269 -1.3359
 1824SOL    HW216932   1.550   4.417   0.122 -0.9085 -2.4370  2.0986
 1825SOL     OW16933   3.580   0.342   8.036  0.0380  0.2958  0.4656
 1825SOL    HW116934   3.661   0.394   8.030  0.7408 -0.6034  2.1311
 1825SOL    HW216935   3.619   0.262   8.074 -0.7180 -0.1809  0.2217
 1826SOL     OW16936   4.149   4.485   5.755  0.2790  0.0749  0.3537
 1826SOL    HW116937   4.209   4.559   5.749  2.4405 -1.6456  0.6843
 1826SOL    HW216938   4.110   4.493   5.668 -1.6964  1.2830  1.3459
 1827SOL     OW16939   0.122   1.836   0.082 -0.5856  0.2182  0.7111
 1827SOL    HW116940   0.142   1.859  17.686 -0.2817 -0.3505  0.6295
 1827SOL    HW216941   0.108   1.741   0.077  1.4738 -0.0349 -0.2121
 1828SOL     OW16942   1.822   0.460   4.722 -0.0037 -0.0412  0.2659
 1828SOL    HW116943   1.807   0.365   4.724  0.9714 -0.1433  2.4189
 1828SOL    HW216944   1.854   0.482   4.809 -0.7428  0.0742  0.5074
 1829SOL     OW16945   2.348   1.719   1.946  0.1534  0.1186  0.2178
 1829SOL    HW116946   2.330   1.625   1.944 -0.9640  0.2892  1.9781
 1829SOL    HW216947   2.319   1.749   1.860  0.6946 -0.6627 -0.2382
 1830SOL     OW16948   2.340   1.744   2.413  0.1293 -0.0684 -0.2658
 1830SOL    HW116949   2.251   1.768   2.440 -0.6765 -0.1833 -2.8857
 1830SOL    HW216950   2.357   1.824   2.362 -2.5183  0.5875 -0.0829
 1831SOL     OW16951   4.696   0.612   9.726  0.0520 -0.4839 -0.5972
 1831SOL    HW116952   0.014   0.535   9.686 -0.9911 -0.3174 -1.9639
 1831SOL    HW216953   4.636   0.630   9.654 -1.1118 -1.7497  0.0446
 1832SOL     OW16954   3.312   0.816   8.324 -0.2335  0.1698  0.1199
 1832SOL    HW116955   3.352   0.901   8.342 -0.1602  0.3935 -1.1301
 1832SOL    HW216956   3.378   0.766   8.277 -0.8333 -0.4842 -0.0345
 1833SOL     OW16957   1.911   4.151   2.251  0.3385  0.0263 -0.5485
 1833SOL    HW116958   1.827   4.194   2.236  0.1906 -0.5102 -1.2779
 1833SOL    HW216959   1.931   4.158   2.158  0.3567  1.2854 -0.4429
 1834SOL     OW16960   0.573   2.477   4.106  0.2471  0.3146 -0.0663
 1834SOL    HW116961   0.624   2.445   4.181 -0.7267  0.7511  0.7783
 1834SOL    HW216962   0.610   2.564   4.093  1.8433 -0.4367 -0.5381
 1835SOL     OW16963   2.363   1.786   7.404 -0.6674  0.1442  0.1108
 1835SOL    HW116964   2.355   1.781   7.499 -1.7183 -1.0199 -0.0400
 1835SOL    HW216965   2.457   1.789   7.387 -0.3254 -3.4379  1.4517
 1836SOL     OW16966   1.284   0.203   3.380  0.3608 -0.1313  0.3615
 1836SOL    HW116967   1.235   0.164   3.306  0.9285  1.6131 -0.9186
 1836SOL    HW216968   1.351   0.255   3.337 -2.3506  2.4287 -0.7936
 1837SOL     OW16969   2.316   4.340   7.294 -0.2773  0.2723 -0.3629
 1837SOL    HW116970   2.355   4.295   7.369 -1.2933 -1.0558 -0.6205
 1837SOL    HW216971   2.388   4.391   7.257 -0.0738 -0.0518 -0.4165
 1838SOL     OW16972   2.060   1.326  15.655 -0.1807 -0.0203 -0.0344
 1838SOL    HW116973   2.087   1.243  15.615 -1.1261 -0.6933  0.7406
 1838SOL    HW216974   2.122   1.345  15.725  0.3823  0.3128 -0.6260
 1839SOL     OW16975   2.300   0.839   0.482 -0.0181 -0.0783 -0.2336
 1839SOL    HW116976   2.217   0.791   0.482  0.0714 -0.2308 -2.8986
 1839SOL    HW216977   2.375   0.780   0.472  1.4371  1.2959  2.5611
 1840SOL     OW16978   0.269   3.154  14.652 -0.6020  0.1851  0.7310
 1840SOL    HW116979   0.290   3.068  14.614 -2.0304  0.6540 -1.1096
 1840SOL    HW216980   0.176   3.135  14.653 -0.5442 -0.2091 -0.7453
 1841SOL     OW16981   3.775   4.369   6.540 -0.2926  0.4182 -0.0062
 1841SOL    HW116982   3.743   4.284   6.570  1.8136 -0.5758 -0.5378
 1841SOL    HW216983   3.823   4.345   6.461 -0.2124 -1.8540  0.7464
 1842SOL     OW16984   2.377   0.043   5.145  0.3452  0.1884 -0.0800
 1842SOL    HW116985   2.463   0.012   5.171 -0.1518 -0.0535  1.2806
 1842SOL    HW216986   2.383   0.004   5.058 -1.2729 -1.7082  0.6620
 1843SOL     OW16987   3.196   0.751  14.801  0.0168 -0.3460 -0.4137
 1843SOL    HW116988   3.239   0.794  14.875 -0.2671  2.2034 -1.7246
 1843SOL    HW216989   3.178   0.661  14.828  0.7103 -0.3169  0.1585
 1844SOL     OW16990   1.939   2.493   2.262 -0.1000 -0.0124  0.8314
 1844SOL    HW116991   1.898   2.451   2.186 -0.0652 -0.6304  1.1596
 1844SOL    HW216992   2.029   2.485   2.231 -1.0297 -0.5280 -1.7836
 1845SOL     OW16993   4.285   1.510   5.148 -0.0301 -0.6529  0.4148
 1845SOL    HW116994   4.217   1.443   5.145 -1.0583  0.2880  2.6364
 1845SOL    HW216995   4.254   1.593   5.184 -0.0345 -0.0218 -1.0197
 1846SOL     OW16996   0.377   1.841  13.502 -0.8452  0.0876  0.2230
 1846SOL    HW116997   0.352   1.922  13.458  0.9665  1.2983  1.4273
 1846SOL    HW216998   0.342   1.859  13.589  2.6474  2.1226  1.1997
 1847SOL     OW16999   3.621   1.229  12.106 -0.1411  0.4847 -0.1401
 1847SOL    HW117000   3.577   1.190  12.181  1.3960 -0.8601  0.0457
 1847SOL    HW217001   3.675   1.154  12.081  0.5178  0.3984  1.5564
 1848SOL     OW17002   2.874   3.566  13.165  0.0304  0.2158  0.4174
 1848SOL    HW117003   2.871   3.599  13.255 -0.7228  2.2584 -0.3540
 1848SOL    HW217004   2.856   3.473  13.179  1.4827  0.0695  1.2719
 1849SOL     OW17005   4.569   3.081   1.749  0.2175  0.3425 -0.7369
 1849SOL    HW117006   4.612   3.042   1.673 -1.0547  1.3182 -1.9723
 1849SOL    HW217007   4.506   3.145   1.717  0.4073  2.6627  3.4928
 1850SOL     OW17008   3.372   2.800   9.191 -0.4170 -0.5312 -0.5475
 1850SOL    HW117009   3.428   2.870   9.223 -2.0834 -1.7067  4.9804
 1850SOL    HW217010   3.438   2.744   9.150  1.6274  1.1553  0.4676
 1851SOL     OW17011   0.954   4.194  12.862 -0.1313 -0.4218 -0.3065
 1851SOL    HW117012   1.039   4.155  12.879 -0.2229 -0.9250 -1.0050
 1851SOL    HW217013   0.966   4.271  12.918 -0.2771 -0.6464  0.0326
 1852SOL     OW17014   2.941   4.000   8.647  0.1050  0.0326 -0.1900
 1852SOL    HW117015   2.902   3.991   8.560 -0.4209  1.0862 -0.0616
 1852SOL    HW217016   2.905   4.081   8.683  1.9730  1.2678 -1.0652
 1853SOL     OW17017   1.673   0.019  17.502 -0.0023 -0.1849 -1.2305
 1853SOL    HW117018   1.675   0.113  17.516 -1.0519 -0.6729  2.1970
 1853SOL    HW217019   1.727   4.711  17.575  2.2969  3.1746 -1.5315
 1854SOL     OW17020   1.359   4.254   8.884 -0.9506 -0.6645  0.2190
 1854SOL    HW117021   1.373   4.324   8.820 -0.3767 -1.2919 -0.3375
 1854SOL    HW217022   1.268   4.231   8.866 -1.3101  3.1157 -2.8655
 1855SOL     OW17023   1.079   4.610   8.497 -0.4080 -0.1213  0.3185
 1855SOL    HW117024   1.045   4.648   8.416  1.5190  0.2229 -0.3227
 1855SOL    HW217025   1.104   4.522   8.468  1.4092  0.3155  0.5483
 1856SOL     OW17026   3.838   1.299   4.355  0.2782 -0.4637  0.5499
 1856SOL    HW117027   3.909   1.240   4.380  1.0962  0.5610  0.5969
 1856SOL    HW217028   3.786   1.302   4.435 -0.0555 -0.1554  0.3234
 1857SOL     OW17029   1.894   2.617  14.018 -0.1682 -0.3624  0.5033
 1857SOL    HW117030   1.935   2.660  13.943 -2.5877  0.8274 -0.1351
 1857SOL    HW217031   1.800   2.626  14.000 -0.3899 -0.3834  1.6162
 1858SOL     OW17032   4.696   3.320   2.789  0.4205 -0.0950 -0.4156
 1858SOL    HW117033   0.007   3.270   2.715  0.3374 -0.5927 -0.1134
 1858SOL    HW217034   0.001   3.410   2.770  0.8353  0.5011  2.8978
 1859SOL     OW17035   1.502   1.041   4.868  0.3024 -0.3948 -0.9707
 1859SOL    HW117036   1.499   1.136   4.862  1.5353 -0.2517  0.4081
 1859SOL    HW217037   1.417   1.015   4.833  0.4053 -0.4025 -1.2093
 1860SOL     OW17038   1.478   0.911   2.579  0.1587 -0.2943 -0.6980
 1860SOL    HW117039   1.452   0.824   2.611 -2.6716  0.0801 -1.9970
 1860SOL    HW217040   1.437   0.897   2.494 -1.2405 -1.1647  0.1075
 1861SOL     OW17041   4.247   0.470  16.367 -0.3964 -0.7065 -0.3759
 1861SOL    HW117042   4.265   0.441  16.277 -0.7341  2.4635 -1.4680
 1861SOL    HW217043   4.172   0.526  16.345 -0.0146 -0.6866 -1.6245
 1862SOL     OW17044   3.371   3.177   6.659 -0.3799 -0.4791  0.1016
 1862SOL    HW117045   3.419   3.107   6.703  1.3966  0.8157  0.1979
 1862SOL    HW217046   3.317   3.123   6.600 -0.9097 -0.7568  0.8459
 1863SOL     OW17047   2.714   2.011   1.932  0.5385  0.0186  0.1832
 1863SOL    HW117048   2.676   1.979   2.013 -1.4454  0.0633 -0.7405
 1863SOL    HW217049   2.641   2.013   1.870 -0.4429  2.6825  1.4604
 1864SOL     OW17050   3.776   3.797  17.598  0.8452 -0.4038  0.1239
 1864SOL    HW117051   3.758   3.760  17.512 -0.0787 -0.4893  0.3551
 1864SOL    HW217052   3.748   3.722  17.650 -2.1022  0.3678 -0.3664
 1865SOL     OW17053   1.093   2.665  10.652  0.2333  0.3090 -0.7359
 1865SOL    HW117054   1.118   2.605  10.582  0.3196  1.2471 -1.4976
 1865SOL    HW217055   1.092   2.748  10.606  1.3000  0.3677 -0.6465
 1866SOL     OW17056   2.040   3.874  10.986 -0.1965 -0.1749 -0.1646
 1866SOL    HW117057   2.053   3.802  10.923 -2.3894  0.1438 -0.9764
 1866SOL    HW217058   1.961   3.918  10.955  1.5844  3.4641  0.5271
 1867SOL     OW17059   1.229   3.819   5.100  0.1789  0.0589  0.1950
 1867SOL    HW117060   1.210   3.791   5.010  1.4805  0.3299 -0.1647
 1867SOL    HW217061   1.150   3.869   5.121  0.1309  0.5440 -1.1372
 1868SOL     OW17062   2.458   0.691   5.394 -0.2479 -0.2985  0.8900
 1868SOL    HW117063   2.440   0.779   5.362  2.9400 -0.4671 -1.4047
 1868SOL    HW217064   2.492   0.720   5.479 -0.2653  0.9043  0.4913
 1869SOL     OW17065   4.153   1.770   8.200  0.2994  0.1348  0.2285
 1869SOL    HW117066   4.110   1.792   8.282  1.1869  4.3694 -0.4038
 1869SOL    HW217067   4.076   1.732   8.158 -0.1274 -0.8090  1.8999
 1870SOL     OW17068   0.028   0.131   2.533  0.2949  0.0809 -0.2289
 1870SOL    HW117069   0.051   0.040   2.556 -0.8529 -0.1268  0.1098
 1870SOL    HW217070   0.079   0.145   2.454 -1.2483 -0.3453 -1.3070
 1871SOL     OW17071   4.416   2.136   6.605  0.5703 -0.0880  0.1014
 1871SOL    HW117072   4.404   2.194   6.530  0.3955 -0.9229 -0.5144
 1871SOL    HW217073   4.501   2.164   6.641  1.2949 -2.3039  0.1047
 1872SOL     OW17074   3.026   3.270   6.614 -0.4785  0.2899 -0.1324
 1872SOL    HW117075   3.069   3.342   6.569  0.5310  0.0498  0.4301
 1872SOL    HW217076   2.984   3.222   6.543  0.1658  2.6855 -2.1323
 1873SOL     OW17077   2.614   2.602   4.198  0.2821  0.7642 -0.1822
 1873SOL    HW117078   2.570   2.584   4.115  0.2082  2.4688 -0.5108
 1873SOL    HW217079   2.685   2.653   4.159  1.5197 -2.2560 -1.9338
 1874SOL     OW17080   2.017   1.959   0.933 -0.0462 -0.1819  0.6760
 1874SOL    HW117081   2.025   2.033   0.993 -0.7512  0.4162  0.0331
 1874SOL    HW217082   2.099   1.915   0.958 -1.7930 -2.6289  2.1056
 1875SOL     OW17083   1.810   2.506   7.875 -0.4550  0.4182 -0.2590
 1875SOL    HW117084   1.785   2.457   7.796  0.1502  1.2083 -0.9384
 1875SOL    HW217085   1.723   2.535   7.902 -0.3196  0.4834  0.0991
 1876SOL     OW17086   4.077   0.897   8.001  0.2581 -0.4288 -0.5151
 1876SOL    HW117087   4.008   0.878   8.065  0.5668 -0.6175 -0.2377
 1876SOL    HW217088   4.040   0.841   7.933 -0.6884 -1.9445  1.2445
 1877SOL     OW17089   4.581   2.583   9.958 -0.7373 -0.2644 -0.2972
 1877SOL    HW117090   4.636   2.647  10.004 -1.4142 -0.4371  0.7430
 1877SOL    HW217091   4.656   2.558   9.904  0.3705  0.9257  0.6820
 1878SOL     OW17092   0.400   0.359   5.544 -0.0788 -0.0886 -0.0390
 1878SOL    HW117093   0.334   0.311   5.593 -0.9449 -0.7341 -1.8237
 1878SOL    HW217094   0.474   0.311   5.581 -1.3171 -0.6296  1.6866
 1879SOL     OW17095   4.387   0.536  16.990  0.1057 -0.1931 -0.1576
 1879SOL    HW117096   4.366   0.531  17.083 -2.2365 -2.0569 -0.7861
 1879SOL    HW217097   4.427   0.621  16.970 -0.5839  0.4721  1.2892
 1880SOL     OW17098   1.480   3.353   2.157 -0.2127 -0.1530  0.4346
 1880SOL    HW117099   1.417   3.282   2.143 -1.2063  0.7647  0.1943
 1880SOL    HW217100   1.472   3.367   2.251 -1.0405  0.4332  0.2752
 1881SOL     OW17101   3.413   1.998   7.624 -0.0678  0.7163 -0.0379
 1881SOL    HW117102   3.323   1.978   7.652  0.0016 -0.3315 -0.5617
 1881SOL    HW217103   3.451   2.011   7.711  0.4686 -0.3985 -0.1141
 1882SOL     OW17104   0.783   0.997   1.507 -0.3672 -0.0060 -0.1657
 1882SOL    HW117105   0.875   0.985   1.531 -0.8895 -3.5968  0.0814
 1882SOL    HW217106   0.781   1.092   1.497  0.0012 -0.1393 -1.5900
 1883SOL     OW17107   3.978   2.302   2.672 -0.3929  0.1164  0.0612
 1883SOL    HW117108   3.924   2.362   2.621 -1.7614 -0.0371  1.3402
 1883SOL    HW217109   3.910   2.248   2.713  0.4045 -1.8005 -1.1083
 1884SOL     OW17110   3.478   4.377   2.172 -0.1537  0.0336  0.3857
 1884SOL    HW117111   3.395   4.370   2.125  0.7029 -0.9241 -1.0140
 1884SOL    HW217112   3.475   4.457   2.224 -1.6929 -0.2717  0.7786
 1885SOL     OW17113   3.082   1.649  12.910  0.0951  0.0482  0.5213
 1885SOL    HW117114   2.997   1.611  12.931  0.3597 -1.0654 -0.4204
 1885SOL    HW217115   3.099   1.599  12.830  1.9824  2.8408 -0.8566
 1886SOL     OW17116   4.398   3.013   6.130 -0.2540  0.1868 -0.4424
 1886SOL    HW117117   4.371   2.949   6.196  2.2813 -3.1001 -2.5903
 1886SOL    HW217118   4.314   3.040   6.095  0.8448  3.5039 -0.5174
 1887SOL     OW17119   0.715   1.676   7.738 -0.1652 -0.0386  0.0211
 1887SOL    HW117120   0.714   1.656   7.831  1.4486  0.5339  0.1551
 1887SOL    HW217121   0.689   1.768   7.738 -0.7953 -0.2028 -1.9238
 1888SOL     OW17122   1.011   4.108   6.843 -0.4698 -0.0368  0.4209
 1888SOL    HW117123   1.062   4.189   6.857 -2.0395  1.1165 -0.6013
 1888SOL    HW217124   0.919   4.130   6.858 -0.6671 -1.1640  0.8147
 1889SOL     OW17125   1.695   3.276   2.426  0.0988 -0.4577  0.2984
 1889SOL    HW117126   1.613   3.319   2.400  1.4054  1.1811 -1.0989
 1889SOL    HW217127   1.706   3.294   2.519  1.3919 -1.8191  0.3961
 1890SOL     OW17128   1.488   1.764  12.815 -0.3251  0.4024  0.1797
 1890SOL    HW117129   1.491   1.708  12.737  1.8889  1.6172 -0.6215
 1890SOL    HW217130   1.404   1.809  12.809 -0.1912  0.7666  1.0721
 1891SOL     OW17131   3.008   2.203   0.480  0.5637 -0.1136  0.7479
 1891SOL    HW117132   3.034   2.243   0.563  0.3435 -0.3239  0.9176
 1891SOL    HW217133   3.013   2.110   0.499  1.5184 -0.4131 -0.9221
 1892SOL     OW17134   0.995   2.327  15.033  0.7379  0.3884  0.1548
 1892SOL    HW117135   1.049   2.262  15.078  0.1849 -1.7700 -2.2920
 1892SOL    HW217136   1.040   2.332  14.949  0.8569 -0.5134  0.1605
 1893SOL     OW17137   4.103   1.136   5.480 -0.0583  0.3828 -0.0762
 1893SOL    HW117138   4.070   1.199   5.544  0.9193 -0.1558  0.9614
 1893SOL    HW217139   4.040   1.149   5.409 -2.9648 -1.1160  2.2554
 1894SOL     OW17140   1.232   2.672   4.379  0.5384  0.1484 -0.2109
 1894SOL    HW117141   1.190   2.758   4.379 -0.3295 -0.2793 -1.6878
 1894SOL    HW217142   1.311   2.699   4.427 -0.7717  1.1892  1.3587
 1895SOL     OW17143   2.302   0.071   7.202  0.6107 -0.2760 -0.6721
 1895SOL    HW117144   2.261   0.012   7.266  1.3710  2.0119  1.9058
 1895SOL    HW217145   2.376   0.019   7.170  1.1116  0.0675 -0.0619
 1896SOL     OW17146   0.566   1.202   6.204 -0.3314  0.9451 -0.1587
 1896SOL    HW117147   0.656   1.190   6.236 -0.5303 -0.1806 -0.0179
 1896SOL    HW217148   0.515   1.178   6.281  1.5855 -0.6881  0.6135
 1897SOL     OW17149   2.175   3.838   8.600  0.2898  0.1360  0.1140
 1897SOL    HW117150   2.201   3.926   8.626  1.1963 -0.1070  0.0232
 1897SOL    HW217151   2.088   3.855   8.563  1.3980  3.5071 -0.9524
 1898SOL     OW17152   0.423   4.489   7.045  0.0421  0.1618 -0.0781
 1898SOL    HW117153   0.428   4.436   7.125  1.0889 -0.2374 -0.4157
 1898SOL    HW217154   0.355   4.556   7.055 -0.4333 -0.3602  0.1976
 1899SOL     OW17155   4.064   1.915   5.629 -0.1056  0.2232  0.8042
 1899SOL    HW117156   4.141   1.955   5.590  1.2097 -2.2366  0.9126
 1899SOL    HW217157   4.063   1.951   5.718  0.8606 -0.5693  1.1245
 1900SOL     OW17158   0.234   3.052   8.855 -0.2886 -0.1564  0.3600
 1900SOL    HW117159   0.158   3.108   8.840 -0.5689 -0.6031  0.1067
 1900SOL    HW217160   0.188   2.973   8.883  0.6099 -0.8173 -0.0443
 1901SOL     OW17161   1.329   1.178   5.281  0.1747 -0.0665  0.7902
 1901SOL    HW117162   1.378   1.103   5.249  0.0991  1.0171 -1.7989
 1901SOL    HW217163   1.258   1.177   5.217 -0.6141  0.6875  1.6530
 1902SOL     OW17164   4.623   2.246  17.616  0.3437 -0.2470  0.1646
 1902SOL    HW117165   4.542   2.225  17.570  1.5136 -2.0066 -1.0628
 1902SOL    HW217166   4.685   2.180  17.586 -0.1457 -1.1532  1.1780
 1903SOL     OW17167   3.718   2.782   6.986 -0.4052  0.4374  0.4585
 1903SOL    HW117168   3.763   2.857   7.026 -0.9416  1.6549 -1.1619
 1903SOL    HW217169   3.663   2.753   7.058 -1.7821 -0.4345 -0.9371
 1904SOL     OW17170   3.647   4.026   0.778  0.0399  0.0605  0.1354
 1904SOL    HW117171   3.706   3.954   0.799  0.1068  0.4996  1.4230
 1904SOL    HW217172   3.700   4.106   0.781 -0.6808  0.4871  1.5767
 1905SOL     OW17173   0.768   1.741  12.416 -0.1293 -0.0950  0.4457
 1905SOL    HW117174   0.706   1.814  12.407  1.0203  0.9260  0.8763
 1905SOL    HW217175   0.850   1.781  12.388 -0.6993  0.0394 -1.0346
 1906SOL     OW17176   4.674   0.980   3.446 -0.3361  0.3530 -0.6744
 1906SOL    HW117177   4.684   0.917   3.375  0.4308 -0.5620  0.2502
 1906SOL    HW217178   0.008   1.056   3.433  0.8227 -0.1903  1.2823
 1907SOL     OW17179   2.328   2.900   5.274  0.2005  0.4948  0.0976
 1907SOL    HW117180   2.396   2.841   5.239  0.3134 -0.3525  1.7465
 1907SOL    HW217181   2.252   2.893   5.217  0.2861  2.6588 -0.2540
 1908SOL     OW17182   0.044   4.405  10.052  0.9585  0.2353 -0.0489
 1908SOL    HW117183   0.071   4.313  10.048  0.1543 -0.0433  0.8947
 1908SOL    HW217184   0.128   4.444  10.078  1.0297 -0.3087  0.5517
 1909SOL     OW17185   3.606   2.564  13.773 -0.1352 -0.7722  0.1386
 1909SOL    HW117186   3.701   2.567  13.780 -0.1018  1.3787 -1.1192
 1909SOL    HW217187   3.590   2.628  13.842  0.6880 -0.9063  0.4524
 1910SOL     OW17188   3.806   4.172   5.864 -0.2331 -0.4433  0.0492
 1910SOL    HW117189   3.824   4.265   5.879  0.3521 -0.3844 -1.0178
 1910SOL    HW217190   3.748   4.150   5.936  1.3534 -1.0975  1.1271
 1911SOL     OW17191   3.813   1.437   9.903  0.0233 -0.2017 -0.1823
 1911SOL    HW117192   3.877   1.369   9.923  1.5151  1.4385  0.5927
 1911SOL    HW217193   3.859   1.519   9.921 -1.5452  0.8530 -0.9837
 1912SOL     OW17194   0.713   0.940   7.701  0.0874  0.6101 -0.0706
 1912SOL    HW117195   0.804   0.941   7.672 -0.1336  0.6308 -0.7562
 1912SOL    HW217196   0.733   0.910   7.790  1.8956 -0.5774 -0.8945
 1913SOL     OW17197   2.847   4.028   6.649  0.2789 -0.9275  0.0118
 1913SOL    HW117198   2.942   4.024   6.637  0.3082 -1.4097  0.4105
 1913SOL    HW217199   2.835   4.015   6.744  1.1915  0.1278  0.2713
 1914SOL     OW17200   3.972   4.428   1.888  0.3111  0.1018  0.5063
 1914SOL    HW117201   4.020   4.467   1.815  0.1387  1.1870  0.9716
 1914SOL    HW217202   4.021   4.346   1.900  0.3805  0.4653  2.8447
 1915SOL     OW17203   2.520   2.759   2.460 -0.3105 -0.5263  0.3167
 1915SOL    HW117204   2.488   2.773   2.371  2.7687  1.2395 -0.5074
 1915SOL    HW217205   2.463   2.688   2.491  1.2068 -1.3723  1.1527
 1916SOL     OW17206   0.210   2.221   2.593 -0.5764  0.0858  0.4658
 1916SOL    HW117207   0.139   2.194   2.534 -1.1792  2.5505  0.0679
 1916SOL    HW217208   0.264   2.151   2.556 -0.0499  0.6122  0.2378
 1917SOL     OW17209   3.228   1.310   3.415  0.4067  0.2943  0.4608
 1917SOL    HW117210   3.251   1.249   3.485  0.8214 -2.4076 -2.0019
 1917SOL    HW217211   3.219   1.249   3.341  1.7247 -0.2524  0.7481
 1918SOL     OW17212   0.548   1.203   6.716 -0.0873  0.2247  0.1535
 1918SOL    HW117213   0.560   1.298   6.710 -0.7042  0.2018 -1.4671
 1918SOL    HW217214   0.514   1.208   6.805  1.6242  0.1913  0.7976
 1919SOL     OW17215   2.064   0.012   5.531 -0.4989 -0.0407 -0.2308
 1919SOL    HW117216   2.120   0.063   5.590  0.3267  0.1633 -1.1968
 1919SOL    HW217217   2.118   0.017   5.452 -1.3850 -0.6038 -0.8597
 1920SOL     OW17218   3.797   4.518  16.405  0.6422 -0.5900  0.3797
 1920SOL    HW117219   3.806   4.462  16.327 -0.3510  0.3674 -0.4279
 1920SOL    HW217220   3.712   4.491  16.440  0.5260 -0.4023  0.2436
 1921SOL     OW17221   4.630   4.192   7.390 -0.1749  0.1282  0.7765
 1921SOL    HW117222   4.568   4.138   7.341  1.3566  0.1655 -1.2425
 1921SOL    HW217223   4.571   4.243   7.446 -0.2871  2.7453 -1.7005
 1922SOL     OW17224   3.742   3.617   4.361 -0.0669 -0.0731 -0.2415
 1922SOL    HW117225   3.696   3.654   4.286 -0.0234  0.7398  0.1294
 1922SOL    HW217226   3.763   3.527   4.337 -0.8677 -0.4335  0.3709
 1923SOL     OW17227   2.084   3.535   7.084  0.4672  0.6793  0.5428
 1923SOL    HW117228   2.133   3.551   7.003  0.6820 -1.6675  0.2168
 1923SOL    HW217229   2.083   3.440   7.090  0.1578  0.4804 -2.6001
 1924SOL     OW17230   0.041   2.273   1.711 -0.1101 -0.2746  0.1328
 1924SOL    HW117231   4.678   2.270   1.670  0.2314 -1.7152 -0.4765
 1924SOL    HW217232   0.110   2.259   1.647 -0.8351 -1.0339 -0.4904
 1925SOL     OW17233   1.326   3.764   2.362 -0.4824  0.3418  0.0264
 1925SOL    HW117234   1.383   3.840   2.368  0.7900 -0.7669  1.9497
 1925SOL    HW217235   1.361   3.703   2.426  2.1002  2.0144  0.1739
 1926SOL     OW17236   3.272   0.303   6.776  0.2951  0.2224  0.2453
 1926SOL    HW117237   3.248   0.211   6.785  4.0216 -0.5255  2.1923
 1926SOL    HW217238   3.193   0.342   6.814 -0.0945 -1.2571  0.9218
 1927SOL     OW17239   4.652   0.704  14.930 -0.0278  0.3370 -0.3554
 1927SOL    HW117240   0.021   0.730  14.925  0.2432 -0.8153 -1.4440
 1927SOL    HW217241   4.610   0.779  14.888 -0.7726 -0.0232 -0.2579
 1928SOL     OW17242   2.499   2.146   1.777 -0.1474 -0.2237  0.0643
 1928SOL    HW117243   2.436   2.216   1.795 -1.0326 -1.0197  0.1084
 1928SOL    HW217244   2.550   2.178   1.703 -1.7860 -0.7131 -1.2858
 1929SOL     OW17245   0.035   3.994   7.626 -0.0608 -0.3578  0.2284
 1929SOL    HW117246   4.701   4.042   7.686 -1.1676 -1.9248  0.4445
 1929SOL    HW217247   4.694   3.927   7.600 -1.2417  1.0801 -0.5550
 1930SOL     OW17248   1.066   1.908  17.199 -0.0544 -0.0508 -0.2212
 1930SOL    HW117249   1.001   1.955  17.251  1.0356 -1.1227  2.0819
 1930SOL    HW217250   1.096   1.853  17.272 -0.8834 -0.4252 -0.1528
 1931SOL     OW17251   4.681   1.514   2.155  0.2263  0.2121  0.3356
 1931SOL    HW117252   4.689   1.418   2.155  2.9366  0.4262  0.4858
 1931SOL    HW217253   0.046   1.551   2.158  0.4072 -0.2481  0.7023
 1932SOL     OW17254   1.704   4.110  13.685 -0.4116 -0.0128  0.0679
 1932SOL    HW117255   1.675   4.197  13.715 -0.1127 -0.8397  2.6850
 1932SOL    HW217256   1.710   4.133  13.592 -1.8273  1.9089  0.4437
 1933SOL     OW17257   2.654   2.504  16.626  0.5559 -0.1205  0.5966
 1933SOL    HW117258   2.575   2.546  16.591  0.7870 -0.2209 -0.0425
 1933SOL    HW217259   2.726   2.539  16.573  1.4568 -0.4864  1.5923
 1934SOL     OW17260   1.221   0.630   6.118 -0.7533  0.0586  0.1244
 1934SOL    HW117261   1.219   0.718   6.081  0.4770 -0.3125 -0.7888
 1934SOL    HW217262   1.305   0.630   6.164 -0.9334 -0.7863  0.4543
 1935SOL     OW17263   1.404   4.666   4.177 -0.3069 -0.1789 -0.1786
 1935SOL    HW117264   1.354   4.585   4.181 -0.3903 -0.0964  0.4294
 1935SOL    HW217265   1.412   4.677   4.082 -0.0913 -2.1204 -0.3920
 1936SOL     OW17266   2.653   2.887  13.536  0.1871 -0.6762 -0.5121
 1936SOL    HW117267   2.738   2.857  13.568  0.2330  1.2764  1.2063
 1936SOL    HW217268   2.609   2.911  13.617  0.2188  0.0810 -0.7211
 1937SOL     OW17269   4.268   0.165   1.813  0.3341  0.4282 -0.2420
 1937SOL    HW117270   4.355   0.163   1.852  0.1082 -2.9849  0.0440
 1937SOL    HW217271   4.289   0.134   1.725 -2.0390 -0.6700 -0.4249
 1938SOL     OW17272   2.511   0.742   7.205 -0.4956  0.1790 -0.0386
 1938SOL    HW117273   2.499   0.692   7.285  3.0512  2.0491  1.6702
 1938SOL    HW217274   2.606   0.756   7.213 -0.4813  0.3608 -0.5025
 1939SOL     OW17275   3.733   4.435   2.401  0.0865  0.0017 -0.2339
 1939SOL    HW117276   3.694   4.352   2.426  0.6612  0.3357  1.7130
 1939SOL    HW217277   3.703   4.452   2.311  2.8185 -1.1702 -1.3740
 1940SOL     OW17278   2.535   1.790   1.185  0.2583 -0.0739  0.3248
 1940SOL    HW117279   2.455   1.748   1.155  0.3433  0.3134 -0.4488
 1940SOL    HW217280   2.500   1.865   1.233 -1.4180  0.0751 -1.1530
 1941SOL     OW17281   3.014   2.751   7.098 -0.5070 -0.5931  0.5679
 1941SOL    HW117282   3.010   2.659   7.075 -4.4607 -0.4515  0.6691
 1941SOL    HW217283   3.102   2.772   7.068  0.3217 -2.1236  1.9035
 1942SOL     OW17284   1.966   3.112  16.379 -0.0765 -0.1888 -0.1551
 1942SOL    HW117285   1.909   3.127  16.454 -1.1317 -0.0257 -0.9785
 1942SOL    HW217286   2.018   3.191  16.384  0.6336 -0.4370 -3.2941
 1943SOL     OW17287   2.801   1.923  17.149  0.2895  0.0293 -0.1522
 1943SOL    HW117288   2.802   1.997  17.089 -0.3422  0.7498  0.7157
 1943SOL    HW217289   2.884   1.941  17.194 -0.5455  0.9184  1.0588
 1944SOL     OW17290   1.889   0.235  15.750 -0.3568 -0.4183  0.1832
 1944SOL    HW117291   1.903   0.232  15.655  0.5587  0.2457  0.2967
 1944SOL    HW217292   1.928   0.155  15.786 -2.9831 -1.2649  1.1123
 1945SOL     OW17293   1.670   0.120   9.725  0.3713 -0.7326  0.1542
 1945SOL    HW117294   1.618   0.080   9.795  1.4370 -3.1966 -0.4320
 1945SOL    HW217295   1.729   0.045   9.711  0.7194 -0.3707 -0.3338
 1946SOL     OW17296   2.098   2.235  17.597  0.3651 -0.1327 -0.0290
 1946SOL    HW117297   2.046   2.303  17.554 -1.1880 -0.4564  1.3360
 1946SOL    HW217298   2.136   2.294  17.663  1.1578  0.6826 -1.2216
 1947SOL     OW17299   1.626   2.877   2.513 -0.5199  0.5721  0.6335
 1947SOL    HW117300   1.677   2.902   2.590 -0.0566  2.0109 -0.1490
 1947SOL    HW217301   1.670   2.793   2.496  0.4198  0.9171  1.3634
 1948SOL     OW17302   0.588   4.663   2.750  0.8283 -0.2922 -0.0827
 1948SOL    HW117303   0.530   4.713   2.692 -1.5085 -1.7093  0.9991
 1948SOL    HW217304   0.669   4.710   2.733  1.2870 -1.0067  0.1406
 1949SOL     OW17305   0.070   2.754   3.888  0.1700  0.1935 -0.1271
 1949SOL    HW117306   0.086   2.842   3.921  0.0664  0.6066 -1.1986
 1949SOL    HW217307   4.698   2.756   3.875  0.3427 -2.2866 -1.7849
 1950SOL     OW17308   4.374   3.320   6.773 -0.2694  0.3474  0.1435
 1950SOL    HW117309   4.384   3.276   6.689 -0.8526  2.2433 -0.9246
 1950SOL    HW217310   4.460   3.362   6.773 -0.1470  0.0876  0.7638
 1951SOL     OW17311   1.890   3.469   3.263 -0.7237  0.1876 -0.3679
 1951SOL    HW117312   1.938   3.387   3.247 -1.8762 -0.0023 -2.8343
 1951SOL    HW217313   1.801   3.436   3.266 -0.3302 -0.9979 -1.6140
 1952SOL     OW17314   1.721   1.355   7.298  0.3347 -0.1922  0.3908
 1952SOL    HW117315   1.767   1.341   7.215 -0.3230 -0.3516  0.0523
 1952SOL    HW217316   1.779   1.314   7.362  1.5049 -0.8369 -1.0907
 1953SOL     OW17317   2.284   2.121   6.693  0.3209  0.1830  0.5058
 1953SOL    HW117318   2.288   2.153   6.783 -0.5481  0.8374  0.3020
 1953SOL    HW217319   2.337   2.041   6.692 -0.0302 -0.0437  0.2491
 1954SOL     OW17320   1.768   4.533   4.093 -0.0444 -0.1788  0.4138
 1954SOL    HW117321   1.780   4.552   4.000  1.0838 -1.2997  0.3182
 1954SOL    HW217322   1.701   4.597   4.114 -0.5280  0.0355 -1.8632
 1955SOL     OW17323   4.553   2.403   1.526 -0.3228  0.2858  0.4572
 1955SOL    HW117324   4.543   2.490   1.565  0.6797  1.1292 -1.1465
 1955SOL    HW217325   4.513   2.353   1.597 -1.2103  3.3153  2.1040
 1956SOL     OW17326   1.023   2.237   6.354  0.0481  0.2798 -0.3338
 1956SOL    HW117327   1.000   2.329   6.338 -0.0155  0.4815  0.9297
 1956SOL    HW217328   0.946   2.202   6.309  0.8684 -1.5142 -0.3378
 1957SOL     OW17329   1.036   4.525   8.963 -0.2746  0.4742  0.3630
 1957SOL    HW117330   1.122   4.564   8.949 -0.4999 -0.6116 -3.9771
 1957SOL    HW217331   1.065   4.455   9.021  1.1998  1.0121  0.2816
 1958SOL     OW17332   0.026   2.477  17.515  0.4281  0.2743 -0.0748
 1958SOL    HW117333   4.685   2.419  17.555  1.8907 -0.4065  1.2720
 1958SOL    HW217334   0.027   2.432  17.431  1.3600 -0.6855  0.4464
 1959SOL     OW17335   4.434   4.346   2.572  0.0625 -0.1164 -0.1998
 1959SOL    HW117336   4.525   4.335   2.546  0.2427 -0.3159  0.5338
 1959SOL    HW217337   4.400   4.363   2.484  0.9113  2.4341 -0.0375
 1960SOL     OW17338   4.466   1.432   6.790  0.1388 -0.2732  0.4887
 1960SOL    HW117339   4.548   1.477   6.806  0.4623 -1.7092  2.7874
 1960SOL    HW217340   4.406   1.455   6.861  0.8140  0.9211  0.6652
 1961SOL     OW17341   0.177   1.424   9.610  0.3256 -0.1041 -0.1076
 1961SOL    HW117342   0.122   1.502   9.601 -2.7981 -2.1599  1.0924
 1961SOL    HW217343   0.254   1.459   9.656  0.0983  0.3584 -0.0831
 1962SOL     OW17344   1.271   4.705  17.008 -0.3964  0.5283  1.0447
 1962SOL    HW117345   1.179   4.702  17.031 -1.0717  2.9636 -1.3848
 1962SOL    HW217346   1.279   0.005  16.916  2.2374 -0.5210  1.0080
 1963SOL     OW17347   4.717   3.831   1.107  0.2537  0.1298  0.3696
 1963SOL    HW117348   0.002   3.926   1.112  0.2638  0.1907 -0.8322
 1963SOL    HW217349   4.692   3.828   1.015  1.9196  2.4099 -0.1630
 1964SOL     OW17350   1.685   2.957   3.865  0.5297  0.2729 -0.2497
 1964SOL    HW117351   1.756   2.943   3.926  0.5593 -0.2813 -0.4151
 1964SOL    HW217352   1.614   2.993   3.918  3.1980  2.0104  2.1168
 1965SOL     OW17353   0.865   4.579  13.436  0.4825 -0.5175 -0.0695
 1965SOL    HW117354   0.791   4.543  13.486  0.6513 -1.4656 -0.5226
 1965SOL    HW217355   0.918   4.500  13.426  0.4995 -0.5375  0.1807
 1966SOL     OW17356   0.773   4.312   4.829  0.0657 -0.3427 -0.0856
 1966SOL    HW117357   0.858   4.272   4.848  0.0942 -1.0397 -1.6537
 1966SOL    HW217358   0.784   4.407   4.833  0.1947 -0.4828  2.4133
 1967SOL     OW17359   2.250   3.075   7.490  0.2795  0.2237 -0.0304
 1967SOL    HW117360   2.308   3.097   7.563 -0.4396  0.3001  0.5204
 1967SOL    HW217361   2.222   2.987   7.515 -0.4446  0.0135 -1.5697
 1968SOL     OW17362   0.288   4.521   6.806 -0.5816 -0.4494  0.0774
 1968SOL    HW117363   0.329   4.438   6.781  0.5994  0.0854  0.2348
 1968SOL    HW217364   0.344   4.533   6.883  2.0546  2.1458 -2.2419
 1969SOL     OW17365   0.080   2.808   6.640 -0.3609 -0.1542  0.0800
 1969SOL    HW117366   4.713   2.818   6.608 -1.1365  1.4439  2.7557
 1969SOL    HW217367   0.117   2.767   6.562  0.1845  0.2806  0.1146
 1970SOL     OW17368   0.624   0.180   2.601  0.6411 -0.1504 -0.9666
 1970SOL    HW117369   0.678   0.256   2.579 -0.6832  1.5121  1.5309
 1970SOL    HW217370   0.631   0.127   2.522 -0.2639 -2.3348  0.4192
 1971SOL     OW17371   1.362   4.292   2.093  0.2872 -0.4839 -0.3751
 1971SOL    HW117372   1.319   4.252   2.017 -1.4764 -0.8001  0.7962
 1971SOL    HW217373   1.317   4.251   2.166 -0.3267  1.3250  0.2405
 1972SOL     OW17374   1.701   2.340   9.126 -0.3192 -0.4470  0.5743
 1972SOL    HW117375   1.661   2.319   9.042 -0.0549  1.0250  0.0777
 1972SOL    HW217376   1.742   2.260   9.157 -1.5363 -1.2397  0.1126
 1973SOL     OW17377   1.518   0.375   7.442 -0.4828 -0.2583  0.5601
 1973SOL    HW117378   1.585   0.320   7.481 -1.1929 -0.7281  1.1184
 1973SOL    HW217379   1.575   0.405   7.372 -0.3192 -0.7424  0.4884
 1974SOL     OW17380   4.631   2.545   8.687  0.1399 -0.2820  0.2810
 1974SOL    HW117381   4.623   2.485   8.761 -0.5045 -2.2095 -1.3605
 1974SOL    HW217382   4.712   2.514   8.647  0.8191  0.8068  0.7969
 1975SOL     OW17383   4.139   0.571   3.336  0.2444  0.1864  0.3522
 1975SOL    HW117384   4.116   0.484   3.366  0.4280  0.0799  0.1845
 1975SOL    HW217385   4.207   0.557   3.270 -0.5246 -1.8678  0.0092
 1976SOL     OW17386   4.672   1.032  14.027  0.7893  0.2547  0.0396
 1976SOL    HW117387   4.647   1.112  13.981  0.2037 -1.1665 -2.0992
 1976SOL    HW217388   4.622   1.047  14.107  0.7773 -0.2504  0.1303
 1977SOL     OW17389   2.779   0.294   4.234  0.0914 -0.0093 -0.0049
 1977SOL    HW117390   2.708   0.261   4.178  0.5889  0.1484 -0.7325
 1977SOL    HW217391   2.744   0.374   4.275  1.1189 -0.5196  1.8347
 1978SOL     OW17392   2.504   0.981   6.866 -0.1689 -0.0952  0.4002
 1978SOL    HW117393   2.572   0.913   6.861  0.6982  0.5375  3.1066
 1978SOL    HW217394   2.566   1.049   6.839 -1.3146  0.0925 -1.6681
 1979SOL     OW17395   1.213   3.953   7.400  0.4143 -0.4484 -0.0506
 1979SOL    HW117396   1.203   3.953   7.305 -1.5265  3.2429  0.1750
 1979SOL    HW217397   1.264   3.873   7.413  0.6345 -0.3697 -0.4123
 1980SOL     OW17398   4.269   3.538  17.270  0.0041 -0.0002 -0.6389
 1980SOL    HW117399   4.282   3.632  17.273 -1.1939  0.0948  1.3716
 1980SOL    HW217400   4.259   3.519  17.363 -0.9951  1.9544 -0.3474
 1981SOL     OW17401   3.743   3.462   3.989  0.2038  0.4691  0.2732
 1981SOL    HW117402   3.670   3.401   3.975  1.1416 -0.7488  0.6211
 1981SOL    HW217403   3.819   3.403   3.990  0.5694  0.9983  4.1661
 1982SOL     OW17404   1.694   2.897  14.605  0.1853  0.2574 -0.0276
 1982SOL    HW117405   1.709   2.986  14.638  1.6436 -0.2462  0.6590
 1982SOL    HW217406   1.782   2.876  14.571 -0.4196  0.3186 -1.6426
 1983SOL     OW17407   0.858   1.828   3.758 -0.0210  0.0726 -0.1069
 1983SOL    HW117408   0.906   1.795   3.682  2.7972  1.3651  1.1466
 1983SOL    HW217409   0.822   1.909   3.723  0.3645  0.9671  1.5942
 1984SOL     OW17410   3.530   4.042   7.558 -0.4388 -0.1437 -0.0396
 1984SOL    HW117411   3.518   4.092   7.477 -0.0160  1.2737  0.7844
 1984SOL    HW217412   3.619   4.009   7.566 -1.0085 -1.9010 -0.8475
 1985SOL     OW17413   3.295   1.512   3.037 -0.2669 -0.3574 -0.4817
 1985SOL    HW117414   3.262   1.521   3.127 -1.2704  1.0119 -0.9737
 1985SOL    HW217415   3.336   1.426   3.048  1.0092  0.3632  0.4758
 1986SOL     OW17416   2.781   3.368  13.631 -0.5730 -0.1430 -0.3502
 1986SOL    HW117417   2.821   3.413  13.705  0.8112 -1.5431 -0.2328
 1986SOL    HW217418   2.700   3.416  13.617 -2.5346 -3.2881  0.1044
 1987SOL     OW17419   2.244   4.240   6.659 -0.9197  0.7542 -0.1295
 1987SOL    HW117420   2.162   4.225   6.708 -1.1528 -0.6248 -0.9369
 1987SOL    HW217421   2.228   4.195   6.576  0.2152  0.4595 -0.1911
 1988SOL     OW17422   1.050   1.445   7.095  0.2770 -0.0146  0.4312
 1988SOL    HW117423   1.089   1.389   7.028  0.8375  1.4680 -0.4734
 1988SOL    HW217424   1.079   1.405   7.177  1.8716  3.0510  1.3239
 1989SOL     OW17425   2.399   2.705  16.758 -0.2426 -0.2112  0.2807
 1989SOL    HW117426   2.323   2.723  16.704 -1.0670 -0.9649  1.1904
 1989SOL    HW217427   2.395   2.781  16.816  1.4802 -1.4802  2.0612
 1990SOL     OW17428   2.172   2.552   4.694 -0.9529 -0.0070 -0.1319
 1990SOL    HW117429   2.178   2.522   4.603  1.5662  0.4372 -0.1209
 1990SOL    HW217430   2.223   2.490   4.747 -0.1283  1.1062  0.3689
 1991SOL     OW17431   3.109   4.359   6.019 -0.2418  0.4416 -0.0226
 1991SOL    HW117432   3.051   4.409   6.077 -1.1299  2.0545 -2.2725
 1991SOL    HW217433   3.167   4.430   5.989  0.2349  0.3671  0.7323
 1992SOL     OW17434   3.164   4.393  11.345  0.3166  0.1039 -0.1311
 1992SOL    HW117435   3.181   4.483  11.317 -2.0053 -0.0253 -1.9070
 1992SOL    HW217436   3.222   4.392  11.421  1.4479 -1.5955 -1.0081
 1993SOL     OW17437   2.171   2.584  13.987 -0.0661 -0.8609  0.3260
 1993SOL    HW117438   2.098   2.610  14.044  0.3039  2.0928 -0.5419
 1993SOL    HW217439   2.166   2.490  13.968  1.9842 -1.2513  1.7750
 1994SOL     OW17440   2.946   3.738   8.633  0.1094  0.2506  0.3656
 1994SOL    HW117441   3.019   3.713   8.689  0.2419  0.6163  0.3605
 1994SOL    HW217442   2.957   3.832   8.648 -2.8509  0.4919  0.8585
 1995SOL     OW17443   3.347   4.165   1.714  0.1291 -0.1090 -0.3894
 1995SOL    HW117444   3.312   4.245   1.673 -2.3289  0.3892  2.6375
 1995SOL    HW217445   3.429   4.198   1.750 -0.3389  0.3445  0.2610
 1996SOL     OW17446   2.625   1.851  12.156 -0.0732 -0.1339  0.1390
 1996SOL    HW117447   2.530   1.858  12.160 -0.1018  0.1814 -1.0478
 1996SOL    HW217448   2.620   1.865  12.061  0.0969 -1.0356  0.0006
 1997SOL     OW17449   2.351   2.006   2.255  0.3410  0.1735 -0.4604
 1997SOL    HW117450   2.276   1.959   2.217  0.7392 -0.4363 -0.4861
 1997SOL    HW217451   2.332   2.090   2.214  0.1785  1.3460  2.0556
 1998SOL     OW17452   4.033   0.424   8.765 -0.1846  0.1674  0.5488
 1998SOL    HW117453   3.945   0.420   8.727  0.2210  0.2157 -0.3997
 1998SOL    HW217454   4.050   0.332   8.784 -0.8759  0.3962  2.2711
 1999SOL     OW17455   4.284   0.473   1.863 -0.0181 -1.2324  0.0178
 1999SOL    HW117456   4.291   0.474   1.767 -1.5643  0.0480 -0.0791
 1999SOL    HW217457   4.372   0.496   1.891  0.6733 -1.9268 -1.5484
 2000SOL     OW17458   0.364   3.189   5.716 -0.5335  0.3232 -0.5380
 2000SOL    HW117459   0.420   3.249   5.765 -0.1326 -0.7974  0.3792
 2000SOL    HW217460   0.379   3.223   5.627 -0.0548  0.1601 -0.5217
 2001SOL     OW17461   0.235   1.814   7.832 -0.5387 -0.5827  0.0522
 2001SOL    HW117462   0.246   1.881   7.765  0.3446 -1.0111 -0.2346
 2001SOL    HW217463   0.149   1.825   7.872 -1.0471  1.3172 -1.5367
 2002SOL     OW17464   3.367   0.716   5.512 -0.2027  0.1370 -0.1792
 2002SOL    HW117465   3.359   0.756   5.599  0.2656 -1.0299  0.4027
 2002SOL    HW217466   3.280   0.688   5.486 -0.9017  1.7130  0.4240
 2003SOL     OW17467   0.946   2.720   2.093 -0.1937  0.1890 -0.6194
 2003SOL    HW117468   0.888   2.692   2.022  0.9036  0.6412 -1.6903
 2003SOL    HW217469   0.983   2.636   2.121  1.1074  1.0571  0.2762
 2004SOL     OW17470   4.687   4.601  16.682 -0.1695 -0.2706 -0.2046
 2004SOL    HW117471   4.645   4.524  16.720  0.9663  0.7480  3.1580
 2004SOL    HW217472   4.617   4.657  16.650 -0.0490 -0.7634 -1.3249
 2005SOL     OW17473   3.527   1.788  17.124  0.7319 -0.0184 -0.1488
 2005SOL    HW117474   3.569   1.702  17.115  0.0839 -0.2702 -0.7315
 2005SOL    HW217475   3.584   1.839  17.067 -0.3720 -0.4249 -1.6057
 2006SOL     OW17476   1.947   1.903   1.843  0.5869  0.2971  0.4163
 2006SOL    HW117477   1.996   1.963   1.788  1.0055 -0.5398 -0.1305
 2006SOL    HW217478   2.013   1.834   1.856 -0.2430 -0.3091  1.4667
 2007SOL     OW17479   4.680   3.161  17.631 -0.7281  0.0922 -0.1775
 2007SOL    HW117480   4.629   3.221  17.578 -0.0298 -0.2308 -1.2115
 2007SOL    HW217481   4.688   3.205   0.022  0.5265 -0.8651  0.2093
 2008SOL     OW17482   2.446   1.714   3.459 -0.7609 -0.1160 -0.6436
 2008SOL    HW117483   2.421   1.697   3.368 -0.8735  0.4776 -0.7265
 2008SOL    HW217484   2.364   1.758   3.480 -1.5464 -2.5049  1.1881
 2009SOL     OW17485   0.883   2.178  11.266  0.0673 -0.0572  0.4011
 2009SOL    HW117486   0.874   2.273  11.279 -0.7726  0.1002 -1.3917
 2009SOL    HW217487   0.925   2.172  11.180 -1.5075  1.2529 -0.4628
 2010SOL     OW17488   2.968   0.655   9.253  0.0155 -0.1736 -0.7859
 2010SOL    HW117489   2.969   0.625   9.344  2.2640  1.6059 -0.2334
 2010SOL    HW217490   2.931   0.577   9.211  0.0149 -0.0508 -1.0110
 2011SOL     OW17491   0.314   4.046  15.433 -0.7088  1.2153 -0.2424
 2011SOL    HW117492   0.389   4.090  15.474 -0.6090 -1.4193  2.3385
 2011SOL    HW217493   0.267   4.115  15.385  1.8977  0.6968 -3.5869
 2012SOL     OW17494   0.786   1.523  14.414 -0.0133 -0.6278  0.0284
 2012SOL    HW117495   0.742   1.607  14.402  2.2654  0.1036 -2.8881
 2012SOL    HW217496   0.708   1.467  14.409 -0.9707  0.6688  0.3844
 2013SOL     OW17497   1.914   4.472   6.596 -0.3954 -0.1637  0.2778
 2013SOL    HW117498   1.880   4.389   6.562  0.0258 -0.5058  0.6930
 2013SOL    HW217499   1.831   4.521   6.591 -1.1337 -1.4683 -0.1976
 2014SOL     OW17500   4.276   0.445   5.958  0.0296  0.0936 -0.2156
 2014SOL    HW117501   4.199   0.409   5.913  0.3069  0.0948 -0.6912
 2014SOL    HW217502   4.256   0.538   5.963 -1.0861  0.0795 -4.5066
 2015SOL     OW17503   0.066   0.682   4.236 -0.1780 -0.0867 -0.4172
 2015SOL    HW117504   0.067   0.665   4.142 -0.0914 -0.5445 -0.3342
 2015SOL    HW217505   4.707   0.636   4.254  0.1951 -1.1582 -1.4791
 2016SOL     OW17506   0.518   3.411   7.176  0.4072 -0.1389 -0.0122
 2016SOL    HW117507   0.495   3.503   7.171  1.1434  0.0703  0.4575
 2016SOL    HW217508   0.506   3.376   7.088 -0.4897 -0.3910  0.2176
 2017SOL     OW17509   2.543   1.674   0.836  0.5992 -0.0050 -0.4017
 2017SOL    HW117510   2.522   1.767   0.828  0.7030 -0.0001 -0.5901
 2017SOL    HW217511   2.456   1.635   0.828  0.4354  0.2763 -0.0410
 2018SOL     OW17512   2.859   1.830   5.856  0.0014 -0.6172 -0.2013
 2018SOL    HW117513   2.872   1.766   5.926  0.3424  1.2250  1.4258
 2018SOL    HW217514   2.944   1.831   5.812  0.3793  1.9939  0.6093
 2019SOL     OW17515   1.826   3.262   8.970  0.6876 -0.0240 -0.2745
 2019SOL    HW117516   1.894   3.323   8.941  1.3797  0.8639  3.2486
 2019SOL    HW217517   1.853   3.262   9.062  2.6721 -1.8321 -0.8491
 2020SOL     OW17518   3.677   2.991   5.073 -0.3742 -1.1462  0.8163
 2020SOL    HW117519   3.629   3.066   5.037  2.1776 -0.1308 -0.4489
 2020SOL    HW217520   3.613   2.948   5.130  0.6858 -0.6519  2.3680
 2021SOL     OW17521   0.735   1.823   5.029 -0.9743 -0.8627 -0.0681
 2021SOL    HW117522   0.726   1.803   5.122 -0.4447 -0.5244  0.0554
 2021SOL    HW217523   0.650   1.863   5.011 -0.0842  1.7532  1.5843
 2022SOL     OW17524   1.149   0.960   6.703  0.1233  1.1364  0.0977
 2022SOL    HW117525   1.168   1.009   6.623 -2.6553  1.1899 -0.5327
 2022SOL    HW217526   1.212   1.009   6.756 -0.0205  0.7508  0.6218
 2023SOL     OW17527   0.248   1.297   4.544  0.0202 -0.3952 -0.2657
 2023SOL    HW117528   0.161   1.329   4.566 -0.1914  0.1839 -1.9271
 2023SOL    HW217529   0.233   1.264   4.455  1.8874  0.8929 -1.0704
 2024SOL     OW17530   0.210   1.662   2.418  0.4147 -0.4381  0.1074
 2024SOL    HW117531   0.135   1.605   2.435  0.2273 -0.4910 -0.9371
 2024SOL    HW217532   0.278   1.609   2.459  0.4970  1.6358  2.6820
 2025SOL     OW17533   4.589   4.382   2.138  0.5725 -0.7046  0.1339
 2025SOL    HW117534   4.597   4.446   2.067  0.9798 -2.7521 -1.6309
 2025SOL    HW217535   4.500   4.346   2.133  0.9489 -1.5087 -0.6776
 2026SOL     OW17536   1.108   0.377   4.358 -0.4892 -0.1181 -0.1666
 2026SOL    HW117537   1.044   0.426   4.410  2.4671  1.7161  1.7824
 2026SOL    HW217538   1.047   0.350   4.289 -0.0526  1.1308 -1.0411
 2027SOL     OW17539   4.640   2.852  13.793  0.2311  0.1658  0.2761
 2027SOL    HW117540   4.596   2.866  13.877  0.1798 -0.4734  0.3575
 2027SOL    HW217541   4.719   2.801  13.810 -0.2866 -1.0532 -0.9954
 2028SOL     OW17542   1.991   4.294   9.630 -0.5159 -0.0400 -1.0703
 2028SOL    HW117543   2.065   4.237   9.654 -0.9670 -0.7913 -1.4676
 2028SOL    HW217544   2.025   4.337   9.552  2.8746  0.8417  0.8783
 2029SOL     OW17545   2.318   1.617   9.686  0.2874 -0.8624  0.2260
 2029SOL    HW117546   2.341   1.678   9.616 -0.7951  0.2727  0.8627
 2029SOL    HW217547   2.227   1.595   9.668 -0.4990  2.1976  0.6343
 2030SOL     OW17548   1.422   0.221  14.342  0.5128  0.2674 -0.7901
 2030SOL    HW117549   1.446   0.252  14.429 -2.2617 -0.1370  0.1142
 2030SOL    HW217550   1.401   0.306  14.303  0.3146  0.8804  0.6725
 2031SOL     OW17551   3.600   1.199   6.496  0.5434  0.3098 -0.4378
 2031SOL    HW117552   3.531   1.182   6.561  0.6977  0.4501 -0.2352
 2031SOL    HW217553   3.645   1.114   6.499 -0.5160 -0.1983  1.1411
 2032SOL     OW17554   0.496   1.831   8.416  0.2421  0.2778  0.9089
 2032SOL    HW117555   0.404   1.854   8.401  0.6034 -0.9151 -3.1891
 2032SOL    HW217556   0.487   1.801   8.506  1.2625 -0.1561  0.8675
 2033SOL     OW17557   2.012   3.877   7.461  0.0709  0.6636 -0.3391
 2033SOL    HW117558   2.053   3.818   7.398  0.6705  2.1833 -1.3514
 2033SOL    HW217559   1.946   3.815   7.493  0.9567 -0.5886 -0.9333
 2034SOL     OW17560   1.298   3.297   3.163 -0.2290  0.4107  0.3250
 2034SOL    HW117561   1.242   3.258   3.230 -1.0817  0.4948 -0.3324
 2034SOL    HW217562   1.341   3.363   3.217  0.2618  1.4495 -1.3343
 2035SOL     OW17563   1.069   4.149   3.883  0.1895  0.2454 -0.1426
 2035SOL    HW117564   1.045   4.201   3.960 -0.3098 -0.1934 -0.0030
 2035SOL    HW217565   1.116   4.076   3.923 -0.5357 -0.1733 -0.0427
 2036SOL     OW17566   0.629   3.990  16.567  0.1235  0.3566 -0.0734
 2036SOL    HW117567   0.659   4.027  16.484  0.4158  1.4950  0.5350
 2036SOL    HW217568   0.644   3.898  16.546  0.3339  0.2572  0.5073
 2037SOL     OW17569   1.045   1.268   6.533 -0.0269 -0.1647  0.6612
 2037SOL    HW117570   0.994   1.312   6.600  0.7535  2.4459 -0.4799
 2037SOL    HW217571   1.085   1.341   6.486 -1.5523 -1.3733 -2.4681
 2038SOL     OW17572   1.468   3.578  11.088 -0.2781 -0.3261 -0.0566
 2038SOL    HW117573   1.562   3.597  11.079 -0.0092 -0.4921  2.4562
 2038SOL    HW217574   1.421   3.630  11.022 -0.7844  2.2605  2.3099
 2039SOL     OW17575   2.671   0.337   3.468  0.1941 -1.0063 -0.0575
 2039SOL    HW117576   2.730   0.307   3.399  2.8361 -0.0585  1.7781
 2039SOL    HW217577   2.637   0.410   3.415 -0.0554 -1.8301 -1.0447
 2040SOL     OW17578   1.163   2.505   8.830  0.5172  0.1388 -0.2305
 2040SOL    HW117579   1.098   2.574   8.840  0.1655 -0.6103  2.5245
 2040SOL    HW217580   1.100   2.433   8.825  0.5382  0.1283 -0.3512
 2041SOL     OW17581   3.668   0.638  16.659  0.1627  0.4737 -0.0185
 2041SOL    HW117582   3.602   0.706  16.674  0.1253  0.3652  0.3056
 2041SOL    HW217583   3.719   0.633  16.739 -3.1328 -1.0511  1.9530
 2042SOL     OW17584   3.066   0.520   5.109 -0.3898 -0.2215  0.0919
 2042SOL    HW117585   3.149   0.478   5.128 -0.8353 -1.7797 -1.4210
 2042SOL    HW217586   2.999   0.452   5.097 -0.0722 -0.4547 -0.3658
 2043SOL     OW17587   0.021   2.637  12.574  0.1561  0.0900  0.3179
 2043SOL    HW117588   0.028   2.713  12.516 -0.9606 -0.6624 -0.8061
 2043SOL    HW217589   0.113   2.620  12.593  0.2445 -0.4821 -0.6019
 2044SOL     OW17590   1.010   0.549  15.435  0.1996 -0.1098 -0.1453
 2044SOL    HW117591   1.075   0.558  15.504 -0.9226  2.8254  0.5361
 2044SOL    HW217592   0.935   0.570  15.491 -0.6765 -4.6142  0.3714
 2045SOL     OW17593   4.187   3.540   5.642 -0.2542  0.0869  0.2305
 2045SOL    HW117594   4.259   3.598   5.616 -0.0059  0.8961  2.7471
 2045SOL    HW217595   4.170   3.489   5.563 -0.2981 -1.5907  1.3398
 2046SOL     OW17596   3.056   1.243   5.541  0.0273  0.6657  0.0430
 2046SOL    HW117597   3.115   1.309   5.505 -0.0145  0.5745 -0.1927
 2046SOL    HW217598   2.992   1.311   5.563 -1.1024 -0.0399 -1.0658
 2047SOL     OW17599   4.603   3.465  12.589  0.1344  0.1334  0.0638
 2047SOL    HW117600   4.683   3.445  12.542  0.7970 -0.8079  1.5917
 2047SOL    HW217601   4.640   3.503  12.669  0.5606 -0.8858  0.3471
 2048SOL     OW17602   2.372   1.181   3.997  0.3336 -0.0136  0.4877
 2048SOL    HW117603   2.419   1.237   3.936  1.7360 -1.0962  0.5819
 2048SOL    HW217604   2.435   1.109   4.000 -1.9223 -2.0047  0.0425
 2049SOL     OW17605   0.258   4.071   3.414  0.7429 -0.0377  0.4955
 2049SOL    HW117606   0.307   4.019   3.351  0.6333 -1.7675  1.8144
 2049SOL    HW217607   0.326   4.102   3.474 -1.3137  1.8668  1.8327
 2050SOL     OW17608   0.593   2.982   4.077 -0.0208 -0.0687  0.4676
 2050SOL    HW117609   0.660   3.039   4.114 -0.9487  0.5587  1.1980
 2050SOL    HW217610   0.589   2.900   4.128  0.4672 -0.1419  0.3901
 2051SOL     OW17611   1.020   2.275   2.937 -0.4771 -0.3631 -0.2229
 2051SOL    HW117612   0.975   2.231   3.009  0.8320  0.4584  1.0967
 2051SOL    HW217613   1.028   2.367   2.962  1.0106 -0.5536  0.0362
 2052SOL     OW17614   4.247   2.590   1.711  0.3607  0.2762 -0.1462
 2052SOL    HW117615   4.185   2.586   1.784  0.4708  4.5785  0.1642
 2052SOL    HW217616   4.227   2.503   1.675 -0.5120  0.5028 -0.2100
 2053SOL     OW17617   0.838   4.560   6.593 -0.1091  0.0787  0.5742
 2053SOL    HW117618   0.806   4.511   6.518 -0.2083 -0.8062  1.2016
 2053SOL    HW217619   0.756   4.592   6.628  0.1133 -0.7721  1.8520
 2054SOL     OW17620   0.884   2.811   7.969 -0.2990  0.3065 -0.5303
 2054SOL    HW117621   0.929   2.770   7.895 -1.2656  0.3827 -1.1578
 2054SOL    HW217622   0.795   2.777   7.958 -0.2810 -0.3396  1.3020
 2055SOL     OW17623   0.632   2.147   8.046 -0.4280  0.6488 -0.6281
 2055SOL    HW117624   0.585   2.065   8.056 -1.2704  1.1712 -0.2901
 2055SOL    HW217625   0.722   2.126   8.070 -1.1061 -0.1276  1.1924
 2056SOL     OW17626   2.630   4.361   7.548 -0.5354 -0.7051 -0.7307
 2056SOL    HW117627   2.643   4.379   7.454  0.0446  0.3350 -0.4571
 2056SOL    HW217628   2.557   4.300   7.539 -1.1226  0.1524 -1.8525
 2057SOL     OW17629   4.712   1.487   3.434 -0.5674 -0.6652  0.1791
 2057SOL    HW117630   0.046   1.557   3.465  1.5313 -1.7223 -1.2942
 2057SOL    HW217631   4.701   1.513   3.343  0.2469  1.9262  0.8286
 2058SOL     OW17632   3.676   3.657  12.727  0.2934 -0.4160 -0.0522
 2058SOL    HW117633   3.581   3.663  12.723  0.3937  0.2674 -1.2745
 2058SOL    HW217634   3.698   3.702  12.646  2.4254 -0.1097  0.6936
 2059SOL     OW17635   3.392   3.613   4.746 -0.1609  0.0398 -0.6912
 2059SOL    HW117636   3.468   3.628   4.690  0.5837  3.3976  1.1978
 2059SOL    HW217637   3.342   3.571   4.677  1.4758  1.1352 -2.5446
 2060SOL     OW17638   2.489   4.638   7.091 -0.2135 -0.1892  0.3509
 2060SOL    HW117639   2.445   4.596   7.017  0.2871 -0.1609  0.0405
 2060SOL    HW217640   2.552   4.695   7.047 -1.0895  0.7324  0.2863
 2061SOL     OW17641   3.548   2.447  11.373 -0.1264 -0.2565 -0.1754
 2061SOL    HW117642   3.509   2.384  11.312  0.4517 -1.1884  0.4156
 2061SOL    HW217643   3.578   2.516  11.314  1.3344 -1.5835 -0.9923
 2062SOL     OW17644   3.929   0.046   8.333 -0.1541 -0.5225 -0.6016
 2062SOL    HW117645   3.884   4.687   8.353  0.2557 -0.9972 -1.6638
 2062SOL    HW217646   3.953   0.038   8.241  2.3982 -0.6935  0.0840
 2063SOL     OW17647   3.417   2.885  10.270 -0.6849 -0.2975  0.0730
 2063SOL    HW117648   3.481   2.823  10.234 -1.0987 -0.5373 -0.2614
 2063SOL    HW217649   3.400   2.845  10.355  0.2284 -0.0144  0.3839
 2064SOL     OW17650   3.289   3.666   1.935 -0.1983 -0.0147  0.1566
 2064SOL    HW117651   3.211   3.721   1.924 -1.0746 -0.9338  1.8024
 2064SOL    HW217652   3.350   3.727   1.894  0.1720 -0.1712  0.4834
 2065SOL     OW17653   4.663   1.522   1.391 -0.1672  0.5025  0.0758
 2065SOL    HW117654   4.573   1.554   1.394  0.1002  1.1994  0.9201
 2065SOL    HW217655   4.672   1.495   1.482 -1.6225 -2.1079 -0.5640
 2066SOL     OW17656   2.885   0.394   0.956  0.1023 -0.1821  0.0869
 2066SOL    HW117657   2.980   0.394   0.967  0.3319  0.7772 -1.8947
 2066SOL    HW217658   2.871   0.476   1.003  0.4760  0.4349 -0.8834
 2067SOL     OW17659   3.812   3.275   9.322  0.4049 -0.0030 -0.1534
 2067SOL    HW117660   3.863   3.356   9.317  0.7175 -0.1606  0.4733
 2067SOL    HW217661   3.784   3.271   9.413 -0.6619  1.9776 -0.3838
 2068SOL     OW17662   4.466   0.807   2.952  0.3618  0.0919  0.6853
 2068SOL    HW117663   4.557   0.777   2.959  1.3151  2.6563 -1.0118
 2068SOL    HW217664   4.453   0.838   3.042 -1.1828 -0.3020  0.6043
 2069SOL     OW17665   0.103   1.900   5.355 -0.2045 -0.2188  0.5558
 2069SOL    HW117666   0.138   1.852   5.430  1.4872  0.1308 -0.0234
 2069SOL    HW217667   0.038   1.950   5.404  0.8873  1.6962  0.0494
 2070SOL     OW17668   1.169   2.089   4.960  0.2092  0.2240 -0.1726
 2070SOL    HW117669   1.149   2.108   4.869  1.5159 -0.6251 -0.6283
 2070SOL    HW217670   1.208   2.170   4.993  0.8044 -0.1815  0.1253
 2071SOL     OW17671   1.225   1.198   9.098 -0.4406 -0.1080  0.3419
 2071SOL    HW117672   1.268   1.172   9.179 -0.2177  1.6730  0.7993
 2071SOL    HW217673   1.202   1.290   9.110  1.8677  0.1727  2.5435
 2072SOL     OW17674   2.661   0.276   9.112  0.5533  0.2555  0.8112
 2072SOL    HW117675   2.631   0.294   9.022  0.2611  2.5342  1.3503
 2072SOL    HW217676   2.615   0.195   9.131 -0.1719  0.1668 -1.2598
 2073SOL     OW17677   3.835   4.635  13.685 -0.0720  0.3244 -0.1912
 2073SOL    HW117678   3.802   4.561  13.736 -0.3147 -1.4283 -2.8953
 2073SOL    HW217679   3.877   4.685  13.756 -0.8389  0.2452  0.3267
 2074SOL     OW17680   1.240   0.922   3.631 -0.2151  0.4817 -0.2184
 2074SOL    HW117681   1.331   0.898   3.620 -1.8642 -4.5317 -2.6663
 2074SOL    HW217682   1.259   1.001   3.682  1.1154 -0.6141  0.9951
 2075SOL     OW17683   2.257   4.080  10.357  0.1907 -0.0028  0.0832
 2075SOL    HW117684   2.330   4.127  10.396 -0.4030  1.3959 -0.5136
 2075SOL    HW217685   2.196   4.084  10.431 -0.0885  0.3164 -0.1658
 2076SOL     OW17686   3.980   0.998  17.264 -0.2127 -0.3112  0.3613
 2076SOL    HW117687   4.016   0.917  17.228  0.3067 -0.5316  1.3890
 2076SOL    HW217688   4.057   1.055  17.260 -0.8554  0.4499 -1.4201
 2077SOL     OW17689   2.723   0.800  17.233 -0.1753  0.6449  0.0458
 2077SOL    HW117690   2.779   0.799  17.311 -0.0173 -0.8386 -0.1013
 2077SOL    HW217691   2.682   0.715  17.247 -0.4499  0.5604 -1.3630
 2078SOL     OW17692   0.362   1.591   6.858  0.1732  0.4280 -0.0510
 2078SOL    HW117693   0.439   1.629   6.816  0.2720  1.5158  1.1234
 2078SOL    HW217694   0.309   1.587   6.778  2.0921 -0.3612 -1.2909
 2079SOL     OW17695   0.396   0.725   5.232 -0.1900  0.4712  0.3419
 2079SOL    HW117696   0.365   0.642   5.196  2.2676 -0.5983  0.6318
 2079SOL    HW217697   0.434   0.763   5.153 -1.5015  0.8195 -0.1208
 2080SOL     OW17698   0.563   0.594   2.350  0.2046  0.3377  0.6881
 2080SOL    HW117699   0.618   0.672   2.354 -0.2524  0.5253  2.9876
 2080SOL    HW217700   0.632   0.535   2.318 -1.3692 -1.7293  1.0912
 2081SOL     OW17701   3.758   4.292   0.768 -0.0691  0.1442  0.1211
 2081SOL    HW117702   3.810   4.298   0.848 -0.8476 -1.2590  0.7385
 2081SOL    HW217703   3.764   4.378   0.727  1.0116  0.6618  1.3736
 2082SOL     OW17704   1.539   0.485   5.250 -0.0955 -0.2012  0.6453
 2082SOL    HW117705   1.603   0.486   5.322  1.2078 -3.5453 -0.4504
 2082SOL    HW217706   1.462   0.514   5.300  0.4116  1.2575  0.5868
 2083SOL     OW17707   3.066   3.086   6.943 -0.3934  0.3529 -0.1168
 2083SOL    HW117708   3.083   3.134   6.862 -1.6707  0.9747 -0.0132
 2083SOL    HW217709   3.051   3.157   7.005  0.2743 -1.5331  2.1837
 2084SOL     OW17710   4.106   0.975   6.397  0.2613 -0.4663  0.0243
 2084SOL    HW117711   4.126   0.937   6.482  0.5845 -1.1402 -0.3542
 2084SOL    HW217712   4.154   1.058   6.397  0.3116 -0.4960  1.0838
 2085SOL     OW17713   0.789   2.297  15.189 -0.0007  0.1759  0.2542
 2085SOL    HW117714   0.873   2.311  15.145 -0.7458 -0.7782 -1.4868
 2085SOL    HW217715   0.729   2.334  15.123 -0.2791  0.0033  0.4113
 2086SOL     OW17716   0.660   0.557   1.043 -0.1395  0.6282 -0.4579
 2086SOL    HW117717   0.672   0.645   1.007 -3.3282  1.8470  1.3444
 2086SOL    HW217718   0.566   0.542   1.057 -0.0229 -0.7969 -1.2013
 2087SOL     OW17719   2.532   1.516   8.098  0.2301 -0.4371  0.2729
 2087SOL    HW117720   2.622   1.537   8.122  0.7739 -0.4275 -1.7840
 2087SOL    HW217721   2.506   1.599   8.057 -0.7148 -0.4184  0.9138
 2088SOL     OW17722   4.171   3.337   2.746  0.0038  0.2906  0.1296
 2088SOL    HW117723   4.148   3.253   2.708  0.9507 -0.0371  0.2904
 2088SOL    HW217724   4.083   3.362   2.773  0.3277  0.4025  1.1026
 2089SOL     OW17725   0.449   0.685   8.290  0.4974 -0.5798 -0.1005
 2089SOL    HW117726   0.516   0.750   8.271 -1.3612  1.7015  1.2375
 2089SOL    HW217727   0.391   0.696   8.214  0.2284 -1.9862 -0.1113
 2090SOL     OW17728   0.053   0.100   7.624  0.0782 -0.0242  0.9738
 2090SOL    HW117729   0.064   0.020   7.572 -1.0541  0.1512  0.4620
 2090SOL    HW217730   4.682   0.092   7.643 -0.3875 -0.2502 -1.4933
 2091SOL     OW17731   1.375   0.195   5.463 -0.6169  0.0276  0.4715
 2091SOL    HW117732   1.350   0.200   5.371 -0.9747  0.4414  0.5957
 2091SOL    HW217733   1.296   0.227   5.506 -1.2796  0.6724 -1.2245
 2092SOL     OW17734   3.420   0.028  15.646  0.5552  0.3401  0.0907
 2092SOL    HW117735   3.372   0.097  15.692  0.0086  1.0365 -1.5030
 2092SOL    HW217736   3.457   4.695  15.713  3.0674 -0.8631 -2.3029
 2093SOL     OW17737   0.829   4.006   6.393 -0.0240  0.2899  0.2458
 2093SOL    HW117738   0.880   4.049   6.461  0.3341  0.1359  0.0732
 2093SOL    HW217739   0.829   3.919   6.432 -1.1877 -0.9349 -2.4970
 2094SOL     OW17740   1.530   1.410   1.023  0.3215 -0.3622 -0.5609
 2094SOL    HW117741   1.532   1.466   0.946  0.2732 -0.6144 -0.7456
 2094SOL    HW217742   1.596   1.349   0.990 -0.2934 -2.1056  1.4162
 2095SOL     OW17743   0.442   4.390  10.806  0.0883  0.4402 -0.1182
 2095SOL    HW117744   0.410   4.466  10.855 -2.3802 -2.4265  2.7887
 2095SOL    HW217745   0.522   4.417  10.761  0.9381  1.0226  1.7406
 2096SOL     OW17746   2.000   0.788   9.038 -0.4912 -0.2457 -0.4670
 2096SOL    HW117747   1.982   0.748   8.953 -1.2390 -0.2035 -0.3282
 2096SOL    HW217748   1.964   0.716   9.089 -0.0430 -1.6101 -2.0771
 2097SOL     OW17749   4.224   3.463   7.693 -0.1174 -0.2021 -0.3920
 2097SOL    HW117750   4.167   3.534   7.722 -1.3324 -1.0579 -0.6940
 2097SOL    HW217751   4.289   3.455   7.763 -0.6308  0.2757  0.1312
 2098SOL     OW17752   4.448   0.388   0.992  0.4308 -0.0868  0.4504
 2098SOL    HW117753   4.416   0.300   0.974 -0.4554  0.6214 -1.3866
 2098SOL    HW217754   4.439   0.431   0.907 -0.3604  0.7459  0.9518
 2099SOL     OW17755   1.617   2.963   8.586 -0.6261 -0.1547  0.1826
 2099SOL    HW117756   1.531   2.925   8.572 -0.9567  0.5596  0.2472
 2099SOL    HW217757   1.598   3.040   8.640  1.4025  1.1195 -0.9244
 2100SOL     OW17758   2.322   0.844  15.138  0.6093  0.0075 -0.2527
 2100SOL    HW117759   2.349   0.815  15.225  1.3765  0.3464 -0.3733
 2100SOL    HW217760   2.285   0.765  15.099  0.2586 -0.5133  1.1666
 2101SOL     OW17761   2.268   0.248   5.532 -0.6336 -0.5890  0.7041
 2101SOL    HW117762   2.276   0.199   5.451 -0.8121  1.3845 -0.5142
 2101SOL    HW217763   2.344   0.306   5.534 -1.4850  0.4418  2.9360
 2102SOL     OW17764   0.126   3.343   5.093  0.3321 -0.5536 -0.4840
 2102SOL    HW117765   0.136   3.430   5.131  0.5980  0.3871 -2.6918
 2102SOL    HW217766   0.122   3.369   5.001 -0.5330  1.9402  0.2505
 2103SOL     OW17767   4.664   3.217  11.925 -0.1922 -0.3103 -0.4758
 2103SOL    HW117768   4.651   3.268  11.845  0.9376  0.0909 -0.4028
 2103SOL    HW217769   4.598   3.257  11.981 -1.2475  1.7407 -3.2218
 2104SOL     OW17770   0.034   2.352   4.051 -0.1486 -0.0619  0.3672
 2104SOL    HW117771   4.698   2.427   4.038 -1.6577 -1.2413  0.3206
 2104SOL    HW217772   0.030   2.344   4.147  0.7055 -0.4318  0.3646
 2105SOL     OW17773   3.486   0.331   5.654  0.3984 -0.0984 -0.4608
 2105SOL    HW117774   3.581   0.324   5.653  0.5092  1.3572  0.2605
 2105SOL    HW217775   3.477   0.414   5.700 -0.4379 -0.6909  0.4368
 2106SOL     OW17776   4.005   3.537   8.334  0.3752  0.2253 -0.0188
 2106SOL    HW117777   4.092   3.497   8.343 -0.4637 -1.9792 -1.6636
 2106SOL    HW217778   3.966   3.493   8.409 -1.5634  2.6804  0.4071
 2107SOL     OW17779   0.902   2.775   6.115  0.2578 -0.3722  0.7332
 2107SOL    HW117780   0.857   2.826   6.182 -0.7997 -1.1481  0.6082
 2107SOL    HW217781   0.928   2.695   6.160 -0.2659 -0.4205  0.9510
 2108SOL     OW17782   3.696   1.139   6.174 -0.4989  0.1917 -0.4541
 2108SOL    HW117783   3.777   1.179   6.207 -1.5387  2.2691 -0.4504
 2108SOL    HW217784   3.728   1.106   6.090  0.9103  0.1806  0.0692
 2109SOL     OW17785   4.061   3.864   3.956  0.3920  0.0383 -0.3860
 2109SOL    HW117786   4.032   3.773   3.945 -2.2008  0.7698  0.3910
 2109SOL    HW217787   4.080   3.869   4.050 -3.0908  1.9144  0.2028
 2110SOL     OW17788   1.027   1.352  14.784 -0.3479  0.3407 -0.5918
 2110SOL    HW117789   1.023   1.320  14.874  1.2276  0.8762 -0.3254
 2110SOL    HW217790   1.047   1.445  14.800  2.8872 -0.2122 -1.4247
 2111SOL     OW17791   2.882   0.008   9.261 -0.1084  0.0788 -0.4050
 2111SOL    HW117792   2.932   0.017   9.180 -0.2010 -1.4717 -0.6182
 2111SOL    HW217793   2.901   4.641   9.284 -0.6839 -1.2452 -5.0423
 2112SOL     OW17794   2.688   2.832   1.026  0.4345 -0.6613  0.5718
 2112SOL    HW117795   2.663   2.850   1.117 -1.1859  1.9293 -0.3942
 2112SOL    HW217796   2.615   2.864   0.974  1.6584 -0.7881 -1.2475
 2113SOL     OW17797   4.658   1.091  16.308  0.0466 -0.3531  0.3229
 2113SOL    HW117798   4.563   1.088  16.303  0.0914 -1.4445  0.1621
 2113SOL    HW217799   4.680   1.175  16.267 -0.9390  0.0983  0.7313
 2114SOL     OW17800   0.393   1.534   8.270  0.1286 -0.3871 -0.5148
 2114SOL    HW117801   0.466   1.511   8.327  0.4881  0.9633 -0.4407
 2114SOL    HW217802   0.437   1.565   8.191  1.2574  1.9255  1.0253
 2115SOL     OW17803   1.288   2.902  16.362  0.4434 -0.3603  0.1149
 2115SOL    HW117804   1.236   2.823  16.348  2.0041 -1.3794 -0.0465
 2115SOL    HW217805   1.289   2.945  16.277 -1.0699 -0.5780 -0.0020
 2116SOL     OW17806   0.022   0.582   8.221  0.4747  0.0167  0.0159
 2116SOL    HW117807   4.661   0.591   8.176  1.0021  0.6874 -0.8445
 2116SOL    HW217808   0.017   0.645   8.293 -1.2616  1.2069 -1.1669
 2117SOL     OW17809   0.609   3.891  12.036 -0.0127 -0.6197 -0.0115
 2117SOL    HW117810   0.569   3.805  12.019 -2.6764  0.2410  1.7184
 2117SOL    HW217811   0.557   3.929  12.108  0.9126  1.1083 -0.2666
 2118SOL     OW17812   4.546   1.458   6.003  0.2987 -0.1611  0.1805
 2118SOL    HW117813   4.590   1.484   5.922 -2.2797  0.1381 -1.1214
 2118SOL    HW217814   4.602   1.383   6.025 -2.1740 -2.7702 -2.3453
 2119SOL     OW17815   3.511   4.020   4.607  0.2503  0.0073  0.2736
 2119SOL    HW117816   3.438   3.984   4.659  0.2101  0.2656  0.3926
 2119SOL    HW217817   3.513   4.113   4.629  1.9649  0.0045  0.0962
 2120SOL     OW17818   3.619   3.017   1.100 -0.3919  0.0406 -0.3722
 2120SOL    HW117819   3.585   3.088   1.154  1.3763 -1.1138  2.2452
 2120SOL    HW217820   3.685   2.982   1.160 -0.3361  2.0808  0.7678
 2121SOL     OW17821   3.976   4.080   6.665 -0.6846  0.5892 -0.1431
 2121SOL    HW117822   4.056   4.073   6.614  0.0236  1.3235  0.8614
 2121SOL    HW217823   3.945   3.990   6.676  0.9322 -0.0066 -0.5209
 2122SOL     OW17824   4.128   2.479   9.779 -0.4738 -0.0013  0.4632
 2122SOL    HW117825   4.091   2.401   9.820 -2.2895  0.5192 -0.1888
 2122SOL    HW217826   4.073   2.485   9.701 -2.3196 -1.2649  1.6411
 2123SOL     OW17827   3.954   1.117   8.188 -0.4649 -0.1928 -0.0999
 2123SOL    HW117828   4.037   1.092   8.230 -2.3305 -3.8805  1.3636
 2123SOL    HW217829   3.955   1.211   8.209  0.0179 -0.1987 -0.0991
 2124SOL     OW17830   0.258   2.895   2.449  0.3846  0.0811 -0.2276
 2124SOL    HW117831   0.284   2.985   2.429 -0.1394  0.4503  0.7557
 2124SOL    HW217832   0.201   2.871   2.376  3.8354 -0.5440 -2.6929
 2125SOL     OW17833   3.277   0.022   6.710  0.2708  0.2510 -0.2911
 2125SOL    HW117834   3.202   4.701   6.750 -0.2158  0.6590 -0.7618
 2125SOL    HW217835   3.347   4.686   6.738  1.4823  0.7341 -2.3262
 2126SOL     OW17836   1.219   4.312   4.852  0.0472  0.0720 -0.0820
 2126SOL    HW117837   1.154   4.313   4.922  1.9999  1.5227  1.7507
 2126SOL    HW217838   1.187   4.237   4.802 -1.6829  0.3173  0.6652
 2127SOL     OW17839   3.307   2.944   1.610 -0.7797 -0.2368 -0.0404
 2127SOL    HW117840   3.310   3.004   1.535 -0.9845 -1.2024 -0.8281
 2127SOL    HW217841   3.399   2.932   1.635 -1.0808 -0.6011  0.8641
 2128SOL     OW17842   3.797   0.213   7.066  1.0418 -0.1922 -0.2969
 2128SOL    HW117843   3.839   0.225   6.981  1.6212  0.0001  0.0137
 2128SOL    HW217844   3.779   0.119   7.071  0.8450 -0.0814  1.1933
 2129SOL     OW17845   1.533   1.412   3.852 -0.2800 -0.1916  0.6052
 2129SOL    HW117846   1.537   1.344   3.785  1.7641  0.4589  0.0678
 2129SOL    HW217847   1.617   1.455   3.839 -0.3046 -0.8112 -1.6034
 2130SOL     OW17848   1.309   2.953   1.575  0.0059 -0.3934 -0.2673
 2130SOL    HW117849   1.231   2.976   1.626 -0.8044  0.1306 -1.7549
 2130SOL    HW217850   1.371   3.021   1.602 -1.0169  0.2320  0.4961
 2131SOL     OW17851   0.780   0.039   9.124  0.4509 -0.1583 -0.1890
 2131SOL    HW117852   0.802   4.705   9.050  0.8693 -0.4752  0.1797
 2131SOL    HW217853   0.868   0.067   9.148  0.4858  0.5068 -1.0930
 2132SOL     OW17854   1.849   1.313   5.464  0.5561 -0.3775 -0.5011
 2132SOL    HW117855   1.935   1.315   5.506  0.9192  2.1747 -1.3772
 2132SOL    HW217856   1.836   1.219   5.479  0.3591  0.0002  1.7916
 2133SOL     OW17857   4.251   2.386   2.615  0.0216 -0.2422  0.3957
 2133SOL    HW117858   4.271   2.294   2.600  1.4108 -0.4649  3.8101
 2133SOL    HW217859   4.160   2.374   2.641  0.9032 -2.8603  2.1762
 2134SOL     OW17860   2.720   0.929   5.874  0.3180  0.1717 -0.3899
 2134SOL    HW117861   2.769   0.933   5.956 -1.3071  0.5892  0.5680
 2134SOL    HW217862   2.768   0.851   5.847 -0.1381 -0.8499  1.7370
 2135SOL     OW17863   2.304   3.052   4.069  0.4947 -0.3133 -0.0953
 2135SOL    HW117864   2.334   3.118   4.006  3.3914 -0.0694  1.5490
 2135SOL    HW217865   2.231   3.092   4.117 -0.8981 -1.3993 -1.2906
 2136SOL     OW17866   3.531   3.671  10.284  0.7611  0.4660  0.0982
 2136SOL    HW117867   3.479   3.596  10.253 -0.7298  0.6097  2.2395
 2136SOL    HW217868   3.516   3.663  10.378  2.4555 -2.7078  0.0923
 2137SOL     OW17869   4.684   2.597   2.506  0.1387 -0.1794  0.4257
 2137SOL    HW117870   4.671   2.578   2.599  0.4432  0.0679  0.5184
 2137SOL    HW217871   4.598   2.634   2.484 -0.8700 -2.3916  0.6229
 2138SOL     OW17872   2.243   0.172  11.479  0.0940  0.1524  0.4574
 2138SOL    HW117873   2.239   0.128  11.394  0.4761  1.3763 -0.2031
 2138SOL    HW217874   2.264   0.259  11.445 -1.5947  0.2297 -0.3578
 2139SOL     OW17875   0.204   2.098   9.480  0.4936  0.0071  0.1881
 2139SOL    HW117876   0.271   2.163   9.460  1.1853 -1.0094 -0.8403
 2139SOL    HW217877   0.209   2.052   9.396 -1.1079 -0.2428  0.2275
 2140SOL     OW17878   4.014   0.888   2.598 -0.3814  0.6463 -0.3831
 2140SOL    HW117879   3.967   0.812   2.565 -0.1606  0.4953 -0.3505
 2140SOL    HW217880   3.973   0.908   2.682 -2.7053 -0.8708 -1.1707
 2141SOL     OW17881   4.063   0.215   6.821  0.0446 -0.3915 -0.2859
 2141SOL    HW117882   4.130   0.248   6.880  1.7719 -2.6976 -0.9489
 2141SOL    HW217883   4.121   0.182   6.752  0.6927 -0.3064  0.2259
 2142SOL     OW17884   2.471   1.267   7.478  0.3920  0.1088  0.2260
 2142SOL    HW117885   2.382   1.244   7.505  0.9078 -0.5703  1.3857
 2142SOL    HW217886   2.494   1.313   7.559  1.0003  0.3545 -0.0884
 2143SOL     OW17887   4.561   1.752   4.991 -0.1442 -0.3321  0.5698
 2143SOL    HW117888   4.504   1.763   4.914 -0.5031 -0.3529  0.8349
 2143SOL    HW217889   4.557   1.841   5.024 -0.4740 -0.2107  0.2013
 2144SOL     OW17890   3.027   2.944   2.044  0.0253  0.3534 -0.1463
 2144SOL    HW117891   3.048   2.945   1.951 -0.8217 -0.9928 -0.3473
 2144SOL    HW217892   3.084   3.009   2.084  0.9029 -1.3549  1.3722
 2145SOL     OW17893   0.196   4.263  13.586 -0.4804 -0.1392 -0.4852
 2145SOL    HW117894   0.190   4.352  13.551 -0.0933  0.2570  0.4499
 2145SOL    HW217895   0.182   4.218  13.502  1.1009  1.6742 -1.7320
 2146SOL     OW17896   0.663   1.675   3.394  0.0459 -0.1327  0.3533
 2146SOL    HW117897   0.624   1.668   3.307  0.0009 -0.7102  0.4208
 2146SOL    HW217898   0.594   1.729   3.432 -1.8932 -0.6379 -2.5070
 2147SOL     OW17899   3.049   3.496   7.524  0.0618  0.4914 -0.4908
 2147SOL    HW117900   2.978   3.452   7.571  1.2361 -0.7803  0.0888
 2147SOL    HW217901   2.999   3.570   7.490 -0.2373  0.0536 -1.0069
 2148SOL     OW17902   3.988   3.124   8.198 -0.2142  0.7323 -0.2734
 2148SOL    HW117903   3.935   3.094   8.272  0.0355 -2.5922 -1.4414
 2148SOL    HW217904   3.920   3.123   8.131  0.2690  0.3706 -0.7561
 2149SOL     OW17905   3.286   1.392   7.152  0.1093 -1.0100  0.1882
 2149SOL    HW117906   3.250   1.385   7.063 -1.8332  1.7400  0.7658
 2149SOL    HW217907   3.201   1.369   7.190 -0.2335  1.9188  1.1914
 2150SOL     OW17908   4.446   0.572   2.410 -0.2600 -0.1198 -0.5529
 2150SOL    HW117909   4.484   0.490   2.377 -0.7796 -0.8584  0.7201
 2150SOL    HW217910   4.492   0.577   2.494 -1.2012  1.6855 -0.1522
 2151SOL     OW17911   0.562   3.887  17.491  0.5526  0.4589 -0.0271
 2151SOL    HW117912   0.523   3.891  17.578  1.3195  0.6750  0.3104
 2151SOL    HW217913   0.648   3.857  17.520 -0.6660 -0.9528  2.1077
 2152SOL     OW17914   3.958   2.943   7.172  0.1388 -0.4743  0.1965
 2152SOL    HW117915   4.026   2.886   7.136  0.5834  0.3083 -0.1933
 2152SOL    HW217916   4.004   3.024   7.196 -2.6851  1.7678 -1.8745
 2153SOL     OW17917   1.778   1.829   2.481  0.0651 -0.6253 -0.1732
 2153SOL    HW117918   1.683   1.831   2.497  0.2657 -0.1641  1.0082
 2153SOL    HW217919   1.794   1.898   2.417 -2.0469 -1.0587 -1.1765
 2154SOL     OW17920   3.443   1.676  13.444  0.2382 -0.2481 -0.2630
 2154SOL    HW117921   3.482   1.615  13.381  1.7208 -1.9721  2.2991
 2154SOL    HW217922   3.491   1.755  13.422 -1.0889  0.7326  0.3491
 2155SOL     OW17923   0.953   1.372  11.173 -0.5363  0.4121  0.2520
 2155SOL    HW117924   0.946   1.298  11.234 -0.8575  0.9331  0.8452
 2155SOL    HW217925   0.900   1.349  11.097 -0.7964 -1.9493  1.1295
 2156SOL     OW17926   1.846   0.002  16.301  0.1208  0.0490  0.8547
 2156SOL    HW117927   1.826   0.079  16.247 -0.1676 -0.3819  0.3507
 2156SOL    HW217928   1.807   4.660  16.243  1.0156  0.7173 -0.5195
 2157SOL     OW17929   0.979   1.543  15.613  0.0195  0.2232 -0.0893
 2157SOL    HW117930   1.040   1.495  15.558 -1.1940  0.0458 -1.2949
 2157SOL    HW217931   0.977   1.636  15.591  0.0111  0.6655  1.7165
 2158SOL     OW17932   0.709   2.722   4.118  0.4118 -0.1555 -0.2888
 2158SOL    HW117933   0.725   2.741   4.210 -3.0391 -0.2636  0.3532
 2158SOL    HW217934   0.783   2.763   4.075  0.2481  0.1127 -0.3154
 2159SOL     OW17935   3.236   1.893   6.622 -0.1056 -0.1400 -0.1713
 2159SOL    HW117936   3.239   1.954   6.548  2.3154  1.0585  0.9318
 2159SOL    HW217937   3.237   1.952   6.697  2.1810 -0.0677 -0.2701
 2160SOL     OW17938   0.769   2.256   5.885  0.2890 -0.4313  0.3216
 2160SOL    HW117939   0.688   2.288   5.846  0.0596 -0.1664  1.0136
 2160SOL    HW217940   0.780   2.305   5.966 -1.2184  0.0408  0.2445
 2161SOL     OW17941   1.458   4.451   5.220 -0.4805  0.7991  0.0904
 2161SOL    HW117942   1.433   4.499   5.299 -1.6881  0.8555 -0.3223
 2161SOL    HW217943   1.438   4.519   5.156 -3.0762  1.9115  2.0419
 2162SOL     OW17944   2.733   1.750   6.141 -0.1929  0.4638 -0.0707
 2162SOL    HW117945   2.713   1.693   6.215  0.1516 -0.6465 -0.8388
 2162SOL    HW217946   2.799   1.696   6.099 -0.7698  1.6047 -2.4317
 2163SOL     OW17947   2.176   2.127   2.868  1.0097  0.1351  0.0109
 2163SOL    HW117948   2.243   2.110   2.935 -1.1536 -0.1812  2.0932
 2163SOL    HW217949   2.190   2.054   2.807 -0.2303 -0.0784 -0.0085
 2164SOL     OW17950   4.505   2.578   3.348  0.0576 -0.2133 -0.2880
 2164SOL    HW117951   4.581   2.626   3.380 -0.0079 -1.6523  2.0138
 2164SOL    HW217952   4.505   2.500   3.403  0.2172  1.0611  1.5092
 2165SOL     OW17953   2.878   2.231   1.882 -0.3778 -0.4206  0.1698
 2165SOL    HW117954   2.820   2.156   1.885 -2.1671  1.0638  2.4073
 2165SOL    HW217955   2.946   2.210   1.945 -0.1422  0.8028  0.3346
 2166SOL     OW17956   1.895   3.873  13.085 -0.2210 -0.4649 -0.3042
 2166SOL    HW117957   1.877   3.962  13.114  3.4392  0.6270 -1.3533
 2166SOL    HW217958   1.822   3.822  13.120 -1.8242  2.4144  0.5324
 2167SOL     OW17959   2.681   4.699  11.761 -0.1408 -0.1742 -0.0658
 2167SOL    HW117960   2.771   4.721  11.738  0.3284 -0.9523  1.0449
 2167SOL    HW217961   2.671   0.033  11.837  0.3527 -0.4688  0.2224
 2168SOL     OW17962   0.607   2.975   9.225 -0.0716  0.1128  0.6604
 2168SOL    HW117963   0.630   2.936   9.309  0.3216 -0.7195  0.1659
 2168SOL    HW217964   0.514   2.952   9.217  0.3851 -1.0688 -1.2550
 2169SOL     OW17965   2.461   1.968   4.616 -0.1093  0.0439  0.6496
 2169SOL    HW117966   2.447   2.063   4.625  1.4227  0.1860  1.4010
 2169SOL    HW217967   2.500   1.970   4.529 -0.7713  2.3712  0.3864
 2170SOL     OW17968   2.574   3.405  12.939  0.0488 -0.0459 -0.5769
 2170SOL    HW117969   2.491   3.451  12.949  0.7771  1.6045 -2.2286
 2170SOL    HW217970   2.636   3.477  12.941 -2.4993  2.1690 -2.6258
 2171SOL     OW17971   4.605   3.071  16.690 -0.4513  0.2058  0.1297
 2171SOL    HW117972   4.672   3.002  16.690  2.0139  2.6116  0.3467
 2171SOL    HW217973   4.631   3.113  16.608 -1.2617  1.6012  0.5950
 2172SOL     OW17974   0.676   0.452  11.245 -0.0981 -0.0684  0.3649
 2172SOL    HW117975   0.686   0.531  11.298  0.3375  0.5506 -0.6302
 2172SOL    HW217976   0.731   0.387  11.288 -0.0191 -0.6944 -0.6848
 2173SOL     OW17977   0.523   0.280  14.301  0.1431  0.1485 -0.5568
 2173SOL    HW117978   0.585   0.326  14.245 -1.0897  3.9084  1.1465
 2173SOL    HW217979   0.506   0.203  14.246 -1.4727  1.4843 -1.9380
 2174SOL     OW17980   0.857   0.829  13.717 -0.3255  0.2360  0.2452
 2174SOL    HW117981   0.900   0.800  13.797  1.7302  1.0382 -0.5538
 2174SOL    HW217982   0.938   0.855  13.672 -0.9853  1.8163 -0.0335
 2175SOL     OW17983   3.862   1.226   3.331 -0.0986  0.4574 -0.1702
 2175SOL    HW117984   3.767   1.221   3.340  0.1425 -1.8226  0.9902
 2175SOL    HW217985   3.873   1.160   3.263  1.0549 -1.5146  1.9557
 2176SOL     OW17986   4.618   2.071   9.884 -0.1845 -0.3976  0.7014
 2176SOL    HW117987   4.703   2.073   9.839 -0.0926 -1.7453  0.8074
 2176SOL    HW217988   4.557   2.049   9.813  0.8304 -1.1496  0.0531
 2177SOL     OW17989   0.189   4.565   9.649 -0.8375 -0.3850 -0.1363
 2177SOL    HW117990   0.249   4.553   9.576  0.4444 -0.2458  0.8903
 2177SOL    HW217991   0.212   4.494   9.709  1.7777 -0.0209 -0.7460
 2178SOL     OW17992   0.946   0.202   2.177  0.1837 -0.3153  0.2298
 2178SOL    HW117993   0.999   0.259   2.233 -0.0425 -0.0841  0.2044
 2178SOL    HW217994   1.018   0.174   2.120  0.1676  0.2841 -0.0738
 2179SOL     OW17995   1.508   0.828   4.328  0.3590  0.2335 -0.2222
 2179SOL    HW117996   1.585   0.869   4.367  0.6459  1.0454 -1.6358
 2179SOL    HW217997   1.454   0.827   4.407  2.4190  1.3468  1.1845
 2180SOL     OW17998   3.615   1.107   5.113  0.1145  0.1024 -0.6046
 2180SOL    HW117999   3.638   1.195   5.143 -3.2427  1.3786 -1.7838
 2180SOL    HW218000   3.676   1.051   5.161 -0.2068  0.5025  0.2671
 2181SOL     OW18001   2.761   1.907  11.882  0.2305 -0.5652  0.4579
 2181SOL    HW118002   2.671   1.935  11.902  0.2956 -0.7626  1.0214
 2181SOL    HW218003   2.737   1.821  11.848 -0.1646 -0.6609  0.9924
 2182SOL     OW18004   2.476   1.375   1.861 -0.1721  1.0108  0.1567
 2182SOL    HW118005   2.390   1.415   1.873  0.6769  2.3120  1.9515
 2182SOL    HW218006   2.440   1.287   1.858 -1.9413  1.6969  1.2960
 2183SOL     OW18007   2.717   3.121  11.273 -0.0745 -0.0535  0.2636
 2183SOL    HW118008   2.680   3.037  11.248 -0.0179 -0.6422  2.1809
 2183SOL    HW218009   2.810   3.099  11.278 -0.1206 -0.3892 -0.3962
 2184SOL     OW18010   0.803   1.825   2.796  0.2072 -0.2188 -0.3007
 2184SOL    HW118011   0.805   1.826   2.891 -0.7286 -1.3490 -0.2660
 2184SOL    HW218012   0.832   1.734   2.788  1.0350 -0.2348  3.0320
 2185SOL     OW18013   3.995   3.836  11.148 -0.2700 -0.0746  0.5989
 2185SOL    HW118014   4.075   3.885  11.164  0.4809 -0.9479 -0.4432
 2185SOL    HW218015   3.935   3.909  11.166  0.2555  0.0217  1.9159
 2186SOL     OW18016   3.779   3.602   2.637 -0.2919  0.2649 -0.3467
 2186SOL    HW118017   3.847   3.665   2.614 -0.9540  0.6096 -1.3970
 2186SOL    HW218018   3.707   3.665   2.627  0.2021  0.7085 -1.0825
 2187SOL     OW18019   0.054   0.032   8.193  0.4316  0.1322  0.0794
 2187SOL    HW118020   0.132   4.701   8.205  1.2529  1.5999  1.4467
 2187SOL    HW218021   0.010   0.019   8.277  0.7628 -0.3112  0.1833
 2188SOL     OW18022   1.518   0.496   5.676 -0.4292 -0.3161  0.7248
 2188SOL    HW118023   1.567   0.501   5.594 -1.0364 -1.9952  0.2680
 2188SOL    HW218024   1.566   0.441   5.737  0.4964 -0.3742 -0.0662
 2189SOL     OW18025   2.067   0.754  13.605 -0.1943  0.6593  0.1925
 2189SOL    HW118026   2.117   0.830  13.576 -0.3457  0.4458 -0.6263
 2189SOL    HW218027   2.011   0.717  13.537  0.4641 -1.5204  0.8399
 2190SOL     OW18028   3.871   1.763   5.221  0.0747 -0.1362 -0.1273
 2190SOL    HW118029   3.871   1.846   5.268 -0.9024 -1.1981  1.7339
 2190SOL    HW218030   3.905   1.786   5.134 -0.9093  0.3093 -0.4037
 2191SOL     OW18031   1.120   2.899  10.474  0.3755  0.1948 -0.6939
 2191SOL    HW118032   1.159   2.846  10.405 -1.4312  0.5110 -1.9406
 2191SOL    HW218033   1.182   2.971  10.467  1.8948 -1.0082  0.1609
 2192SOL     OW18034   0.169   3.306   7.571  0.0649 -0.5622 -0.5187
 2192SOL    HW118035   0.077   3.316   7.547  0.6978  2.2765 -1.7328
 2192SOL    HW218036   0.208   3.305   7.484 -0.4352 -1.5020 -0.7376
 2193SOL     OW18037   3.836   1.615  16.067 -0.0424  0.2514  0.1710
 2193SOL    HW118038   3.856   1.528  16.031 -0.0743 -0.6782  2.3986
 2193SOL    HW218039   3.796   1.656  15.990 -2.9382 -1.8711  0.5542
 2194SOL     OW18040   0.437   3.220   2.636  0.4053  0.4603  0.1402
 2194SOL    HW118041   0.402   3.218   2.546  1.8687 -0.9523 -0.4027
 2194SOL    HW218042   0.441   3.125   2.651 -1.2271  0.3310 -0.2654
 2195SOL     OW18043   1.037   4.255   4.146 -0.3283  0.4558 -0.3221
 2195SOL    HW118044   1.090   4.331   4.126 -2.8504  1.7433 -2.1769
 2195SOL    HW218045   0.957   4.304   4.166 -0.4592 -0.8852  2.3862
 2196SOL     OW18046   3.871   3.415  13.695  0.1801 -0.0538  0.0095
 2196SOL    HW118047   3.876   3.353  13.623 -0.4997  1.1712 -1.1073
 2196SOL    HW218048   3.938   3.385  13.756  0.0110 -2.0251 -0.7977
 2197SOL     OW18049   0.013   0.324   1.946  0.0683 -0.5656 -0.1575
 2197SOL    HW118050   0.105   0.349   1.956 -0.6105  1.1793  1.5737
 2197SOL    HW218051   0.031   0.246   1.894 -0.4082  0.2035 -1.4805
 2198SOL     OW18052   3.851   0.940   9.721  0.1201 -0.3983  0.2488
 2198SOL    HW118053   3.870   1.030   9.693  1.8418 -1.5113 -2.1569
 2198SOL    HW218054   3.941   0.919   9.746 -0.2122  1.1664  2.6966
 2199SOL     OW18055   1.226   3.245   2.894  0.6840  0.4351 -0.5657
 2199SOL    HW118056   1.248   3.276   2.981  2.2146 -1.2206 -0.3425
 2199SOL    HW218057   1.260   3.155   2.901 -1.2094 -0.3123 -1.0688
 2200SOL     OW18058   1.720   0.154   2.543  0.2220 -0.2010 -0.2900
 2200SOL    HW118059   1.649   0.108   2.588  1.5394 -1.8539  0.0711
 2200SOL    HW218060   1.787   0.141   2.609  0.7343 -1.5505 -1.0904
 2201SOL     OW18061   4.499   0.771   7.900 -0.2062  0.2816  0.3722
 2201SOL    HW118062   4.471   0.821   7.976  0.4995  0.7102  0.3482
 2201SOL    HW218063   4.430   0.705   7.904 -1.8966  2.0535  0.4014
 2202SOL     OW18064   2.511   1.557   4.113  0.0548 -0.1988  0.7209
 2202SOL    HW118065   2.506   1.626   4.180  1.2235  0.7771 -0.1986
 2202SOL    HW218066   2.565   1.607   4.052 -0.3186 -0.4688  0.1680
 2203SOL     OW18067   4.005   2.193  17.459  0.9066  0.3747 -0.0574
 2203SOL    HW118068   4.008   2.165  17.550  0.1308  0.5004  0.0123
 2203SOL    HW218069   3.998   2.287  17.476  1.9946  0.7143 -1.4647
 2204SOL     OW18070   3.889   3.417  16.742 -0.4445  0.5732 -0.0782
 2204SOL    HW118071   3.857   3.402  16.653 -0.9219  1.9648 -0.1474
 2204SOL    HW218072   3.956   3.350  16.752  0.9646  1.7746 -1.3836
 2205SOL     OW18073   0.029   4.539   7.488 -0.4112 -0.0461  0.2207
 2205SOL    HW118074   0.115   4.498   7.497 -1.3674 -1.4513  3.1573
 2205SOL    HW218075   4.709   4.501   7.565 -1.0704  1.2545  0.4865
 2206SOL     OW18076   2.525   3.032   3.112  0.0235 -0.3094  0.3197
 2206SOL    HW118077   2.589   3.008   3.179 -0.1817  1.6116  1.2149
 2206SOL    HW218078   2.572   3.113   3.092 -0.1477  0.1957  1.9495
 2207SOL     OW18079   1.730   1.975   6.314  0.0465 -0.4141  0.5507
 2207SOL    HW118080   1.740   2.005   6.404  1.1079  1.6997 -0.2668
 2207SOL    HW218081   1.780   1.893   6.317 -1.4562 -1.2647  2.1764
 2208SOL     OW18082   1.181   1.624   2.782 -0.2512  0.1577 -0.4965
 2208SOL    HW118083   1.230   1.705   2.767  1.1718 -0.5864  0.1757
 2208SOL    HW218084   1.093   1.630   2.745 -0.1654  1.3025 -0.5268
 2209SOL     OW18085   1.197   4.063   7.910 -0.6811  0.0761  0.1686
 2209SOL    HW118086   1.206   4.021   7.996 -1.9500  1.0623  0.7971
 2209SOL    HW218087   1.115   4.030   7.873 -1.3755  2.0409 -0.0573
 2210SOL     OW18088   3.466   0.613   2.947  0.2757  0.1453  0.1452
 2210SOL    HW118089   3.402   0.645   2.884 -0.2388 -2.3936 -0.6415
 2210SOL    HW218090   3.419   0.585   3.025 -0.6717 -0.9085 -0.7916
 2211SOL     OW18091   3.385   0.415  15.253  0.0287  0.5199  0.0681
 2211SOL    HW118092   3.392   0.389  15.161  0.0246  0.8486 -0.0224
 2211SOL    HW218093   3.350   0.503  15.239 -0.9348  0.2006  0.4568
 2212SOL     OW18094   4.463   1.553  13.933  0.0311 -0.4650 -0.6899
 2212SOL    HW118095   4.404   1.530  14.004 -0.3170 -0.1155 -0.8661
 2212SOL    HW218096   4.472   1.648  13.946 -1.9492 -0.3235 -0.4395
 2213SOL     OW18097   0.885   1.398   5.737 -0.3318 -0.4469  0.3231
 2213SOL    HW118098   0.957   1.409   5.675  0.0153  0.0112  0.8168
 2213SOL    HW218099   0.816   1.389   5.671 -0.1632  0.1841  0.0657
 2214SOL     OW18100   1.127   4.344   6.877  0.4908 -0.5020  0.1094
 2214SOL    HW118101   1.095   4.415   6.821 -0.9934 -0.1970  1.3522
 2214SOL    HW218102   1.110   4.380   6.964 -1.5139 -1.6823  0.1903
 2215SOL     OW18103   1.182   1.234   2.556  0.2356 -0.1200  0.2039
 2215SOL    HW118104   1.220   1.314   2.592  0.0957 -0.6990  1.6560
 2215SOL    HW218105   1.268   1.198   2.532 -0.1546 -0.1234 -1.1473
 2216SOL     OW18106   1.344   0.289   2.237 -0.3157  0.1846  0.4141
 2216SOL    HW118107   1.335   0.369   2.185  0.1616 -0.8396 -1.2304
 2216SOL    HW218108   1.437   0.292   2.263 -0.1956  0.1500 -0.0181
 2217SOL     OW18109   3.940   0.643   2.506 -0.1347  0.5817  0.1720
 2217SOL    HW118110   3.942   0.578   2.436  3.4106  0.3361  0.4633
 2217SOL    HW218111   4.033   0.643   2.530 -0.2835  1.7766  0.7242
 2218SOL     OW18112   1.449   0.753   1.486 -0.6475 -0.2865  0.1881
 2218SOL    HW118113   1.495   0.671   1.466 -1.2654 -0.6058  0.0716
 2218SOL    HW218114   1.377   0.719   1.540  0.8174 -1.2500  1.5364
 2219SOL     OW18115   1.857   0.363   4.167  0.0756 -0.2001  0.7435
 2219SOL    HW118116   1.823   0.452   4.170  0.5552 -0.0873  2.5454
 2219SOL    HW218117   1.859   0.344   4.261 -1.1593  0.2239  0.8538
 2220SOL     OW18118   3.514   2.027   6.164 -0.2217 -0.5177  0.5224
 2220SOL    HW118119   3.484   2.057   6.250  1.6694  1.9202  0.3035
 2220SOL    HW218120   3.462   2.091   6.116  0.9187 -0.2269 -0.3102
 2221SOL     OW18121   4.442   3.895  14.515  0.3512 -0.8819  0.7088
 2221SOL    HW118122   4.368   3.843  14.546  1.2461 -2.5303  0.0984
 2221SOL    HW218123   4.510   3.832  14.538  2.3038  0.7114 -0.7008
 2222SOL     OW18124   3.447   3.035   8.175 -0.2901  0.4144 -0.1306
 2222SOL    HW118125   3.450   2.972   8.247 -0.9106 -0.1344 -0.5751
 2222SOL    HW218126   3.408   3.103   8.229  1.0304  0.0236  1.3117
 2223SOL     OW18127   4.684   2.176   6.727  0.6481 -0.1401  0.0008
 2223SOL    HW118128   4.648   2.251   6.773  1.0082 -0.6946  1.1815
 2223SOL    HW218129   0.008   2.117   6.786  1.6148 -0.1190 -0.7585
 2224SOL     OW18130   4.478   4.366   7.600  0.1603 -0.0914 -0.3385
 2224SOL    HW118131   4.410   4.336   7.661  1.2935 -0.4390  0.7414
 2224SOL    HW218132   4.540   4.405   7.661  1.5638  1.8368 -3.0194
 2225SOL     OW18133   2.089   1.979   1.326  0.2607  0.1693  0.0545
 2225SOL    HW118134   2.178   1.974   1.292  0.0286 -0.9848 -0.3909
 2225SOL    HW218135   2.079   2.073   1.337 -0.2893 -0.2880  3.4280
 2226SOL     OW18136   3.515   0.179   3.679 -0.4056 -0.5232 -0.3737
 2226SOL    HW118137   3.599   0.173   3.724 -0.5572  2.9523  0.3030
 2226SOL    HW218138   3.456   0.238   3.726 -1.0796 -1.2015 -0.3638
 2227SOL     OW18139   2.276   0.387   5.094 -0.7790 -0.2296  0.0516
 2227SOL    HW118140   2.327   0.441   5.033 -1.2193  0.7189  0.5266
 2227SOL    HW218141   2.346   0.353   5.150 -0.2763  0.6720 -0.0295
 2228SOL     OW18142   0.014   2.478   8.211  0.4064 -0.0948 -0.2222
 2228SOL    HW118143   4.715   2.559   8.164  1.0648  0.2957  0.1549
 2228SOL    HW218144   4.714   2.415   8.143  0.8823 -1.0560  0.5097
 2229SOL     OW18145   0.811   3.443   4.507  0.1794  0.3301 -0.6013
 2229SOL    HW118146   0.754   3.437   4.584  1.3422 -0.8803  0.1489
 2229SOL    HW218147   0.888   3.471   4.556 -1.4840  0.3043  2.0053
 2230SOL     OW18148   1.634   0.824   7.546 -0.3633 -0.1671  0.3482
 2230SOL    HW118149   1.679   0.866   7.473  1.2187 -4.0230 -0.8544
 2230SOL    HW218150   1.571   0.894   7.564 -0.4468  0.0289 -0.7244
 2231SOL     OW18151   0.376   2.162   3.153  0.3123 -0.4343  0.0827
 2231SOL    HW118152   0.293   2.155   3.106 -0.4946 -0.9400  1.5913
 2231SOL    HW218153   0.348   2.224   3.220  1.1472 -2.3250  2.1607
 2232SOL     OW18154   2.753   2.210   5.020 -0.2204  0.8263  0.0192
 2232SOL    HW118155   2.841   2.238   4.995  0.2277 -1.8669 -1.5265
 2232SOL    HW218156   2.771   2.162   5.101 -0.5035  0.5092 -0.1055
 2233SOL     OW18157   0.125   3.083   4.893  0.5448 -0.1118 -0.5067
 2233SOL    HW118158   0.055   3.024   4.923 -0.8413  0.8390 -1.8821
 2233SOL    HW218159   0.084   3.169   4.881  0.0183 -0.3414 -0.3596
 2234SOL     OW18160   4.196   1.707   5.840  0.9202  0.3351  0.3165
 2234SOL    HW118161   4.104   1.685   5.826  0.6953  1.9335 -0.7285
 2234SOL    HW218162   4.197   1.790   5.888 -0.7822  0.1286  0.6822
 2235SOL     OW18163   0.909   3.850   9.841 -0.8218 -1.0382  0.4143
 2235SOL    HW118164   0.843   3.820   9.780 -1.5932 -1.1163  1.2807
 2235SOL    HW218165   0.977   3.890   9.787 -2.5942 -0.6511 -1.5324
 2236SOL     OW18166   4.426   2.573   9.659  0.3559  0.0629 -0.2762
 2236SOL    HW118167   4.341   2.537   9.684 -0.4754  0.9069 -1.9363
 2236SOL    HW218168   4.471   2.519   9.725  1.8297  0.4031 -1.0070
 2237SOL     OW18169   2.874   3.768   5.207 -0.4229 -0.1938 -0.7853
 2237SOL    HW118170   2.811   3.829   5.245  1.1675 -0.0246  1.5536
 2237SOL    HW218171   2.956   3.818   5.205 -0.5376  0.0380  0.5759
 2238SOL     OW18172   4.294   2.465   5.465 -0.3135  0.0632  0.1071
 2238SOL    HW118173   4.307   2.382   5.511  3.4488 -0.4418 -1.8904
 2238SOL    HW218174   4.297   2.439   5.373 -0.6591  0.7594 -0.0986
 2239SOL     OW18175   2.495   0.128   9.343  0.1253 -0.6235 -0.7844
 2239SOL    HW118176   2.505   0.072   9.419  0.0666  0.0714 -0.2649
 2239SOL    HW218177   2.559   0.197   9.360  0.6844 -1.1239 -0.8651
 2240SOL     OW18178   4.117   1.252  17.015  0.2898 -0.2350  0.2950
 2240SOL    HW118179   4.165   1.186  17.065 -0.1150 -0.4835  0.3500
 2240SOL    HW218180   4.115   1.211  16.928  1.8297 -0.2194  0.2450
 2241SOL     OW18181   1.631   2.022  16.681 -0.6534  0.0060 -0.5020
 2241SOL    HW118182   1.631   1.962  16.756 -0.4421  0.9423  0.2481
 2241SOL    HW218183   1.615   1.960  16.609  0.6679 -0.0164 -0.7645
 2242SOL     OW18184   2.199   2.920   2.475 -0.0152 -0.1974 -0.0455
 2242SOL    HW118185   2.254   2.997   2.488 -2.0198  1.1522  0.4189
 2242SOL    HW218186   2.228   2.886   2.390 -0.0199  1.3509 -0.6659
 2243SOL     OW18187   2.593   2.078   5.589 -0.4883  0.0923  0.3338
 2243SOL    HW118188   2.679   2.117   5.607 -0.4365  0.2844 -0.3430
 2243SOL    HW218189   2.613   2.027   5.510 -3.4161 -2.0523  0.9602
 2244SOL     OW18190   3.457   2.066   3.850 -0.1208 -0.2246 -0.1768
 2244SOL    HW118191   3.470   2.160   3.855  0.7357 -0.2011 -2.5280
 2244SOL    HW218192   3.510   2.035   3.776 -0.7891  3.0706 -2.0014
 2245SOL     OW18193   0.213   3.381   8.556  0.2815 -0.4816 -0.1730
 2245SOL    HW118194   0.187   3.317   8.623 -0.4464  0.8901  0.8452
 2245SOL    HW218195   0.252   3.321   8.493  2.5034  0.4817  0.2731
 2246SOL     OW18196   4.117   0.355   2.430 -0.3481 -0.4969  0.0111
 2246SOL    HW118197   4.200   0.328   2.469  0.7329  2.4526 -0.2344
 2246SOL    HW218198   4.065   0.370   2.509  0.0298  1.2802 -0.0766
 2247SOL     OW18199   4.563   1.861   3.540  0.5310  0.3543  0.4778
 2247SOL    HW118200   4.642   1.889   3.587  0.0576  1.4230  0.6299
 2247SOL    HW218201   4.535   1.783   3.589 -0.8664  1.4470  1.4146
 2248SOL     OW18202   1.813   4.208   8.640 -0.0893  0.3444  0.4256
 2248SOL    HW118203   1.749   4.154   8.687 -1.5636 -1.8730 -4.1777
 2248SOL    HW218204   1.874   4.232   8.710  0.8527  0.1862 -0.3323
 2249SOL     OW18205   2.731   4.173  12.175 -0.1716  0.3693  0.3444
 2249SOL    HW118206   2.728   4.222  12.093  0.0801  1.4296  0.9687
 2249SOL    HW218207   2.816   4.136  12.154 -0.1903  1.3106 -1.3752
 2250SOL     OW18208   1.610   2.412   7.135 -0.1117 -0.0136 -0.4468
 2250SOL    HW118209   1.514   2.414   7.138 -0.1224 -1.5160  0.1777
 2250SOL    HW218210   1.626   2.319   7.121  0.4993 -0.1555  1.2168
 2251SOL     OW18211   3.335   2.662   8.692  0.1893  0.0932  0.7373
 2251SOL    HW118212   3.271   2.691   8.628 -0.8784 -0.8955  1.3511
 2251SOL    HW218213   3.272   2.626   8.755 -0.1807  0.7664  0.7507
 2252SOL     OW18214   3.868   3.292   7.209 -0.2357 -0.2982 -0.1759
 2252SOL    HW118215   3.860   3.245   7.291  1.4091  0.8325  0.6142
 2252SOL    HW218216   3.786   3.342   7.209  1.6737  2.8483  0.8491
 2253SOL     OW18217   4.158   3.963   1.447  0.1583  0.0844  0.1799
 2253SOL    HW118218   4.117   4.025   1.507  1.2624  1.5803 -0.5971
 2253SOL    HW218219   4.195   3.896   1.505 -0.6960  0.7214  1.4518
 2254SOL     OW18220   4.572   0.247  15.227 -0.0569  0.8445  0.2049
 2254SOL    HW118221   4.651   0.220  15.181  1.4490  2.8005  1.6331
 2254SOL    HW218222   4.528   0.163  15.237 -1.2439  1.6135  1.3639
 2255SOL     OW18223   2.353   3.678   4.267  0.4598  0.0557 -0.4815
 2255SOL    HW118224   2.374   3.622   4.192  0.3336 -0.5074 -0.0976
 2255SOL    HW218225   2.421   3.745   4.267  3.1704 -2.6811 -0.3899
 2256SOL     OW18226   4.695   3.041   4.578 -0.8951  0.0862  0.2434
 2256SOL    HW118227   4.669   2.950   4.592  0.1976 -0.2238  0.2720
 2256SOL    HW218228   0.064   3.033   4.604 -1.1566 -2.3351  0.3857
 2257SOL     OW18229   1.222   2.074   7.363  0.5600 -0.6562  0.5860
 2257SOL    HW118230   1.296   2.103   7.416  1.1873  0.4604 -0.8829
 2257SOL    HW218231   1.261   2.046   7.280 -0.2025 -0.5460  0.1982
 2258SOL     OW18232   1.266   1.956   2.343  0.7596 -0.2611  0.5405
 2258SOL    HW118233   1.293   1.980   2.255  0.5905  0.6260  0.7305
 2258SOL    HW218234   1.176   1.935   2.319  1.5709 -0.9959 -1.8075
 2259SOL     OW18235   0.951   2.711   3.527 -0.5138  0.0263  0.0488
 2259SOL    HW118236   0.986   2.646   3.588 -1.7226  0.7422  1.4816
 2259SOL    HW218237   0.879   2.660   3.491 -0.5639 -1.3389  2.1249
 2260SOL     OW18238   3.111   1.513   2.139 -0.2266 -0.0272 -0.3250
 2260SOL    HW118239   3.157   1.572   2.198  1.1236 -0.5543 -0.8466
 2260SOL    HW218240   3.038   1.571   2.117 -1.3634 -0.8529  1.3141
 2261SOL     OW18241   4.683   2.312   9.668 -0.0780  0.4892 -0.7169
 2261SOL    HW118242   4.622   2.337   9.737  0.7103 -1.3567  0.6274
 2261SOL    HW218243   0.040   2.309   9.720 -0.2428 -1.8670 -0.6140
 2262SOL     OW18244   2.985   3.216  10.548  0.2743  0.2230  0.3408
 2262SOL    HW118245   2.936   3.298  10.548  1.0311  0.6776 -1.7244
 2262SOL    HW218246   3.003   3.202  10.641 -2.2426  1.6682  1.0235
 2263SOL     OW18247   1.650   1.542   0.564  0.2514  0.3263 -0.3483
 2263SOL    HW118248   1.650   1.610   0.497 -1.0049  0.2777 -0.3897
 2263SOL    HW218249   1.735   1.565   0.602  0.0666  0.2979  0.0822
 2264SOL     OW18250   2.948   4.520   7.582 -0.1434 -0.2084  0.1449
 2264SOL    HW118251   2.907   4.451   7.635 -0.6471  1.9911  2.5918
 2264SOL    HW218252   3.041   4.503   7.593  0.0234 -0.0489 -0.9872
 2265SOL     OW18253   1.208   4.413  13.063  0.2792 -0.0594 -0.2272
 2265SOL    HW118254   1.113   4.416  13.073  0.2917  3.3094 -0.9772
 2265SOL    HW218255   1.226   4.332  13.016  3.9678  0.7985 -0.2807
 2266SOL     OW18256   3.128   1.721   3.474 -0.6926  0.0458 -0.0894
 2266SOL    HW118257   3.181   1.789   3.515  2.1482 -1.3007 -1.5725
 2266SOL    HW218258   3.049   1.725   3.529 -0.8325 -2.6118 -0.1458
 2267SOL     OW18259   2.619   3.593   3.938  0.3841 -0.7443 -0.1556
 2267SOL    HW118260   2.653   3.510   3.903 -0.0966 -1.6050  1.4321
 2267SOL    HW218261   2.525   3.578   3.942  0.1131  0.4609 -2.3394
 2268SOL     OW18262   2.285   2.718   7.177 -0.0828 -0.8915  0.3256
 2268SOL    HW118263   2.265   2.810   7.194  0.5522 -0.7854  0.5147
 2268SOL    HW218264   2.258   2.717   7.085  0.4416 -1.0691  0.1682
 2269SOL     OW18265   4.372   0.075  15.750  0.1663  0.2264 -0.0189
 2269SOL    HW118266   4.444   0.065  15.688  1.1135  0.8517  0.9968
 2269SOL    HW218267   4.398   0.008  15.813  1.4958  1.5028  0.7770
 2270SOL     OW18268   3.222   1.079   6.159  0.2612  0.2654 -0.2581
 2270SOL    HW118269   3.219   1.116   6.070 -2.9050  1.6603  0.4386
 2270SOL    HW218270   3.287   1.137   6.198  2.6651 -2.2853 -0.4705
 2271SOL     OW18271   2.258   2.221   0.971  0.0747  0.8182 -0.0161
 2271SOL    HW118272   2.171   2.224   1.011  0.7023 -3.2623  1.6546
 2271SOL    HW218273   2.249   2.289   0.906 -1.6646  1.9711  1.4160
 2272SOL     OW18274   0.313   2.082  10.770 -0.2290 -0.0508  0.1882
 2272SOL    HW118275   0.313   2.178  10.767 -0.8468 -0.0268  0.8583
 2272SOL    HW218276   0.229   2.054  10.736  0.7839  0.1199 -2.4455
 2273SOL     OW18277   3.210   0.615   2.559 -0.1601 -0.3088  0.0291
 2273SOL    HW118278   3.251   0.534   2.530 -0.0460 -1.4727  3.4208
 2273SOL    HW218279   3.171   0.642   2.476 -0.9231  2.2808  1.2357
 2274SOL     OW18280   4.530   4.719  15.239  0.1685 -0.1252  0.3960
 2274SOL    HW118281   4.587   4.673  15.179  0.5704  2.4770 -1.1925
 2274SOL    HW218282   4.447   4.676  15.218 -0.4700  0.4372  1.7657
 2275SOL     OW18283   2.199   2.453  10.872  0.1577  0.6587 -0.2760
 2275SOL    HW118284   2.145   2.518  10.915 -1.3646  0.2255 -1.5228
 2275SOL    HW218285   2.188   2.377  10.929  1.3603 -0.1285 -1.0876
 2276SOL     OW18286   3.959   4.571   6.291  0.0960 -0.2320 -0.2612
 2276SOL    HW118287   3.939   4.606   6.204 -1.4274 -0.3836  0.0342
 2276SOL    HW218288   4.003   4.646   6.330 -1.9835  1.4938 -1.2237
 2277SOL     OW18289   1.339   2.702   5.714  0.0573  0.1008 -0.7496
 2277SOL    HW118290   1.250   2.734   5.730  1.4396  2.4979  2.2543
 2277SOL    HW218291   1.376   2.745   5.637  0.6361 -0.6856 -0.9111
 2278SOL     OW18292   3.084   2.082  13.278  0.1389  0.2111 -0.1330
 2278SOL    HW118293   2.996   2.112  13.255  1.0624  2.7812 -0.2250
 2278SOL    HW218294   3.138   2.143  13.228 -0.1129 -1.6943 -2.7535
 2279SOL     OW18295   1.668   1.344  11.685  0.2087  0.0923  0.3319
 2279SOL    HW118296   1.693   1.414  11.625  0.4533 -0.1948  0.0974
 2279SOL    HW218297   1.652   1.400  11.761 -0.2220 -0.8057  0.9074
 2280SOL     OW18298   2.976   4.253  15.122  0.2609 -0.6092  0.0878
 2280SOL    HW118299   2.925   4.261  15.203 -0.0613 -1.5185 -0.0258
 2280SOL    HW218300   2.913   4.219  15.059 -0.4376  0.1968  0.3586
 2281SOL     OW18301   2.552   1.403  15.185 -0.1107 -0.3918  0.3095
 2281SOL    HW118302   2.479   1.391  15.245 -0.5249 -0.9902 -0.3185
 2281SOL    HW218303   2.574   1.496  15.198  0.9201 -1.1717  4.0027
 2282SOL     OW18304   2.993   2.509   6.968 -0.6621 -0.5212  0.3872
 2282SOL    HW118305   2.963   2.418   6.961  1.7262 -1.4528  2.1086
 2282SOL    HW218306   2.996   2.535   6.876  0.3991 -1.9768  0.0022
 2283SOL     OW18307   3.049   3.307  13.924  0.3045  0.2051 -0.4175
 2283SOL    HW118308   3.102   3.359  13.985 -1.4196  0.1137  1.1354
 2283SOL    HW218309   3.126   3.277  13.874  0.3766  1.0287 -0.7936
 2284SOL     OW18310   0.824   0.889   7.948 -0.8467  1.2385 -0.0365
 2284SOL    HW118311   0.790   0.808   7.987  1.4787 -1.3159 -3.3451
 2284SOL    HW218312   0.826   0.955   8.018 -0.4439  1.1183  0.0643
 2285SOL     OW18313   2.134   1.701   0.171  0.5774 -0.1995  0.2164
 2285SOL    HW118314   2.171   1.667   0.252  2.6299  0.1901 -0.5574
 2285SOL    HW218315   2.043   1.724   0.189  1.3798  1.2124  2.5118
 2286SOL     OW18316   0.595   1.189   4.421  0.3692 -0.3835  0.2224
 2286SOL    HW118317   0.506   1.161   4.440  0.1739 -0.0701 -0.2172
 2286SOL    HW218318   0.651   1.115   4.444  1.3805  0.1925 -0.3856
 2287SOL     OW18319   0.866   2.858   4.321  0.4042 -0.3816 -0.2997
 2287SOL    HW118320   0.961   2.858   4.313  0.4066 -1.4965 -0.2882
 2287SOL    HW218321   0.853   2.953   4.332 -0.9067 -0.4318 -1.4729
 2288SOL     OW18322   0.311   1.854   4.360 -0.3751  0.4429  0.3473
 2288SOL    HW118323   0.344   1.894   4.280  0.1770 -0.1681  0.2720
 2288SOL    HW218324   0.378   1.790   4.382 -0.2601  0.0053 -1.2389
 2289SOL     OW18325   1.567   3.050   4.639  0.6972  0.1591 -0.0411
 2289SOL    HW118326   1.586   3.005   4.557  0.0665 -3.6951  1.9340
 2289SOL    HW218327   1.520   2.983   4.689  0.8848  0.2565  0.2594
 2290SOL     OW18328   3.580   1.271   4.179 -0.2273  0.3841  0.0866
 2290SOL    HW118329   3.662   1.251   4.224 -0.5011  0.7756  0.7740
 2290SOL    HW218330   3.518   1.233   4.242 -0.9868  1.2435 -0.1419
 2291SOL     OW18331   1.572   1.253   6.067  0.1335  0.6182  0.1436
 2291SOL    HW118332   1.659   1.217   6.083  1.3539  3.4467 -0.1255
 2291SOL    HW218333   1.594   1.339   6.102 -1.4633  0.7489  0.8761
 2292SOL     OW18334   0.923   0.726  12.217 -0.1901 -0.0267  0.2890
 2292SOL    HW118335   0.904   0.660  12.284  0.2536  0.5315  0.9648
 2292SOL    HW218336   0.841   0.731  12.169  0.1074  1.0022 -0.1076
 2293SOL     OW18337   4.420   2.671   7.298  0.2682 -0.3603  0.0137
 2293SOL    HW118338   4.366   2.697   7.373  0.9166 -0.1181  0.3924
 2293SOL    HW218339   4.367   2.598   7.266  1.9738 -1.5604 -0.0632
 2294SOL     OW18340   3.210   2.698   1.571  0.0831 -0.1141 -0.2923
 2294SOL    HW118341   3.254   2.777   1.604  0.8577 -0.7810  0.2796
 2294SOL    HW218342   3.213   2.703   1.476  0.4438  0.5087 -0.2539
 2295SOL     OW18343   0.167   4.552   8.597  0.2551 -0.0538 -0.0624
 2295SOL    HW118344   0.219   4.632   8.583 -0.2022  0.1040 -0.8562
 2295SOL    HW218345   0.141   4.584   8.684  2.0028 -1.6080  1.0209
 2296SOL     OW18346   0.263   4.566   8.221 -0.2994  0.3398 -0.1092
 2296SOL    HW118347   0.215   4.485   8.205  0.4297  0.3110 -2.1871
 2296SOL    HW218348   0.312   4.538   8.298  0.1583  0.7223 -0.2592
 2297SOL     OW18349   1.851   1.014   0.963 -0.8252  0.1697  0.4270
 2297SOL    HW118350   1.946   1.012   0.967 -0.9878 -0.6033  3.8087
 2297SOL    HW218351   1.830   0.936   0.912  0.1737 -0.3914  0.8790
 2298SOL     OW18352   0.888   2.084   2.580 -0.0226 -0.6648  0.3158
 2298SOL    HW118353   0.885   2.030   2.659 -0.6423 -0.6736  0.2850
 2298SOL    HW218354   0.837   2.037   2.514  0.4297  0.1444 -0.6215
 2299SOL     OW18355   4.128   3.001   6.056 -0.6939 -0.7251 -0.1003
 2299SOL    HW118356   4.043   2.991   6.099 -0.8738 -1.0184 -0.5224
 2299SOL    HW218357   4.104   3.080   6.008  1.3515  0.1951  0.3800
 2300SOL     OW18358   2.791   1.663  13.499  0.2445 -0.4195 -0.3212
 2300SOL    HW118359   2.834   1.594  13.549 -1.4738  0.1643  1.9673
 2300SOL    HW218360   2.733   1.600  13.455 -0.7858 -1.4277  2.4609
 2301SOL     OW18361   1.976   3.889   2.883 -0.2319  0.2216 -0.3930
 2301SOL    HW118362   2.030   3.909   2.960 -0.2149 -1.8909  0.1493
 2301SOL    HW218363   1.916   3.963   2.880  0.7795  0.9487 -3.2822
 2302SOL     OW18364   4.687   3.806  15.637 -0.4945 -0.0864  0.0222
 2302SOL    HW118365   4.661   3.897  15.620 -0.5633 -0.0376  0.3924
 2302SOL    HW218366   4.678   3.778  15.546 -0.5952 -1.5420  0.4829
 2303SOL     OW18367   4.716   3.972   6.667  0.3932  0.3219  0.1584
 2303SOL    HW118368   0.020   4.063   6.651 -2.6861  1.3386  0.6970
 2303SOL    HW218369   4.628   3.972   6.706 -0.8144  1.4496 -2.5238
 2304SOL     OW18370   3.899   1.587  11.476  0.5151  0.2083  0.2162
 2304SOL    HW118371   3.929   1.546  11.557 -1.4010  0.7477  1.1971
 2304SOL    HW218372   3.978   1.613  11.430 -0.4751  0.5667 -1.2773
 2305SOL     OW18373   2.975   3.236   5.638 -0.5705 -0.6036  0.2163
 2305SOL    HW118374   2.879   3.241   5.637 -0.5017  0.5282 -1.0168
 2305SOL    HW218375   2.998   3.327   5.616 -1.1768  0.0211  2.2110
 2306SOL     OW18376   4.581   0.236   8.985 -0.2943  0.1242 -0.4519
 2306SOL    HW118377   4.546   0.323   9.005 -1.5073 -0.9834  2.2700
 2306SOL    HW218378   4.590   0.186   9.066  0.0571 -2.2865 -2.0143
 2307SOL     OW18379   1.024   1.854   0.836  0.5172  0.2466 -0.0190
 2307SOL    HW118380   1.053   1.763   0.847 -1.1816 -0.4863 -1.8210
 2307SOL    HW218381   1.086   1.894   0.897  0.2491 -0.2312  0.5738
 2308SOL     OW18382   1.620   2.803   5.987 -0.1329 -0.1138  0.2024
 2308SOL    HW118383   1.608   2.867   6.057  3.3177  2.0063 -1.1345
 2308SOL    HW218384   1.607   2.865   5.915  0.3787 -0.7172 -0.4079
 2309SOL     OW18385   1.938   0.243   8.136  0.1032 -0.4905 -0.1630
 2309SOL    HW118386   1.908   0.227   8.225 -1.0105  1.1709 -0.2326
 2309SOL    HW218387   2.028   0.269   8.153  0.5794 -1.4260 -1.1950
 2310SOL     OW18388   0.199   4.073   7.375 -0.4144 -0.4494  0.2721
 2310SOL    HW118389   0.140   4.123   7.318  1.4057  1.1833 -0.1650
 2310SOL    HW218390   0.137   4.050   7.445  0.7944  1.5164  1.9829
 2311SOL     OW18391   2.261   2.572  10.464  0.4672 -0.5681 -0.4488
 2311SOL    HW118392   2.287   2.587  10.555 -0.9364  1.1036 -0.3236
 2311SOL    HW218393   2.344   2.589  10.420 -0.8833 -0.1101 -2.8259
 2312SOL     OW18394   4.163   0.344   5.170  0.0096  0.3543  0.0817
 2312SOL    HW118395   4.196   0.428   5.203 -0.1569  0.4201  0.0782
 2312SOL    HW218396   4.167   0.284   5.244  0.2456 -0.2208 -0.3966
 2313SOL     OW18397   3.085   0.505   3.531 -0.6052  0.0504 -0.2223
 2313SOL    HW118398   3.101   0.498   3.437  1.0619  2.3340 -0.1052
 2313SOL    HW218399   3.052   0.595   3.536 -2.5464 -0.6335 -0.5863
 2314SOL     OW18400   2.458   1.288   4.844  0.1982 -0.0576  0.4276
 2314SOL    HW118401   2.502   1.371   4.862  0.1334  0.0516  0.0942
 2314SOL    HW218402   2.387   1.311   4.783  1.4530 -0.2083 -1.1016
 2315SOL     OW18403   3.918   4.167   4.505 -0.1951  0.4936  0.4932
 2315SOL    HW118404   3.901   4.233   4.573  2.7036  0.6741  1.0125
 2315SOL    HW218405   4.000   4.195   4.466 -0.0015 -1.3470 -0.4167
 2316SOL     OW18406   1.146   3.052   1.779  0.3050 -0.0935  0.2716
 2316SOL    HW118407   1.142   3.146   1.798 -2.7402 -0.1811 -0.0512
 2316SOL    HW218408   1.149   3.022   1.870 -0.7157  0.5394  0.5116
 2317SOL     OW18409   0.367   1.145  13.656  0.3678  0.4870  0.2268
 2317SOL    HW118410   0.350   1.063  13.701  0.7586  0.1552 -0.2293
 2317SOL    HW218411   0.282   1.179  13.628  1.4964  1.1618 -2.3917
 2318SOL     OW18412   4.472   3.141   1.011  0.4840  0.3765 -0.4023
 2318SOL    HW118413   4.566   3.156   1.018  0.6657 -1.5404  1.3667
 2318SOL    HW218414   4.452   3.175   0.923  1.1368  3.8001  0.7688
 2319SOL     OW18415   3.656   1.472   0.182 -0.2341 -0.4703  0.3238
 2319SOL    HW118416   3.591   1.445   0.247 -0.5146 -3.4900 -1.2423
 2319SOL    HW218417   3.739   1.438   0.215 -1.3467 -3.1135  0.3412
 2320SOL     OW18418   2.570   2.265   1.549  0.2966  0.5876  0.2249
 2320SOL    HW118419   2.520   2.346   1.551 -0.5804  0.0717 -0.8003
 2320SOL    HW218420   2.528   2.215   1.479  2.4514  0.0586 -0.7201
 2321SOL     OW18421   0.280   3.504   2.319  0.2749  0.0455 -0.0623
 2321SOL    HW118422   0.277   3.496   2.223  2.6640 -0.6336 -0.0580
 2321SOL    HW218423   0.189   3.489   2.344  0.2401 -0.5603 -0.5498
 2322SOL     OW18424   0.172   3.988  14.907  0.0713  0.1206 -0.2368
 2322SOL    HW118425   0.211   3.941  14.833 -0.5014  0.6860 -0.8918
 2322SOL    HW218426   0.236   4.057  14.921  0.5445 -0.2113 -0.7220
 2323SOL     OW18427   0.232   4.587  12.469 -0.1054 -0.0644 -0.3430
 2323SOL    HW118428   0.200   4.572  12.558 -2.2254  0.9262 -0.9225
 2323SOL    HW218429   0.265   4.502  12.439  1.6980  0.4724  0.1169
 2324SOL     OW18430   3.031   3.861   9.823  0.3851 -0.0469  0.6522
 2324SOL    HW118431   3.050   3.938   9.877 -0.6938  0.3258  0.5035
 2324SOL    HW218432   2.940   3.847   9.848  0.5406 -0.9805  0.6996
 2325SOL     OW18433   1.964   1.648   2.430 -0.0457 -0.2591  0.9050
 2325SOL    HW118434   1.886   1.700   2.445  1.3382  1.7879  1.0201
 2325SOL    HW218435   1.928   1.559   2.430 -0.0214 -0.2645  2.1321
 2326SOL     OW18436   1.102   2.422   4.335 -0.0918  0.5253  0.2169
 2326SOL    HW118437   1.112   2.514   4.361  0.3414  0.1715  1.2971
 2326SOL    HW218438   1.193   2.405   4.311 -0.8101 -2.6830 -0.1360
 2327SOL     OW18439   3.346   0.935  10.814 -0.0201  0.1188 -0.3744
 2327SOL    HW118440   3.271   0.925  10.873 -1.6490 -0.4106 -2.5250
 2327SOL    HW218441   3.398   0.996  10.867 -0.1968  0.3260 -0.4419
 2328SOL     OW18442   3.863   2.549   5.563  0.0500 -0.1475  0.2075
 2328SOL    HW118443   3.959   2.552   5.569  0.0746 -0.0632 -0.2350
 2328SOL    HW218444   3.829   2.579   5.648 -2.8483 -0.9186 -0.6880
 2329SOL     OW18445   2.506   1.087   7.283 -0.0820  0.3185 -0.2419
 2329SOL    HW118446   2.495   1.021   7.352 -0.0589  0.0739 -0.4736
 2329SOL    HW218447   2.512   1.160   7.344 -0.2081 -0.1715  0.3583
 2330SOL     OW18448   0.895   1.705   5.446 -0.1599 -0.2184  0.0472
 2330SOL    HW118449   0.954   1.630   5.439  1.3380  1.0014 -0.3279
 2330SOL    HW218450   0.953   1.765   5.400  0.3681 -0.1766  0.7825
 2331SOL     OW18451   3.779   3.421  15.639  0.2195 -0.1059 -0.3157
 2331SOL    HW118452   3.793   3.413  15.545  0.0866  0.4006 -0.3774
 2331SOL    HW218453   3.684   3.428  15.640  0.0395 -2.5185 -1.5807
 2332SOL     OW18454   2.048   1.550   3.522 -0.0065 -0.2264  0.2456
 2332SOL    HW118455   2.040   1.483   3.454 -1.7548  0.5326 -0.3193
 2332SOL    HW218456   1.955   1.575   3.527  0.7056  2.4958 -0.1586
 2333SOL     OW18457   4.077   2.173   5.230 -0.5379  0.0800  0.5444
 2333SOL    HW118458   4.153   2.156   5.175 -0.1302  0.4957  0.9809
 2333SOL    HW218459   4.068   2.268   5.231 -0.5200  0.0916 -0.3942
 2334SOL     OW18460   1.654   1.456   3.311  0.8435  0.5443 -0.1232
 2334SOL    HW118461   1.559   1.448   3.312  1.2279 -3.8657 -2.7211
 2334SOL    HW218462   1.683   1.437   3.222 -1.7335  2.4121 -1.3608
 2335SOL     OW18463   4.479   1.515   2.938 -0.1459 -0.1855 -0.7081
 2335SOL    HW118464   4.388   1.498   2.913 -1.4850 -0.0763  4.1792
 2335SOL    HW218465   4.510   1.424   2.947 -0.9430 -0.1448  2.4083
 2336SOL     OW18466   2.617   3.851  13.342  0.4029 -0.3029 -0.0623
 2336SOL    HW118467   2.675   3.893  13.279  2.6573 -1.9976  0.9025
 2336SOL    HW218468   2.627   3.915  13.413 -0.5825  0.3130 -0.4842
 2337SOL     OW18469   2.980   2.762   6.767 -0.2648  0.3357 -0.3608
 2337SOL    HW118470   2.975   2.840   6.711  1.4747  1.0565  0.4772
 2337SOL    HW218471   2.939   2.783   6.851  0.3643  0.5657 -0.1119
 2338SOL     OW18472   3.421   3.373  16.282  0.1684  0.1904 -0.0327
 2338SOL    HW118473   3.418   3.386  16.377 -2.0452  0.6069 -0.1471
 2338SOL    HW218474   3.515   3.367  16.267  0.3648  1.7233  0.5929
 2339SOL     OW18475   2.140   3.940  15.470  0.0031 -0.2716  0.2894
 2339SOL    HW118476   2.192   3.946  15.550  0.8535  0.0557 -0.2822
 2339SOL    HW218477   2.106   3.852  15.458  0.0013 -0.4052  1.2448
 2340SOL     OW18478   0.651   2.215  11.386 -0.2562  0.8942  0.2563
 2340SOL    HW118479   0.726   2.181  11.337 -1.2077 -0.2435 -0.4227
 2340SOL    HW218480   0.611   2.140  11.428  0.7525  0.1868 -0.0523
 2341SOL     OW18481   1.920   0.686  11.455 -0.0607  0.6268 -0.2108
 2341SOL    HW118482   1.977   0.753  11.417 -0.2999  1.7520  1.3894
 2341SOL    HW218483   1.862   0.736  11.513 -0.3254 -0.9540  0.8524
 2342SOL     OW18484   3.469   4.574   7.551  0.1035  0.4731 -0.4534
 2342SOL    HW118485   3.559   4.551   7.574 -0.0555  1.5924  1.2465
 2342SOL    HW218486   3.463   4.540   7.461  1.6855  1.4629 -0.9427
 2343SOL     OW18487   3.815   1.258  13.911 -0.2612 -0.1471  0.5062
 2343SOL    HW118488   3.780   1.283  13.996  0.0992  2.8216 -0.2136
 2343SOL    HW218489   3.906   1.278  13.930  0.5792 -1.8072 -1.7547
 2344SOL     OW18490   4.153   4.006   0.788  0.3119 -0.2208 -0.5820
 2344SOL    HW118491   4.110   3.924   0.760  1.2655 -1.6265  2.0974
 2344SOL    HW218492   4.122   4.068   0.722 -1.4433 -0.0281  0.4348
 2345SOL     OW18493   4.668   2.894   3.353  0.2573  0.0293  0.0916
 2345SOL    HW118494   4.676   2.827   3.285 -0.3839 -0.2112  0.2481
 2345SOL    HW218495   0.033   2.931   3.343 -0.2701  1.8241  2.0536
 2346SOL     OW18496   0.260   2.116   4.096  0.2972  1.1380  0.1524
 2346SOL    HW118497   0.348   2.082   4.113  0.4325  1.7296  0.6252
 2346SOL    HW218498   0.267   2.211   4.109  0.7879  1.4334 -2.1431
 2347SOL     OW18499   0.096   1.077   4.143 -0.1219 -0.5612  0.0607
 2347SOL    HW118500   0.130   1.046   4.059  1.2608 -3.0088  1.5112
 2347SOL    HW218501   0.025   1.015   4.159 -0.9734  0.9709  2.2038
 2348SOL     OW18502   1.461   0.691   3.873 -0.4376 -0.1209  0.6876
 2348SOL    HW118503   1.476   0.683   3.967  0.0577 -1.2912  0.5110
 2348SOL    HW218504   1.377   0.648   3.856 -0.3424 -0.1545  0.2881
 2349SOL     OW18505   4.478   4.720   2.575  0.4953 -0.9566 -0.2702
 2349SOL    HW118506   4.550   0.057   2.559 -0.5615  1.4215  3.9309
 2349SOL    HW218507   4.508   4.661   2.645  1.7489  0.5440  0.4345
 2350SOL     OW18508   2.549   3.328   1.935  0.4590 -0.4373 -0.3213
 2350SOL    HW118509   2.553   3.337   2.030 -0.5507 -1.4282 -0.1781
 2350SOL    HW218510   2.570   3.236   1.919  1.0110 -0.2746 -0.5022
 2351SOL     OW18511   3.215   1.551   3.284 -0.5267  0.1463  0.6766
 2351SOL    HW118512   3.157   1.476   3.304  0.3737 -1.3986 -2.5487
 2351SOL    HW218513   3.191   1.598   3.364  3.2119  0.8137  1.3854
 2352SOL     OW18514   0.700   3.951   2.465 -0.3097  0.0720  0.0169
 2352SOL    HW118515   0.685   3.891   2.537 -0.2452 -0.2719 -0.2562
 2352SOL    HW218516   0.652   4.029   2.492  0.8589  1.1935 -1.1652
 2353SOL     OW18517   3.918   0.243  11.009 -0.3313  0.6311  0.1500
 2353SOL    HW118518   3.991   0.220  10.952 -0.6742 -0.4534  0.1405
 2353SOL    HW218519   3.947   0.332  11.029 -1.0589  0.4787  1.9216
 2354SOL     OW18520   0.706   3.487   7.665  0.1051  0.3870  0.4048
 2354SOL    HW118521   0.718   3.460   7.756 -0.0790 -1.4594 -0.1330
 2354SOL    HW218522   0.639   3.430   7.627 -1.2591  2.3284 -0.1198
 2355SOL     OW18523   3.936   3.976   3.743  0.5022  0.0436  0.4539
 2355SOL    HW118524   3.916   3.923   3.666  0.0353 -0.5319  0.9666
 2355SOL    HW218525   3.977   3.915   3.804 -0.8597  0.0127  1.3315
 2356SOL     OW18526   0.293   2.485   5.410 -0.8712 -0.1369  0.0530
 2356SOL    HW118527   0.225   2.549   5.388  0.8480  1.7196  0.1900
 2356SOL    HW218528   0.372   2.536   5.395 -2.0183  1.9974  1.2394
 2357SOL     OW18529   0.088   2.828  11.322 -0.0177 -0.0242  0.2473
 2357SOL    HW118530   0.158   2.888  11.345 -0.8762  0.5825  1.2632
 2357SOL    HW218531   0.043   2.840  11.406  2.2562  1.4399  1.2574
 2358SOL     OW18532   0.532   0.970   6.044  0.1794  0.2186  0.4240
 2358SOL    HW118533   0.505   0.935   6.129  0.7646 -0.9560  0.1208
 2358SOL    HW218534   0.517   1.063   6.061 -2.6391 -0.1310 -0.1410
 2359SOL     OW18535   4.353   0.514  14.850  0.1434  0.0673  0.2791
 2359SOL    HW118536   4.416   0.532  14.919  0.8359 -2.6978  0.3645
 2359SOL    HW218537   4.381   0.557  14.769  0.3371  0.2163  0.4274
 2360SOL     OW18538   1.150   2.513  10.446  0.0519 -0.3327 -0.4403
 2360SOL    HW118539   1.129   2.581  10.382  0.9907  1.6379  1.3535
 2360SOL    HW218540   1.133   2.439  10.388  0.6445 -0.2125 -0.7655
 2361SOL     OW18541   0.270   0.444   9.344  0.8266  0.3512 -0.1216
 2361SOL    HW118542   0.303   0.373   9.398  0.9697  1.1842  0.8926
 2361SOL    HW218543   0.354   0.485   9.324  0.5996 -0.4267 -2.6226
 2362SOL     OW18544   0.267   3.920  12.695  0.1086  0.0510 -0.3962
 2362SOL    HW118545   0.337   3.974  12.732  2.5323 -1.9978 -1.9863
 2362SOL    HW218546   0.218   3.907  12.776  1.2440 -0.3247  0.2413
 2363SOL     OW18547   2.821   0.151   6.079 -0.6277  0.3313 -0.2948
 2363SOL    HW118548   2.840   0.245   6.086 -1.7986  0.5852 -0.4485
 2363SOL    HW218549   2.807   0.118   6.168  2.5633 -0.2583 -0.0058
 2364SOL     OW18550   1.520   4.226  13.999 -0.0218  0.3638 -0.3470
 2364SOL    HW118551   1.559   4.271  13.924 -0.4979  0.3809 -0.5785
 2364SOL    HW218552   1.587   4.248  14.064 -1.9657  0.0266  1.7545
 2365SOL     OW18553   1.802   2.821   0.029  0.3267 -0.0829  0.3143
 2365SOL    HW118554   1.739   2.781  17.663  0.3928  1.2125 -0.6143
 2365SOL    HW218555   1.753   2.804   0.110  0.9681 -0.7257  0.5650
 2366SOL     OW18556   3.352   4.650   2.244 -0.2310 -0.0135 -0.0021
 2366SOL    HW118557   3.373   4.703   2.167 -1.3681 -3.1203 -2.4240
 2366SOL    HW218558   3.266   4.609   2.236 -0.7822  1.2609 -0.6191
 2367SOL     OW18559   2.518   4.075   8.680 -0.1718  0.1323  0.4228
 2367SOL    HW118560   2.425   4.100   8.684 -0.1944  0.1813 -0.6446
 2367SOL    HW218561   2.527   4.053   8.773  0.5960 -1.3107  0.0125
 2368SOL     OW18562   4.372   3.563   8.455  0.2198 -0.4919 -0.7040
 2368SOL    HW118563   4.341   3.473   8.465  1.2069 -0.8732 -1.0368
 2368SOL    HW218564   4.463   3.540   8.472  0.9321  2.1167 -0.9573
 2369SOL     OW18565   3.735   4.121  14.592  0.1870  0.4106  0.2894
 2369SOL    HW118566   3.712   4.028  14.582  0.0164  0.1088  3.4560
 2369SOL    HW218567   3.706   4.150  14.506  1.1136  3.6875  1.0990
 2370SOL     OW18568   2.950   3.539  13.436  0.2754  0.3311 -0.3894
 2370SOL    HW118569   3.026   3.594  13.454  0.2276 -0.4214  2.0561
 2370SOL    HW218570   2.980   3.455  13.471  0.5351  0.9342  0.8169
 2371SOL     OW18571   3.767   4.000   1.869  0.9739 -0.2517 -0.0675
 2371SOL    HW118572   3.699   3.972   1.807 -1.6585  1.0440  2.2165
 2371SOL    HW218573   3.730   4.069   1.924 -1.8712 -1.6949 -0.1868
 2372SOL     OW18574   0.079   1.096   7.914  0.4339  0.6071  0.3001
 2372SOL    HW118575   0.121   1.078   7.998  1.5132  1.9727  0.0593
 2372SOL    HW218576   0.103   1.186   7.890  0.9906  0.3387 -0.1333
 2373SOL     OW18577   3.069   0.437  10.104 -0.4340  0.1133 -0.5925
 2373SOL    HW118578   3.031   0.487  10.031  0.4125 -0.2701 -1.3044
 2373SOL    HW218579   3.159   0.439  10.073 -0.9496  0.2368 -2.0959
 2374SOL     OW18580   4.133   1.680   7.843  0.1271 -0.5190  0.2513
 2374SOL    HW118581   4.211   1.726   7.810 -0.7418  0.3600 -0.5696
 2374SOL    HW218582   4.123   1.608   7.781 -0.7152  1.5385 -1.9990
 2375SOL     OW18583   3.642   2.583  13.421  0.0766  0.1095 -0.0943
 2375SOL    HW118584   3.571   2.636  13.458 -0.8290 -1.0717 -0.1620
 2375SOL    HW218585   3.712   2.587  13.486 -0.2167  0.6662  0.1868
 2376SOL     OW18586   2.192   2.095  17.372  0.0038  0.4502 -0.0481
 2376SOL    HW118587   2.198   2.175  17.320  2.3061  0.7771  0.7201
 2376SOL    HW218588   2.178   2.134  17.458 -2.4703  0.0988 -0.2801
 2377SOL     OW18589   1.745   0.614   4.197  0.0506 -0.0944  0.2812
 2377SOL    HW118590   1.655   0.589   4.219 -0.2924 -0.5013 -1.5670
 2377SOL    HW218591   1.734   0.681   4.129 -1.6512  0.6576  1.2969
 2378SOL     OW18592   0.726   2.346   7.055  0.4337  0.3303 -0.2758
 2378SOL    HW118593   0.716   2.439   7.079 -0.3086  0.1842 -0.0095
 2378SOL    HW218594   0.659   2.328   6.989  0.1925 -3.0526  0.8884
 2379SOL     OW18595   2.914   1.586   5.971  0.1888 -0.1880 -0.1892
 2379SOL    HW118596   3.004   1.614   5.959 -0.5378  1.6103 -1.3645
 2379SOL    HW218597   2.917   1.490   5.975 -0.8188 -0.2695 -1.1123
 2380SOL     OW18598   1.992   1.705  10.042  0.1858  0.1928 -0.5571
 2380SOL    HW118599   1.971   1.787  10.086  1.5594  0.2202  0.0450
 2380SOL    HW218600   1.920   1.696   9.980  0.1730 -2.1702 -0.2195
 2381SOL     OW18601   1.487   3.867   7.110 -0.1035  0.0869  0.0262
 2381SOL    HW118602   1.579   3.851   7.088 -0.5632 -1.4294 -0.7807
 2381SOL    HW218603   1.481   3.959   7.138 -0.5375  0.0355  0.1075
 2382SOL     OW18604   3.361   3.086   8.842 -0.7840 -0.3604  0.1039
 2382SOL    HW118605   3.345   3.180   8.833 -0.9423 -0.2724  1.3220
 2382SOL    HW218606   3.401   3.089   8.929  2.5478  0.3186 -1.4624
 2383SOL     OW18607   1.999   4.669   0.869 -0.3270 -0.1056  0.7643
 2383SOL    HW118608   2.018   4.590   0.818 -1.0402 -0.3060  0.8145
 2383SOL    HW218609   1.973   4.627   0.951 -2.2557 -1.6128 -0.6241
 2384SOL     OW18610   4.527   2.422   5.801 -0.5101  0.2128 -0.0947
 2384SOL    HW118611   4.577   2.354   5.846  0.3513  1.5605  0.9590
 2384SOL    HW218612   4.507   2.483   5.872 -0.6986 -1.0840  0.9575
 2385SOL     OW18613   2.168   2.466   1.443  0.6527  0.0942  0.4395
 2385SOL    HW118614   2.149   2.516   1.363  0.6412 -0.2648  0.2156
 2385SOL    HW218615   2.260   2.488   1.454  0.7860 -0.5620  0.6500
 2386SOL     OW18616   0.746   4.689   4.022 -0.1007  0.2826 -0.1787
 2386SOL    HW118617   0.673   0.005   3.975  0.1934 -0.4610 -1.2677
 2386SOL    HW218618   0.810   0.033   3.999  0.3467 -1.1118 -3.0111
 2387SOL     OW18619   2.442   2.750   9.169 -0.1685 -0.6978  0.1772
 2387SOL    HW118620   2.466   2.837   9.201  0.7791 -0.7509 -0.3777
 2387SOL    HW218621   2.348   2.765   9.179  0.2905  3.2406 -1.4277
 2388SOL     OW18622   0.487   3.010   7.563  0.0623  0.3585 -0.6064
 2388SOL    HW118623   0.519   2.965   7.641  0.9389 -0.4801 -1.4544
 2388SOL    HW218624   0.516   3.101   7.573  1.1882 -0.4129  3.1048
 2389SOL     OW18625   0.274   1.923   2.537  0.5351 -0.3237  0.1944
 2389SOL    HW118626   0.255   1.842   2.491 -3.1298  1.0589 -0.7282
 2389SOL    HW218627   0.330   1.965   2.471 -0.3894  1.0172  0.2621
 2390SOL     OW18628   3.909   3.767   1.912 -0.4465  0.2844 -0.7409
 2390SOL    HW118629   3.910   3.742   1.819  2.6747 -0.4246 -0.5028
 2390SOL    HW218630   3.846   3.838   1.898 -0.7114  0.7916  3.0628
 2391SOL     OW18631   2.120   0.361   1.796  0.4288 -0.5860 -0.0968
 2391SOL    HW118632   2.118   0.266   1.785 -1.0694 -0.6146  0.4084
 2391SOL    HW218633   2.036   0.385   1.835  0.0916 -1.2815 -0.3917
 2392SOL     OW18634   3.664   3.359   4.679 -0.4025  0.0860  0.6408
 2392SOL    HW118635   3.675   3.285   4.620  0.3085 -1.0844  2.2597
 2392SOL    HW218636   3.725   3.422   4.641  0.3912 -0.4369  1.0630
 2393SOL     OW18637   1.254   0.977   3.967  0.5232  0.1587  0.1715
 2393SOL    HW118638   1.238   1.054   3.911 -1.0147 -0.3595 -0.0887
 2393SOL    HW218639   1.180   0.920   3.947  1.1018 -0.7142  0.5559
 2394SOL     OW18640   0.554   4.031   7.865  0.6476 -0.6372 -0.3621
 2394SOL    HW118641   0.630   4.089   7.856  1.6088 -1.5278  1.9128
 2394SOL    HW218642   0.491   4.075   7.921  0.4556  0.1158 -1.1778
 2395SOL     OW18643   1.396   1.139  15.473 -0.2828 -0.4138 -0.1474
 2395SOL    HW118644   1.444   1.200  15.529  0.7278 -1.2374 -0.1104
 2395SOL    HW218645   1.469   1.119  15.414  0.5843  0.7300  0.5276
 2396SOL     OW18646   2.099   3.884  14.949 -0.0867  0.1801  0.2111
 2396SOL    HW118647   2.187   3.846  14.955  0.2398  0.9940  0.5892
 2396SOL    HW218648   2.087   3.903  15.042 -1.0322  2.2242 -0.3467
 2397SOL     OW18649   3.131   2.149   4.488 -1.0281 -0.2671 -0.7790
 2397SOL    HW118650   3.202   2.174   4.430 -0.2968 -1.3419 -0.3427
 2397SOL    HW218651   3.059   2.208   4.465 -0.2772  0.7367 -0.5718
 2398SOL     OW18652   2.903   2.317   4.449  0.3957  0.7830  0.3516
 2398SOL    HW118653   2.816   2.356   4.446 -0.6075 -1.4794  0.5263
 2398SOL    HW218654   2.870   2.228   4.443  0.7928  0.7829 -2.0437
 2399SOL     OW18655   0.462   4.413   8.037 -0.2344 -0.4734  0.0014
 2399SOL    HW118656   0.418   4.367   7.966 -0.5936 -0.4909  0.2370
 2399SOL    HW218657   0.479   4.347   8.103  0.9390 -1.6112 -1.4476
 2400SOL     OW18658   4.717   1.997  13.313  0.9514  0.1425  0.4308
 2400SOL    HW118659   0.077   2.013  13.357  1.2628  2.0373 -0.8616
 2400SOL    HW218660   4.654   1.999  13.385  0.2937 -1.7484 -0.0818
 2401SOL     OW18661   1.750   1.666  10.561  0.8116 -0.1484 -0.2353
 2401SOL    HW118662   1.669   1.678  10.513  0.2999 -1.2907  0.3415
 2401SOL    HW218663   1.720   1.696  10.646  0.6911 -0.5691 -0.1280
 2402SOL     OW18664   3.824   3.109  11.161  0.3752  0.1355  0.0634
 2402SOL    HW118665   3.867   3.131  11.243  1.6167 -2.6851  0.1740
 2402SOL    HW218666   3.795   3.022  11.190  0.0188  0.9623  2.2040
 2403SOL     OW18667   3.317   0.403  13.130 -0.1385 -0.4533  0.1367
 2403SOL    HW118668   3.224   0.421  13.144 -0.2602 -0.1378 -1.1113
 2403SOL    HW218669   3.330   0.320  13.177  1.2572  0.7754  1.9163
 2404SOL     OW18670   4.588   2.025   5.122  0.3820 -0.0025 -0.2403
 2404SOL    HW118671   4.623   2.111   5.143  0.6816 -0.1518 -0.1342
 2404SOL    HW218672   4.563   1.984   5.205 -1.5237 -2.6353 -2.1175
 2405SOL     OW18673   3.730   1.916   6.396  0.1205  0.2669 -0.3183
 2405SOL    HW118674   3.682   1.889   6.475 -0.0575  0.1051 -0.4825
 2405SOL    HW218675   3.687   1.854   6.337 -1.1212  1.6540 -0.8674
 2406SOL     OW18676   3.451   2.017   4.160 -0.2339  0.0909  0.0791
 2406SOL    HW118677   3.473   2.065   4.080 -0.0848 -2.5837 -1.4860
 2406SOL    HW218678   3.529   1.961   4.164 -2.7674 -3.5174 -0.8304
 2407SOL     OW18679   1.158   0.766  11.052 -0.3531  0.3707  0.2570
 2407SOL    HW118680   1.208   0.821  11.113  1.0130 -0.3525 -0.2191
 2407SOL    HW218681   1.070   0.786  11.084  0.0386  0.9702  0.9544
 2408SOL     OW18682   0.630   3.867  17.139  0.1499 -0.2463  0.4443
 2408SOL    HW118683   0.617   3.962  17.145 -2.1895 -0.5863  0.7811
 2408SOL    HW218684   0.725   3.855  17.136  0.2791  0.8668  0.0189
 2409SOL     OW18685   0.968   0.771   2.642  0.3730  0.0974 -0.1032
 2409SOL    HW118686   0.900   0.759   2.708 -0.3563 -0.0987 -0.8927
 2409SOL    HW218687   1.042   0.788   2.699  0.6525  0.0065 -0.4379
 2410SOL     OW18688   4.445   3.308   2.634  0.5301 -0.2847 -0.4551
 2410SOL    HW118689   4.535   3.296   2.664  0.5728  0.2839 -0.3608
 2410SOL    HW218690   4.398   3.262   2.704  1.1860  1.1600  0.9450
 2411SOL     OW18691   0.807   4.139   5.156 -0.1262 -0.4593  0.2757
 2411SOL    HW118692   0.817   4.234   5.164 -1.4018 -0.4330  1.6255
 2411SOL    HW218693   0.712   4.134   5.143  0.1624 -1.9402 -1.2194
 2412SOL     OW18694   1.755   4.068   6.210  0.3668  0.3409 -0.2941
 2412SOL    HW118695   1.848   4.088   6.206  0.7532 -1.1534  1.4726
 2412SOL    HW218696   1.731   4.023   6.129  1.6583 -2.5935  0.9610
 2413SOL     OW18697   1.595   2.502   4.282  0.0252  0.3808 -0.1787
 2413SOL    HW118698   1.619   2.458   4.363  2.3759  0.9403 -0.5714
 2413SOL    HW218699   1.671   2.474   4.231 -1.2162 -2.5232 -0.4592
 2414SOL     OW18700   0.141   2.031   9.774  0.3491  0.4331 -0.1025
 2414SOL    HW118701   0.170   1.942   9.796 -2.2100 -0.2360  0.5952
 2414SOL    HW218702   0.160   2.052   9.683  1.1184  0.5963  0.0916
 2415SOL     OW18703   2.963   1.367  13.356 -0.3374  0.0491  0.0939
 2415SOL    HW118704   2.956   1.300  13.287  1.4144  1.3751 -1.3588
 2415SOL    HW218705   2.875   1.364  13.393  0.0235  0.7846  0.9959
 2416SOL     OW18706   4.227   3.023   3.637 -0.0605 -0.2484 -0.3537
 2416SOL    HW118707   4.216   3.114   3.610  2.2309  0.0170 -0.4285
 2416SOL    HW218708   4.315   3.004   3.603 -0.3135 -1.8001 -0.1634
 2417SOL     OW18709   0.994   3.915  10.380  0.3813  0.1496  0.1419
 2417SOL    HW118710   1.064   3.973  10.352  1.3744 -0.4570  1.3751
 2417SOL    HW218711   1.036   3.858  10.444 -3.6688 -1.9161  0.9698
 2418SOL     OW18712   4.721   4.409   5.376 -0.8588 -0.0384  0.1336
 2418SOL    HW118713   4.667   4.369   5.444 -0.3435 -0.1477  0.4782
 2418SOL    HW218714   0.087   4.378   5.393 -0.9322  1.3532  3.1631
 2419SOL     OW18715   1.341   0.157   7.614  0.2490  0.1475  0.5783
 2419SOL    HW118716   1.372   0.085   7.668 -1.2760  0.3713  1.7605
 2419SOL    HW218717   1.246   0.145   7.610  0.1584  1.0015  0.1489
 2420SOL     OW18718   2.452   1.916   6.663  1.0447  0.3554 -0.7914
 2420SOL    HW118719   2.534   1.954   6.695  0.5328  0.9280 -0.1437
 2420SOL    HW218720   2.489   1.836   6.626 -0.8056 -0.4769 -0.8676
 2421SOL     OW18721   4.328   2.304   3.874  0.2218 -0.3160 -0.3303
 2421SOL    HW118722   4.285   2.299   3.959 -1.6250  0.4100 -1.2267
 2421SOL    HW218723   4.416   2.336   3.895  0.4982 -0.3622 -1.3909
 2422SOL     OW18724   3.787   0.565   5.682  0.7904 -0.5865 -0.0471
 2422SOL    HW118725   3.769   0.631   5.615  1.2938 -0.1796  0.2180
 2422SOL    HW218726   3.707   0.557   5.735  1.0473  1.2303  0.6082
 2423SOL     OW18727   1.039   0.263   3.712  0.0071  0.5495  0.1503
 2423SOL    HW118728   1.054   0.315   3.791 -1.0263  2.2445 -0.7727
 2423SOL    HW218729   1.084   0.317   3.647 -0.5140  2.1045  1.0898
 2424SOL     OW18730   3.535   3.153   1.719 -0.3135  0.4793  0.1247
 2424SOL    HW118731   3.518   3.242   1.751 -0.5578  0.4943 -0.0488
 2424SOL    HW218732   3.613   3.170   1.666  0.7329  1.4232  1.9777
 2425SOL     OW18733   0.350   3.194   1.863 -0.0064  0.3136 -0.1533
 2425SOL    HW118734   0.322   3.285   1.870  2.2898  0.9993  0.3739
 2425SOL    HW218735   0.444   3.208   1.877 -0.4753  3.1678  0.1444
 2426SOL     OW18736   1.341   2.479   4.178  0.0530 -0.6893 -0.0697
 2426SOL    HW118737   1.312   2.561   4.220 -0.8281  0.7993 -3.5486
 2426SOL    HW218738   1.435   2.491   4.191  0.1469 -0.2999 -1.0774
 2427SOL     OW18739   4.530   0.908  16.490 -0.3084  0.4539  0.3367
 2427SOL    HW118740   4.570   0.991  16.514 -2.0918  0.7672  2.1415
 2427SOL    HW218741   4.526   0.917  16.394  1.7495 -1.1712  0.0810
 2428SOL     OW18742   3.411   4.222  12.061  0.5714 -0.6734  0.4768
 2428SOL    HW118743   3.358   4.259  11.990 -2.4647 -0.5733  2.8046
 2428SOL    HW218744   3.365   4.140  12.081  0.6853 -0.7668  0.3588
 2429SOL     OW18745   1.967   4.706   2.470 -0.3192 -0.3052  0.0909
 2429SOL    HW118746   1.916   0.063   2.461 -0.3155 -0.2326  0.7647
 2429SOL    HW218747   1.988   4.699   2.563 -0.5719 -0.6224  0.1231
 2430SOL     OW18748   1.027   1.001   3.016 -0.6703  0.0135 -0.2557
 2430SOL    HW118749   0.971   0.956   3.079  0.6537 -0.2108  0.7636
 2430SOL    HW218750   0.951   1.043   2.976 -0.1536  1.9880  0.8633
 2431SOL     OW18751   0.166   2.236  13.135  0.0995 -0.2796 -0.0528
 2431SOL    HW118752   0.261   2.239  13.122  0.2197 -1.0333  0.6790
 2431SOL    HW218753   0.157   2.261  13.226 -1.8626 -2.5755  0.3843
 2432SOL     OW18754   1.205   1.250  14.206  0.0617 -0.2439 -0.6779
 2432SOL    HW118755   1.112   1.229  14.213 -0.0158  0.7977  1.2559
 2432SOL    HW218756   1.237   1.176  14.155  1.0853  0.3079 -0.8335
 2433SOL     OW18757   3.644   4.421   3.502  0.7752 -0.1577  0.7113
 2433SOL    HW118758   3.739   4.416   3.510  0.6622 -1.8235  1.0773
 2433SOL    HW218759   3.618   4.512   3.512  0.0584 -0.0037 -2.6972
 2434SOL     OW18760   4.298   1.492   6.997  1.1473  0.3197 -0.5715
 2434SOL    HW118761   4.355   1.567   7.014  2.1206 -0.0220 -2.3446
 2434SOL    HW218762   4.218   1.541   6.977  1.6150  1.3142 -0.0027
 2435SOL     OW18763   1.499   2.235  12.697  0.0529 -0.5057 -0.3041
 2435SOL    HW118764   1.550   2.159  12.726  0.0671  0.0753  1.2160
 2435SOL    HW218765   1.566   2.302  12.685  0.7220 -0.8123  1.7345
 2436SOL     OW18766   1.155   1.443   8.426  0.4640 -0.4059  0.4631
 2436SOL    HW118767   1.237   1.446   8.476  1.5458  1.0537 -1.3713
 2436SOL    HW218768   1.161   1.367   8.369 -1.4066  0.4810 -0.9268
 2437SOL     OW18769   0.358   1.975   5.803 -0.4772 -0.5101  0.2604
 2437SOL    HW118770   0.344   1.906   5.867 -2.2991 -1.2069 -0.8940
 2437SOL    HW218771   0.452   1.993   5.810 -0.3853 -0.2201 -1.5449
 2438SOL     OW18772   1.607   4.068   6.637  0.4824  0.2106 -0.4822
 2438SOL    HW118773   1.684   4.065   6.694 -0.1581 -1.9741  0.2493
 2438SOL    HW218774   1.572   4.157   6.642 -0.0564 -0.0508  0.5116
 2439SOL     OW18775   1.552   3.123  11.389  0.5063 -0.3795  0.6349
 2439SOL    HW118776   1.552   3.208  11.345  2.4148 -0.3850  0.6340
 2439SOL    HW218777   1.567   3.067  11.313  0.4980 -0.0769  0.4101
 2440SOL     OW18778   1.336   4.227   5.155  1.0659  0.4802 -0.3828
 2440SOL    HW118779   1.384   4.205   5.075  0.3029  2.1391 -1.2910
 2440SOL    HW218780   1.347   4.322   5.157  0.0012  0.6135 -1.0252
 2441SOL     OW18781   1.826   1.731   6.184  0.2900  0.0637  0.2499
 2441SOL    HW118782   1.769   1.667   6.142  0.2468  0.7510 -0.7479
 2441SOL    HW218783   1.911   1.690   6.167 -1.8223 -2.8544 -3.3931
 2442SOL     OW18784   2.063   3.929   4.889  0.2034  0.5840  0.2963
 2442SOL    HW118785   1.979   3.967   4.915  1.4007  2.8821  0.7851
 2442SOL    HW218786   2.123   3.976   4.947  1.0780  0.3066 -0.3793
 2443SOL     OW18787   2.181   0.443   2.179  0.0246  0.2585  0.4930
 2443SOL    HW118788   2.096   0.486   2.170  0.5253  1.3074  0.7668
 2443SOL    HW218789   2.232   0.500   2.122  0.1484 -1.0218 -0.6832
 2444SOL     OW18790   2.197   2.498   2.130  0.2256  0.2861 -0.1668
 2444SOL    HW118791   2.292   2.506   2.116  0.2682  2.5498  1.4458
 2444SOL    HW218792   2.170   2.544   2.051  0.0579  0.5701  0.0555
 2445SOL     OW18793   2.028   0.570   1.460 -0.2282  0.2756 -0.0852
 2445SOL    HW118794   1.984   0.485   1.459 -0.1422  0.2302  0.0346
 2445SOL    HW218795   2.120   0.546   1.461 -0.4282 -0.4513  0.3104
 2446SOL     OW18796   0.369   3.718   5.723  0.3716 -0.2408  0.4807
 2446SOL    HW118797   0.414   3.795   5.689  0.4218 -0.0264  1.0250
 2446SOL    HW218798   0.354   3.677   5.638  0.7975  0.9981 -0.1797
 2447SOL     OW18799   1.621   2.236  15.819 -0.5280 -0.1127  0.1609
 2447SOL    HW118800   1.539   2.247  15.866 -0.6980  1.0795 -0.4146
 2447SOL    HW218801   1.603   2.183  15.742 -0.9213  1.7472 -1.0293
 2448SOL     OW18802   1.649   1.854   3.482  0.1128  0.1802  0.3232
 2448SOL    HW118803   1.738   1.885   3.467  0.0683  0.3866  0.4994
 2448SOL    HW218804   1.592   1.929   3.469 -0.6050 -0.3247  0.5324
 2449SOL     OW18805   2.670   3.203   7.816  0.2771 -0.1364 -0.1207
 2449SOL    HW118806   2.599   3.151   7.778 -0.4337  1.8979 -1.6079
 2449SOL    HW218807   2.634   3.235   7.899  0.3008 -1.9905  0.6075
 2450SOL     OW18808   1.427   3.380   2.426 -0.3481  0.2342 -0.5085
 2450SOL    HW118809   1.362   3.444   2.397 -3.3671 -1.9713  1.3818
 2450SOL    HW218810   1.427   3.385   2.522 -0.2916  1.7687 -0.5937
 2451SOL     OW18811   0.162   3.154   8.210 -0.4051  0.8811 -0.5646
 2451SOL    HW118812   0.143   3.245   8.233  0.7764  0.5418  1.7583
 2451SOL    HW218813   0.252   3.148   8.242 -0.9557 -0.0157  0.8018
 2452SOL     OW18814   4.147   4.593  14.532  0.1646  0.5060  0.0806
 2452SOL    HW118815   4.081   4.527  14.551 -0.2310  1.5215  2.2526
 2452SOL    HW218816   4.137   4.653  14.606 -0.6658  2.7468 -1.8359
 2453SOL     OW18817   2.009   1.360   4.561 -0.5178  0.1662  0.5950
 2453SOL    HW118818   2.048   1.407   4.487 -1.6283  0.7725  0.3845
 2453SOL    HW218819   2.060   1.280   4.569 -1.8052 -0.7500 -0.3421
 2454SOL     OW18820   4.292   2.360  14.750 -0.3748  0.2445  0.1338
 2454SOL    HW118821   4.330   2.381  14.665  0.2062 -2.6058 -0.3035
 2454SOL    HW218822   4.370   2.351  14.804 -0.4539 -0.4192  0.1361
 2455SOL     OW18823   1.529   2.689   3.796  0.2716  0.0429  0.3141
 2455SOL    HW118824   1.523   2.594   3.793 -0.1885  0.0684  0.4909
 2455SOL    HW218825   1.585   2.693   3.873  2.6376  1.0694 -1.4484
 2456SOL     OW18826   1.135   0.139   3.162 -0.3030 -0.3990 -0.5818
 2456SOL    HW118827   1.171   0.107   3.079  1.0060 -0.1243 -0.1102
 2456SOL    HW218828   1.068   0.077   3.193  1.7471 -1.5143  1.6281
 2457SOL     OW18829   1.918   3.362   2.101 -0.3243  0.3261 -0.2177
 2457SOL    HW118830   1.956   3.341   2.187  0.5785  0.8091 -0.4910
 2457SOL    HW218831   1.891   3.453   2.115  2.9040  0.8458  2.6731
 2458SOL     OW18832   1.951   0.113   6.157  0.3825 -0.5977  0.0888
 2458SOL    HW118833   1.903   0.184   6.113 -0.0282 -1.1938 -0.4319
 2458SOL    HW218834   1.960   0.052   6.084  0.4225 -0.6066  0.1017
 2459SOL     OW18835   1.851   3.579  14.529 -0.6732  0.2926 -0.5828
 2459SOL    HW118836   1.756   3.580  14.512 -0.4918  0.7486 -1.5945
 2459SOL    HW218837   1.880   3.668  14.511 -0.9385  0.1988 -1.4769
 2460SOL     OW18838   3.359   2.375   5.499  0.4508  0.8502  0.0336
 2460SOL    HW118839   3.392   2.397   5.412 -0.5255 -1.1156 -0.8337
 2460SOL    HW218840   3.342   2.281   5.502  2.8596  0.4009 -0.5465
 2461SOL     OW18841   1.098   2.049   2.828  0.4506 -0.2875  0.5387
 2461SOL    HW118842   1.134   2.054   2.739 -3.5202  3.0113 -0.8681
 2461SOL    HW218843   1.055   2.134   2.835 -0.6725 -0.8163  0.0926
 2462SOL     OW18844   0.287   2.949   7.351 -0.8413 -0.2483  0.2243
 2462SOL    HW118845   0.307   2.855   7.353 -1.1679 -0.3503 -1.3998
 2462SOL    HW218846   0.363   2.979   7.401 -0.0189  0.8436 -1.6858
 2463SOL     OW18847   1.112   3.017   8.529 -0.0629  0.5534  0.6873
 2463SOL    HW118848   1.129   3.032   8.622  1.8015 -0.5465  0.5355
 2463SOL    HW218849   1.058   3.089   8.497  1.1596  2.3795  2.7044
 2464SOL     OW18850   4.021   3.590   5.056  0.2186 -0.2955  0.1082
 2464SOL    HW118851   4.038   3.670   5.007 -0.0205  1.7178  3.2875
 2464SOL    HW218852   4.093   3.600   5.119 -2.7039  2.4620  3.0804
 2465SOL     OW18853   2.127   2.779   4.871 -0.4139 -0.3330  0.3430
 2465SOL    HW118854   2.101   2.847   4.809  0.1043 -0.5090 -0.0652
 2465SOL    HW218855   2.131   2.704   4.813 -0.7797 -0.1638  0.1022
 2466SOL     OW18856   0.282   4.164   0.962 -0.8658 -0.1083  0.7347
 2466SOL    HW118857   0.263   4.253   0.991 -1.1862  0.3018 -0.7201
 2466SOL    HW218858   0.344   4.138   1.030 -0.5276  0.0131  0.4749
 2467SOL     OW18859   2.782   3.386   1.471 -0.2333  0.3264 -0.0019
 2467SOL    HW118860   2.696   3.392   1.428 -0.3549  1.0666  0.3558
 2467SOL    HW218861   2.751   3.421   1.555 -0.4932 -0.2541  0.1472
 2468SOL     OW18862   2.053   2.313  13.629  0.6712  1.2388  0.3111
 2468SOL    HW118863   2.109   2.345  13.700 -1.4316  0.6019  2.2652
 2468SOL    HW218864   1.985   2.380  13.633 -1.5204 -1.0888  2.1451
 2469SOL     OW18865   3.896   4.368  11.481 -0.4411 -0.6303  0.3582
 2469SOL    HW118866   3.850   4.306  11.424 -0.4821 -0.8245  0.6021
 2469SOL    HW218867   3.956   4.316  11.535 -0.3782 -1.0781 -0.1332
 2470SOL     OW18868   1.944   4.512  12.819  0.3494 -0.1910  0.9678
 2470SOL    HW118869   1.977   4.544  12.903  0.1472  1.3601  0.4628
 2470SOL    HW218870   1.867   4.569  12.808 -0.8839 -1.9763  0.4352
 2471SOL     OW18871   2.864   3.437   4.442 -0.2125 -0.5408  0.0845
 2471SOL    HW118872   2.908   3.421   4.359  1.7045  0.6140  0.8756
 2471SOL    HW218873   2.774   3.441   4.412  0.1498 -1.2047 -1.0692
 2472SOL     OW18874   2.991   2.939   8.130 -0.1137 -0.7065 -0.1231
 2472SOL    HW118875   2.957   3.020   8.091  0.6359 -0.4204 -0.1687
 2472SOL    HW218876   3.016   2.972   8.216 -0.2067 -0.9127 -0.0162
 2473SOL     OW18877   0.214   2.161   3.689 -0.2225 -0.5518 -0.2970
 2473SOL    HW118878   0.203   2.255   3.702  2.6415  0.0955 -2.6478
 2473SOL    HW218879   0.226   2.126   3.777  1.9189  0.2322 -0.2929
 2474SOL     OW18880   4.331   1.390  16.056 -0.9197 -0.5268 -0.2718
 2474SOL    HW118881   4.313   1.434  15.973  3.6445  0.7914 -0.5282
 2474SOL    HW218882   4.290   1.444  16.124 -0.8711  0.2478 -0.8611
 2475SOL     OW18883   3.169   0.574   7.843  0.0353  0.0797  0.0236
 2475SOL    HW118884   3.104   0.606   7.905 -0.1922 -0.3573  0.0102
 2475SOL    HW218885   3.215   0.519   7.906 -2.2972 -1.7017  0.1873
 2476SOL     OW18886   4.414   1.537   7.455  0.1238  0.3838 -0.4566
 2476SOL    HW118887   4.471   1.497   7.389 -1.6787 -0.1600 -1.6694
 2476SOL    HW218888   4.483   1.561   7.517 -1.4751 -2.7631  2.4973
 2477SOL     OW18889   0.622   0.928   8.879  0.6305 -0.1267 -0.3955
 2477SOL    HW118890   0.662   1.005   8.918  0.9923 -1.1237  1.1783
 2477SOL    HW218891   0.698   0.883   8.841 -0.5626 -5.5220  3.5998
 2478SOL     OW18892   2.777   4.551   2.235 -0.2441  0.2608  0.3376
 2478SOL    HW118893   2.798   4.594   2.318 -0.7638  0.3541  0.4253
 2478SOL    HW218894   2.686   4.527   2.256 -0.5584  0.5973 -0.6522
 2479SOL     OW18895   3.363   1.730  17.356 -0.1822  0.8059 -0.4703
 2479SOL    HW118896   3.429   1.748  17.423 -3.0045  2.1402  1.9212
 2479SOL    HW218897   3.428   1.733  17.286  0.1261  0.5793 -0.1987
 2480SOL     OW18898   4.526   3.398   2.375  0.0223  0.6902 -0.2387
 2480SOL    HW118899   4.511   3.347   2.455 -0.3802 -0.2720 -0.9328
 2480SOL    HW218900   4.477   3.474   2.408  1.8467  1.3150  1.0724
 2481SOL     OW18901   1.343   2.430   5.655  0.4220  0.0426 -0.0293
 2481SOL    HW118902   1.427   2.421   5.609 -0.7957 -0.7108 -2.0714
 2481SOL    HW218903   1.344   2.518   5.692  2.2664 -1.5067  3.7268
 2482SOL     OW18904   2.760   1.578   4.314 -0.7091 -0.0294  0.3190
 2482SOL    HW118905   2.777   1.526   4.235 -0.7920  0.9306 -0.3242
 2482SOL    HW218906   2.844   1.568   4.357 -1.1686 -0.1381  1.1917
 2483SOL     OW18907   4.563   1.188  12.386  0.4546 -0.3660 -0.0394
 2483SOL    HW118908   4.591   1.203  12.477  1.6180 -0.3125 -0.4147
 2483SOL    HW218909   4.581   1.094  12.392  0.4644 -0.3947 -0.5698
 2484SOL     OW18910   1.309   1.397   5.459 -0.3031  1.0920  0.3566
 2484SOL    HW118911   1.317   1.313   5.412  1.7993  1.2911  0.3270
 2484SOL    HW218912   1.395   1.430   5.430 -0.3228  1.8797  1.2362
 2485SOL     OW18913   0.743   4.428   6.377 -0.2436 -0.2657 -0.0960
 2485SOL    HW118914   0.761   4.371   6.302  0.3656 -0.0622 -0.1105
 2485SOL    HW218915   0.649   4.412   6.386  0.2616 -2.8206  0.4771
 2486SOL     OW18916   0.292   4.586   3.125  0.0198  0.5471  0.1702
 2486SOL    HW118917   0.277   4.664   3.178  0.6638 -0.3139  1.6447
 2486SOL    HW218918   0.373   4.618   3.085 -0.0717  0.7000  0.1075
 2487SOL     OW18919   4.097   4.349   8.972  0.0641 -0.1123 -0.4133
 2487SOL    HW118920   4.158   4.414   8.938  0.7612 -1.9823 -2.7550
 2487SOL    HW218921   4.019   4.403   8.979 -1.8205 -2.9314  0.3375
 2488SOL     OW18922   3.874   0.967   6.838  0.5524  0.2274 -0.1018
 2488SOL    HW118923   3.929   1.031   6.884  0.5111  0.8997 -0.9905
 2488SOL    HW218924   3.943   0.933   6.782 -1.0529 -2.7941 -0.2460
 2489SOL     OW18925   1.882   0.584  10.546  0.2000  0.1443  0.7371
 2489SOL    HW118926   1.928   0.501  10.530  0.5756  0.3703  0.6317
 2489SOL    HW218927   1.949   0.619  10.605 -0.6704 -1.0739  2.4392
 2490SOL     OW18928   0.987   1.558   7.548 -0.4049  0.2093 -0.1611
 2490SOL    HW118929   1.080   1.561   7.526  0.0062  0.7202  1.6324
 2490SOL    HW218930   0.956   1.593   7.464 -0.1179 -0.5382 -0.5841
 2491SOL     OW18931   1.239   2.200   4.091  0.5125 -0.0261  0.0687
 2491SOL    HW118932   1.239   2.151   4.173  1.6748  0.3786  0.3012
 2491SOL    HW218933   1.247   2.290   4.121 -0.6720  0.2617 -0.4619
 2492SOL     OW18934   3.507   4.529   5.425 -0.1042  0.1172  0.0359
 2492SOL    HW118935   3.495   4.576   5.342  0.7430 -0.6211 -0.5196
 2492SOL    HW218936   3.440   4.462   5.418  0.3081 -0.3915  1.0290
 2493SOL     OW18937   4.457   0.256   3.346 -0.3315 -0.2818  0.0933
 2493SOL    HW118938   4.534   0.212   3.311  0.1689  0.0839  0.7521
 2493SOL    HW218939   4.389   0.203   3.305 -1.0096  2.1029 -1.8501
 2494SOL     OW18940   3.296   0.858  15.020  0.5603 -0.0985  0.2042
 2494SOL    HW118941   3.266   0.841  15.109  0.6535 -1.4431 -0.0239
 2494SOL    HW218942   3.319   0.951  15.018 -3.3422  0.8339 -3.0789
 2495SOL     OW18943   2.533   3.654   5.082  0.2399  0.7482 -0.3985
 2495SOL    HW118944   2.513   3.667   5.175  2.7157 -0.3050  0.2826
 2495SOL    HW218945   2.484   3.573   5.066 -0.1602  0.9428 -0.1361
 2496SOL     OW18946   0.919   2.021   8.323  0.3301  0.3757 -0.0897
 2496SOL    HW118947   0.997   1.966   8.321 -1.0345 -1.6050  0.6155
 2496SOL    HW218948   0.917   2.046   8.231 -0.4594  1.8428  0.3284
 2497SOL     OW18949   0.693   4.069   3.571 -0.0059 -0.4397 -0.0065
 2497SOL    HW118950   0.716   4.161   3.563 -0.8277 -0.2254  0.0556
 2497SOL    HW218951   0.780   4.035   3.592 -0.0631  0.5295  1.7415
 2498SOL     OW18952   3.768   1.784  13.277  0.0141 -0.5016  0.5344
 2498SOL    HW118953   3.695   1.842  13.302  1.8773  0.6766  3.3265
 2498SOL    HW218954   3.787   1.819  13.190 -1.2473  3.2898  1.7640
 2499SOL     OW18955   1.519   1.206   4.250  0.4371  0.4968 -0.0345
 2499SOL    HW118956   1.516   1.131   4.191  0.3438 -0.2725  0.9607
 2499SOL    HW218957   1.582   1.175   4.315 -0.3276  0.7872  0.8418
 2500SOL     OW18958   1.296   1.710   2.143  0.4689 -0.1071  0.0437
 2500SOL    HW118959   1.342   1.793   2.133  0.4217  0.0490  1.1474
 2500SOL    HW218960   1.214   1.739   2.185 -0.9424 -0.2432 -2.6312
 2501SOL     OW18961   3.379   2.901   3.034 -0.4943 -0.4213  0.6930
 2501SOL    HW118962   3.340   2.850   2.963 -0.6757 -1.1041  1.2850
 2501SOL    HW218963   3.458   2.940   2.997 -0.2160 -0.9169  0.7601
 2502SOL     OW18964   4.294   3.460  17.578  0.4380  0.2060  0.0576
 2502SOL    HW118965   4.262   3.375  17.550 -2.8895  1.4392  0.0912
 2502SOL    HW218966   4.387   3.439  17.581  0.0898 -1.1428  1.1675
 2503SOL     OW18967   2.152   3.954   9.467 -0.1010  0.4835  0.1408
 2503SOL    HW118968   2.104   3.951   9.550 -1.2519  1.5188 -0.4929
 2503SOL    HW218969   2.236   3.985   9.500 -0.9975  2.8334  0.2450
 2504SOL     OW18970   3.910   1.636   8.167 -0.2577  0.2448 -0.5916
 2504SOL    HW118971   3.843   1.602   8.108  0.1557  0.8018 -1.3829
 2504SOL    HW218972   3.941   1.551   8.200 -0.0271  1.2214  1.6848
 2505SOL     OW18973   4.496   2.013   8.687 -0.4755 -0.6639 -0.3623
 2505SOL    HW118974   4.432   2.072   8.727  2.0059  0.0660  2.5181
 2505SOL    HW218975   4.493   2.044   8.596  1.2946  0.5042 -0.0282
 2506SOL     OW18976   2.739   3.529   7.635  0.1824 -0.4359  0.1501
 2506SOL    HW118977   2.706   3.523   7.545  0.0969 -1.4019  0.2413
 2506SOL    HW218978   2.789   3.448   7.636 -0.0316 -0.5968 -1.6469
 2507SOL     OW18979   0.957   0.435  11.167  0.4574 -0.2867 -0.4543
 2507SOL    HW118980   0.911   0.366  11.120  1.5232 -0.7461 -0.8298
 2507SOL    HW218981   1.047   0.422  11.137  0.9218  0.0584  0.7784
 2508SOL     OW18982   4.084   0.257   3.511 -0.3959 -0.1385  0.6994
 2508SOL    HW118983   4.112   0.188   3.570  0.8845  0.6811  1.0467
 2508SOL    HW218984   4.165   0.308   3.517 -1.3675  1.2346  2.1610
 2509SOL     OW18985   3.006   1.670   6.712  0.5457  0.2237 -0.0687
 2509SOL    HW118986   3.014   1.738   6.645 -0.6087  0.6103  0.1773
 2509SOL    HW218987   3.095   1.635   6.709  0.0555 -0.8608 -2.2791
 2510SOL     OW18988   1.296   1.720   5.614 -0.5107  0.0966  0.0416
 2510SOL    HW118989   1.251   1.637   5.629 -1.8845  1.0081  0.9941
 2510SOL    HW218990   1.226   1.782   5.594  0.2941  1.1086  0.3877
 2511SOL     OW18991   3.670   3.638   7.101  0.0442  0.0448  0.5969
 2511SOL    HW118992   3.682   3.697   7.176 -0.1014  0.2448  0.4632
 2511SOL    HW218993   3.639   3.565   7.155  1.6701 -1.6130 -0.7441
 2512SOL     OW18994   0.081   0.351   9.931 -0.0573 -0.7817 -0.4118
 2512SOL    HW118995   0.060   0.407  10.006  0.0472 -2.5743  0.9578
 2512SOL    HW218996   0.095   0.264   9.969 -0.3435 -0.0633  1.3504
 2513SOL     OW18997   0.358   3.660   2.527 -0.5009  0.1553 -0.0458
 2513SOL    HW118998   0.446   3.672   2.492 -1.0965  3.5004 -0.3881
 2513SOL    HW218999   0.321   3.622   2.447 -1.4239 -0.4092  0.6390
 2514SOL     OW19000   2.883   3.288   2.171  0.3782  0.4277 -0.4926
 2514SOL    HW119001   2.840   3.203   2.163  1.8615 -0.4083  0.3479
 2514SOL    HW219002   2.963   3.263   2.217 -0.5428  0.9158  1.3657
 2515SOL     OW19003   1.262   0.501   8.806  0.0940 -0.3339  0.1025
 2515SOL    HW119004   1.208   0.424   8.821 -0.7510 -0.2371 -2.5680
 2515SOL    HW219005   1.344   0.477   8.849  0.4030  0.8915  0.1960
 2516SOL     OW19006   1.718   1.673   7.329 -0.2742 -0.0921  0.0038
 2516SOL    HW119007   1.802   1.683   7.284  0.3059 -0.2800  1.0371
 2516SOL    HW219008   1.746   1.621   7.405 -0.1764 -0.2113 -0.1141
 2517SOL     OW19009   3.241   1.965   8.100  0.6940 -0.0322  0.0846
 2517SOL    HW119010   3.285   2.039   8.059 -0.5156  0.2584 -0.6890
 2517SOL    HW219011   3.153   1.997   8.082  1.1594 -0.0416 -2.2177
 2518SOL     OW19012   1.643   2.612   2.851  0.2229 -0.5074 -0.8046
 2518SOL    HW119013   1.605   2.635   2.766 -1.0641 -0.5625 -0.2313
 2518SOL    HW219014   1.738   2.624   2.842 -0.1117  2.0858 -0.9634
 2519SOL     OW19015   1.478   0.001   3.240 -0.4149 -0.6494 -0.0124
 2519SOL    HW119016   1.427   0.021   3.318  1.2757 -1.6718  1.3575
 2519SOL    HW219017   1.552   0.059   3.259 -0.8855  0.6947 -2.2964
 2520SOL     OW19018   1.173   2.895   1.300  0.5165 -0.5417 -0.3310
 2520SOL    HW119019   1.221   2.912   1.381 -0.3732  2.2238 -0.4096
 2520SOL    HW219020   1.206   2.972   1.253 -1.5885 -0.0701 -1.0477
 2521SOL     OW19021   0.298   3.641   6.974  0.3024 -0.1485 -0.1969
 2521SOL    HW119022   0.306   3.715   6.914 -0.4408  1.2864  1.5068
 2521SOL    HW219023   0.341   3.573   6.922  0.2885  0.1421 -0.5880
 2522SOL     OW19024   0.157   0.656  15.844  0.0717 -0.1415  0.4376
 2522SOL    HW119025   0.176   0.663  15.938  0.1537  2.0759  0.2501
 2522SOL    HW219026   0.245   0.622  15.828  0.4725  1.0436  0.1456
 2523SOL     OW19027   0.865   3.804   6.543 -0.0869  0.4316 -0.2725
 2523SOL    HW119028   0.937   3.741   6.555 -0.5762 -0.1432 -0.3740
 2523SOL    HW219029   0.843   3.819   6.635  0.8585 -1.1104  0.2047
 2524SOL     OW19030   4.405   0.901   0.570 -0.8118  0.2554 -0.3719
 2524SOL    HW119031   4.426   0.815   0.536 -3.0169 -1.0382  1.5426
 2524SOL    HW219032   4.311   0.893   0.585 -0.7079 -2.7952 -1.4931
 2525SOL     OW19033   3.776   1.120   9.001  0.0172  0.0254  0.0087
 2525SOL    HW119034   3.733   1.184   8.945 -0.3910  1.6515  2.1704
 2525SOL    HW219035   3.867   1.146   8.983  0.7358 -3.2946 -1.2389
 2526SOL     OW19036   4.334   0.743   4.039 -0.3539 -0.4697  0.2312
 2526SOL    HW119037   4.268   0.684   4.004 -1.9619  0.4813  1.6885
 2526SOL    HW219038   4.312   0.814   3.979 -1.0147 -0.6997  0.2046
 2527SOL     OW19039   0.533   0.469   1.351 -0.0077  0.0662 -0.4942
 2527SOL    HW119040   0.490   0.549   1.378  1.5262  0.1752  1.6099
 2527SOL    HW219041   0.520   0.476   1.256 -0.1664 -0.0548 -0.4809
 2528SOL     OW19042   2.823   0.765   2.238 -0.2866  0.0767 -0.0084
 2528SOL    HW119043   2.912   0.787   2.209  0.6345 -1.6739  1.4274
 2528SOL    HW219044   2.766   0.812   2.178  1.1692 -0.5899 -1.9080
 2529SOL     OW19045   1.189   4.207   3.046 -0.3698  0.7006  0.9247
 2529SOL    HW119046   1.215   4.218   2.954 -0.1066 -2.0799  0.6408
 2529SOL    HW219047   1.244   4.130   3.060 -1.1168  0.1798  1.0109
 2530SOL     OW19048   3.333   2.694   4.034  0.2337  0.3718  0.2637
 2530SOL    HW119049   3.386   2.734   3.965  0.6226  0.7612  0.7866
 2530SOL    HW219050   3.247   2.735   4.028 -1.3592 -2.7624  1.5493
 2531SOL     OW19051   3.781   1.811   8.680  0.2815  0.8226  0.1066
 2531SOL    HW119052   3.744   1.893   8.646 -1.9164 -0.3286 -0.2894
 2531SOL    HW219053   3.803   1.833   8.770  1.0332  0.6470 -0.0390
 2532SOL     OW19054   2.240   1.437  14.392 -0.0458  0.6025  0.3803
 2532SOL    HW119055   2.316   1.489  14.418 -0.4641  0.4278  1.9634
 2532SOL    HW219056   2.262   1.425  14.300  0.0394 -0.2592  0.5152
 2533SOL     OW19057   2.538   3.223  10.408 -0.2471  0.5764  0.2321
 2533SOL    HW119058   2.594   3.171  10.465  0.6187  0.5902 -0.5989
 2533SOL    HW219059   2.600   3.296  10.404  0.1069  0.2443 -0.3774
 2534SOL     OW19060   1.677   2.788  11.396 -0.0348 -0.2020  0.2490
 2534SOL    HW119061   1.603   2.813  11.452  0.2881  0.2444  0.4832
 2534SOL    HW219062   1.628   2.751  11.323  0.0226 -2.2141  1.2248
 2535SOL     OW19063   4.235   2.819   2.819  0.1911  0.3918 -0.2068
 2535SOL    HW119064   4.169   2.762   2.779 -0.9182  1.0862  0.6446
 2535SOL    HW219065   4.314   2.765   2.818  0.6259  0.9562  2.9538
 2536SOL     OW19066   0.758   4.082   9.038 -0.3118  0.6318  0.3605
 2536SOL    HW119067   0.694   4.014   9.059  0.5315 -0.1240  0.5265
 2536SOL    HW219068   0.761   4.121   9.125 -2.9632  1.4015  0.1032
 2537SOL     OW19069   4.262   1.616   5.578 -0.7433 -0.5309 -0.0019
 2537SOL    HW119070   4.324   1.614   5.651 -1.0136  0.2979  0.2464
 2537SOL    HW219071   4.203   1.688   5.599 -1.8597 -1.9174  1.7269
 2538SOL     OW19072   0.449   2.421   5.096 -0.2497  0.3996  0.3151
 2538SOL    HW119073   0.514   2.356   5.067 -0.0140  0.4841  0.6539
 2538SOL    HW219074   0.395   2.360   5.145  0.0206  1.1691  1.5604
 2539SOL     OW19075   2.220   1.862   7.900 -0.2977  0.3221 -0.0999
 2539SOL    HW119076   2.174   1.781   7.879 -1.4720  1.2925 -1.2842
 2539SOL    HW219077   2.240   1.853   7.993 -0.2363 -1.6393 -0.3059
 2540SOL     OW19078   3.650   1.955   5.908 -0.1513  0.5724  0.2431
 2540SOL    HW119079   3.729   2.008   5.914  0.6799 -0.3103 -2.4840
 2540SOL    HW219080   3.617   1.968   5.996 -0.1321  0.2375  0.2999
 2541SOL     OW19081   2.062   2.773   3.746  0.1243 -0.3686 -0.0278
 2541SOL    HW119082   1.968   2.768   3.731  0.0570  3.3029 -0.7853
 2541SOL    HW219083   2.093   2.764   3.656 -1.1118  2.4837 -0.7113
 2542SOL     OW19084   4.589   1.287  16.125  0.3878 -0.6542  0.3050
 2542SOL    HW119085   4.572   1.205  16.079  4.0986 -1.2882  0.0334
 2542SOL    HW219086   4.528   1.350  16.086 -0.3645  0.1347  2.7207
 2543SOL     OW19087   2.215   2.508   5.821  0.0334 -0.1210  0.6041
 2543SOL    HW119088   2.235   2.464   5.904  0.1099 -0.7322  0.2638
 2543SOL    HW219089   2.228   2.601   5.838  1.1589 -0.2001  0.2129
 2544SOL     OW19090   3.729   2.490   4.641 -0.3128  0.2496 -0.1052
 2544SOL    HW119091   3.692   2.420   4.694 -1.3613 -0.3138 -1.5808
 2544SOL    HW219092   3.649   2.528   4.605 -0.9559  0.9007  1.9949
 2545SOL     OW19093   3.409   0.753   3.553  0.3884 -0.1488  0.1803
 2545SOL    HW119094   3.414   0.659   3.568 -2.2119 -0.5466 -1.4988
 2545SOL    HW219095   3.335   0.760   3.493  2.4388  0.8204 -2.2339
 2546SOL     OW19096   4.532   0.075  12.174  0.5320 -0.1945 -0.3303
 2546SOL    HW119097   4.619   0.045  12.201  0.6754  0.6330  0.1281
 2546SOL    HW219098   4.541   0.069  12.079 -2.4165  1.9707 -0.7299
 2547SOL     OW19099   4.502   0.059  10.461 -0.3263  0.2610 -0.2385
 2547SOL    HW119100   4.426   0.092  10.510 -2.1509 -0.3778 -2.6430
 2547SOL    HW219101   4.506   4.694  10.498  0.2080 -0.0774 -1.1283
 2548SOL     OW19102   0.100   1.162  11.498  0.1180  0.3073  0.6262
 2548SOL    HW119103   0.143   1.146  11.414 -2.1821 -1.0366 -0.2926
 2548SOL    HW219104   0.008   1.160  11.471  0.6513 -3.4510 -0.9668
 2549SOL     OW19105   0.045   1.843   8.035  0.0525 -0.1263 -0.0715
 2549SOL    HW119106   4.723   1.784   8.096 -0.6776 -1.4359 -1.8434
 2549SOL    HW219107   4.698   1.906   8.017 -0.2075 -0.0752  1.1418
 2550SOL     OW19108   2.390   1.175   7.042  0.5815 -0.0762  0.1361
 2550SOL    HW119109   2.426   1.134   7.120  1.2911  2.7917  1.2980
 2550SOL    HW219110   2.436   1.120   6.978 -0.1376 -3.5136  2.6011
 2551SOL     OW19111   3.918   0.879   8.323  0.4155 -0.4927  0.5234
 2551SOL    HW119112   3.826   0.855   8.312 -0.1292  1.5224  0.6854
 2551SOL    HW219113   3.927   0.959   8.272  1.5154 -1.5900 -0.9767
 2552SOL     OW19114   4.619   1.687   8.465  0.4285 -0.2110  0.5635
 2552SOL    HW119115   4.608   1.771   8.421 -0.4396 -0.6088 -0.0018
 2552SOL    HW219116   4.700   1.658   8.423  0.3992  1.5507 -0.6864
 2553SOL     OW19117   1.356   2.198   6.648  0.2113  0.4623 -0.4107
 2553SOL    HW119118   1.409   2.220   6.725 -0.8158 -0.4460  0.5543
 2553SOL    HW219119   1.324   2.285   6.622 -0.7273 -0.4396 -2.2478
 2554SOL     OW19120   3.407   1.048  16.157 -0.9052  0.0933  0.4382
 2554SOL    HW119121   3.357   0.970  16.133  1.3644 -1.6827  1.5009
 2554SOL    HW219122   3.356   1.078  16.232  0.7622 -0.0533  1.6405
 2555SOL     OW19123   3.363   3.378   4.555  0.0310 -0.0922  0.2374
 2555SOL    HW119124   3.455   3.370   4.580  0.1385  2.0424  0.5191
 2555SOL    HW219125   3.326   3.289   4.556 -0.0765 -0.0680 -1.7803
 2556SOL     OW19126   2.795   1.276  15.574  0.6707 -0.1180  0.2908
 2556SOL    HW119127   2.777   1.213  15.644  1.0052  0.2939  0.7550
 2556SOL    HW219128   2.890   1.276  15.585  0.8701 -0.3977 -1.4689
 2557SOL     OW19129   1.826   4.320   8.304  0.1546 -0.1073 -0.0722
 2557SOL    HW119130   1.790   4.349   8.387 -2.0566  1.5510 -1.6017
 2557SOL    HW219131   1.793   4.388   8.245  1.9115  2.9733  2.5495
 2558SOL     OW19132   2.070   3.100   8.802  0.0550 -0.2069 -0.2167
 2558SOL    HW119133   1.975   3.091   8.810 -0.0222 -0.9553 -2.1370
 2558SOL    HW219134   2.083   3.038   8.730 -3.6756 -0.0394 -1.0206
 2559SOL     OW19135   2.447   0.657   2.348  0.4361 -0.4615  0.0149
 2559SOL    HW119136   2.424   0.569   2.378 -1.6346 -0.4718 -1.6204
 2559SOL    HW219137   2.408   0.656   2.261 -1.8832 -0.1349  1.0481
 2560SOL     OW19138   3.681   3.305   0.776  0.6030 -0.2498 -0.2602
 2560SOL    HW119139   3.589   3.312   0.752  0.2718  0.9883  1.4055
 2560SOL    HW219140   3.689   3.378   0.838  1.4629  0.0169 -0.6817
 2561SOL     OW19141   3.639   0.178  13.204  0.1068 -0.1029 -0.1332
 2561SOL    HW119142   3.629   0.085  13.183 -0.3334  0.0960 -0.8009
 2561SOL    HW219143   3.547   0.190  13.227  0.0401 -0.4379 -0.2243
 2562SOL     OW19144   0.185   4.038   9.194  0.1788 -0.2455  0.1944
 2562SOL    HW119145   0.196   4.096   9.269  3.9864  3.5439 -3.2532
 2562SOL    HW219146   0.106   4.080   9.158 -0.4000 -0.6941  0.9587
 2563SOL     OW19147   4.722   4.304   2.881  0.1730  0.7515 -0.0588
 2563SOL    HW119148   4.698   4.213   2.863 -0.1871  0.4294  2.1506
 2563SOL    HW219149   0.033   4.292   2.969 -1.8536 -1.5823  0.4028
 2564SOL     OW19150   1.450   1.581   5.243  0.3647 -0.8647  0.2311
 2564SOL    HW119151   1.464   1.621   5.329 -2.1020  1.5640 -0.5059
 2564SOL    HW219152   1.531   1.542   5.209  0.5000 -0.4892  0.1217
 2565SOL     OW19153   0.862   3.098   3.628  0.4173 -0.2252 -0.4371
 2565SOL    HW119154   0.809   3.085   3.707  0.0182 -0.5982 -0.7655
 2565SOL    HW219155   0.924   3.026   3.627  2.8629  1.8504  1.6470
 2566SOL     OW19156   0.235   4.665   7.127 -0.6356  0.5588  0.0864
 2566SOL    HW119157   0.246   4.721   7.203  1.0279  0.7542 -0.3055
 2566SOL    HW219158   0.168   4.709   7.075 -1.1510  0.6860  0.8485
 2567SOL     OW19159   3.399   3.666   4.072  0.1228 -0.0985 -0.0985
 2567SOL    HW119160   3.341   3.599   4.109 -2.2280  3.1254  2.0258
 2567SOL    HW219161   3.454   3.618   4.010  0.0606 -1.9121  1.2547
 2568SOL     OW19162   2.485   2.555   3.931  0.3278  0.0833 -0.5418
 2568SOL    HW119163   2.534   2.571   3.850  1.9215  0.0359  0.4208
 2568SOL    HW219164   2.399   2.584   3.902  0.8150  3.0710  1.0687
 2569SOL     OW19165   4.282   1.634   6.131 -0.1966  0.1935 -0.6115
 2569SOL    HW119166   4.369   1.675   6.139  1.0145 -2.1764 -1.5736
 2569SOL    HW219167   4.282   1.624   6.035  2.3148 -1.4174 -0.4326
 2570SOL     OW19168   0.029   3.862   8.960  0.2165 -0.1700 -0.5069
 2570SOL    HW119169   0.095   3.797   8.936  1.2928  1.2602 -1.4959
 2570SOL    HW219170   0.002   3.846   9.050  0.4743  1.2275 -0.1825
 2571SOL     OW19171   1.827   1.182   6.223 -0.2140  0.4817  0.4562
 2571SOL    HW119172   1.803   1.258   6.277  1.5840  0.0569  1.8445
 2571SOL    HW219173   1.805   1.110   6.282  1.3531 -0.3606 -0.0083
 2572SOL     OW19174   1.317   0.647  15.880 -0.3236  0.0034  0.1472
 2572SOL    HW119175   1.405   0.669  15.851 -0.0289 -0.6845  0.5377
 2572SOL    HW219176   1.319   0.691  15.965 -1.1287 -0.7851  0.5766
 2573SOL     OW19177   4.290   3.058   5.481 -0.4083  0.2942 -0.2525
 2573SOL    HW119178   4.201   3.091   5.490 -0.3948  0.0482  0.7728
 2573SOL    HW219179   4.341   3.139   5.480 -1.5017  1.0418  3.5572
 2574SOL     OW19180   2.784   2.192   2.811  0.5073  0.2680 -0.3423
 2574SOL    HW119181   2.772   2.276   2.855  0.1213  0.2768 -0.4662
 2574SOL    HW219182   2.697   2.185   2.773  0.6670  0.4621 -0.7511
 2575SOL     OW19183   3.918   2.900   4.373 -0.2928 -0.2551 -0.4095
 2575SOL    HW119184   3.949   2.857   4.294 -0.1479 -0.2281 -0.3668
 2575SOL    HW219185   3.849   2.839   4.401 -3.1732  2.1674 -2.2759
 2576SOL     OW19186   3.753   2.687   5.337  0.5068 -0.3008  0.3113
 2576SOL    HW119187   3.782   2.647   5.419  0.6246 -0.8048  0.0204
 2576SOL    HW219188   3.722   2.772   5.369  1.3975  1.4627 -3.5253
 2577SOL     OW19189   2.115   0.203  12.385 -0.0246  0.6329 -0.2985
 2577SOL    HW119190   2.147   0.185  12.296 -0.5874  0.0357 -0.3810
 2577SOL    HW219191   2.037   0.259  12.375  1.3824  2.6166 -0.0729
 2578SOL     OW19192   4.671   4.403   9.796  0.1182 -0.6190 -0.1253
 2578SOL    HW119193   4.692   4.496   9.783  0.4447 -1.1706 -3.5066
 2578SOL    HW219194   4.703   4.393   9.885 -1.5877 -2.1099  0.3248
 2579SOL     OW19195   2.240   4.232   2.589 -0.6735 -0.0911 -0.0974
 2579SOL    HW119196   2.288   4.155   2.558 -0.9275 -0.9320  1.5959
 2579SOL    HW219197   2.314   4.292   2.589  0.0726 -1.0023 -0.0522
 2580SOL     OW19198   0.190   3.801   3.265 -0.0935  0.0069 -0.7221
 2580SOL    HW119199   0.236   3.721   3.290 -1.4912 -0.1638  1.2511
 2580SOL    HW219200   0.183   3.840   3.352 -1.2107 -1.1463 -0.2859
 2581SOL     OW19201   1.599   2.507   8.107 -0.0444 -0.5221  0.4347
 2581SOL    HW119202   1.574   2.548   8.190 -0.9408 -0.5327  0.1647
 2581SOL    HW219203   1.518   2.510   8.057  0.8664  1.8119 -0.9107
 2582SOL     OW19204   2.256   1.153   3.357 -0.5707  0.2537 -0.5997
 2582SOL    HW119205   2.252   1.213   3.283  0.8954  0.6516 -0.3551
 2582SOL    HW219206   2.264   1.209   3.434  1.0676 -0.9261  0.0956
 2583SOL     OW19207   0.073   1.997  17.540 -0.1983  0.2182  0.0814
 2583SOL    HW119208   4.704   1.977  17.555 -0.4281  0.3013 -1.2256
 2583SOL    HW219209   0.087   1.954  17.456 -1.3648  0.3496 -0.1739
 2584SOL     OW19210   2.430   2.583  15.375  0.0304  0.3814 -0.0150
 2584SOL    HW119211   2.348   2.549  15.339 -0.3944  1.8132 -0.4322
 2584SOL    HW219212   2.461   2.633  15.299 -0.0480  0.8796  0.2785
 2585SOL     OW19213   0.277   2.986  11.744 -0.4791 -1.0060 -0.2035
 2585SOL    HW119214   0.363   3.027  11.736 -0.5536 -0.4253  2.1570
 2585SOL    HW219215   0.291   2.915  11.807  0.2788  0.8835  1.7581
 2586SOL     OW19216   4.136   0.121  13.890  0.5093 -0.2131  0.1777
 2586SOL    HW119217   4.154   0.200  13.942  1.5598  1.1826 -2.2968
 2586SOL    HW219218   4.090   0.152  13.812  0.5241 -0.4241  0.0865
 2587SOL     OW19219   2.672   3.278   4.730  0.4706  0.2238 -0.8216
 2587SOL    HW119220   2.748   3.275   4.787 -1.9750 -2.4677  2.2758
 2587SOL    HW219221   2.644   3.367   4.749 -1.7563 -0.5430 -0.4827
 2588SOL     OW19222   0.192   0.319   1.191  0.4993 -0.0794  0.1378
 2588SOL    HW119223   0.171   0.226   1.190  2.5901 -0.5625  1.2318
 2588SOL    HW219224   0.103   0.354   1.193 -0.3159 -2.0524 -1.8524
 2589SOL     OW19225   1.924   1.961   5.574  0.3720  0.3590 -0.4117
 2589SOL    HW119226   1.943   2.046   5.614 -1.1949 -0.0045  1.1345
 2589SOL    HW219227   1.828   1.962   5.573  0.3501  0.3274  1.3089
 2590SOL     OW19228   0.236   4.253   5.839 -0.4679 -0.1485  0.2312
 2590SOL    HW119229   0.151   4.229   5.877 -0.9751  3.1234  1.1819
 2590SOL    HW219230   0.275   4.166   5.832  0.5366  0.3299 -0.0117
 2591SOL     OW19231   4.487   1.954   6.873  0.4462 -0.2529  0.1335
 2591SOL    HW119232   4.572   1.990   6.847  0.0065 -1.1997 -2.6260
 2591SOL    HW219233   4.450   1.930   6.788 -1.2203  0.7653  0.5781
 2592SOL     OW19234   2.479   2.639   5.242  0.6485  0.1603  0.2163
 2592SOL    HW119235   2.406   2.607   5.188  1.6135  1.2598 -1.7272
 2592SOL    HW219236   2.534   2.564   5.221  1.4457  1.3787 -2.0757
 2593SOL     OW19237   2.156   2.445   0.840  0.7044 -0.0255  0.0724
 2593SOL    HW119238   2.087   2.488   0.891 -0.6244 -2.1216  0.0352
 2593SOL    HW219239   2.104   2.450   0.760  0.0260  0.2908  0.5311
 2594SOL     OW19240   3.939   1.141   4.872  0.6216  0.0706  0.3001
 2594SOL    HW119241   3.863   1.199   4.871 -1.5336 -2.7547 -0.8372
 2594SOL    HW219242   4.003   1.208   4.848  2.3169 -1.6556  0.0063
 2595SOL     OW19243   2.720   0.071   2.050 -0.0051 -0.3689  0.2098
 2595SOL    HW119244   2.646   0.131   2.062 -0.8240 -1.1696 -0.8778
 2595SOL    HW219245   2.785   0.098   2.116 -1.4905 -0.0662  1.5620
 2596SOL     OW19246   4.104   4.058  11.806  0.6022 -0.1856  0.1657
 2596SOL    HW119247   4.106   4.080  11.713 -1.3994 -1.1663 -0.1037
 2596SOL    HW219248   4.170   3.988  11.812 -1.4159 -2.0150  0.8912
 2597SOL     OW19249   3.923   3.111  11.412 -0.3489  0.1617 -0.1880
 2597SOL    HW119250   3.972   3.100  11.494 -1.4555  0.5422  0.5287
 2597SOL    HW219251   3.844   3.145  11.454  0.1993 -0.0974  1.0585
 2598SOL     OW19252   0.455   4.112  12.491  0.3859 -0.1473  0.9830
 2598SOL    HW119253   0.454   4.098  12.586 -0.8019  0.0952  1.0050
 2598SOL    HW219254   0.496   4.198  12.487 -0.2172  0.0778 -0.4573
 2599SOL     OW19255   1.326   4.120   6.082  0.6664 -0.2579 -0.3433
 2599SOL    HW119256   1.415   4.107   6.115  0.4607 -1.0518 -0.1107
 2599SOL    HW219257   1.288   4.172   6.153  0.4813 -2.0010  0.8236
 2600SOL     OW19258   4.396   4.084   7.271  0.0356 -0.0799  0.3365
 2600SOL    HW119259   4.315   4.106   7.318  0.5645 -1.4502  1.8732
 2600SOL    HW219260   4.380   3.990   7.262 -0.6020  0.0150  0.4876
 2601SOL     OW19261   3.345   1.108   5.107  0.1496 -0.8675 -0.3523
 2601SOL    HW119262   3.309   1.046   5.171 -0.0387  0.3407  0.7133
 2601SOL    HW219263   3.434   1.109   5.143 -0.0341 -0.4368  0.0865
 2602SOL     OW19264   2.789   1.581   0.858 -0.0015  0.1621 -0.3122
 2602SOL    HW119265   2.857   1.648   0.851 -1.0176  1.4608  2.4820
 2602SOL    HW219266   2.714   1.637   0.842  0.6391  1.0222 -0.3133
 2603SOL     OW19267   3.841   0.282   0.599  0.0089  0.0971  0.3970
 2603SOL    HW119268   3.821   0.333   0.678 -1.1532 -1.0551  0.8468
 2603SOL    HW219269   3.857   0.192   0.628 -0.0633  0.5912  1.9728
 2604SOL     OW19270   3.357   3.737  14.112  0.5118 -0.2079  0.3732
 2604SOL    HW119271   3.337   3.782  14.029  1.6554  0.2537  0.3549
 2604SOL    HW219272   3.447   3.763  14.131  0.7172 -0.0610 -0.7901
 2605SOL     OW19273   4.227   3.579   2.627 -0.4298  0.4334 -0.0585
 2605SOL    HW119274   4.162   3.562   2.559 -2.2342  1.4128  1.4186
 2605SOL    HW219275   4.229   3.488   2.657 -0.5790  0.0402 -1.2623
 2606SOL     OW19276   3.694   2.844   1.993  0.0035 -0.1378 -0.4007
 2606SOL    HW119277   3.706   2.894   2.073 -1.8656 -0.1073 -0.1493
 2606SOL    HW219278   3.744   2.895   1.929 -0.0453 -1.5756 -1.5987
 2607SOL     OW19279   4.197   3.664   6.676  0.4365 -0.0300  0.2643
 2607SOL    HW119280   4.148   3.679   6.596  2.5419 -0.3004 -1.0785
 2607SOL    HW219281   4.264   3.608   6.637  2.3028  0.5857  2.5735
 2608SOL     OW19282   2.179   0.131   5.300 -0.1648 -0.4743  0.1839
 2608SOL    HW119283   2.237   0.094   5.233  3.9978  3.0313  1.8768
 2608SOL    HW219284   2.112   0.158   5.237  0.7255 -2.7193 -1.7637
 2609SOL     OW19285   4.549   4.708   5.466 -0.0252  0.3516 -0.3963
 2609SOL    HW119286   4.635   0.025   5.450 -0.0626  0.0769 -1.3243
 2609SOL    HW219287   4.512   0.001   5.379  0.1077  0.3439 -0.4546
 2610SOL     OW19288   3.522   0.814   7.289  0.0589  0.3193 -0.2729
 2610SOL    HW119289   3.556   0.893   7.333  0.7032 -0.4498  0.6246
 2610SOL    HW219290   3.599   0.757   7.285  0.9121  1.5031 -0.6522
 2611SOL     OW19291   1.353   3.476   3.357 -0.1952  0.0372  0.1176
 2611SOL    HW119292   1.274   3.461   3.409 -1.0619 -0.2101 -1.2912
 2611SOL    HW219293   1.371   3.567   3.382 -0.0564  0.2371 -0.7254
 2612SOL     OW19294   2.076   0.661  10.103 -0.8869  0.1105 -0.1832
 2612SOL    HW119295   2.116   0.685  10.187  0.4373  2.0217 -1.3722
 2612SOL    HW219296   2.060   0.568  10.118  0.7238  0.3715  3.3244
 2613SOL     OW19297   3.843   0.692  16.865 -0.0058 -0.1241 -0.2076
 2613SOL    HW119298   3.813   0.766  16.917  0.1985  0.2177 -0.5730
 2613SOL    HW219299   3.928   0.729  16.842  0.3126 -1.3142 -0.9400
 2614SOL     OW19300   3.167   0.879  12.492  0.1078  0.1677  0.8216
 2614SOL    HW119301   3.216   0.913  12.417  1.1698 -0.7095  1.1124
 2614SOL    HW219302   3.184   0.945  12.558  0.2345 -1.4163  2.3714
 2615SOL     OW19303   3.054   0.518   4.061  0.0338 -1.1780  0.0456
 2615SOL    HW119304   3.081   0.481   3.977  0.1470 -0.2159 -0.3503
 2615SOL    HW219305   2.981   0.470   4.100  0.7900 -1.8726  0.5966
 2616SOL     OW19306   2.133   0.793   7.441 -0.1990  0.1457  0.1478
 2616SOL    HW119307   2.045   0.796   7.403 -0.7362 -1.4806  1.2719
 2616SOL    HW219308   2.118   0.830   7.528 -0.4198  1.0595 -0.2767
 2617SOL     OW19309   2.109   0.054   0.608 -0.0159 -0.2892  0.1575
 2617SOL    HW119310   2.202   0.037   0.623  0.8521  2.1633 -2.5106
 2617SOL    HW219311   2.116   0.056   0.513 -0.5913 -1.8478  0.0725
 2618SOL     OW19312   1.524   0.864   3.667 -0.0271  0.2814 -0.0862
 2618SOL    HW119313   1.599   0.920   3.689 -0.7814 -0.4858  4.4520
 2618SOL    HW219314   1.516   0.815   3.749  2.6001 -0.9685 -0.5898
 2619SOL     OW19315   3.077   2.339   6.383  1.5832  0.3043  0.0039
 2619SOL    HW119316   3.075   2.250   6.350 -1.0693  0.0448  0.8911
 2619SOL    HW219317   3.037   2.324   6.468 -0.3449  1.1808 -0.7556
 2620SOL     OW19318   1.019   0.967  12.994 -0.0108 -0.0653 -0.2327
 2620SOL    HW119319   0.927   0.941  12.990 -0.3595  1.2466 -1.0366
 2620SOL    HW219320   1.027   1.021  13.073  1.4994 -1.7504  0.7541
 2621SOL     OW19321   0.280   3.785  15.582 -0.2443 -0.6324  0.4529
 2621SOL    HW119322   0.207   3.812  15.638 -0.4548  1.5485 -0.8666
 2621SOL    HW219323   0.279   3.867  15.533 -3.2685 -0.7696  0.2927
 2622SOL     OW19324   0.899   2.783   3.889 -0.6673  0.0480  0.4431
 2622SOL    HW119325   0.902   2.870   3.849  0.7719 -0.5298 -0.7209
 2622SOL    HW219326   0.990   2.762   3.911 -0.0902  0.8439 -1.1779
 2623SOL     OW19327   0.343   0.359  13.477 -0.7314  0.3585 -0.0469
 2623SOL    HW119328   0.394   0.295  13.428  0.6936  0.8405  0.8038
 2623SOL    HW219329   0.310   0.311  13.553 -0.0158  0.1652  0.1359
 2624SOL     OW19330   2.002   1.880  16.911 -0.1422  0.4516  0.5080
 2624SOL    HW119331   2.079   1.893  16.966 -0.6279  0.5592  1.1521
 2624SOL    HW219332   2.030   1.941  16.841  2.3145 -2.0179 -0.6801
 2625SOL     OW19333   4.286   4.289   7.009  0.2584 -0.1768 -0.2052
 2625SOL    HW119334   4.362   4.232   7.023  0.9415  0.6704 -0.4615
 2625SOL    HW219335   4.219   4.254   7.067 -2.0530  3.3913 -0.7207
 2626SOL     OW19336   1.412   1.265   1.519 -0.2660 -0.0289 -0.2209
 2626SOL    HW119337   1.470   1.222   1.582 -0.0930 -0.2371 -0.5199
 2626SOL    HW219338   1.407   1.195   1.453  2.6688  0.9616 -1.4876
 2627SOL     OW19339   2.767   4.285   3.246  0.3732 -0.3522 -0.4498
 2627SOL    HW119340   2.720   4.255   3.325 -1.0319  0.4137 -0.9951
 2627SOL    HW219341   2.729   4.227   3.180  1.8697 -1.0823 -0.6495
 2628SOL     OW19342   4.017   0.766   7.728 -0.1851 -0.3912 -0.2506
 2628SOL    HW119343   4.109   0.754   7.705  0.1551  2.1970 -0.1947
 2628SOL    HW219344   3.987   0.844   7.683  1.6617 -0.3931 -1.4882
 2629SOL     OW19345   3.450   2.482  16.563 -0.2156  0.1206  0.3864
 2629SOL    HW119346   3.397   2.479  16.483 -0.3203 -0.0342  0.4619
 2629SOL    HW219347   3.491   2.568  16.553  0.0125 -0.1695 -1.1483
 2630SOL     OW19348   0.477   2.916   5.262  0.1754  0.4380 -0.3581
 2630SOL    HW119349   0.391   2.954   5.276 -0.3149 -0.8700  0.1751
 2630SOL    HW219350   0.518   2.986   5.211  1.2564 -0.1722 -0.3435
 2631SOL     OW19351   1.694   1.232  15.004 -0.0100  0.0955 -0.7437
 2631SOL    HW119352   1.703   1.295  14.932 -0.0102 -1.4787 -2.1187
 2631SOL    HW219353   1.779   1.238  15.046 -0.0801 -0.3220 -0.5470
 2632SOL     OW19354   1.017   2.188   0.454 -0.3309  0.8516  0.0648
 2632SOL    HW119355   0.921   2.198   0.454 -0.3862  0.2915 -1.0907
 2632SOL    HW219356   1.030   2.124   0.524 -0.9101 -0.5814 -1.1196
 2633SOL     OW19357   3.044   4.444   8.780  0.3255 -0.2844  0.2531
 2633SOL    HW119358   3.035   4.391   8.701 -0.0318 -1.8938  1.3701
 2633SOL    HW219359   3.139   4.444   8.792  0.6895 -2.5740 -2.4943
 2634SOL     OW19360   2.912   1.035   6.782 -0.1729  0.0431 -0.0932
 2634SOL    HW119361   2.965   1.028   6.861 -0.4823  1.9859  0.2927
 2634SOL    HW219362   2.828   1.012   6.822 -1.3824  1.8357 -1.6295
 2635SOL     OW19363   0.719   1.790  11.371  0.3600 -0.3722 -0.4288
 2635SOL    HW119364   0.721   1.879  11.405 -0.1751 -1.1192  1.5442
 2635SOL    HW219365   0.813   1.769  11.373  0.5408  0.4801  0.2459
 2636SOL     OW19366   0.251   1.921   6.215  0.1288  0.0791  0.6287
 2636SOL    HW119367   0.224   1.895   6.304 -0.2479  0.2993  0.5780
 2636SOL    HW219368   0.337   1.958   6.235 -0.2513  1.0624  0.4451
 2637SOL     OW19369   2.459   4.554  12.149  0.2010 -0.4334 -0.9498
 2637SOL    HW119370   2.384   4.497  12.132 -0.6654  0.7389 -1.1262
 2637SOL    HW219371   2.432   4.590  12.234  0.4896  1.4254 -1.6403
 2638SOL     OW19372   4.273   1.648  16.553  0.4308  0.3404  0.6818
 2638SOL    HW119373   4.311   1.591  16.619  1.5120 -0.4578 -0.6480
 2638SOL    HW219374   4.248   1.726  16.604 -0.3280  0.5474 -0.0078
 2639SOL     OW19375   2.187   2.141   4.662 -0.0107 -0.6806 -0.0023
 2639SOL    HW119376   2.271   2.156   4.618  0.7053 -1.5670  1.0704
 2639SOL    HW219377   2.187   2.192   4.743  1.4678 -0.8697  0.1185
 2640SOL     OW19378   4.714   4.587  15.040  0.0940 -0.4103  0.3898
 2640SOL    HW119379   4.713   4.681  15.021  1.3288 -0.4089  0.3149
 2640SOL    HW219380   4.713   4.545  14.954  2.8582  0.7795 -0.2178
 2641SOL     OW19381   4.037   4.109   8.882 -0.2905  0.5477 -0.5046
 2641SOL    HW119382   4.107   4.066   8.931  1.0759  1.5507 -1.5854
 2641SOL    HW219383   4.027   4.193   8.928  1.3451  0.2472  0.4043
 2642SOL     OW19384   0.085   4.614   7.946  0.3071  0.2891  0.1123
 2642SOL    HW119385   0.094   4.661   8.029 -1.1340 -0.1430  0.5162
 2642SOL    HW219386   0.173   4.607   7.911 -0.3221 -1.5231 -1.0997
 2643SOL     OW19387   3.086   0.160   5.621  0.2262 -0.3119 -0.1803
 2643SOL    HW119388   3.030   0.211   5.563 -0.0032 -1.1300 -0.6921
 2643SOL    HW219389   3.039   0.164   5.704 -1.4519  1.0208 -1.2039
 2644SOL     OW19390   0.782   4.002   1.662  0.4308  0.0913 -0.1432
 2644SOL    HW119391   0.692   3.969   1.662  0.4706 -0.0344 -1.8442
 2644SOL    HW219392   0.826   3.919   1.644 -0.1712 -0.6880  1.9097
 2645SOL     OW19393   4.542   0.570   8.748  0.0697 -0.3324  0.3843
 2645SOL    HW119394   4.580   0.533   8.668  1.4658 -1.5156  1.6036
 2645SOL    HW219395   4.612   0.634   8.760 -0.1818 -0.2498  1.4266
 2646SOL     OW19396   2.806   1.353  17.464  0.1767  0.2398 -0.1978
 2646SOL    HW119397   2.761   1.269  17.458  1.3443 -0.4007  0.0021
 2646SOL    HW219398   2.898   1.327  17.455  0.7959  1.5124  2.5355
 2647SOL     OW19399   4.502   1.420  11.681 -1.0596  0.1261  0.0469
 2647SOL    HW119400   4.592   1.387  11.686 -2.0468 -2.7095 -1.4424
 2647SOL    HW219401   4.477   1.426  11.773 -0.0505  0.3150  0.3096
 2648SOL     OW19402   0.009   3.233   8.703 -0.1595  0.4004  0.1489
 2648SOL    HW119403   4.696   3.154   8.662 -0.4524  0.5809  0.0620
 2648SOL    HW219404   4.653   3.259   8.750 -0.6869  1.2477 -1.2116
 2649SOL     OW19405   3.702   2.411   5.075 -0.1041 -0.2947  0.1383
 2649SOL    HW119406   3.675   2.485   5.020  0.1183  0.8889  1.6394
 2649SOL    HW219407   3.679   2.441   5.162 -1.0749 -1.5423  0.3092
 2650SOL     OW19408   1.615   4.254   4.670  0.0233 -0.1544 -0.4654
 2650SOL    HW119409   1.674   4.185   4.638 -0.8546 -0.8228 -0.6633
 2650SOL    HW219410   1.640   4.331   4.618 -0.7013 -0.4207 -1.2236
 2651SOL     OW19411   4.540   0.261   8.164  0.1834  0.4783  0.4856
 2651SOL    HW119412   4.455   0.227   8.195  1.8465 -2.8433  1.4533
 2651SOL    HW219413   4.598   0.240   8.238  1.5139  0.1172 -0.6618
 2652SOL     OW19414   3.827   2.666   0.976  0.1418  0.4484 -0.2730
 2652SOL    HW119415   3.833   2.572   0.957  1.9008  0.7363 -1.1139
 2652SOL    HW219416   3.913   2.700   0.951 -0.0736  0.6739 -0.6965
 2653SOL     OW19417   1.685   2.241   7.975 -0.1607 -0.1367  0.2708
 2653SOL    HW119418   1.637   2.311   8.020 -2.1235 -1.8227  0.8005
 2653SOL    HW219419   1.705   2.286   7.893 -1.4290  1.8242  1.0415
 2654SOL     OW19420   1.486   2.281   8.648 -0.3688 -0.0638  0.3870
 2654SOL    HW119421   1.535   2.356   8.682  1.4535 -1.7228  1.4461
 2654SOL    HW219422   1.433   2.271   8.727 -0.7219  0.3649  0.2061
 2655SOL     OW19423   3.883   3.919   8.552 -0.0828 -0.2230 -0.2440
 2655SOL    HW119424   3.956   3.896   8.611 -1.1975 -1.6556  0.5727
 2655SOL    HW219425   3.926   3.884   8.474 -0.2647 -0.5661 -0.1914
 2656SOL     OW19426   4.144   3.101   9.306 -0.0362 -0.3760 -0.1042
 2656SOL    HW119427   4.131   3.035   9.373 -0.7685 -0.7227 -0.5891
 2656SOL    HW219428   4.089   3.077   9.231 -1.8404  0.6461  0.9010
 2657SOL     OW19429   4.071   1.862   9.103 -0.0546 -0.0901 -0.2665
 2657SOL    HW119430   4.127   1.822   9.037 -1.1560  1.7739 -2.3125
 2657SOL    HW219431   4.001   1.798   9.089 -0.7597  0.1930  1.9748
 2658SOL     OW19432   0.011   3.930   7.026  0.0475  1.3309 -0.0805
 2658SOL    HW119433   0.044   3.976   6.949  0.5195  0.7981 -0.1944
 2658SOL    HW219434   4.701   3.851   6.982 -0.1747  0.9748  0.7306
 2659SOL     OW19435   0.014   2.983  10.280  0.3422  0.0265  0.3748
 2659SOL    HW119436   4.667   3.041  10.250 -1.0464 -1.4396  0.7655
 2659SOL    HW219437   0.005   2.994  10.374 -0.3205 -0.4007  0.3588
 2660SOL     OW19438   1.517   0.460  17.427 -0.0107 -0.3514 -0.0130
 2660SOL    HW119439   1.452   0.398  17.395 -0.6693  0.0287  0.5878
 2660SOL    HW219440   1.590   0.443  17.367  0.7831 -0.0551  0.8566
 2661SOL     OW19441   1.757   4.039   8.232 -0.3518 -0.3647 -0.3646
 2661SOL    HW119442   1.670   4.057   8.195 -0.7529 -0.6217  0.4644
 2661SOL    HW219443   1.774   4.123   8.275 -1.4384  0.5256 -1.6701
 2662SOL     OW19444   1.988   3.033   2.099 -0.5100 -0.2394  0.3676
 2662SOL    HW119445   2.015   3.113   2.054 -4.0708 -0.3702 -1.9346
 2662SOL    HW219446   1.905   3.056   2.140 -0.6049 -0.7577  0.4628
 2663SOL     OW19447   1.761   4.075   7.174  0.2922 -0.1562 -0.1325
 2663SOL    HW119448   1.856   4.068   7.181  0.1601 -1.0228  0.7701
 2663SOL    HW219449   1.757   4.134   7.099  2.1901 -0.6145 -0.6078
 2664SOL     OW19450   0.911   1.908   7.178 -0.4118  0.6011  0.4871
 2664SOL    HW119451   0.857   1.972   7.223  0.8050  1.3836  0.8351
 2664SOL    HW219452   0.845   1.845   7.148 -0.4417  0.0306  1.7529
 2665SOL     OW19453   0.012   3.587   8.288  0.2771 -0.7613 -0.1929
 2665SOL    HW119454   4.677   3.522   8.250  0.3938 -1.5933  1.0362
 2665SOL    HW219455   4.721   3.571   8.382  1.9257  1.5161  0.4340
 2666SOL     OW19456   1.997   3.423   5.894 -0.0900  0.3263 -0.3951
 2666SOL    HW119457   1.944   3.383   5.963  1.3599 -1.4641 -0.3363
 2666SOL    HW219458   1.987   3.364   5.820 -3.4575  1.1176 -0.5936
 2667SOL     OW19459   1.421   4.381  16.334  0.0688  0.2047  0.7711
 2667SOL    HW119460   1.433   4.286  16.337  1.6468  0.3721 -0.1698
 2667SOL    HW219461   1.513   4.406  16.333  0.0104  0.3470 -0.7306
 2668SOL     OW19462   4.462   0.530   8.192  0.4920  0.1277 -0.2665
 2668SOL    HW119463   4.417   0.513   8.110  0.2362  1.7427 -0.4660
 2668SOL    HW219464   4.522   0.456   8.187 -0.6474 -0.9675  2.0447
 2669SOL     OW19465   0.251   3.703  15.275 -0.7619 -0.3463  0.0282
 2669SOL    HW119466   0.296   3.728  15.194  0.8093 -1.5783  0.5454
 2669SOL    HW219467   0.319   3.641  15.301  0.4289  0.7410 -0.4764
 2670SOL     OW19468   4.657   2.566   2.775  0.1586 -0.1912 -0.2658
 2670SOL    HW119469   4.691   2.483   2.807  1.7320  0.8785  0.8521
 2670SOL    HW219470   4.564   2.544   2.782  0.1605 -0.1472 -0.1084
 2671SOL     OW19471   2.053   0.023   3.920  0.2268  0.6668  0.2071
 2671SOL    HW119472   2.054   4.658   3.957 -0.1918  0.3184 -0.6146
 2671SOL    HW219473   1.979   0.064   3.963  1.0723  0.5994  1.7326
 2672SOL     OW19474   1.335   0.568   1.169  0.3059  0.2756  0.6169
 2672SOL    HW119475   1.369   0.568   1.258 -0.8225  0.2257  1.0320
 2672SOL    HW219476   1.253   0.520   1.174  1.1686 -1.1877  0.7954
 2673SOL     OW19477   3.268   3.913  15.436 -0.1835  0.4592 -0.1263
 2673SOL    HW119478   3.220   3.995  15.427 -1.9980 -0.8559 -2.2700
 2673SOL    HW219479   3.276   3.900  15.531  0.5340 -1.3319 -0.4259
 2674SOL     OW19480   3.921   4.492   9.629  0.2691  0.0442  0.3784
 2674SOL    HW119481   3.852   4.555   9.649  0.3018  0.1221  0.2456
 2674SOL    HW219482   3.941   4.464   9.719 -0.7701  1.7587  1.1388
 2675SOL     OW19483   0.074   3.882   4.537 -0.1169  0.3519  0.0484
 2675SOL    HW119484   0.165   3.893   4.508  0.3117 -0.8252  0.9520
 2675SOL    HW219485   0.025   3.920   4.464 -1.4353 -1.4586 -0.0236
 2676SOL     OW19486   0.155   1.596   8.419 -0.2709  0.8348 -0.2708
 2676SOL    HW119487   0.221   1.580   8.352 -1.0867  0.0114 -0.8858
 2676SOL    HW219488   0.205   1.650   8.480  2.3414 -0.7811 -0.9371
 2677SOL     OW19489   0.619   1.297   2.835  0.4822 -0.1295 -0.3738
 2677SOL    HW119490   0.634   1.370   2.774  1.0004 -0.5885 -0.7928
 2677SOL    HW219491   0.558   1.342   2.894  0.8437 -1.5000  1.0305
 2678SOL     OW19492   0.650   0.359  12.601 -0.3199  0.1367  0.1858
 2678SOL    HW119493   0.580   0.419  12.627 -0.6436 -0.6395  1.1243
 2678SOL    HW219494   0.608   0.321  12.524 -0.3915  1.0658 -0.2397
 2679SOL     OW19495   3.333   0.545  10.483 -0.1966  0.3379  0.6568
 2679SOL    HW119496   3.250   0.501  10.498 -0.4651  1.3183  2.0916
 2679SOL    HW219497   3.345   0.573  10.574 -3.8539  0.3683  1.1234
 2680SOL     OW19498   4.705   0.472   5.666 -0.0688 -0.0911  0.1641
 2680SOL    HW119499   0.023   0.557   5.685 -0.1863  0.0298 -0.1338
 2680SOL    HW219500   4.652   0.466   5.746 -2.6781 -1.6012 -1.7016
 2681SOL     OW19501   3.127   1.641  17.111  0.3209 -0.0994 -0.4477
 2681SOL    HW119502   3.153   1.595  17.191 -1.8117 -0.7490 -0.1293
 2681SOL    HW219503   3.132   1.567  17.050  2.4386 -1.9170  1.9330
 2682SOL     OW19504   1.365   0.240  16.972 -0.5089  0.0495  0.4293
 2682SOL    HW119505   1.350   0.153  17.008 -0.4175 -0.4336 -0.7139
 2682SOL    HW219506   1.458   0.262  16.974 -0.2240 -0.9139 -2.6845
 2683SOL     OW19507   1.793   0.801   2.091  0.0911  0.0261 -0.0377
 2683SOL    HW119508   1.773   0.777   2.181  3.1338 -1.6137  0.2056
 2683SOL    HW219509   1.753   0.884   2.066 -0.8451 -0.3113  0.3479
 2684SOL     OW19510   2.676   2.899   0.530  0.0547 -0.0316  0.1596
 2684SOL    HW119511   2.663   2.817   0.578 -0.9489 -0.8139 -1.4222
 2684SOL    HW219512   2.621   2.872   0.456  1.0784  0.6475 -0.8398
 2685SOL     OW19513   3.333   2.878   6.191  0.1111 -0.1282 -0.6911
 2685SOL    HW119514   3.385   2.800   6.211 -0.1228  0.1112  0.8510
 2685SOL    HW219515   3.244   2.844   6.197  0.3721 -0.4964  1.0170
 2686SOL     OW19516   4.576   1.648   8.145  1.0068  0.1130  0.4433
 2686SOL    HW119517   4.529   1.599   8.214 -0.8245 -0.9268 -1.5357
 2686SOL    HW219518   4.609   1.576   8.093  2.0535  1.5148 -0.8072
 2687SOL     OW19519   1.539   1.120  13.654  0.0006  0.0245  0.1200
 2687SOL    HW119520   1.507   1.098  13.741  0.6970  0.0195  0.3744
 2687SOL    HW219521   1.585   1.203  13.670  0.5000 -0.0952 -0.6986
 2688SOL     OW19522   1.588   0.332   0.410  0.7713 -0.4524 -0.4010
 2688SOL    HW119523   1.510   0.322   0.356  0.8755  0.2376 -0.6774
 2688SOL    HW219524   1.628   0.416   0.387 -1.1313  0.2653 -1.1266
 2689SOL     OW19525   2.526   3.279   2.228 -0.3185 -0.4388 -0.0193
 2689SOL    HW119526   2.529   3.374   2.222  0.1872 -0.4223  0.5381
 2689SOL    HW219527   2.575   3.259   2.308 -0.6940 -1.0258  0.0616
 2690SOL     OW19528   1.211   2.082   2.596  0.1077 -0.0313 -0.4608
 2690SOL    HW119529   1.289   2.136   2.609  0.4472 -1.4668  3.5813
 2690SOL    HW219530   1.227   2.054   2.506  3.8332 -0.3951  0.3347
 2691SOL     OW19531   1.993   2.690   1.592  0.1190  0.5837 -0.8422
 2691SOL    HW119532   2.064   2.753   1.577  0.4527  0.5550  0.6346
 2691SOL    HW219533   1.914   2.739   1.574 -0.5611 -0.0191  0.5160
 2692SOL     OW19534   0.419   2.580   3.525 -0.1016  0.3599  0.1233
 2692SOL    HW119535   0.358   2.586   3.598  1.7206  2.0214  1.4836
 2692SOL    HW219536   0.494   2.627   3.560  1.4944 -2.2853  0.2210
 2693SOL     OW19537   2.259   2.868  17.033  0.4332  0.5886 -0.3723
 2693SOL    HW119538   2.274   2.949  16.983 -2.4992  2.3252  1.5329
 2693SOL    HW219539   2.345   2.848  17.070  0.1117  1.9009  1.0906
 2694SOL     OW19540   4.441   2.487   6.624 -0.1596  0.3162  0.6244
 2694SOL    HW119541   4.443   2.494   6.720  2.4926 -1.2623  0.6978
 2694SOL    HW219542   4.533   2.463   6.608 -0.1884  0.1502  0.7080
 2695SOL     OW19543   4.522   3.576   4.714  0.4351  0.4459 -0.0848
 2695SOL    HW119544   4.509   3.608   4.625 -1.4319 -1.4339 -0.4833
 2695SOL    HW219545   4.563   3.491   4.699 -1.1426  0.1315 -2.7146
 2696SOL     OW19546   3.536   2.023   8.962 -0.5041  0.2334 -0.1371
 2696SOL    HW119547   3.454   2.073   8.966 -0.0086  1.0077  0.4011
 2696SOL    HW219548   3.520   1.943   8.913  0.9649  1.4135 -2.5887
 2697SOL     OW19549   1.813   2.491   2.003 -0.0744  0.3921 -0.6693
 2697SOL    HW119550   1.824   2.586   1.995 -0.3647  0.3629 -1.3798
 2697SOL    HW219551   1.867   2.467   1.927  1.9262  3.1668 -0.1494
 2698SOL     OW19552   0.067   2.336  12.270 -0.5807  0.3106 -0.4285
 2698SOL    HW119553   0.067   2.279  12.347 -1.4351  0.4325 -0.3453
 2698SOL    HW219554   0.066   2.424  12.307 -0.5090  1.0087 -2.1038
 2699SOL     OW19555   0.236   2.635   1.666 -0.0583 -0.1821 -0.3268
 2699SOL    HW119556   0.322   2.595   1.678 -0.3318 -0.5837  0.2582
 2699SOL    HW219557   0.212   2.652   1.757  0.8574 -1.5080  0.1627
 2700SOL     OW19558   4.034   3.818   8.780  0.1905 -0.0721  0.6711
 2700SOL    HW119559   4.119   3.807   8.737 -0.4409 -2.6204  0.0967
 2700SOL    HW219560   4.066   3.851   8.863  1.6353 -1.5418  0.6988
 2701SOL     OW19561   3.156   1.404   4.221  0.5637 -0.1314  0.3008
 2701SOL    HW119562   3.092   1.465   4.259 -0.0579 -1.1639  0.9032
 2701SOL    HW219563   3.221   1.456   4.173  0.6914  0.4110  1.0545
 2702SOL     OW19564   4.274   3.777   8.623 -0.0012 -0.0981 -0.0758
 2702SOL    HW119565   4.320   3.837   8.565 -0.2308  0.7215  0.5949
 2702SOL    HW219566   4.290   3.697   8.572 -0.5051  1.0658 -2.0857
 2703SOL     OW19567   0.631   1.070   5.077  0.2033 -0.0957  0.0929
 2703SOL    HW119568   0.556   1.010   5.078 -0.3002  0.5179 -0.6440
 2703SOL    HW219569   0.585   1.148   5.105  0.8546  0.9012 -1.6081
 2704SOL     OW19570   3.208   4.712   3.550  0.1538 -0.2443  0.3545
 2704SOL    HW119571   3.148   0.058   3.523  1.7871  0.9380 -0.3023
 2704SOL    HW219572   3.249   4.700   3.464 -2.3361 -0.3878 -0.8010
 2705SOL     OW19573   1.252   2.612   3.370  0.2014 -0.3381 -0.2116
 2705SOL    HW119574   1.332   2.574   3.334 -0.1631  1.4619 -2.9596
 2705SOL    HW219575   1.286   2.693   3.407 -0.6759  0.6179 -1.5079
 2706SOL     OW19576   4.252   2.831   6.326 -0.4649  0.2449  0.4334
 2706SOL    HW119577   4.169   2.854   6.285 -0.2129 -0.0550 -0.2561
 2706SOL    HW219578   4.238   2.747   6.371 -1.1149  1.8586  3.2271
 2707SOL     OW19579   3.333   4.084  13.679 -0.3442 -0.3757  0.0403
 2707SOL    HW119580   3.369   4.165  13.715  0.1074 -1.2017  1.4197
 2707SOL    HW219581   3.417   4.047  13.654 -0.3959 -0.4638 -0.0036
 2708SOL     OW19582   4.611   2.329   2.891 -0.0990 -0.0705 -0.3001
 2708SOL    HW119583   4.612   2.367   2.979  0.7193 -1.9968  0.5162
 2708SOL    HW219584   4.521   2.308   2.870 -0.6461  1.5090  0.4131
 2709SOL     OW19585   3.435   1.642   3.777  0.8751  0.2518 -0.4558
 2709SOL    HW119586   3.423   1.639   3.683  2.8355  0.7085 -0.7183
 2709SOL    HW219587   3.354   1.597   3.801  2.3889 -0.9564  2.4044
 2710SOL     OW19588   0.506   2.363   8.526 -0.0826 -0.1129 -0.2935
 2710SOL    HW119589   0.459   2.357   8.609 -0.3162 -0.6663 -0.4684
 2710SOL    HW219590   0.466   2.294   8.473  0.8215 -0.8677  0.0217
 2711SOL     OW19591   0.192   1.063   5.305 -0.5296  0.3833  0.2209
 2711SOL    HW119592   0.172   1.154   5.327  0.4083  0.6029  0.1793
 2711SOL    HW219593   0.132   1.011   5.359 -0.0562  0.8113  1.1445
 2712SOL     OW19594   2.747   1.027   3.785  0.3389 -0.1654  0.7267
 2712SOL    HW119595   2.802   1.060   3.714  0.5715  2.5527  2.1676
 2712SOL    HW219596   2.725   0.941   3.750  1.5684  0.2868 -1.1571
 2713SOL     OW19597   3.782   4.562   7.310  0.1442 -0.0407  0.0656
 2713SOL    HW119598   3.869   4.531   7.334  0.2688 -0.3197 -0.7405
 2713SOL    HW219599   3.785   4.657   7.320 -1.4845 -0.1399  1.5460
 2714SOL     OW19600   4.116   1.884  14.543  0.1540  0.3788  0.5281
 2714SOL    HW119601   4.028   1.877  14.581 -0.1833  0.2797 -0.2599
 2714SOL    HW219602   4.140   1.794  14.565 -2.0447 -1.0549 -2.8701
 2715SOL     OW19603   1.746   3.079  12.757 -0.5468 -0.2633 -0.2532
 2715SOL    HW119604   1.802   3.058  12.832  0.4212  2.5329 -0.1702
 2715SOL    HW219605   1.796   3.149  12.713 -0.1622 -1.1405 -1.2011
 2716SOL     OW19606   3.201   0.623   9.583  0.1759 -0.7731  0.2531
 2716SOL    HW119607   3.110   0.622   9.555  0.1497  1.3337  0.2289
 2716SOL    HW219608   3.225   0.707   9.544 -0.0056 -0.8964 -0.1238
 2717SOL     OW19609   0.371   2.910   5.569  0.2908 -0.3611 -0.2020
 2717SOL    HW119610   0.448   2.864   5.603  0.2938  0.1301  0.4447
 2717SOL    HW219611   0.409   2.993   5.542 -1.0597  0.6507  0.9741
 2718SOL     OW19612   1.815   3.418   7.418 -0.4790  0.1906 -0.5221
 2718SOL    HW119613   1.818   3.362   7.340 -2.3343  0.8030 -1.0152
 2718SOL    HW219614   1.853   3.353   7.478 -0.7798  1.5668  1.1540
 2719SOL     OW19615   1.782   3.695   2.711  0.8875  0.0431  0.0818
 2719SOL    HW119616   1.809   3.726   2.798  2.9766  0.8819 -0.8820
 2719SOL    HW219617   1.861   3.666   2.665  1.5673  1.6812  0.2486
 2720SOL     OW19618   1.178   4.007   1.469  0.1169 -0.2353  0.0035
 2720SOL    HW119619   1.096   4.055   1.463 -0.7776 -1.5549  1.3995
 2720SOL    HW219620   1.167   3.952   1.547  1.1213 -2.9836 -1.8129
 2721SOL     OW19621   0.114   3.686   7.743 -0.3871  0.9271 -0.2074
 2721SOL    HW119622   0.155   3.690   7.657 -0.6191 -3.7579 -0.5633
 2721SOL    HW219623   0.107   3.590   7.750 -1.7784  1.2806  3.1580
 2722SOL     OW19624   1.439   1.907   4.958  0.2600  0.3364 -0.4271
 2722SOL    HW119625   1.444   1.998   4.986 -3.1331  0.5466 -0.4894
 2722SOL    HW219626   1.477   1.864   5.035  1.6749  0.5913 -0.9886
 2723SOL     OW19627   3.646   1.472   3.875 -0.1770 -0.4979  0.1087
 2723SOL    HW119628   3.625   1.511   3.960 -0.3468 -2.9116  1.1831
 2723SOL    HW219629   3.566   1.496   3.829  1.3242  3.7628 -0.2606
 2724SOL     OW19630   0.018   3.157   0.959 -0.1919 -0.0909  0.2763
 2724SOL    HW119631   0.053   3.104   0.887  0.0253  0.2668  0.1234
 2724SOL    HW219632   0.050   3.244   0.937  0.1696 -0.7622 -1.8520
 2725SOL     OW19633   4.655   0.427   1.185 -0.0145 -0.3230  0.7525
 2725SOL    HW119634   4.605   0.466   1.257  0.2984 -0.2653  0.9413
 2725SOL    HW219635   4.583   0.415   1.123  1.3877 -2.0520 -0.5592
 2726SOL     OW19636   3.647   3.781   2.259  0.1357 -0.4319 -0.2903
 2726SOL    HW119637   3.609   3.868   2.268  0.6191 -0.3984  1.6014
 2726SOL    HW219638   3.568   3.735   2.231 -0.0819 -0.1065 -0.2120
 2727SOL     OW19639   3.825   1.934   8.263  0.4620  0.5657 -0.4737
 2727SOL    HW119640   3.812   1.844   8.293  2.4127  0.6982  0.8119
 2727SOL    HW219641   3.912   1.954   8.299  1.1363 -2.3578 -0.4875
 2728SOL     OW19642   3.633   1.842   1.394 -0.0413 -0.4460 -0.0528
 2728SOL    HW119643   3.544   1.835   1.359 -0.1950  0.9394  0.0433
 2728SOL    HW219644   3.631   1.780   1.467 -1.7606  0.3287  0.5559
 2729SOL     OW19645   0.426   0.608  15.854 -0.6830  0.0252  0.3221
 2729SOL    HW119646   0.506   0.556  15.862  0.5894  2.0384  0.4892
 2729SOL    HW219647   0.464   0.692  15.879  1.8438 -0.9752 -0.0982
 2730SOL     OW19648   1.174   4.079   4.682  0.3350 -0.3353  0.2428
 2730SOL    HW119649   1.269   4.075   4.681  0.3929  1.3341  0.3120
 2730SOL    HW219650   1.173   4.021   4.605 -0.2236 -0.2221  0.1632
 2731SOL     OW19651   3.132   0.665  12.976 -0.5015 -0.6081 -0.4198
 2731SOL    HW119652   3.225   0.684  12.983 -0.9341  1.1491  0.7332
 2731SOL    HW219653   3.105   0.738  12.919 -1.1802 -0.7756 -0.3196
 2732SOL     OW19654   3.404   1.010   2.610  0.1554 -0.3058  0.2948
 2732SOL    HW119655   3.342   1.070   2.570 -0.4025  0.3345  2.1267
 2732SOL    HW219656   3.387   1.013   2.704  1.7218  0.2065  0.5696
 2733SOL     OW19657   0.002   4.041   4.754  0.4150 -0.0166  0.4357
 2733SOL    HW119658   0.061   3.996   4.815  0.2412 -0.4628  0.2797
 2733SOL    HW219659   0.010   3.987   4.675  0.9968  0.8584 -0.1045
 2734SOL     OW19660   2.927   0.875  14.371 -0.4987  0.0431  0.3696
 2734SOL    HW119661   2.981   0.823  14.311 -0.3124 -0.2019  0.7482
 2734SOL    HW219662   2.916   0.817  14.446  0.7295 -2.1140 -1.0987
 2735SOL     OW19663   4.323   1.266   5.771 -0.4676 -0.1199 -0.7083
 2735SOL    HW119664   4.419   1.267   5.777 -0.6328  1.0388  1.8252
 2735SOL    HW219665   4.300   1.314   5.850  1.5197 -1.6351  0.8141
 2736SOL     OW19666   0.895   2.534   7.318  0.3054  0.2495 -0.1179
 2736SOL    HW119667   0.964   2.497   7.264 -0.6785  0.1857 -1.3332
 2736SOL    HW219668   0.932   2.617   7.348 -0.2307  0.3122  0.3896
 2737SOL     OW19669   0.320   0.144   4.942  0.0177 -0.3226 -0.0608
 2737SOL    HW119670   0.375   0.222   4.952  2.6027 -2.1566  0.1671
 2737SOL    HW219671   0.343   0.115   4.853  0.9866 -0.3563  0.1927
 2738SOL     OW19672   4.079   3.079   8.521 -0.3100  0.6614 -0.1363
 2738SOL    HW119673   4.135   3.010   8.485 -0.2495 -0.4406  2.0932
 2738SOL    HW219674   4.006   3.029   8.556 -3.0928  3.9507 -1.1722
 2739SOL     OW19675   1.334   1.418   2.079  0.3724 -0.1422 -0.2271
 2739SOL    HW119676   1.332   1.514   2.076  0.6572 -0.1221  0.2204
 2739SOL    HW219677   1.388   1.398   2.155  0.7773  2.4619  0.1713
 2740SOL     OW19678   0.777   2.269   9.234 -0.3385 -0.3058 -0.4915
 2740SOL    HW119679   0.727   2.351   9.235 -0.7840 -0.5698 -1.2244
 2740SOL    HW219680   0.794   2.248   9.326  1.5167  1.6731 -0.3679
 2741SOL     OW19681   4.633   0.110   0.642 -0.3927 -0.0159  0.0070
 2741SOL    HW119682   4.715   0.077   0.679  0.0326  1.2752  0.2135
 2741SOL    HW219683   4.626   0.053   0.565 -2.3403 -0.2260  0.3478
 2742SOL     OW19684   1.360   3.219   7.066 -0.1619  0.1492 -0.6499
 2742SOL    HW119685   1.414   3.281   7.116  1.8187 -1.9230 -0.2010
 2742SOL    HW219686   1.291   3.230   7.131  0.1747 -0.7976 -0.1334
 2743SOL     OW19687   4.347   3.630  10.938  0.0090 -0.3364  0.0381
 2743SOL    HW119688   4.293   3.658  10.865  0.4051  0.5894  0.1106
 2743SOL    HW219689   4.286   3.562  10.967 -0.4229  0.2207  0.4290
 2744SOL     OW19690   2.686   1.912  10.938  0.3218 -0.2302  0.1158
 2744SOL    HW119691   2.705   2.005  10.925 -0.5790 -0.2053 -0.9514
 2744SOL    HW219692   2.659   1.899  11.029  0.2286 -0.5772  0.0391
 2745SOL     OW19693   1.091   3.488  11.298  0.5740 -0.9665 -0.2838
 2745SOL    HW119694   1.000   3.469  11.318  0.3495  1.1905  0.7358
 2745SOL    HW219695   1.129   3.425  11.359  0.5418 -0.4033  0.3279
 2746SOL     OW19696   2.304   1.620   4.471 -0.3681 -0.1108  0.6281
 2746SOL    HW119697   2.273   1.701   4.431  1.0159  0.6074  0.9979
 2746SOL    HW219698   2.371   1.590   4.409  0.1298  1.2122  0.5318
 2747SOL     OW19699   0.048   3.428  12.850  0.0942  0.3867 -0.1125
 2747SOL    HW119700   0.092   3.475  12.922 -1.5079  0.9283  0.5228
 2747SOL    HW219701   4.688   3.393  12.884  0.1956  0.6111  0.3714
 2748SOL     OW19702   2.338   3.394   3.191 -0.4868 -0.2710  0.2033
 2748SOL    HW119703   2.298   3.480   3.205  0.6410  0.4832 -1.2648
 2748SOL    HW219704   2.354   3.371   3.283  3.4860  1.5067 -0.0599
 2749SOL     OW19705   1.212   3.845   7.147 -0.2416  0.5163  0.1764
 2749SOL    HW119706   1.204   3.751   7.160 -0.4688  0.2024 -2.3172
 2749SOL    HW219707   1.300   3.860   7.113  0.4296 -0.2381  1.5678
 2750SOL     OW19708   1.904   2.289   2.439  0.3733  0.8132  0.3541
 2750SOL    HW119709   1.943   2.353   2.379 -1.6412  0.6130 -1.1677
 2750SOL    HW219710   1.811   2.310   2.439  0.3412  0.6526 -1.9236
 2751SOL     OW19711   3.667   2.850   3.389  0.2651  0.5376  0.1851
 2751SOL    HW119712   3.706   2.784   3.445  1.5740 -0.3050 -1.7297
 2751SOL    HW219713   3.598   2.798   3.348 -0.0417  0.2260  1.1196
 2752SOL     OW19714   4.644   1.744  16.765  0.4668 -0.1187  0.4163
 2752SOL    HW119715   4.645   1.686  16.688  1.6563 -0.1475  0.4655
 2752SOL    HW219716   4.612   1.681  16.830 -2.1907 -0.2689 -1.0114
 2753SOL     OW19717   4.568   3.521   6.304 -0.4023 -0.5388 -0.4216
 2753SOL    HW119718   4.495   3.582   6.309 -0.7881 -1.0596  0.3467
 2753SOL    HW219719   4.524   3.443   6.270 -2.7363  0.3400  0.5806
 2754SOL     OW19720   3.432   4.422  14.506 -0.5157 -0.1623 -0.7663
 2754SOL    HW119721   3.477   4.444  14.424  0.1416  1.1821 -0.0527
 2754SOL    HW219722   3.411   4.510  14.537 -1.5411 -0.6210 -0.1736
 2755SOL     OW19723   1.760   1.830  11.065  0.1437 -0.0114  0.3823
 2755SOL    HW119724   1.795   1.755  11.017  0.8398  0.5245  0.0658
 2755SOL    HW219725   1.738   1.895  10.998 -0.3878 -0.1986  0.3738
 2756SOL     OW19726   1.769   2.851   7.002  0.0387  0.0285 -0.2235
 2756SOL    HW119727   1.676   2.858   7.026 -0.2233  1.2650 -1.5972
 2756SOL    HW219728   1.773   2.761   6.970  2.5158  0.6966 -1.7761
 2757SOL     OW19729   2.710   0.943   9.552 -0.1369  0.6088  0.1202
 2757SOL    HW119730   2.690   0.987   9.635 -0.6736 -0.0213  0.3273
 2757SOL    HW219731   2.688   1.013   9.491  0.3906  1.5804  1.0492
 2758SOL     OW19732   0.678   1.731  14.298  0.2155  0.1720 -0.2570
 2758SOL    HW119733   0.671   1.771  14.211 -0.7990  1.8434  0.5769
 2758SOL    HW219734   0.675   1.804  14.360  1.2353 -0.8621  1.0184
 2759SOL     OW19735   3.577   3.307  13.394 -0.2716 -0.4213 -0.1389
 2759SOL    HW119736   3.551   3.221  13.428 -3.8371  1.2418  1.3929
 2759SOL    HW219737   3.672   3.297  13.389 -0.1948 -0.2065  1.1174
 2760SOL     OW19738   4.341   0.933   4.480  0.4194 -0.3929  0.0949
 2760SOL    HW119739   4.270   0.958   4.420  0.9153  0.3525 -0.1821
 2760SOL    HW219740   4.296   0.877   4.543 -0.7453  1.0528  0.5455
 2761SOL     OW19741   0.381   1.030  12.988  0.4124 -0.0675  0.0010
 2761SOL    HW119742   0.344   0.957  13.038  2.1363 -0.6120  0.4999
 2761SOL    HW219743   0.309   1.050  12.928  0.3886 -0.1147  0.0137
 2762SOL     OW19744   1.267   3.601   3.032  0.1735  0.2602  0.1239
 2762SOL    HW119745   1.229   3.565   2.952  2.7657  0.7294 -1.2881
 2762SOL    HW219746   1.356   3.575   3.009  0.1275  1.1843 -1.0592
 2763SOL     OW19747   3.968   3.310  15.995 -0.6330 -0.0484  0.1920
 2763SOL    HW119748   4.027   3.235  15.987 -0.8329 -0.0449 -1.2268
 2763SOL    HW219749   4.003   3.360  15.922 -0.0149  0.4602  0.8294
 2764SOL     OW19750   0.425   3.254   5.188  0.1489  0.1470  0.2846
 2764SOL    HW119751   0.387   3.233   5.103  0.8843 -3.2171  0.7690
 2764SOL    HW219752   0.495   3.313   5.159  0.1800 -0.2324 -0.4228
 2765SOL     OW19753   1.913   3.710   5.002  0.3024 -0.1205 -0.1233
 2765SOL    HW119754   1.879   3.796   5.027 -2.7842 -1.1729 -0.6261
 2765SOL    HW219755   1.976   3.732   4.934  0.1769  0.4542 -0.0494
 2766SOL     OW19756   2.132   0.100   1.835 -0.6032 -0.6883 -0.5122
 2766SOL    HW119757   2.225   0.080   1.845 -0.4984  0.2922  0.5052
 2766SOL    HW219758   2.115   0.105   1.929 -1.4689  0.4534 -0.7247
 2767SOL     OW19759   1.862   0.813   4.832 -0.1243 -0.6135  0.3799
 2767SOL    HW119760   1.865   0.909   4.833 -0.9433 -0.6029  1.1927
 2767SOL    HW219761   1.776   0.786   4.799 -0.6188  1.8206 -0.3131
 2768SOL     OW19762   2.257   2.283  10.620  0.0293  0.2064  0.1218
 2768SOL    HW119763   2.194   2.211  10.613  1.3943 -1.1565  1.7376
 2768SOL    HW219764   2.213   2.337  10.686 -0.4934  1.5047 -1.3025
 2769SOL     OW19765   0.548   2.407   8.159 -1.3180  0.0801 -0.1899
 2769SOL    HW119766   0.627   2.434   8.205  0.7239 -0.0204 -3.6340
 2769SOL    HW219767   0.556   2.312   8.170  1.5470  0.4550  0.9993
 2770SOL     OW19768   2.876   1.044   5.608  0.2497  0.2606 -0.3952
 2770SOL    HW119769   2.816   1.113   5.638 -0.1649 -0.5399  0.6505
 2770SOL    HW219770   2.943   1.095   5.563  1.0674  0.7058  1.3282
 2771SOL     OW19771   1.563   2.628   0.920 -0.0883  0.3103  0.0971
 2771SOL    HW119772   1.486   2.581   0.891 -0.4409  0.4338  0.8363
 2771SOL    HW219773   1.522   2.682   0.987 -3.6907 -1.6137 -0.5651
 2772SOL     OW19774   3.998   2.709  12.853 -0.0109  0.0731  0.4100
 2772SOL    HW119775   4.067   2.655  12.814  0.4596  1.2077 -0.3163
 2772SOL    HW219776   4.017   2.798  12.823  0.3540 -0.0221  0.3570
 2773SOL     OW19777   4.051   4.352   2.540 -0.0994  0.4038 -0.3519
 2773SOL    HW119778   4.076   4.406   2.465  1.3807 -2.0558 -1.6297
 2773SOL    HW219779   4.016   4.419   2.598 -1.6894 -0.9140  0.2016
 2774SOL     OW19780   1.355   0.076   8.148 -0.6898 -0.1136  0.1799
 2774SOL    HW119781   1.334   0.045   8.236  1.3909 -1.7156  0.0982
 2774SOL    HW219782   1.401   0.158   8.165  0.7813 -0.6695 -1.2129
 2775SOL     OW19783   0.623   1.964   5.910 -0.5105  0.2856 -0.3284
 2775SOL    HW119784   0.700   1.935   5.860 -1.4124 -3.1947  0.2964
 2775SOL    HW219785   0.655   2.053   5.924  0.1593 -0.3463  2.0345
 2776SOL     OW19786   2.321   2.977   3.294  0.0179  0.7386 -0.1067
 2776SOL    HW119787   2.364   2.986   3.209 -1.4018 -1.1164 -1.0104
 2776SOL    HW219788   2.322   2.881   3.294  1.8300  0.7723 -3.6105
 2777SOL     OW19789   2.311   1.457   2.511  0.2799 -0.1450  0.0385
 2777SOL    HW119790   2.253   1.508   2.455  1.6523 -0.9846 -2.1432
 2777SOL    HW219791   2.395   1.482   2.474 -0.2199  1.2366 -0.1604
 2778SOL     OW19792   2.265   0.573  16.023 -0.3527  0.3986 -0.0439
 2778SOL    HW119793   2.305   0.649  15.979  1.4233 -0.6283 -0.2007
 2778SOL    HW219794   2.243   0.619  16.105 -0.3041 -1.5882  1.0690
 2779SOL     OW19795   2.954   0.626   6.460 -0.0081 -0.0584  0.0540
 2779SOL    HW119796   2.947   0.705   6.513 -2.9855 -0.1076 -0.2827
 2779SOL    HW219797   2.991   0.573   6.531 -0.9703  0.7248  1.1422
 2780SOL     OW19798   2.730   4.129   3.034  0.2136 -0.3625 -0.1114
 2780SOL    HW119799   2.665   4.061   3.013 -0.9953  0.0609  2.2228
 2780SOL    HW219800   2.806   4.087   3.074  0.2457  0.4416  0.6866
 2781SOL     OW19801   0.725   1.463  12.025 -0.7974  0.0610 -0.0695
 2781SOL    HW119802   0.679   1.508  11.954 -1.8712  0.0546  0.6295
 2781SOL    HW219803   0.694   1.520  12.095 -0.6921  1.6078 -1.2605
 2782SOL     OW19804   3.637   4.354   6.170 -0.0794  0.0763 -0.1763
 2782SOL    HW119805   3.733   4.356   6.174 -0.2117 -1.4406  3.4387
 2782SOL    HW219806   3.627   4.417   6.098 -0.8499  0.5999  0.3927
 2783SOL     OW19807   0.812   1.418   2.038  0.1321 -0.5573 -0.1527
 2783SOL    HW119808   0.899   1.381   2.028  1.1876  1.5810  1.1663
 2783SOL    HW219809   0.779   1.362   2.108 -0.2153 -1.6368 -1.1850
 2784SOL     OW19810   1.613   2.963   5.601  0.8330 -0.3735  0.6588
 2784SOL    HW119811   1.576   2.995   5.683  1.0897  1.2629  0.1480
 2784SOL    HW219812   1.708   2.959   5.612  1.0314 -0.5977 -1.0840
 2785SOL     OW19813   3.453   1.150   4.387  0.5859 -0.0943 -0.4265
 2785SOL    HW119814   3.361   1.179   4.391  0.5675 -0.3061  0.6121
 2785SOL    HW219815   3.502   1.214   4.438  2.7228 -1.8537 -0.2838
 2786SOL     OW19816   0.471   2.415  17.343 -0.0362 -0.1779 -0.0134
 2786SOL    HW119817   0.524   2.395  17.266  2.0896 -0.2845  1.4854
 2786SOL    HW219818   0.529   2.379  17.410  1.3078 -1.0444 -1.6643
 2787SOL     OW19819   2.076   1.743   5.537 -0.5031  0.1042  0.4373
 2787SOL    HW119820   2.084   1.712   5.627  0.0219  2.7803  1.3009
 2787SOL    HW219821   2.017   1.817   5.544  0.1122  0.5344  1.0715
 2788SOL     OW19822   0.757   0.451   1.494  0.4096  0.8647 -0.4749
 2788SOL    HW119823   0.670   0.488   1.486 -0.0624 -0.3936 -1.0596
 2788SOL    HW219824   0.812   0.516   1.539  1.4084 -1.7815  2.1419
 2789SOL     OW19825   4.192   0.474   7.428 -0.2915 -0.3023 -0.6483
 2789SOL    HW119826   4.117   0.514   7.385 -0.8377 -0.9206 -0.2766
 2789SOL    HW219827   4.153   0.414   7.492  0.5157 -0.3992 -0.2569
 2790SOL     OW19828   0.044   3.263   0.172 -0.1490  0.2655  0.1212
 2790SOL    HW119829   0.067   3.209   0.248  1.2576  1.3962  0.4917
 2790SOL    HW219830   0.131   3.281   0.138 -1.2511  2.4647 -1.5360
 2791SOL     OW19831   0.829   1.027  10.641 -0.3938  0.5104  0.3948
 2791SOL    HW119832   0.840   0.953  10.581  1.3684  0.4413  0.8147
 2791SOL    HW219833   0.743   1.048  10.604  0.0077 -0.4895 -1.1132
 2792SOL     OW19834   0.312   3.437   1.738 -0.4449  0.3747 -0.3381
 2792SOL    HW119835   0.263   3.507   1.694  0.0818  0.7242 -0.3675
 2792SOL    HW219836   0.267   3.363   1.698  0.5615 -0.4282  0.0299
 2793SOL     OW19837   1.932   0.840   9.700 -0.0463  0.2283  0.1107
 2793SOL    HW119838   1.981   0.843   9.783 -0.3065 -0.4626  0.2826
 2793SOL    HW219839   1.953   0.756   9.660 -1.1611  0.6200 -1.2764
 2794SOL     OW19840   1.034   0.318   5.485 -0.2321 -0.0563  0.2334
 2794SOL    HW119841   1.103   0.356   5.539  1.2757 -0.4502 -1.3982
 2794SOL    HW219842   1.063   0.366   5.408 -0.1027 -0.4693  0.0218
 2795SOL     OW19843   1.752   3.044  17.449  0.1376 -0.5171  0.2220
 2795SOL    HW119844   1.704   3.095  17.383 -1.4435 -1.1698  0.8519
 2795SOL    HW219845   1.682   2.991  17.487  0.4407  0.0601  1.5664
 2796SOL     OW19846   3.522   1.294   7.241 -0.1569  0.0734 -0.0993
 2796SOL    HW119847   3.514   1.321   7.333  0.0271 -0.9585  0.2175
 2796SOL    HW219848   3.434   1.312   7.208 -0.1406 -1.1832 -0.8137
 2797SOL     OW19849   3.555   0.395  16.591 -0.3203  0.1472  0.1321
 2797SOL    HW119850   3.607   0.470  16.621  0.5402 -0.4603  0.1189
 2797SOL    HW219851   3.504   0.437  16.521 -0.6160 -1.6385 -0.7110
 2798SOL     OW19852   3.176   0.226   3.041 -0.1054 -0.0228 -0.0658
 2798SOL    HW119853   3.215   0.176   3.112  0.1900 -0.0097 -0.2193
 2798SOL    HW219854   3.250   0.252   2.986 -1.3869  1.7306 -0.9712
 2799SOL     OW19855   2.679   1.510   8.966  0.4976 -0.0830  0.0370
 2799SOL    HW119856   2.651   1.419   8.978  2.0500 -0.5944 -0.2194
 2799SOL    HW219857   2.619   1.538   8.897  0.7805  1.6529  0.4914
 2800SOL     OW19858   0.833   4.578   4.810 -0.3802  0.4554  0.4789
 2800SOL    HW119859   0.823   4.597   4.717 -0.3601 -1.3702  0.1203
 2800SOL    HW219860   0.771   4.638   4.853 -0.2999  0.4930  0.5422
 2801SOL     OW19861   3.258   4.058   6.014  0.3293  0.3059  0.0457
 2801SOL    HW119862   3.253   4.041   6.109 -0.0035  0.4162  0.0459
 2801SOL    HW219863   3.257   4.152   6.030 -0.8183  0.2925 -0.0022
 2802SOL     OW19864   4.582   0.514   7.582  0.1151 -0.4316 -0.4420
 2802SOL    HW119865   4.536   0.597   7.597  1.3147  0.1455 -0.0468
 2802SOL    HW219866   4.641   0.535   7.509 -2.3487  0.8852 -2.0672
 2803SOL     OW19867   1.708   0.429   7.247  0.7761  0.0523 -0.3927
 2803SOL    HW119868   1.797   0.440   7.281 -0.5232 -1.5530  3.6149
 2803SOL    HW219869   1.734   0.376   7.172  0.2490 -0.5907 -0.1259
 2804SOL     OW19870   2.298   1.584  17.578 -0.1363 -0.0252 -0.2700
 2804SOL    HW119871   2.344   1.516  17.628 -2.5497 -2.8596 -1.9233
 2804SOL    HW219872   2.298   1.539  17.494  2.4063 -0.6742  0.0635
 2805SOL     OW19873   3.431   2.375   2.575  0.2942 -0.4139  0.5555
 2805SOL    HW119874   3.345   2.342   2.550  0.8294 -1.7153  0.4331
 2805SOL    HW219875   3.485   2.348   2.501  1.0925  0.5689  0.7715
 2806SOL     OW19876   3.255   3.123   2.086  0.6863  0.0035 -0.5708
 2806SOL    HW119877   3.318   3.067   2.041  1.5137  1.8004 -1.6384
 2806SOL    HW219878   3.242   3.200   2.030  3.0536  0.5092 -0.4482
 2807SOL     OW19879   3.660   3.055  15.833  1.1830 -0.1500  0.1287
 2807SOL    HW119880   3.749   3.020  15.830  1.2940  0.0874  0.8940
 2807SOL    HW219881   3.658   3.119  15.762 -2.3019  1.1186  1.3781
 2808SOL     OW19882   3.156   2.546  10.556  0.2918 -0.0593  0.6877
 2808SOL    HW119883   3.148   2.503  10.641 -1.4995 -0.8066  0.1275
 2808SOL    HW219884   3.070   2.527  10.519  0.6659  1.2706 -0.8604
 2809SOL     OW19885   4.693   1.746   9.121 -0.0951 -0.2380  0.4631
 2809SOL    HW119886   0.022   1.715   9.047  1.9070 -0.8695  2.1426
 2809SOL    HW219887   4.645   1.672   9.157  1.4191 -0.7860  1.3286
 2810SOL     OW19888   1.743   0.578   0.393 -0.3118 -0.1969 -0.1766
 2810SOL    HW119889   1.821   0.540   0.433 -0.3558  1.2216  1.2433
 2810SOL    HW219890   1.783   0.588   0.307  1.5939  0.7065  0.8137
 2811SOL     OW19891   2.332   1.421   2.176 -0.2570  0.0741  0.0651
 2811SOL    HW119892   2.238   1.407   2.181 -0.1841 -0.0540  1.1451
 2811SOL    HW219893   2.343   1.430   2.082 -0.2191 -1.6002 -0.1018
 2812SOL     OW19894   0.955   3.275   4.995  0.0161 -0.0443  0.5048
 2812SOL    HW119895   1.002   3.308   4.918  0.3726 -0.1784  0.6651
 2812SOL    HW219896   1.004   3.302   5.073  0.5733 -1.2218  0.5636
 2813SOL     OW19897   3.556   0.950  16.434 -0.2598  0.2856  0.2766
 2813SOL    HW119898   3.483   0.910  16.387  0.5316  1.1706 -1.6685
 2813SOL    HW219899   3.539   0.910  16.520  0.9173 -1.4007 -0.2860
 2814SOL     OW19900   1.370   2.528   7.964  0.0428  0.0718 -0.0777
 2814SOL    HW119901   1.289   2.477   7.962 -0.0422  0.1898  0.2880
 2814SOL    HW219902   1.401   2.541   7.874 -2.3890  2.0349 -0.6186
 2815SOL     OW19903   0.819   3.108   4.563  0.0041  0.5877 -0.0253
 2815SOL    HW119904   0.862   3.066   4.638 -0.0307 -1.3063 -1.0524
 2815SOL    HW219905   0.786   3.183   4.612 -0.6210  0.8148 -0.7940
 2816SOL     OW19906   0.724   2.040  15.233 -0.1171  0.2022  0.0924
 2816SOL    HW119907   0.751   2.132  15.238 -0.6947  0.4471 -1.2668
 2816SOL    HW219908   0.753   2.008  15.148 -2.7260  1.3028 -1.2121
 2817SOL     OW19909   3.195   0.518   8.996  0.1133  0.7678  0.5655
 2817SOL    HW119910   3.149   0.592   9.036  0.8499  1.5910 -0.1337
 2817SOL    HW219911   3.135   0.477   8.933  0.3708 -0.1440  0.9144
 2818SOL     OW19912   2.086   3.073   4.228  0.3103  0.2053  0.3768
 2818SOL    HW119913   2.016   3.116   4.276  1.2133  1.1277  0.8734
 2818SOL    HW219914   2.119   3.011   4.293 -0.6645 -2.7327 -1.8972
 2819SOL     OW19915   2.627   3.957  17.628 -0.2831 -0.0402 -0.1076
 2819SOL    HW119916   2.562   4.016  17.590 -0.5283 -0.0968  0.2283
 2819SOL    HW219917   2.616   3.880  17.572  0.6517 -0.2291 -0.0260
 2820SOL     OW19918   3.021   1.956   7.099 -0.2580  0.1011  0.7114
 2820SOL    HW119919   3.017   1.871   7.144  1.4106 -0.3158  0.0835
 2820SOL    HW219920   3.030   2.019   7.170  1.7306 -0.2934  0.8101
 2821SOL     OW19921   3.930   0.196   2.266  0.1246  0.1822  0.2693
 2821SOL    HW119922   3.988   0.245   2.324  0.2132 -0.2359  0.5348
 2821SOL    HW219923   3.844   0.209   2.306 -1.6144  1.5826 -3.9931
 2822SOL     OW19924   0.457   4.137  17.482  0.3066 -0.0996 -0.1917
 2822SOL    HW119925   0.369   4.122  17.446  0.9600  0.8402 -2.1665
 2822SOL    HW219926   0.503   4.054  17.473  1.2683  0.5808 -1.5138
 2823SOL     OW19927   1.907   0.443   8.920 -0.0418 -0.1795  0.2798
 2823SOL    HW119928   1.901   0.495   9.000  1.0765  1.8417 -0.9312
 2823SOL    HW219929   1.849   0.488   8.858  0.6611  1.0698  0.5472
 2824SOL     OW19930   0.519   2.573   7.565  0.6455  0.1412 -0.2304
 2824SOL    HW119931   0.586   2.508   7.543  0.3279 -0.3976  0.4103
 2824SOL    HW219932   0.547   2.609   7.649  0.4358  2.0822 -0.9930
 2825SOL     OW19933   1.164   3.464   3.978  0.6134  0.2245 -0.3230
 2825SOL    HW119934   1.074   3.473   4.008  0.7069  2.4966 -0.6981
 2825SOL    HW219935   1.145   3.417   3.897 -0.9817  0.8093 -0.2871
 2826SOL     OW19936   0.239   0.597   8.440  0.3935 -0.5678  0.0991
 2826SOL    HW119937   0.321   0.616   8.395 -0.0762  0.6168 -0.2842
 2826SOL    HW219938   0.262   0.532   8.507  3.3949  0.1905 -0.1993
 2827SOL     OW19939   0.603   3.851  12.688  0.1521  0.4411  0.0234
 2827SOL    HW119940   0.672   3.878  12.749 -0.6032 -1.2003  1.6231
 2827SOL    HW219941   0.545   3.926  12.699 -0.3377  0.2776 -1.5782
 2828SOL     OW19942   3.551   3.967   0.492 -0.3406 -0.1597 -0.5391
 2828SOL    HW119943   3.628   3.926   0.532 -0.8112  0.6081  1.1739
 2828SOL    HW219944   3.480   3.961   0.555 -0.2137 -0.9184 -0.4664
 2829SOL     OW19945   3.136   2.350   0.984 -0.4965  0.4032 -0.1857
 2829SOL    HW119946   3.163   2.265   1.018 -3.5002 -1.8633 -3.4469
 2829SOL    HW219947   3.047   2.361   1.019 -0.2786 -2.2796  1.1870
 2830SOL     OW19948   3.279   1.919   1.982  0.3112 -0.5612  0.1124
 2830SOL    HW119949   3.202   1.896   2.034  0.1699 -0.9584 -0.2821
 2830SOL    HW219950   3.236   1.963   1.908 -1.5664 -2.0272  0.3309
 2831SOL     OW19951   3.043   4.419  16.316 -0.1520  0.5221 -0.4271
 2831SOL    HW119952   2.995   4.423  16.398  0.6393  1.0929  0.0211
 2831SOL    HW219953   3.135   4.440  16.337  0.2003 -1.3303 -0.1085
 2832SOL     OW19954   4.303   1.129  16.573 -0.6101 -0.2543 -0.0755
 2832SOL    HW119955   4.327   1.184  16.499  0.3450 -0.5702 -0.0041
 2832SOL    HW219956   4.395   1.114  16.595 -0.0947  1.2958 -1.1692
 2833SOL     OW19957   3.118   3.567   6.154  0.0214  0.0397  0.0434
 2833SOL    HW119958   3.026   3.585   6.174  1.1596  3.3380  2.3995
 2833SOL    HW219959   3.158   3.574   6.241  0.2414 -0.7859  0.0042
 2834SOL     OW19960   4.301   1.689   1.590 -0.1084 -0.2514  0.3841
 2834SOL    HW119961   4.268   1.599   1.584  1.1356 -0.7527  1.0177
 2834SOL    HW219962   4.354   1.700   1.511  1.5817 -0.4797  1.4916
 2835SOL     OW19963   4.564   1.385   9.932  0.0086 -0.0881  0.3119
 2835SOL    HW119964   4.601   1.309   9.886 -0.6389 -0.8471  1.0385
 2835SOL    HW219965   4.498   1.338   9.982  0.3371  1.0517  1.7963
 2836SOL     OW19966   4.467   2.502  14.130  0.4254 -0.1718 -0.4288
 2836SOL    HW119967   4.503   2.531  14.046  2.8257 -1.4854  0.1260
 2836SOL    HW219968   4.523   2.544  14.196 -1.0165  2.7077 -1.0420
 2837SOL     OW19969   1.371   3.990   4.272  0.5163 -0.0211 -0.1140
 2837SOL    HW119970   1.284   3.987   4.312  0.1529  1.1508 -0.8385
 2837SOL    HW219971   1.424   3.959   4.346  0.5545 -0.2830 -0.2494
 2838SOL     OW19972   4.401   4.205   5.287  0.0949  0.2475  0.6022
 2838SOL    HW119973   4.397   4.172   5.377  0.9399  1.3774  1.0633
 2838SOL    HW219974   4.465   4.142   5.253 -0.5342 -0.3614  0.5481
 2839SOL     OW19975   1.773   1.050   8.524  0.1340 -0.1842 -0.0663
 2839SOL    HW119976   1.781   1.022   8.616  0.0557  2.8871  0.8646
 2839SOL    HW219977   1.861   1.073   8.497 -0.9104  2.5315 -1.0667
 2840SOL     OW19978   2.686   0.802   7.800  0.4749  0.1506  0.3563
 2840SOL    HW119979   2.702   0.811   7.894  1.3155 -0.2844  0.2529
 2840SOL    HW219980   2.702   0.709   7.784 -0.0900  0.4194 -1.6999
 2841SOL     OW19981   2.618   2.348   4.775 -0.6383  0.8517 -0.1373
 2841SOL    HW119982   2.574   2.268   4.802 -1.7203  1.6269  0.4037
 2841SOL    HW219983   2.684   2.348   4.844  0.9199  1.9498 -1.6392
 2842SOL     OW19984   2.036   2.671   3.045 -0.0742 -0.2339  0.8482
 2842SOL    HW119985   1.950   2.632   3.061 -1.2021  1.8349 -0.1949
 2842SOL    HW219986   2.025   2.666   2.950 -0.1817  2.5290  0.7087
 2843SOL     OW19987   2.603   0.530   3.309 -0.0439 -0.3565  0.4008
 2843SOL    HW119988   2.615   0.476   3.231 -0.7582 -1.9788  1.4326
 2843SOL    HW219989   2.511   0.555   3.312  0.0971  0.2632 -0.4153
 2844SOL     OW19990   0.171   2.428  11.211 -0.3754  0.0869  0.6213
 2844SOL    HW119991   0.076   2.441  11.203 -0.3533  0.2570  0.6277
 2844SOL    HW219992   0.209   2.480  11.140  1.8335  1.2476  2.6542
 2845SOL     OW19993   2.754   0.778   1.301 -0.1120  0.1067 -0.6387
 2845SOL    HW119994   2.800   0.856   1.331  0.9126 -1.1254  1.0185
 2845SOL    HW219995   2.676   0.813   1.258  0.3282 -1.0768 -2.3917
 2846SOL     OW19996   3.653   0.782   6.018 -0.4282  0.4006 -0.0035
 2846SOL    HW119997   3.654   0.796   6.113 -3.1904  0.0242  0.0814
 2846SOL    HW219998   3.746   0.799   6.004  0.0014  1.7555  4.4271
 2847SOL     OW19999   1.576   3.338  10.039 -0.1410  0.6909  0.5263
 2847SOL    HW120000   1.588   3.243  10.043  0.0402  0.6160 -1.6371
 2847SOL    HW220001   1.629   3.348   9.960 -0.9160 -3.1316 -0.4908
 2848SOL     OW20002   2.818   2.069   9.703  0.3000  0.4467 -0.2370
 2848SOL    HW120003   2.896   2.086   9.757 -0.0286 -1.9749  0.9887
 2848SOL    HW220004   2.854   2.004   9.643 -0.0100  1.1425 -1.1665
 2849SOL     OW20005   0.766   0.802   3.558  0.2057 -0.8095  0.0640
 2849SOL    HW120006   0.835   0.802   3.624 -1.8908 -1.9610  2.2644
 2849SOL    HW220007   0.782   0.722   3.508 -1.8119 -0.9229 -0.3949
 2850SOL     OW20008   2.657   3.092   0.110 -0.2263  0.6203  0.0341
 2850SOL    HW120009   2.582   3.133   0.068  0.3403 -0.9379 -2.4943
 2850SOL    HW220010   2.721   3.132   0.052  0.2297 -0.5243 -0.2470
 2851SOL     OW20011   4.365   4.345  11.321  0.1860  0.2654 -0.0696
 2851SOL    HW120012   4.328   4.397  11.250 -0.9669  0.0873  0.3919
 2851SOL    HW220013   4.334   4.259  11.294 -0.7526  0.2948  0.9058
 2852SOL     OW20014   0.963   1.908  12.267  0.3432 -0.6929  0.8020
 2852SOL    HW120015   1.012   1.855  12.204  1.5543  0.0017  1.1462
 2852SOL    HW220016   0.900   1.949  12.208  2.2984 -0.0688 -0.8717
 2853SOL     OW20017   2.231   1.969   0.091 -0.0176  0.6872 -0.3683
 2853SOL    HW120018   2.199   1.998   0.176  1.2308 -3.6207  1.5929
 2853SOL    HW220019   2.254   2.053   0.051 -3.9348  0.6417 -2.7425
 2854SOL     OW20020   1.580   1.057   8.163 -0.4060  0.5753  0.7831
 2854SOL    HW120021   1.626   0.990   8.214  0.1234  0.2403 -0.1450
 2854SOL    HW220022   1.495   1.015   8.147  0.3800  0.0674 -2.0718
 2855SOL     OW20023   3.517   1.810   8.374 -0.3048  0.4943 -0.1891
 2855SOL    HW120024   3.528   1.887   8.318 -2.7805  1.1796  0.2800
 2855SOL    HW220025   3.443   1.842   8.426 -1.9053  0.5154 -2.4994
 2856SOL     OW20026   3.978   3.097   4.858 -0.2336  0.0269  0.0119
 2856SOL    HW120027   3.954   3.097   4.765  0.1855 -0.9286 -0.0896
 2856SOL    HW220028   4.070   3.123   4.853  0.0653 -0.8014  1.2212
 2857SOL     OW20029   0.229   1.164   2.888 -0.3107 -0.2866  0.3442
 2857SOL    HW120030   0.175   1.098   2.844 -0.2236  0.4586 -0.8924
 2857SOL    HW220031   0.277   1.197   2.811  1.4824 -2.7563  0.4151
 2858SOL     OW20032   1.096   1.698  12.156  0.2928 -0.1306 -0.2236
 2858SOL    HW120033   1.068   1.617  12.113 -2.3983  1.6245 -1.7307
 2858SOL    HW220034   1.152   1.741  12.091  0.3932 -0.2519 -0.2175
 2859SOL     OW20035   2.919   4.315   2.121 -0.3880 -0.4087  0.8130
 2859SOL    HW120036   2.936   4.356   2.206 -0.0289 -0.0322  0.5568
 2859SOL    HW220037   2.875   4.383   2.071  1.1271 -0.0005  0.0291
 2860SOL     OW20038   3.778   0.427   3.151  0.1204 -0.1373 -0.5536
 2860SOL    HW120039   3.689   0.398   3.173  0.5882  0.4097  2.0263
 2860SOL    HW220040   3.792   0.472   3.234  1.5078 -1.8856  0.1594
 2861SOL     OW20041   2.437   0.835   4.992 -0.0336  0.3325  0.0188
 2861SOL    HW120042   2.486   0.836   4.909 -0.8692  1.2127 -0.4601
 2861SOL    HW220043   2.454   0.922   5.028 -0.7147 -0.1382  1.4503
 2862SOL     OW20044   0.944   2.112  17.636 -0.5452  0.3419 -0.0159
 2862SOL    HW120045   0.869   2.076  17.683  0.0244 -2.0113 -0.8985
 2862SOL    HW220046   1.006   2.127   0.014 -1.2714 -2.9626  1.2944
 2863SOL     OW20047   1.513   2.600   3.270 -0.0415  0.4319  0.4026
 2863SOL    HW120048   1.551   2.687   3.284 -3.4859  2.0640 -0.6170
 2863SOL    HW220049   1.549   2.551   3.344 -5.2312 -1.1792  1.8429
 2864SOL     OW20050   3.326   3.153   1.085  0.1229  0.0156 -0.5435
 2864SOL    HW120051   3.373   3.178   1.165 -0.7243  2.0520 -0.7040
 2864SOL    HW220052   3.242   3.134   1.127  1.2119  0.4258  1.8666
 2865SOL     OW20053   0.357   3.283   5.447  0.5138  0.4789  0.5044
 2865SOL    HW120054   0.350   3.378   5.445  0.2787  0.3989 -2.1159
 2865SOL    HW220055   0.353   3.245   5.359  0.6641 -2.2106  1.6533
 2866SOL     OW20056   2.460   2.330   5.683 -0.4971 -0.5058 -0.7480
 2866SOL    HW120057   2.421   2.315   5.769 -0.8386  2.4050 -0.4050
 2866SOL    HW220058   2.477   2.240   5.655 -0.1672 -1.2083  1.6788
 2867SOL     OW20059   3.620   3.840  14.183 -0.2781  0.0429  0.2808
 2867SOL    HW120060   3.568   3.919  14.201 -0.4586 -0.0381  0.1178
 2867SOL    HW220061   3.698   3.871  14.136 -1.2677  1.0285 -0.7402
 2868SOL     OW20062   2.117   0.726   4.811  0.4638  0.6105 -0.7920
 2868SOL    HW120063   2.026   0.754   4.803  0.3220  0.7482  1.2616
 2868SOL    HW220064   2.149   0.764   4.893  1.1638  0.4363 -0.9846
 2869SOL     OW20065   2.426   2.528   1.176  0.1113  0.2971 -0.2997
 2869SOL    HW120066   2.419   2.580   1.096 -0.7994 -0.2371 -0.5699
 2869SOL    HW220067   2.471   2.451   1.139  0.1603 -0.3150  1.0442
 2870SOL     OW20068   1.763   0.392  17.338  0.2542 -0.3456 -0.6170
 2870SOL    HW120069   1.828   0.439  17.285 -1.2902  1.4022 -0.9696
 2870SOL    HW220070   1.756   0.307  17.295 -0.1056 -0.8312  0.4224
 2871SOL     OW20071   4.423   2.055   2.924 -0.3687  0.6271 -0.1991
 2871SOL    HW120072   4.341   2.065   2.874  0.7224  1.7076 -1.7694
 2871SOL    HW220073   4.406   1.963   2.946  0.9076  0.7085  1.0641
 2872SOL     OW20074   0.689   4.063  11.809  0.0022  0.0744  0.2060
 2872SOL    HW120075   0.765   4.104  11.850  0.5147 -0.7126  0.0418
 2872SOL    HW220076   0.643   4.016  11.879 -0.0716 -1.7037 -1.0452
 2873SOL     OW20077   4.181   1.440   8.030  0.3438  0.8521  0.0068
 2873SOL    HW120078   4.134   1.509   7.982  0.0904  0.2736 -0.5671
 2873SOL    HW220079   4.111   1.397   8.079 -0.0461  1.2447 -0.2027
 2874SOL     OW20080   3.479   0.607   6.099  0.5190  0.1537  0.0258
 2874SOL    HW120081   3.541   0.648   6.038 -2.6793  1.3098 -2.4406
 2874SOL    HW220082   3.401   0.662   6.104  1.4760  1.3954  1.0426
 2875SOL     OW20083   0.099   1.887   4.526 -0.1810 -0.2269  0.1895
 2875SOL    HW120084   0.034   1.822   4.498 -0.8194 -0.5262  2.3264
 2875SOL    HW220085   0.185   1.857   4.497 -0.2313  0.0777 -0.2777
 2876SOL     OW20086   3.291   1.466   8.901 -0.5105 -0.0213  0.0821
 2876SOL    HW120087   3.223   1.444   8.964 -0.0387 -1.5157  0.0843
 2876SOL    HW220088   3.364   1.482   8.960 -0.6435  0.2121  0.1788
 2877SOL     OW20089   0.442   3.941   6.048  0.3406  0.1168 -0.7112
 2877SOL    HW120090   0.413   3.914   6.135  0.8939  1.1063 -0.2139
 2877SOL    HW220091   0.361   3.967   6.005 -0.5366 -1.3860  0.0497
 2878SOL     OW20092   3.392   2.183  13.309 -0.4538  0.1245  0.4262
 2878SOL    HW120093   3.420   2.248  13.374 -2.0604  1.1575  0.0890
 2878SOL    HW220094   3.342   2.235  13.247 -0.4559  0.1732  0.4685
 2879SOL     OW20095   4.387   1.006   3.146  0.1809  0.0050 -0.3096
 2879SOL    HW120096   4.367   1.093   3.180 -0.6761 -0.0578 -0.6500
 2879SOL    HW220097   4.329   0.950   3.197  0.2338 -0.3379 -0.6227
 2880SOL     OW20098   3.859   3.769   9.552 -0.0639 -0.6651 -0.0803
 2880SOL    HW120099   3.843   3.801   9.463 -0.8508  1.4990  0.8435
 2880SOL    HW220100   3.872   3.676   9.534  2.8385 -0.3533  0.3678
 2881SOL     OW20101   2.858   0.787  12.573 -0.3207  0.3460  0.4766
 2881SOL    HW120102   2.793   0.847  12.537  0.9572 -0.4161 -3.0469
 2881SOL    HW220103   2.939   0.837  12.570 -1.0329  1.3564 -2.1353
 2882SOL     OW20104   3.158   1.637  13.200 -0.2094 -0.0236  0.0316
 2882SOL    HW120105   3.112   1.653  13.117  1.3619  2.3831 -0.3785
 2882SOL    HW220106   3.203   1.721  13.211  0.9859 -0.7120  0.2666
 2883SOL     OW20107   0.574   0.462   9.575  0.0214  0.1984  0.0580
 2883SOL    HW120108   0.479   0.470   9.580 -0.0062 -0.0474 -0.0773
 2883SOL    HW220109   0.587   0.476   9.481  1.5336  2.0978  0.5498
 2884SOL     OW20110   4.432   0.392  16.769 -0.4248 -0.6187 -0.0607
 2884SOL    HW120111   4.416   0.436  16.852 -3.1199 -2.1052  0.1906
 2884SOL    HW220112   4.507   0.334  16.780 -2.1793 -2.6919  1.0073
 2885SOL     OW20113   3.153   3.287   2.792  0.5836  0.1557 -0.1348
 2885SOL    HW120114   3.121   3.349   2.727 -0.4207 -0.3931 -0.1525
 2885SOL    HW220115   3.078   3.264   2.846  0.0238  0.9934 -0.5636
 2886SOL     OW20116   0.005   1.851   8.715  0.4139 -0.2772  0.4226
 2886SOL    HW120117   4.690   1.766   8.733 -1.7578  1.0150  1.8604
 2886SOL    HW220118   4.651   1.907   8.706  2.5981  3.0688  2.5786
 2887SOL     OW20119   1.001   3.377   8.707 -0.0168  0.3241  0.1158
 2887SOL    HW120120   1.091   3.398   8.730  0.1950  0.7178 -1.0424
 2887SOL    HW220121   0.974   3.455   8.657  1.2236  1.0904  0.6501
 2888SOL     OW20122   4.612   3.152   8.990  0.1511 -0.0251 -0.2331
 2888SOL    HW120123   4.541   3.128   9.050 -0.5036  0.0421 -0.9728
 2888SOL    HW220124   4.579   3.111   8.909 -1.4732 -1.5807  1.2228
 2889SOL     OW20125   0.273   0.546   7.440  0.3441  0.2111  0.2781
 2889SOL    HW120126   0.235   0.496   7.513  1.1493 -0.8963 -0.0691
 2889SOL    HW220127   0.323   0.610   7.490 -0.1460  0.0271  1.0090
 2890SOL     OW20128   2.791   3.826  12.322 -0.0573 -0.2632 -0.0714
 2890SOL    HW120129   2.768   3.765  12.392  0.4165  1.1402  1.3105
 2890SOL    HW220130   2.881   3.844  12.348 -0.2902 -2.0020  1.9055
 2891SOL     OW20131   3.671   4.440   4.298  0.9978  0.4369 -0.0597
 2891SOL    HW120132   3.740   4.439   4.232  1.2264  1.3009  0.1590
 2891SOL    HW220133   3.650   4.347   4.299  0.8808  0.4393 -1.8295
 2892SOL     OW20134   4.535   2.382   3.520 -0.3052  0.6931 -0.6360
 2892SOL    HW120135   4.518   2.416   3.608  1.7956  0.5737 -0.1770
 2892SOL    HW220136   4.531   2.287   3.532 -3.7158  0.6636 -2.1281
 2893SOL     OW20137   4.009   2.265   6.228  0.1639  0.0821 -0.0748
 2893SOL    HW120138   3.984   2.202   6.161  0.6811 -0.3253  0.1232
 2893SOL    HW220139   3.943   2.245   6.295  0.2504  0.5502  0.1540
 2894SOL     OW20140   3.915   2.119   6.674  0.1369 -0.4072 -0.0943
 2894SOL    HW120141   3.844   2.146   6.733  1.1814  1.7503  0.1970
 2894SOL    HW220142   3.966   2.057   6.726  0.3976  1.0854  1.4280
 2895SOL     OW20143   1.999   0.622   4.047 -0.4710 -0.1714  0.5388
 2895SOL    HW120144   1.910   0.594   4.070 -0.7504  0.4225  0.1826
 2895SOL    HW220145   2.020   0.663   4.130  1.5991  0.3110 -0.2283
 2896SOL     OW20146   3.557   3.600   8.525  0.0923 -0.2209  0.5428
 2896SOL    HW120147   3.612   3.630   8.597 -0.0680  1.1696  0.0728
 2896SOL    HW220148   3.553   3.504   8.520 -1.5334 -0.2611  2.9601
 2897SOL     OW20149   4.428   0.970  16.210 -0.7685  0.5338  0.8473
 2897SOL    HW120150   4.374   0.891  16.217 -0.4856  0.1373 -1.4581
 2897SOL    HW220151   4.391   1.009  16.131 -1.5303 -0.3562  0.7566
 2898SOL     OW20152   2.645   2.438  17.358 -0.2593  0.6925  0.4133
 2898SOL    HW120153   2.670   2.474  17.444  1.0403 -0.6226  0.5995
 2898SOL    HW220154   2.575   2.376  17.378  1.8282 -0.9099  2.8887
 2899SOL     OW20155   1.021   4.072   6.549  0.5510 -0.7200  0.1973
 2899SOL    HW120156   1.094   4.121   6.512 -1.2566 -0.4153 -2.8901
 2899SOL    HW220157   1.030   4.090   6.643 -0.7787 -0.2491  0.2392
 2900SOL     OW20158   4.044   3.130   2.201  0.7208  0.0854 -0.1523
 2900SOL    HW120159   4.116   3.066   2.197  0.5032 -0.1631 -0.0593
 2900SOL    HW220160   4.005   3.107   2.116  0.9956 -0.2052 -0.2052
 2901SOL     OW20161   2.752   1.355   5.027 -0.1058 -0.2919  0.2885
 2901SOL    HW120162   2.688   1.368   5.096 -0.2439 -1.4910  0.3813
 2901SOL    HW220163   2.725   1.421   4.963 -1.4977 -1.3522 -0.2044
 2902SOL     OW20164   3.655   2.440   6.990 -0.8377  0.4092 -0.1395
 2902SOL    HW120165   3.726   2.420   7.052 -1.4821  1.6598  1.0165
 2902SOL    HW220166   3.683   2.523   6.953 -0.1660  0.6783  0.9665
 2903SOL     OW20167   1.615   0.082   5.470  0.4962 -0.0258  0.5586
 2903SOL    HW120168   1.529   0.123   5.470  0.5170  0.0310 -0.4212
 2903SOL    HW220169   1.615   0.073   5.374  1.9068 -1.9065  0.7324
 2904SOL     OW20170   4.284   3.316   3.016  0.2460 -0.0822  0.5115
 2904SOL    HW120171   4.246   3.297   2.930  1.2033  0.4428 -0.0255
 2904SOL    HW220172   4.374   3.288   2.995  0.0249 -1.5182  1.4324
 2905SOL     OW20173   4.410   1.297   9.680  0.4456  0.5456 -0.1647
 2905SOL    HW120174   4.368   1.226   9.729  0.3863 -0.1372 -1.2124
 2905SOL    HW220175   4.489   1.302   9.734  0.9426 -1.5169 -0.7212
 2906SOL     OW20176   3.436   1.007   8.056 -0.1703  0.3839 -0.2878
 2906SOL    HW120177   3.426   1.095   8.021  1.0997  0.0386 -1.4640
 2906SOL    HW220178   3.408   0.956   7.980 -1.4506 -0.3482  0.6708
 2907SOL     OW20179   4.620   0.550   1.833 -1.0092 -0.4273  0.5674
 2907SOL    HW120180   4.640   0.457   1.841  0.9797 -0.2675 -2.3830
 2907SOL    HW220181   4.557   0.546   1.761 -1.7936 -1.4395  1.3193
 2908SOL     OW20182   1.181   3.661  15.164 -0.2561 -0.0472  0.5152
 2908SOL    HW120183   1.173   3.613  15.247 -1.4620 -1.0269 -0.1593
 2908SOL    HW220184   1.254   3.615  15.123  0.2438 -0.2198  1.6072
 2909SOL     OW20185   3.551   3.533   5.298  0.1432 -0.6847 -0.0430
 2909SOL    HW120186   3.547   3.620   5.259 -0.2795 -0.9741 -0.6513
 2909SOL    HW220187   3.640   3.514   5.268 -0.0655  0.9427 -1.6966
 2910SOL     OW20188   4.088   3.998   9.233 -0.0651 -0.3244  0.0420
 2910SOL    HW120189   4.114   3.964   9.319 -0.4110  2.1242  1.1208
 2910SOL    HW220190   4.165   3.970   9.183 -1.4166 -2.9094 -0.5816
 2911SOL     OW20191   2.448   4.505   4.093  0.8936 -0.0914 -0.1423
 2911SOL    HW120192   2.395   4.517   4.015  1.8332  2.3551 -0.3967
 2911SOL    HW220193   2.520   4.449   4.064  0.2014  0.4259 -2.7759
 2912SOL     OW20194   2.487   1.150   1.002  0.4267 -0.3233  0.5663
 2912SOL    HW120195   2.486   1.243   0.981 -1.3670 -0.5069 -0.1426
 2912SOL    HW220196   2.576   1.131   0.974  0.7853  1.4252  0.5066
 2913SOL     OW20197   3.757   3.668   3.743 -0.1606  0.1214 -0.3661
 2913SOL    HW120198   3.779   3.596   3.802 -0.5523 -0.6061 -1.0980
 2913SOL    HW220199   3.819   3.656   3.671 -0.4051 -0.3154 -0.5076
 2914SOL     OW20200   2.527   3.810   9.695 -0.0447  0.1876 -0.0139
 2914SOL    HW120201   2.459   3.748   9.721  0.3879 -0.6079 -0.8075
 2914SOL    HW220202   2.485   3.838   9.613 -0.5156  0.4915  0.3293
 2915SOL     OW20203   4.592   2.743   4.551 -0.3007 -0.4131  0.0169
 2915SOL    HW120204   4.625   2.705   4.633  0.4404  1.4703  0.5935
 2915SOL    HW220205   4.596   2.665   4.496  1.6104 -0.4289  0.1541
 2916SOL     OW20206   2.252   1.813  16.164  0.2393 -0.0436 -0.5377
 2916SOL    HW120207   2.245   1.907  16.148  1.7685 -0.1180 -1.6955
 2916SOL    HW220208   2.170   1.794  16.209  1.8355 -0.8905  2.0282
 2917SOL     OW20209   1.068   3.551   2.851  0.2334 -0.3567  0.0738
 2917SOL    HW120210   1.075   3.456   2.843 -2.2922 -0.3702 -2.1881
 2917SOL    HW220211   0.979   3.556   2.887  0.2308 -0.9486  0.1507
 2918SOL     OW20212   3.792   4.025  17.453 -0.1039  0.0161  0.2817
 2918SOL    HW120213   3.772   3.950  17.509  0.0479 -0.8064 -0.7810
 2918SOL    HW220214   3.801   4.093  17.521 -0.3006 -0.2213  0.5457
 2919SOL     OW20215   0.070   4.082   5.566  0.1020  0.1276  0.0518
 2919SOL    HW120216   4.715   4.118   5.609 -0.8233 -0.6940 -0.9522
 2919SOL    HW220217   0.066   3.991   5.595  0.3241  0.1182  0.0520
 2920SOL     OW20218   3.020   1.337   3.672  0.6753 -0.6108 -0.6371
 2920SOL    HW120219   3.089   1.339   3.738  1.0363 -0.9016 -1.0066
 2920SOL    HW220220   3.043   1.409   3.613  1.4612  2.0185  2.8709
 2921SOL     OW20221   0.459   1.795   1.522 -0.0040 -0.1755  0.4389
 2921SOL    HW120222   0.432   1.730   1.457 -2.2137  0.3083  0.8705
 2921SOL    HW220223   0.444   1.874   1.469  1.8477 -1.8297 -2.5181
 2922SOL     OW20224   2.741   4.622   4.784 -0.4509 -0.0880 -0.1535
 2922SOL    HW120225   2.733   4.674   4.704  1.9266  1.1166  0.3823
 2922SOL    HW220226   2.734   4.538   4.738 -0.1740 -1.0118  1.4831
 2923SOL     OW20227   2.521   2.215   1.017  0.2812  0.4650 -0.0315
 2923SOL    HW120228   2.537   2.258   0.933 -1.5150  0.0596 -0.5783
 2923SOL    HW220229   2.430   2.190   1.001  0.3176  0.8242 -0.7810
 2924SOL     OW20230   1.587   0.410   1.008 -0.0595 -0.1344  0.2000
 2924SOL    HW120231   1.545   0.324   0.998  0.6056 -0.2780 -1.2156
 2924SOL    HW220232   1.520   0.460   1.055 -0.3499  0.3742 -0.7624
 2925SOL     OW20233   0.294   3.787   8.646 -0.6201  0.0398  0.4259
 2925SOL    HW120234   0.269   3.851   8.712 -0.2463  0.6404 -0.0140
 2925SOL    HW220235   0.335   3.717   8.696  1.3357  1.0958  0.2673
 2926SOL     OW20236   0.945   0.211  17.693 -0.3809  0.1614  0.6363
 2926SOL    HW120237   0.873   0.148   0.004  0.1681 -0.6029 -0.9044
 2926SOL    HW220238   0.939   0.228  17.599 -0.5157 -2.6924  0.1229
 2927SOL     OW20239   4.063   1.629   7.112 -0.1545  0.5697 -0.3282
 2927SOL    HW120240   3.980   1.581   7.119 -1.0551  1.7921 -2.2987
 2927SOL    HW220241   4.120   1.573   7.164 -3.3524 -1.3511  1.0977
 2928SOL     OW20242   0.428   2.712   3.273 -0.1937 -0.5018 -0.0150
 2928SOL    HW120243   0.374   2.684   3.346 -1.0939  1.6018  0.1388
 2928SOL    HW220244   0.511   2.732   3.317 -0.5422  0.5141  0.1994
 2929SOL     OW20245   2.866   2.454   8.119  0.4758  0.1894  0.1071
 2929SOL    HW120246   2.895   2.535   8.078 -0.5917  0.4443 -0.1630
 2929SOL    HW220247   2.818   2.492   8.193  0.5967 -1.1297  0.8668
 2930SOL     OW20248   0.035   1.917  10.096  0.3645  0.1060 -0.3443
 2930SOL    HW120249   0.006   1.962  10.176 -0.1181 -0.1622 -0.3678
 2930SOL    HW220250   0.067   1.989  10.041  2.1686  0.7548  1.5238
 2931SOL     OW20251   4.533   1.287  13.047  0.6570  0.7546 -0.1100
 2931SOL    HW120252   4.477   1.228  12.998  1.8860 -1.4487  1.1367
 2931SOL    HW220253   4.496   1.373  13.026  0.2332  0.7519  0.6163
 2932SOL     OW20254   0.232   0.406   8.673 -0.2818 -0.3551  0.0909
 2932SOL    HW120255   0.149   0.369   8.700  0.5505 -4.0249 -2.3045
 2932SOL    HW220256   0.295   0.385   8.742 -0.1393 -0.6850 -0.1407
 2933SOL     OW20257   1.180   2.566   6.307  0.0707 -0.1111  0.5142
 2933SOL    HW120258   1.262   2.578   6.260 -1.4282 -1.2989 -2.4467
 2933SOL    HW220259   1.115   2.541   6.241 -0.0115 -0.9820  0.9296
 2934SOL     OW20260   1.140   3.349  15.096  0.1582  0.1523 -0.1264
 2934SOL    HW120261   1.227   3.333  15.131  0.7981  2.1397 -0.7579
 2934SOL    HW220262   1.126   3.275  15.037 -1.9613 -0.3247  0.9591
 2935SOL     OW20263   1.197   1.083   6.442 -0.3195 -0.1790  0.0387
 2935SOL    HW120264   1.259   1.142   6.399  1.4871 -0.4469  2.2855
 2935SOL    HW220265   1.127   1.144   6.465  1.1768  1.4500  0.3325
 2936SOL     OW20266   2.263   4.110  14.848 -0.2061  0.4016 -0.1620
 2936SOL    HW120267   2.212   4.051  14.904  1.2911 -0.5303  0.2117
 2936SOL    HW220268   2.335   4.141  14.904 -0.6498  0.8694  0.1509
 2937SOL     OW20269   0.291   0.128   4.085  0.1537 -0.4120 -0.0961
 2937SOL    HW120270   0.297   0.078   4.003  0.3325 -1.4604  0.5552
 2937SOL    HW220271   0.331   0.207   4.050  0.7644 -2.3928 -3.8584
 2938SOL     OW20272   0.774   2.714   7.620 -0.1080 -0.5487  0.0290
 2938SOL    HW120273   0.717   2.777   7.665  1.7240  1.9976 -1.2291
 2938SOL    HW220274   0.779   2.747   7.531 -0.6332 -1.6446 -0.4054
 2939SOL     OW20275   0.178   0.050  14.443 -0.3523 -0.2658  0.1106
 2939SOL    HW120276   0.126   0.123  14.409  0.4177 -0.0291 -0.5502
 2939SOL    HW220277   0.256   0.085  14.484  0.0222  2.6182 -3.0073
 2940SOL     OW20278   2.594   0.757   1.973 -0.2702  0.3949  0.0361
 2940SOL    HW120279   2.572   0.828   2.032 -1.1554 -1.1637  1.5544
 2940SOL    HW220280   2.640   0.805   1.903 -1.7617 -0.4080 -1.5091
 2941SOL     OW20281   2.438   3.995   9.494  0.2634  0.6862 -0.3561
 2941SOL    HW120282   2.448   4.048   9.415  0.6187  1.2010  0.0413
 2941SOL    HW220283   2.524   4.017   9.527  0.0981  1.9149 -0.7607
 2942SOL     OW20284   2.153   1.721   0.510 -0.6547  0.3223 -0.3522
 2942SOL    HW120285   2.235   1.683   0.480 -0.8922 -0.1024 -0.4579
 2942SOL    HW220286   2.169   1.715   0.604  2.5755 -0.9942 -0.9930
 2943SOL     OW20287   4.050   3.491   2.455 -0.0920 -0.3291  0.4771
 2943SOL    HW120288   3.980   3.552   2.430  1.7288  1.0514 -1.2233
 2943SOL    HW220289   4.007   3.406   2.456 -1.0197  0.1485  1.5355
 2944SOL     OW20290   0.373   4.604  10.988 -0.0767  0.4866  1.0846
 2944SOL    HW120291   0.367   4.584  11.081  1.5380  2.2422  1.5493
 2944SOL    HW220292   0.426   4.683  10.996 -0.0317  0.4625  1.0289
 2945SOL     OW20293   2.615   2.220   3.859 -0.8082  0.1240  0.0189
 2945SOL    HW120294   2.579   2.231   3.772  3.8039 -1.8264 -2.1308
 2945SOL    HW220295   2.682   2.285   3.838 -0.9871 -0.0690 -1.1441
 2946SOL     OW20296   0.088   3.436   6.950  0.3290 -0.0497  0.1118
 2946SOL    HW120297   0.091   3.418   7.044 -0.8296 -0.9118 -0.0149
 2946SOL    HW220298   0.152   3.508   6.949 -0.4514  0.6435 -0.1293
 2947SOL     OW20299   0.229   2.704   7.131 -0.0581  0.3973  0.0751
 2947SOL    HW120300   0.254   2.614   7.110  0.9533  0.2128  2.0816
 2947SOL    HW220301   0.216   2.696   7.225  1.5006 -0.0990  0.2532
 2948SOL     OW20302   4.192   0.897   0.870 -0.6397 -0.0674 -0.3884
 2948SOL    HW120303   4.161   0.917   0.782 -0.2750  0.6119 -0.3651
 2948SOL    HW220304   4.118   0.840   0.891  1.0043 -2.9043 -2.2916
 2949SOL     OW20305   4.160   1.366  12.155 -0.0035  0.5878 -0.7579
 2949SOL    HW120306   4.188   1.445  12.200  2.7700 -0.9963  0.3269
 2949SOL    HW220307   4.230   1.300  12.153 -1.5114 -1.0957  2.2222
 2950SOL     OW20308   1.121   3.496  15.447 -0.2609 -0.1892 -0.6799
 2950SOL    HW120309   1.155   3.420  15.399  1.7073  0.8951 -0.9702
 2950SOL    HW220310   1.035   3.460  15.469 -0.8006  2.0656  0.8546
 2951SOL     OW20311   0.862   3.755   3.905 -0.4269  0.0167  0.3727
 2951SOL    HW120312   0.816   3.838   3.921 -3.0736 -1.1709 -1.1883
 2951SOL    HW220313   0.911   3.748   3.987  0.8045  2.6793 -0.1212
 2952SOL     OW20314   1.497   0.685   9.103 -0.4553  0.2018  0.1561
 2952SOL    HW120315   1.564   0.620   9.084 -2.8572 -2.8104  2.0401
 2952SOL    HW220316   1.503   0.705   9.196 -1.8024  2.6506 -0.2761
 2953SOL     OW20317   3.024   1.591   7.559 -0.1449  0.0919  0.0416
 2953SOL    HW120318   2.941   1.624   7.525 -0.9755 -0.6141  1.3986
 2953SOL    HW220319   3.083   1.664   7.535 -0.5892  0.7174  0.8584
 2954SOL     OW20320   1.271   0.709   4.695 -0.2286 -0.3074  0.3296
 2954SOL    HW120321   1.283   0.659   4.776 -0.7209 -1.3784 -0.2456
 2954SOL    HW220322   1.175   0.699   4.691 -0.1887  0.8831 -3.6060
 2955SOL     OW20323   1.342   4.588   2.106  0.2983  0.1458 -0.4504
 2955SOL    HW120324   1.335   4.495   2.127  0.5582 -0.1286 -1.5734
 2955SOL    HW220325   1.406   4.574   2.036 -1.1927 -0.4360 -1.6982
 2956SOL     OW20326   3.455   1.561  12.144  0.2066 -0.2054 -0.5356
 2956SOL    HW120327   3.508   1.563  12.223 -0.2895  0.9775 -0.2379
 2956SOL    HW220328   3.435   1.653  12.125 -1.0266 -0.1875  0.8828
 2957SOL     OW20329   3.863   4.093   8.101  0.2230 -0.0306  0.8304
 2957SOL    HW120330   3.823   4.088   8.187  1.7707  1.0041  1.6036
 2957SOL    HW220331   3.923   4.018   8.107 -0.6189 -0.4363  4.0774
 2958SOL     OW20332   1.635   0.780   5.693  0.1943  1.0394 -0.0440
 2958SOL    HW120333   1.618   0.689   5.666  0.8639  0.6253  0.9206
 2958SOL    HW220334   1.632   0.825   5.609 -2.9955 -0.4667 -0.7320
 2959SOL     OW20335   3.628   2.171   2.933  0.9439  0.3988  0.5732
 2959SOL    HW120336   3.609   2.259   2.899  0.8732  0.1388 -0.0661
 2959SOL    HW220337   3.537   2.143   2.935  1.1865 -0.1803  3.2448
 2960SOL     OW20338   0.341   3.875   2.672 -0.5847 -0.9476  0.0137
 2960SOL    HW120339   0.435   3.886   2.654 -0.8160  0.4870 -0.3135
 2960SOL    HW220340   0.320   3.791   2.632 -1.8751 -0.2984 -0.6797
 2961SOL     OW20341   0.479   2.714   2.738 -0.6575 -0.3071 -0.4711
 2961SOL    HW120342   0.524   2.634   2.765 -0.5624  0.2817  1.1300
 2961SOL    HW220343   0.409   2.671   2.689 -0.0257 -3.8575  1.8018
 2962SOL     OW20344   4.383   2.191   4.805 -0.9967  0.9263 -0.2547
 2962SOL    HW120345   4.408   2.282   4.791  0.1290  0.1922 -2.9737
 2962SOL    HW220346   4.467   2.148   4.793  0.1988  2.9779  0.8088
 2963SOL     OW20347   1.492   4.072   1.588 -0.2267  0.2809  0.0390
 2963SOL    HW120348   1.556   4.131   1.547  0.5826 -0.5158  0.1614
 2963SOL    HW220349   1.440   4.138   1.635 -2.3661 -1.5823  0.2791
 2964SOL     OW20350   3.631   0.217  12.088  0.3144  1.1967 -0.2746
 2964SOL    HW120351   3.586   0.140  12.053  0.5058  0.9171  0.0948
 2964SOL    HW220352   3.571   0.282  12.052 -0.2743  0.2786 -0.9729
 2965SOL     OW20353   1.549   3.118  13.265  0.2992 -0.2187 -0.7144
 2965SOL    HW120354   1.634   3.148  13.297  0.4237 -0.3592 -0.9122
 2965SOL    HW220355   1.484   3.133  13.334 -1.6179  3.0654 -3.2449
 2966SOL     OW20356   2.972   1.530   8.329  0.2953 -0.0718  0.1381
 2966SOL    HW120357   3.043   1.587   8.298  0.6291 -0.4452  0.2089
 2966SOL    HW220358   2.989   1.534   8.423  0.8761  3.6023 -0.1342
 2967SOL     OW20359   2.893   1.660   2.132  0.3575 -0.0528 -0.3988
 2967SOL    HW120360   2.812   1.677   2.084 -0.1535 -0.4383  0.3169
 2967SOL    HW220361   2.862   1.604   2.203  2.1088  0.8610  1.0866
 2968SOL     OW20362   0.349   0.858   3.628  0.0572 -0.2747  0.2584
 2968SOL    HW120363   0.334   0.898   3.542  0.0296 -1.9891 -0.5408
 2968SOL    HW220364   0.262   0.818   3.634 -0.0521 -0.2463 -1.2138
 2969SOL     OW20365   0.016   1.045   8.801  0.3582  0.1280 -0.1726
 2969SOL    HW120366   4.662   1.024   8.749  0.1240  0.0017  0.2181
 2969SOL    HW220367   0.049   0.959   8.825 -1.1751 -0.5267 -0.4530
 2970SOL     OW20368   3.514   4.360   8.384  0.2841  0.0321 -0.6436
 2970SOL    HW120369   3.526   4.434   8.324  2.0913 -0.5139 -0.9619
 2970SOL    HW220370   3.445   4.310   8.339 -1.1109  0.1962  1.2984
 2971SOL     OW20371   2.338   3.901  11.365  0.1892 -0.0247 -0.2436
 2971SOL    HW120372   2.401   3.910  11.293 -1.9535  2.3814 -1.8174
 2971SOL    HW220373   2.349   3.809  11.389  1.1275  0.1178 -0.1194
 2972SOL     OW20374   0.870   3.143   1.937  0.0991  0.4638  0.1252
 2972SOL    HW120375   0.860   3.154   2.032 -3.6513  0.8014 -0.3316
 2972SOL    HW220376   0.952   3.096   1.953 -0.2460  0.3120  1.4651
 2973SOL     OW20377   4.001   4.171  14.630 -0.0389  0.1816 -0.6671
 2973SOL    HW120378   3.911   4.146  14.609 -0.7459  0.9046  1.4590
 2973SOL    HW220379   4.022   4.086  14.667 -0.7463 -0.2049 -1.1611
 2974SOL     OW20380   1.257   2.706   1.997 -0.3998 -0.5868  0.1619
 2974SOL    HW120381   1.343   2.747   2.004  0.0889 -1.5775 -0.1117
 2974SOL    HW220382   1.226   2.701   2.088 -1.4936 -0.4340 -0.1974
 2975SOL     OW20383   3.169   4.683   8.295  0.1998 -0.2782 -0.0537
 2975SOL    HW120384   3.139   4.593   8.305 -3.7719  1.0657  0.1998
 2975SOL    HW220385   3.175   4.703   8.202 -0.6752  0.7539  0.1068
 2976SOL     OW20386   4.442   0.005  13.353  0.1225  0.1232 -0.1687
 2976SOL    HW120387   4.443   4.704  13.445 -1.7291 -1.5102 -0.5544
 2976SOL    HW220388   4.474   0.095  13.351 -0.1556  0.2815  2.7886
 2977SOL     OW20389   1.667   0.408  11.078  0.1608  0.1859  0.4488
 2977SOL    HW120390   1.605   0.473  11.044 -0.5995 -0.1768  1.1540
 2977SOL    HW220391   1.694   0.437  11.165 -2.5300  1.3533  0.8984
 2978SOL     OW20392   4.352   3.089   2.784 -0.4069 -0.9705  0.3835
 2978SOL    HW120393   4.281   3.030   2.810 -1.5951  0.3296  0.0726
 2978SOL    HW220394   4.434   3.051   2.816  0.0635 -1.6635 -1.6781
 2979SOL     OW20395   1.965   2.365   7.505  0.2667 -0.2359 -0.0036
 2979SOL    HW120396   2.023   2.441   7.496 -0.1698  0.2184  0.9199
 2979SOL    HW220397   1.889   2.411   7.540  1.1402  1.0486  0.2271
 2980SOL     OW20398   4.698   3.303   6.210 -0.7045  0.1186  0.1131
 2980SOL    HW120399   4.603   3.298   6.210 -0.5802 -2.5632  0.6594
 2980SOL    HW220400   4.707   3.378   6.268  0.1556  0.1273 -0.0308
 2981SOL     OW20401   1.656   4.188   2.600  0.6891 -0.0070  0.0425
 2981SOL    HW120402   1.658   4.270   2.650  0.2049  1.7394 -2.8254
 2981SOL    HW220403   1.685   4.135   2.675 -3.3965 -2.5939 -0.2046
 2982SOL     OW20404   0.036   4.097   1.243  0.0775 -0.0464  0.1502
 2982SOL    HW120405   4.714   4.177   1.268  1.8924  0.9450  0.2214
 2982SOL    HW220406   0.083   4.117   1.163 -2.4834 -2.1489 -1.9123
 2983SOL     OW20407   1.245   4.717   4.426 -0.5295 -0.2355  0.0258
 2983SOL    HW120408   1.288   0.008   4.342 -2.9362  0.3751 -1.0944
 2983SOL    HW220409   1.282   4.634   4.458 -0.6681  0.1804  1.2599
 2984SOL     OW20410   0.402   0.567  17.011 -0.1406  0.7111  0.3108
 2984SOL    HW120411   0.473   0.614  16.967  1.1450 -0.9687  0.5729
 2984SOL    HW220412   0.447   0.541  17.092 -1.6388 -3.0397 -0.0640
 2985SOL     OW20413   2.981   2.289   7.915 -0.6699 -0.2993 -0.4357
 2985SOL    HW120414   2.934   2.317   7.994  1.2045 -1.5686  1.1463
 2985SOL    HW220415   3.004   2.378   7.888 -0.6548  0.1936  1.1760
 2986SOL     OW20416   0.802   4.171   7.859  0.2834  0.2484 -0.0496
 2986SOL    HW120417   0.772   4.165   7.768  0.8971  1.1116 -0.3041
 2986SOL    HW220418   0.885   4.213   7.834 -0.3077  1.2231 -0.3457
 2987SOL     OW20419   3.053   1.472   0.619 -0.0383  0.4901 -0.3098
 2987SOL    HW120420   2.975   1.425   0.648  1.7862 -2.6459 -0.5832
 2987SOL    HW220421   3.116   1.480   0.690 -1.2483  0.8652  0.7266
 2988SOL     OW20422   2.260   2.151   4.251  0.3450 -0.4020 -0.3017
 2988SOL    HW120423   2.310   2.179   4.173  1.4070  1.5532  1.0691
 2988SOL    HW220424   2.318   2.191   4.316  0.9705  1.8023 -2.1884
 2989SOL     OW20425   2.248   1.785   0.907  0.2043 -0.5198  0.0188
 2989SOL    HW120426   2.236   1.738   0.990  1.2295  1.6596  1.3970
 2989SOL    HW220427   2.180   1.738   0.858  0.6872 -0.9558 -0.2372
 2990SOL     OW20428   3.306   3.248   3.180  0.3320 -0.2693 -0.3123
 2990SOL    HW120429   3.337   3.335   3.204  0.0315  0.0357 -1.0166
 2990SOL    HW220430   3.347   3.208   3.256 -0.1200  0.4578  0.3108
 2991SOL     OW20431   3.989   1.540   5.025 -0.1358 -0.1175  0.2463
 2991SOL    HW120432   4.010   1.457   5.070 -1.1548 -0.5065  0.0024
 2991SOL    HW220433   4.033   1.527   4.941  0.3635 -1.6898  0.7462
 2992SOL     OW20434   0.986   1.803   0.421 -0.1642 -0.2986  0.0382
 2992SOL    HW120435   1.052   1.740   0.450  2.4370  0.4644 -4.2725
 2992SOL    HW220436   1.005   1.878   0.477 -2.9166  0.7730 -0.4764
 2993SOL     OW20437   2.246   0.170  17.248  0.0277 -0.2111  0.1081
 2993SOL    HW120438   2.222   0.219  17.169  1.6422  1.9443  0.9661
 2993SOL    HW220439   2.227   0.233  17.317 -0.8352  0.0406 -0.3570
 2994SOL     OW20440   4.313   3.026   2.136 -0.1521 -0.1854  0.1599
 2994SOL    HW120441   4.338   2.992   2.050 -1.8956  0.1925 -0.4993
 2994SOL    HW220442   4.382   3.092   2.145  0.1943 -0.4184 -0.7437
 2995SOL     OW20443   0.886   2.452  11.224 -0.1136 -0.0879  0.0942
 2995SOL    HW120444   0.879   2.460  11.319 -0.6541 -0.3837  0.0802
 2995SOL    HW220445   0.939   2.528  11.199 -0.9176  0.2629 -0.5510
 2996SOL     OW20446   1.049   2.810   2.877  0.2919  0.0115 -0.2960
 2996SOL    HW120447   0.962   2.771   2.866  0.2095 -0.8548  3.4398
 2996SOL    HW220448   1.100   2.740   2.919  0.8606  1.2357  1.0384
 2997SOL     OW20449   4.621   4.340   4.467  0.2139 -0.0288  0.1831
 2997SOL    HW120450   4.672   4.339   4.548  0.2434 -1.5567  0.1344
 2997SOL    HW220451   4.543   4.373   4.513 -1.0163 -0.7222 -1.3977
 2998SOL     OW20452   0.615   0.850   3.259 -0.4505 -0.0713 -0.0687
 2998SOL    HW120453   0.583   0.932   3.296  0.0757 -0.1859  0.6490
 2998SOL    HW220454   0.561   0.837   3.181 -0.1264 -0.2380 -0.2644
 2999SOL     OW20455   3.367   2.687  11.408  0.3927 -0.1894 -0.4550
 2999SOL    HW120456   3.428   2.622  11.441 -0.1779 -0.7115 -0.4273
 2999SOL    HW220457   3.404   2.770  11.437 -2.4297  1.2934 -1.0784
 3000SOL     OW20458   0.942   0.725   1.120 -0.5863 -0.2030  0.0848
 3000SOL    HW120459   0.953   0.819   1.109  2.4502 -0.7567 -1.4360
 3000SOL    HW220460   0.890   0.713   1.200 -0.4681  2.1651  0.5087
 3001SOL     OW20461   1.716   4.468   8.513 -0.7638  0.0621 -0.4344
 3001SOL    HW120462   1.754   4.556   8.522 -2.1366  0.4292  1.6769
 3001SOL    HW220463   1.741   4.442   8.602 -0.7417 -2.5887 -1.2139
 3002SOL     OW20464   0.657   2.036   4.779 -0.1863 -0.4348  0.4290
 3002SOL    HW120465   0.700   2.069   4.700  0.7045 -1.8373  0.3360
 3002SOL    HW220466   0.609   1.963   4.741 -2.3343 -0.0306  2.3525
 3003SOL     OW20467   1.089   3.603   6.806  0.3711 -0.1194  1.1606
 3003SOL    HW120468   1.039   3.682   6.827 -1.3754 -0.2365 -2.5031
 3003SOL    HW220469   1.042   3.534   6.852 -0.0065  0.0559  1.0354
 3004SOL     OW20470   1.288   1.011   8.492  0.3211 -0.4543  0.2256
 3004SOL    HW120471   1.274   0.921   8.464  0.6016 -1.3384  3.0180
 3004SOL    HW220472   1.352   1.009   8.562  2.0442 -1.3887 -1.3656
 3005SOL     OW20473   3.145   3.808   7.439  0.1251 -0.0421  0.7007
 3005SOL    HW120474   3.184   3.771   7.518  1.8701 -1.4984 -0.8287
 3005SOL    HW220475   3.176   3.899   7.431  0.7478 -0.1283  2.2948
 3006SOL     OW20476   0.820   0.752   0.557  0.4738 -0.2740 -0.1850
 3006SOL    HW120477   0.915   0.755   0.569  0.5714 -0.2695 -0.9612
 3006SOL    HW220478   0.794   0.826   0.503  1.2397 -0.3193 -0.6109
 3007SOL     OW20479   1.033   3.736   4.124 -0.1130  0.4688 -0.1080
 3007SOL    HW120480   1.026   3.831   4.117 -0.7467  0.3187 -1.4930
 3007SOL    HW220481   1.117   3.734   4.170  2.2230 -1.7911 -4.5030
 3008SOL     OW20482   3.619   2.237  16.537  0.9184 -0.0227 -0.2929
 3008SOL    HW120483   3.686   2.304  16.525  0.2624  0.8621  1.0579
 3008SOL    HW220484   3.542   2.294  16.542  1.5211  0.8303 -0.7083
 3009SOL     OW20485   1.592   4.535   4.936  0.0772  0.1736 -0.1917
 3009SOL    HW120486   1.498   4.539   4.953  0.3223 -1.0713  1.5326
 3009SOL    HW220487   1.614   4.472   5.005  0.3244  1.1641  0.6374
 3010SOL     OW20488   1.023   2.483   6.109  0.0391 -0.2312  0.0067
 3010SOL    HW120489   0.947   2.525   6.068  0.2019 -1.3808 -1.4711
 3010SOL    HW220490   1.069   2.454   6.031  0.2125 -0.2761  0.1247
 3011SOL     OW20491   1.134   2.636  13.773 -0.2035 -0.1730 -0.2698
 3011SOL    HW120492   1.061   2.615  13.715 -2.6179 -0.0137  2.7289
 3011SOL    HW220493   1.160   2.544  13.772  1.4278  0.2693  1.0825
 3012SOL     OW20494   2.891   0.190   8.840 -0.0218  0.2740 -0.1945
 3012SOL    HW120495   2.852   0.159   8.758 -1.5449 -2.2167  1.5091
 3012SOL    HW220496   2.813   0.235   8.872 -0.0240  0.3709 -0.3371
 3013SOL     OW20497   2.711   0.374   6.672 -0.0924 -0.4086 -0.4468
 3013SOL    HW120498   2.680   0.447   6.619  1.4799 -0.8997 -2.0183
 3013SOL    HW220499   2.792   0.404   6.713  0.1701 -0.1222 -1.1800
 3014SOL     OW20500   4.579   0.296   4.686  0.4587 -0.3097  0.1565
 3014SOL    HW120501   4.587   0.201   4.676 -2.1001 -0.4128 -1.0111
 3014SOL    HW220502   4.582   0.324   4.595 -0.4423  2.5814  1.0292
 3015SOL     OW20503   3.085   3.717  13.035  0.1692 -0.2445 -0.7206
 3015SOL    HW120504   3.018   3.656  13.066  0.9197 -1.6925 -1.9353
 3015SOL    HW220505   3.163   3.663  13.046  1.5379  1.8207 -0.3792
 3016SOL     OW20506   3.876   1.980   2.517  0.0643 -0.3219  0.4687
 3016SOL    HW120507   3.870   1.969   2.422 -0.8060  1.8013  0.2740
 3016SOL    HW220508   3.963   1.943   2.530  0.2840 -0.1557 -0.5260
 3017SOL     OW20509   3.420   1.875   2.945  0.2198  0.4348  0.1912
 3017SOL    HW120510   3.472   1.806   2.987 -0.5435 -1.0234 -1.2208
 3017SOL    HW220511   3.462   1.871   2.859 -2.1517 -1.9069 -0.8641
 3018SOL     OW20512   1.553   2.501   9.292  0.0648  0.0342  0.0403
 3018SOL    HW120513   1.593   2.432   9.239 -1.2064 -0.2259 -0.5675
 3018SOL    HW220514   1.588   2.583   9.257  1.7284 -0.1179  1.3239
 3019SOL     OW20515   4.608   3.299  12.313  0.1688 -0.4525  0.6244
 3019SOL    HW120516   4.678   3.362  12.326  0.5793 -0.2336 -2.5461
 3019SOL    HW220517   4.631   3.229  12.373  0.5267 -0.5979  0.3136
 3020SOL     OW20518   2.073   4.471   4.617 -0.4431  0.1231 -0.0107
 3020SOL    HW120519   2.151   4.440   4.571 -1.1505 -1.5462 -0.0608
 3020SOL    HW220520   2.049   4.395   4.669  2.3444  0.2581  1.4787
 3021SOL     OW20521   3.250   2.321   6.996  0.0541  0.0660 -0.0661
 3021SOL    HW120522   3.202   2.239   6.981  0.0666  0.2373 -1.0892
 3021SOL    HW220523   3.289   2.337   6.910  0.0218 -0.7381 -0.2302
 3022SOL     OW20524   4.437   1.887  11.779  0.2049 -0.2976 -0.3935
 3022SOL    HW120525   4.440   1.961  11.718 -1.0705 -0.4051 -0.5707
 3022SOL    HW220526   4.357   1.906  11.828 -0.4850 -1.9403 -0.8992
 3023SOL     OW20527   1.741   4.523   3.156 -0.3645  0.3330 -0.4782
 3023SOL    HW120528   1.684   4.448   3.139 -2.4697  1.9815 -0.7211
 3023SOL    HW220529   1.700   4.567   3.230 -0.5565 -0.4331 -0.1366
 3024SOL     OW20530   1.526   2.100   3.448  0.2360 -0.2850 -0.2096
 3024SOL    HW120531   1.471   2.173   3.474 -0.7359 -0.7637 -0.9509
 3024SOL    HW220532   1.462   2.043   3.405 -0.6115  1.4621 -1.2865
 3025SOL     OW20533   2.326   3.102   9.824  0.6457  0.0515 -0.2196
 3025SOL    HW120534   2.417   3.124   9.841 -0.1399  0.8498  3.0241
 3025SOL    HW220535   2.320   3.012   9.856  3.2044  1.3258  3.8394
 3026SOL     OW20536   0.755   0.967  13.110 -0.2918 -0.3248  0.3153
 3026SOL    HW120537   0.811   0.993  13.183 -0.4975 -0.8913  0.6740
 3026SOL    HW220538   0.726   0.883  13.144 -1.6874 -0.1694 -0.4928
 3027SOL     OW20539   1.914   4.668   1.728 -0.0122 -0.0829  0.2117
 3027SOL    HW120540   1.905   0.014   1.662 -0.9338 -0.7278 -0.3389
 3027SOL    HW220541   2.000   4.693   1.762 -0.2176 -0.2935  0.8790
 3028SOL     OW20542   1.557   1.499   0.043 -0.2808 -0.3730 -0.1291
 3028SOL    HW120543   1.617   1.499  17.662 -1.8758 -0.5015 -1.3991
 3028SOL    HW220544   1.603   1.461   0.118 -0.6035 -1.2728 -0.3886
 3029SOL     OW20545   3.376   3.192   5.875 -0.0995  0.4642 -0.3242
 3029SOL    HW120546   3.314   3.125   5.850  1.2493  0.1894 -2.8919
 3029SOL    HW220547   3.313   3.264   5.886 -0.4819  0.1107 -0.2163
 3030SOL     OW20548   0.911   4.585   5.532  0.8602  0.0705 -0.1590
 3030SOL    HW120549   0.930   4.669   5.574 -1.0694  0.2841  0.2778
 3030SOL    HW220550   0.968   4.532   5.588  0.2438 -0.3391  0.0842
 3031SOL     OW20551   0.993   0.696   5.649 -0.0344  0.3631 -0.2870
 3031SOL    HW120552   0.943   0.637   5.592  1.9266 -1.0236 -0.5795
 3031SOL    HW220553   1.082   0.694   5.613  0.3710 -1.0144  0.8004
 3032SOL     OW20554   3.735   4.712  16.209  0.6918 -0.0909 -0.0604
 3032SOL    HW120555   3.826   0.016  16.196  0.5896  0.8546  1.2230
 3032SOL    HW220556   3.750   4.646  16.276  0.2070 -0.4442 -0.3017
 3033SOL     OW20557   0.243   2.026   4.738 -0.3282 -1.0421 -0.2376
 3033SOL    HW120558   0.187   1.965   4.690 -3.7722  1.7114  0.3126
 3033SOL    HW220559   0.234   2.001   4.830  0.2572 -0.1840  0.0553
 3034SOL     OW20560   2.646   3.237   4.082  0.3145  0.2303 -0.5011
 3034SOL    HW120561   2.571   3.225   4.023 -1.6925  1.8401  1.7396
 3034SOL    HW220562   2.702   3.167   4.048  1.9176  0.0700  2.5619
 3035SOL     OW20563   2.116   1.620   7.813  0.4494  0.2774 -0.2150
 3035SOL    HW120564   2.190   1.613   7.752  0.0079  0.1848 -0.7377
 3035SOL    HW220565   2.083   1.531   7.821  0.1797  0.5699  1.9438
 3036SOL     OW20566   2.879   2.697  15.201  0.0767  0.0153  0.2985
 3036SOL    HW120567   2.924   2.702  15.286  0.0527  0.5608  0.2808
 3036SOL    HW220568   2.898   2.605  15.186 -1.9959 -0.5783  1.3478
 3037SOL     OW20569   2.817   2.767   7.967  0.1347 -0.2747 -0.0326
 3037SOL    HW120570   2.782   2.767   8.056  2.9905 -0.7087  1.0879
 3037SOL    HW220571   2.894   2.822   7.979  0.2470 -0.5335  0.4537
 3038SOL     OW20572   1.474   1.324   4.820  0.2878  0.0409 -0.1591
 3038SOL    HW120573   1.466   1.418   4.841 -1.3450 -0.1575  0.0818
 3038SOL    HW220574   1.389   1.311   4.778 -0.0894  0.2206  0.5426
 3039SOL     OW20575   3.131   3.841   4.689 -0.2910  0.1779 -0.1364
 3039SOL    HW120576   3.098   3.752   4.685  0.2365 -0.1031  2.0635
 3039SOL    HW220577   3.165   3.854   4.600 -2.0611  0.2336 -0.7895
 3040SOL     OW20578   2.042   0.741   1.011  0.8288 -0.1596 -0.2749
 3040SOL    HW120579   2.129   0.763   1.046  0.7965 -0.1027 -0.2297
 3040SOL    HW220580   1.996   0.740   1.095 -0.8094 -0.5242 -1.1806
 3041SOL     OW20581   0.165   3.419   6.378 -0.0536  0.3581  0.3531
 3041SOL    HW120582   0.186   3.498   6.427  0.2886  1.1684 -1.1093
 3041SOL    HW220583   0.242   3.423   6.321 -0.9352 -1.1240 -0.9696
 3042SOL     OW20584   2.313   2.853   8.430  0.0408  0.1283 -0.0853
 3042SOL    HW120585   2.358   2.824   8.509  0.3931  0.5037 -0.1511
 3042SOL    HW220586   2.360   2.807   8.361  0.8374  0.7001  0.0742
 3043SOL     OW20587   0.808   2.640   9.444  0.2933  0.4624  0.1544
 3043SOL    HW120588   0.848   2.631   9.530 -1.6097 -1.2919  0.8571
 3043SOL    HW220589   0.751   2.716   9.450  0.8595  0.9390 -0.5357
 3044SOL     OW20590   0.409   4.637   5.878 -0.2618  0.4949  0.4489
 3044SOL    HW120591   0.340   4.702   5.888 -0.8321 -0.1439  0.6595
 3044SOL    HW220592   0.477   4.685   5.926  0.2812  1.9390 -1.7451
 3045SOL     OW20593   4.215   2.300  17.268  0.4067 -0.0211 -0.3412
 3045SOL    HW120594   4.133   2.276  17.312  1.1870  0.5468  1.3987
 3045SOL    HW220595   4.188   2.376  17.215 -3.0180 -0.9515  0.0489
 3046SOL     OW20596   0.029   2.027   6.088  0.0661 -0.0136 -0.4040
 3046SOL    HW120597   0.120   1.999   6.100 -0.0303  0.1909  0.7877
 3046SOL    HW220598   0.017   2.076   6.170  1.4824  2.8998 -1.9321
 3047SOL     OW20599   2.064   2.146   5.154 -0.3874  0.3389  0.3361
 3047SOL    HW120600   2.109   2.079   5.204  1.5002  2.5477  1.5578
 3047SOL    HW220601   2.104   2.223   5.194 -0.1570  0.8635 -0.9065
 3048SOL     OW20602   0.090   2.154  12.807  0.2393 -0.4799  0.7736
 3048SOL    HW120603   0.053   2.138  12.894 -2.0604  1.1711  0.1222
 3048SOL    HW220604   0.088   2.068  12.764 -2.8922 -0.2933  0.5342
 3049SOL     OW20605   0.161   1.429   4.947  0.4113  0.5465 -0.3733
 3049SOL    HW120606   0.238   1.455   4.999  1.2803 -0.8144 -0.9970
 3049SOL    HW220607   0.205   1.367   4.890 -0.2848 -1.3790  1.1981
 3050SOL     OW20608   2.224   2.916  16.158  0.2588 -0.1509  0.4926
 3050SOL    HW120609   2.194   2.829  16.133 -0.2951 -0.1598  1.1778
 3050SOL    HW220610   2.148   2.964  16.125  0.2171 -1.7300 -1.7419
 3051SOL     OW20611   2.276   0.198   3.191  0.1532 -0.0887  0.2740
 3051SOL    HW120612   2.197   0.192   3.137  0.3548 -0.6290  0.0439
 3051SOL    HW220613   2.336   0.173   3.121 -1.9483 -0.3181 -1.4609
 3052SOL     OW20614   2.534   2.753  17.386  0.0740  0.1687 -0.3385
 3052SOL    HW120615   2.503   2.780  17.473  2.3990  1.3056  0.1344
 3052SOL    HW220616   2.577   2.669  17.400  0.8120  0.6866  0.5615
 3053SOL     OW20617   4.604   3.035  14.434  1.1028  1.0492  0.0657
 3053SOL    HW120618   4.672   3.022  14.368 -0.5094 -1.6933 -1.0527
 3053SOL    HW220619   4.654   3.086  14.497  1.3996  0.1592  0.5517
 3054SOL     OW20620   1.310   2.870   6.116 -0.4128  0.4167  0.0784
 3054SOL    HW120621   1.404   2.870   6.133 -0.2769 -5.0083 -0.3987
 3054SOL    HW220622   1.276   2.915   6.193 -0.7344  0.2367  0.0421
 3055SOL     OW20623   2.148   3.214   4.740  0.2572 -0.0168 -0.2242
 3055SOL    HW120624   2.207   3.214   4.664  0.8374 -0.7873  0.2312
 3055SOL    HW220625   2.095   3.291   4.717  1.1900  1.0408  1.2067
 3056SOL     OW20626   3.466   4.384   7.983 -0.1041  0.1069  1.1898
 3056SOL    HW120627   3.547   4.419   8.021 -0.9522 -0.0429  3.1254
 3056SOL    HW220628   3.401   4.450   8.005  1.7885  1.8049  1.7144
 3057SOL     OW20629   0.695   3.212   6.948  0.6847  0.1710 -0.5389
 3057SOL    HW120630   0.711   3.184   7.039  0.4740  1.0627 -0.2287
 3057SOL    HW220631   0.645   3.137   6.918  2.4388 -1.3100  0.1974
 3058SOL     OW20632   0.638   2.697   5.450 -0.1235 -0.1035 -0.1427
 3058SOL    HW120633   0.603   2.776   5.409  0.4301 -0.4145 -1.2289
 3058SOL    HW220634   0.623   2.716   5.542 -1.7331  0.0110 -0.4152
 3059SOL     OW20635   2.981   1.000   1.809  0.6151  0.4550 -0.1625
 3059SOL    HW120636   2.984   0.988   1.904 -3.3608  2.6760  0.2389
 3059SOL    HW220637   2.908   0.938   1.798  2.9782 -1.9617 -2.2256
 3060SOL     OW20638   4.699   2.648   3.542  0.3177 -0.4739  0.3785
 3060SOL    HW120639   0.070   2.634   3.557  0.4308  1.5376  1.5306
 3060SOL    HW220640   4.682   2.712   3.611  0.1758 -0.9416  0.7755
 3061SOL     OW20641   3.589   2.213   3.369 -0.1746 -0.5448 -0.0601
 3061SOL    HW120642   3.554   2.125   3.379 -1.3920 -0.1382 -0.6809
 3061SOL    HW220643   3.670   2.193   3.323  0.0270  1.1560 -0.4499
 3062SOL     OW20644   0.443   4.385   6.433  0.5244 -0.2112  0.0184
 3062SOL    HW120645   0.409   4.473   6.424  0.1696 -0.1552  1.9094
 3062SOL    HW220646   0.474   4.379   6.523 -1.3687  0.0940  0.6724
 3063SOL     OW20647   0.244   3.922  12.422 -0.6633  0.0014 -1.0040
 3063SOL    HW120648   0.256   3.918  12.517  0.1397  1.8350 -1.0481
 3063SOL    HW220649   0.309   3.986  12.396 -1.3285  1.1833  0.2109
 3064SOL     OW20650   0.596   0.094   5.330  0.1272 -0.4319  0.1590
 3064SOL    HW120651   0.676   0.144   5.348  0.2291  1.1775 -5.0309
 3064SOL    HW220652   0.633   0.012   5.297 -1.3667 -0.8865 -0.3577
 3065SOL     OW20653   2.952   1.442   6.943 -0.5461  0.0242  0.3908
 3065SOL    HW120654   2.875   1.397   6.978 -1.4831  1.8124  0.6168
 3065SOL    HW220655   2.928   1.490   6.863 -1.9448 -0.9032  0.2571
 3066SOL     OW20656   3.586   1.552   8.484  0.3008 -0.1324 -0.7082
 3066SOL    HW120657   3.575   1.635   8.438 -2.2157  1.0479  2.0341
 3066SOL    HW220658   3.656   1.574   8.546 -0.7114  0.4472  0.2310
 3067SOL     OW20659   1.404   2.176  15.112 -0.6752 -0.2765 -0.1987
 3067SOL    HW120660   1.322   2.224  15.127 -0.6033 -0.0564 -0.5170
 3067SOL    HW220661   1.372   2.108  15.052  1.0772 -1.4914  0.2565
 3068SOL     OW20662   3.235   2.865   6.991  0.2943 -0.5435 -0.1025
 3068SOL    HW120663   3.179   2.936   6.959  2.3660  0.6752 -1.0240
 3068SOL    HW220664   3.310   2.912   7.027  1.0415 -2.2596  0.5346
 3069SOL     OW20665   4.002   1.571   2.373  0.1003 -0.4361  0.4191
 3069SOL    HW120666   4.048   1.489   2.390 -2.3827 -1.6104  1.5329
 3069SOL    HW220667   4.073   1.634   2.386  0.4235 -0.9796  1.2772
 3070SOL     OW20668   1.077   0.675  10.240  0.1423  0.2822 -0.1857
 3070SOL    HW120669   1.017   0.716  10.178 -2.4783 -1.1489  1.3920
 3070SOL    HW220670   1.094   0.753  10.292 -1.5441 -0.1579  1.0559
 3071SOL     OW20671   4.312   1.500   3.903 -0.0714 -0.6371 -0.0659
 3071SOL    HW120672   4.243   1.452   3.858 -1.0947 -0.3080  1.1677
 3071SOL    HW220673   4.283   1.586   3.871  0.3067  0.0405  1.4003
 3072SOL     OW20674   2.705   1.204   1.968  0.0872  0.0618 -0.0905
 3072SOL    HW120675   2.696   1.299   1.954  1.0397  0.1000 -0.3909
 3072SOL    HW220676   2.725   1.173   1.880  0.7227  0.8932 -0.2382
 3073SOL     OW20677   4.516   2.121   3.626 -0.0273 -0.3683 -0.2232
 3073SOL    HW120678   4.472   2.098   3.708  2.5196  1.4552  1.6397
 3073SOL    HW220679   4.473   2.061   3.566 -0.4229  0.6339 -0.9388
 3074SOL     OW20680   3.142   0.044   0.521  0.0186 -0.9546 -0.0650
 3074SOL    HW120681   3.141   0.118   0.460  1.1135 -1.6757 -0.9466
 3074SOL    HW220682   3.235   0.030   0.534  0.6022  2.6705 -0.2625
 3075SOL     OW20683   3.285   0.372   5.213 -0.1031  0.5875 -0.5562
 3075SOL    HW120684   3.250   0.373   5.302 -0.2577 -0.6604 -0.6093
 3075SOL    HW220685   3.376   0.394   5.234 -0.0825 -0.3566  0.3447
 3076SOL     OW20686   3.259   0.731   2.800  0.0664  0.1366  0.3590
 3076SOL    HW120687   3.195   0.802   2.797  0.3546  0.4717  2.5071
 3076SOL    HW220688   3.242   0.684   2.718  0.9098  0.1050  0.2005
 3077SOL     OW20689   0.464   0.987   5.341  0.0201 -0.1632  0.4792
 3077SOL    HW120690   0.371   1.008   5.348  0.6886  2.0396  2.8935
 3077SOL    HW220691   0.452   0.899   5.307  2.0548 -0.4346  0.4529
 3078SOL     OW20692   4.107   1.261  16.277 -0.4706 -0.1808  0.1790
 3078SOL    HW120693   4.077   1.322  16.344  0.9725  0.7133  0.0091
 3078SOL    HW220694   4.179   1.217  16.321 -0.8468  0.9343  1.9024
 3079SOL     OW20695   3.680   1.312   8.826 -0.4414 -0.3830 -0.1804
 3079SOL    HW120696   3.605   1.272   8.781 -1.3809 -0.6184  1.5871
 3079SOL    HW220697   3.640   1.368   8.892  0.7146 -0.2100  0.3661
 3080SOL     OW20698   3.828   2.027   9.141  0.3565  0.0047 -0.5037
 3080SOL    HW120699   3.913   1.986   9.128 -0.5800 -2.4377  1.0707
 3080SOL    HW220700   3.792   2.025   9.052 -0.9927  0.6375  0.0292
 3081SOL     OW20701   0.510   3.521   9.221 -0.1044 -0.3196 -0.5218
 3081SOL    HW120702   0.605   3.523   9.224 -0.1548  2.0198 -0.8333
 3081SOL    HW220703   0.493   3.593   9.160 -3.0925  0.4646  1.2150
 3082SOL     OW20704   2.350   4.522   6.876 -0.6735  0.1727  0.2520
 3082SOL    HW120705   2.275   4.521   6.817 -0.0113  0.0802 -0.5871
 3082SOL    HW220706   2.334   4.449   6.937  0.8579 -0.0687  0.3730
 3083SOL     OW20707   0.666   2.569  10.062  0.0933 -0.4090 -0.0800
 3083SOL    HW120708   0.674   2.474  10.051 -2.0474 -0.5145 -0.7477
 3083SOL    HW220709   0.753   2.603  10.044 -0.3580  1.5473  1.4521
 3084SOL     OW20710   4.011   3.912   0.105  0.1984  0.2195  0.1878
 3084SOL    HW120711   3.932   3.884   0.150 -0.7338  0.2466 -1.4250
 3084SOL    HW220712   4.011   3.854   0.029  1.0273  1.0369 -0.4390
 3085SOL     OW20713   2.938   2.756   6.101 -0.2219  0.2585 -0.5871
 3085SOL    HW120714   2.860   2.746   6.155  0.7034 -1.4416  0.4331
 3085SOL    HW220715   2.989   2.677   6.118 -1.1943 -0.2082  0.1164
 3086SOL     OW20716   2.054   2.609   7.761  0.3601 -1.0742  0.1876
 3086SOL    HW120717   1.977   2.566   7.798 -0.2989 -0.8201 -0.9115
 3086SOL    HW220718   2.029   2.699   7.782  1.0186 -0.7544 -0.4058
 3087SOL     OW20719   3.380   3.807   3.166 -0.7160 -0.4692 -0.4412
 3087SOL    HW120720   3.422   3.741   3.111  1.4479 -0.1202  0.8013
 3087SOL    HW220721   3.414   3.778   3.251  1.2779  0.7588 -0.8446
 3088SOL     OW20722   3.468   2.345   9.078  0.7094  0.5292  0.6861
 3088SOL    HW120723   3.379   2.339   9.043  0.3394  0.3484  1.6440
 3088SOL    HW220724   3.451   2.383   9.165  2.5873 -0.6792  1.5603
 3089SOL     OW20725   2.015   2.546  10.223 -0.4077  0.2392  0.0737
 3089SOL    HW120726   1.928   2.542  10.263 -1.1633  0.2765 -1.5591
 3089SOL    HW220727   1.997   2.606  10.150 -2.6707 -1.5508 -0.8515
 3090SOL     OW20728   1.992   1.670   3.087 -0.1539 -0.1649  0.4412
 3090SOL    HW120729   1.972   1.585   3.124  0.9223 -1.2790 -1.5156
 3090SOL    HW220730   2.034   1.636   3.008  3.1560  1.1883  1.6014
 3091SOL     OW20731   1.650   4.062   8.804  0.0003 -0.3666 -0.4717
 3091SOL    HW120732   1.599   4.016   8.737  0.1369  0.3861 -1.0807
 3091SOL    HW220733   1.597   4.048   8.883  0.1299  1.5632 -0.0320
 3092SOL     OW20734   1.849   0.096   6.419 -0.5676 -0.2325 -0.1769
 3092SOL    HW120735   1.804   0.172   6.383  0.0784  0.3200  0.1884
 3092SOL    HW220736   1.872   0.058   6.334  2.1433  0.1487  0.3710
 3093SOL     OW20737   0.844   2.728   9.956 -0.2338 -0.2832 -0.5065
 3093SOL    HW120738   0.871   2.815   9.926  1.0428 -0.7960 -0.8649
 3093SOL    HW220739   0.932   2.699   9.979 -0.3108  0.4376  0.6751
 3094SOL     OW20740   3.946   2.504   2.242  0.3290 -0.3901  0.0361
 3094SOL    HW120741   3.940   2.592   2.280 -0.9001 -0.2891 -0.3888
 3094SOL    HW220742   3.865   2.466   2.276 -1.6981  3.1780 -0.7679
 3095SOL     OW20743   1.960   4.706  13.331  0.3161 -0.1299  0.2030
 3095SOL    HW120744   2.006   0.045  13.387 -2.1091  1.7488  0.0827
 3095SOL    HW220745   1.931   4.641  13.396 -0.1811 -0.8234 -0.7177
 3096SOL     OW20746   4.367   4.448  14.456 -0.2253 -0.2245  0.3927
 3096SOL    HW120747   4.293   4.501  14.485 -1.1825 -0.6863 -1.2072
 3096SOL    HW220748   4.323   4.365  14.476  1.7833 -1.2024  0.8399
 3097SOL     OW20749   1.273   1.933   6.741  0.2485 -0.0575 -0.1772
 3097SOL    HW120750   1.230   1.923   6.656 -0.3779 -1.0846  0.2579
 3097SOL    HW220751   1.240   2.009   6.790  2.2775 -0.7979  2.3241
 3098SOL     OW20752   3.871   3.688  13.699 -0.4281 -0.6838 -0.5714
 3098SOL    HW120753   3.945   3.716  13.644  1.0828  1.6425  2.6428
 3098SOL    HW220754   3.881   3.593  13.701  2.1767 -0.4205 -0.6090
 3099SOL     OW20755   0.011   1.609  16.259  0.9757  0.2744  0.0770
 3099SOL    HW120756   0.082   1.605  16.323  3.4041 -1.2019 -2.7043
 3099SOL    HW220757   4.663   1.656  16.303  1.4676 -0.0225  1.1820
 3100SOL     OW20758   4.449   0.882   6.779  0.5705 -0.2642 -0.0778
 3100SOL    HW120759   4.464   0.851   6.690 -3.0075 -2.6152  0.1428
 3100SOL    HW220760   4.419   0.971   6.764 -1.7093 -1.2927 -1.5671
 3101SOL     OW20761   3.879   4.236   9.806 -0.1175  0.1749  0.8099
 3101SOL    HW120762   3.887   4.230   9.711  1.6901  0.3965  0.9629
 3101SOL    HW220763   3.797   4.285   9.818 -0.4204  0.2725 -1.5498
 3102SOL     OW20764   3.264   0.886  17.017 -0.9419 -0.2375 -0.1759
 3102SOL    HW120765   3.272   0.903  17.111 -0.3240  2.2212 -0.6629
 3102SOL    HW220766   3.326   0.950  16.982 -1.7222  1.1280  0.9437
 3103SOL     OW20767   2.532   1.645   5.542  0.3087 -0.0853  0.4475
 3103SOL    HW120768   2.576   1.695   5.612  0.6616 -0.4422  0.4777
 3103SOL    HW220769   2.460   1.706   5.527  1.4257  0.7010 -1.6177
 3104SOL     OW20770   4.365   0.868   5.197 -0.5538 -0.1277 -0.0562
 3104SOL    HW120771   4.414   0.878   5.115  0.4331 -1.4253  0.3614
 3104SOL    HW220772   4.274   0.855   5.171 -0.5036  0.9944 -0.7770
 3105SOL     OW20773   3.377   0.315   0.579  0.0228  0.2201 -0.5972
 3105SOL    HW120774   3.300   0.312   0.523 -0.7347  0.3529  0.4226
 3105SOL    HW220775   3.389   0.221   0.596  0.4715  0.4215  0.2215
 3106SOL     OW20776   2.846   3.198   6.430 -0.7188  0.0255 -0.6622
 3106SOL    HW120777   2.854   3.293   6.422  1.2617 -0.2462 -1.9735
 3106SOL    HW220778   2.843   3.179   6.336  0.1039 -0.1542 -0.6472
 3107SOL     OW20779   3.881   0.743   7.037 -0.0091  0.1286 -0.0569
 3107SOL    HW120780   3.798   0.718   6.997  0.3412 -2.0871  0.6301
 3107SOL    HW220781   3.867   0.836   7.055 -0.6334  0.3224 -1.5397
 3108SOL     OW20782   0.171   2.602   7.926  0.1476  0.6556  0.1936
 3108SOL    HW120783   0.248   2.615   7.982  0.6489  1.9805 -0.8157
 3108SOL    HW220784   0.113   2.668   7.963 -0.4905  0.6880 -0.8830
 3109SOL     OW20785   4.365   3.397   7.917  0.6791  0.3257 -0.6686
 3109SOL    HW120786   4.384   3.307   7.888  0.3665  0.0106  0.0982
 3109SOL    HW220787   4.307   3.393   7.993  2.1710 -1.5904  0.3594
 3110SOL     OW20788   4.675   4.303   3.693  0.4224 -0.0359 -0.2790
 3110SOL    HW120789   4.712   4.330   3.609  1.4300 -1.1108 -0.2009
 3110SOL    HW220790   4.586   4.333   3.677  1.3227  1.0581 -3.1732
 3111SOL     OW20791   0.769   0.452   6.716  0.0712  0.1898 -0.2972
 3111SOL    HW120792   0.782   0.377   6.658 -1.5643 -1.5450  1.6132
 3111SOL    HW220793   0.852   0.461   6.763 -1.2140 -1.6101  2.2718
 3112SOL     OW20794   1.114   2.454   0.123  0.2723 -0.6199 -0.1613
 3112SOL    HW120795   1.074   2.540   0.110 -0.8609 -1.4879 -2.3887
 3112SOL    HW220796   1.133   2.422   0.035 -0.8223 -3.6130  0.6957
 3113SOL     OW20797   3.742   0.868  12.840 -0.4332 -0.0336  0.2967
 3113SOL    HW120798   3.806   0.841  12.774  0.0326 -1.3337  1.2930
 3113SOL    HW220799   3.778   0.947  12.880 -1.1027  0.5433 -0.2431
 3114SOL     OW20800   3.928   2.807   5.810  0.0607 -0.4009  0.2732
 3114SOL    HW120801   3.875   2.857   5.872 -1.9493  0.9585 -2.5327
 3114SOL    HW220802   3.968   2.874   5.754  2.3031 -0.6152  1.6154
 3115SOL     OW20803   0.574   2.656   0.508  0.4173  0.2109 -0.1990
 3115SOL    HW120804   0.533   2.664   0.593 -1.3595  0.2664 -1.0714
 3115SOL    HW220805   0.629   2.585   0.539  0.0819 -0.4806 -1.1872
 3116SOL     OW20806   0.209   2.854   1.504 -0.3442  0.2418  0.0561
 3116SOL    HW120807   0.236   2.774   1.549  0.1101 -0.5202 -1.5786
 3116SOL    HW220808   0.269   2.920   1.540 -0.7110  0.1447  0.8480
 3117SOL     OW20809   3.114   0.134   0.966  0.1856 -0.1463 -0.2141
 3117SOL    HW120810   3.160   0.117   1.048 -0.8299  3.0884  1.0445
 3117SOL    HW220811   3.124   0.229   0.955  0.8096 -0.3151 -1.0688
 3118SOL     OW20812   1.565   1.468   4.153  0.7890 -0.1419 -0.0051
 3118SOL    HW120813   1.649   1.493   4.192 -0.1162  1.8283  0.7058
 3118SOL    HW220814   1.562   1.375   4.176 -0.5958  0.0081  0.4125
 3119SOL     OW20815   4.252   4.684  15.411 -0.4531 -0.4456  0.4153
 3119SOL    HW120816   4.184   4.663  15.346  0.7967 -2.8658 -0.1302
 3119SOL    HW220817   4.207   0.040  15.441 -0.3661 -1.3448  2.8904
 3120SOL     OW20818   4.611   2.557   1.244  0.1757 -1.0467 -0.1340
 3120SOL    HW120819   4.572   2.637   1.279  1.4030  0.4215 -2.1085
 3120SOL    HW220820   4.672   2.534   1.314  0.5288  2.8631  0.8118
 3121SOL     OW20821   1.087   4.549   2.928 -0.2553 -0.0810  0.0436
 3121SOL    HW120822   1.048   4.605   2.996  1.1442 -0.1821  0.9436
 3121SOL    HW220823   1.129   4.486   2.987  0.0954  0.1785  0.0717
 3122SOL     OW20824   2.611   2.090  15.100 -0.2028 -0.2532 -0.0650
 3122SOL    HW120825   2.581   2.171  15.141 -1.0688 -0.8075  0.3955
 3122SOL    HW220826   2.676   2.127  15.041 -0.9262  1.4017  0.1874
 3123SOL     OW20827   1.497   0.668   7.359 -0.0578 -0.0090  0.3414
 3123SOL    HW120828   1.536   0.731   7.421  0.9304 -0.7950  0.5141
 3123SOL    HW220829   1.534   0.582   7.378  0.4406 -0.1171 -1.1370
 3124SOL     OW20830   1.263   2.954   7.020  0.2778 -0.4239  0.2703
 3124SOL    HW120831   1.318   3.031   7.011 -0.4817  0.0734 -0.0557
 3124SOL    HW220832   1.183   2.980   7.065 -0.5685 -0.5460 -1.1632
 3125SOL     OW20833   4.448   4.711   4.205  0.4615  0.1957  0.2130
 3125SOL    HW120834   4.422   4.655   4.131  0.0812  0.2270  0.3202
 3125SOL    HW220835   4.493   0.065   4.172  0.3116  0.5716  0.8969
 3126SOL     OW20836   2.031   2.077   6.514  0.4055 -0.1491 -0.0891
 3126SOL    HW120837   2.088   2.072   6.591 -0.8660 -0.4824  0.8272
 3126SOL    HW220838   2.047   2.169   6.493 -2.0152 -0.0449 -1.3875
 3127SOL     OW20839   0.636   2.084  17.291 -0.2501  0.2650 -0.0535
 3127SOL    HW120840   0.728   2.078  17.268 -0.7574 -2.1439 -1.4339
 3127SOL    HW220841   0.647   2.063  17.384  0.2097 -0.0976 -0.1949
 3128SOL     OW20842   3.765   0.695  16.410  0.2072 -0.8787 -0.2863
 3128SOL    HW120843   3.708   0.690  16.487 -1.3565  2.1917 -1.2658
 3128SOL    HW220844   3.704   0.664  16.343 -1.5423 -0.2138  1.0097
 3129SOL     OW20845   3.896   1.359  16.732  0.8474 -0.3318  0.0231
 3129SOL    HW120846   3.990   1.355  16.717  1.0451 -2.5957  1.9155
 3129SOL    HW220847   3.889   1.373  16.826  1.0725 -1.1537  0.1638
 3130SOL     OW20848   0.606   3.227   1.913 -0.0129  0.2163  0.2942
 3130SOL    HW120849   0.636   3.263   1.996  0.5504 -0.4376  0.3770
 3130SOL    HW220850   0.687   3.192   1.876 -0.9032 -0.1769 -1.2530
 3131SOL     OW20851   2.029   3.286   6.735  0.3220 -0.0803 -0.2224
 3131SOL    HW120852   2.049   3.210   6.681  0.0696 -0.9400  0.8953
 3131SOL    HW220853   2.063   3.362   6.687 -0.3944 -0.6921 -1.6761
 3132SOL     OW20854   1.174   0.822  11.539  0.3275  0.1567  0.2804
 3132SOL    HW120855   1.150   0.773  11.617  2.3794  0.1221  0.8892
 3132SOL    HW220856   1.266   0.795  11.536 -0.5330 -2.5912 -1.4178
 3133SOL     OW20857   1.356   0.999  15.157  0.0792 -0.0338 -0.4147
 3133SOL    HW120858   1.451   0.994  15.172  0.3559 -0.1966 -2.2046
 3133SOL    HW220859   1.348   1.094  15.166  0.9043 -0.1343  1.3534
 3134SOL     OW20860   4.063   0.284   7.593  0.4035  0.1422 -0.3889
 3134SOL    HW120861   4.024   0.198   7.578  2.3537 -0.6312 -1.0193
 3134SOL    HW220862   4.059   0.300   7.687 -0.7799  1.5582 -0.6846
 3135SOL     OW20863   2.121   3.960  14.433 -0.1834  0.0374 -0.0123
 3135SOL    HW120864   2.099   4.033  14.491 -1.2405 -0.3590  0.0937
 3135SOL    HW220865   2.214   3.950  14.449  0.1326  1.7281 -0.7674
 3136SOL     OW20866   4.501   0.471   4.894 -0.4284 -0.0290 -0.5351
 3136SOL    HW120867   4.537   0.448   4.980  0.5331  0.2344 -0.8708
 3136SOL    HW220868   4.545   0.407   4.837  1.1510  2.2377 -1.8517
 3137SOL     OW20869   2.774   4.279   6.645 -0.3733 -0.3031 -0.7094
 3137SOL    HW120870   2.717   4.331   6.702  0.4630  0.4600 -0.5626
 3137SOL    HW220871   2.763   4.191   6.681 -0.2163  0.1810  0.5279
 3138SOL     OW20872   3.371   0.468   3.588  0.4955  0.2870 -0.1749
 3138SOL    HW120873   3.279   0.448   3.573  0.9247 -2.6726  1.0885
 3138SOL    HW220874   3.390   0.406   3.659 -0.0286  1.7292  1.2397
 3139SOL     OW20875   1.877   0.414   1.892 -0.8548 -0.2743  0.1133
 3139SOL    HW120876   1.903   0.469   1.966 -2.0129  0.4153  0.0153
 3139SOL    HW220877   1.827   0.344   1.934  0.5793 -2.1831 -1.4074
 3140SOL     OW20878   0.956   3.891   5.146  0.0106  0.2091 -0.2790
 3140SOL    HW120879   0.920   3.833   5.079 -0.7416  2.0739 -1.4949
 3140SOL    HW220880   0.904   3.971   5.141  0.1628  0.2456 -1.1365
 3141SOL     OW20881   1.061   2.582  14.463  0.5822  0.1808 -0.2056
 3141SOL    HW120882   1.049   2.676  14.451 -0.2561  0.1038  0.0432
 3141SOL    HW220883   1.003   2.556  14.391  0.4952  0.2369 -0.1553
 3142SOL     OW20884   3.938   1.261   6.911  0.4914  0.1475  0.0750
 3142SOL    HW120885   3.992   1.268   6.990  0.7843 -4.3536  0.2640
 3142SOL    HW220886   3.855   1.297   6.941  0.1594  0.9491 -1.8220
 3143SOL     OW20887   1.459   0.583  12.322  0.2379  0.1692 -0.4663
 3143SOL    HW120888   1.367   0.587  12.295  0.0409 -1.5001 -0.0892
 3143SOL    HW220889   1.447   0.624  12.407 -0.9039 -0.9781 -0.0693
 3144SOL     OW20890   0.037   4.317   0.828 -0.0176 -0.5018  0.0319
 3144SOL    HW120891   4.675   4.350   0.859  0.4575  1.3153 -0.6214
 3144SOL    HW220892   0.088   4.368   0.891  0.0314  1.0499 -1.2565
 3145SOL     OW20893   3.321   4.526  10.834  0.0954 -0.3332 -0.0886
 3145SOL    HW120894   3.292   4.533  10.925 -0.0024  1.5224 -0.2625
 3145SOL    HW220895   3.416   4.520  10.848 -0.0555 -2.7969 -0.0582
 3146SOL     OW20896   0.163   0.877   7.409  0.6790 -0.4812  0.1356
 3146SOL    HW120897   0.136   0.905   7.496  1.2089 -0.9374  0.4448
 3146SOL    HW220898   0.247   0.833   7.426  1.7938  1.6469  0.1120
 3147SOL     OW20899   3.145   0.933   1.453  0.5512 -0.2067 -0.2241
 3147SOL    HW120900   3.197   1.005   1.416 -0.1132 -0.2322 -1.1930
 3147SOL    HW220901   3.196   0.912   1.531 -1.2365 -2.1599  0.4124
 3148SOL     OW20902   2.771   4.126  12.606  0.3282 -0.4202 -0.1043
 3148SOL    HW120903   2.824   4.049  12.625  1.9783  0.6608 -0.3993
 3148SOL    HW220904   2.804   4.190  12.669  2.1231  0.2417 -1.7184
 3149SOL     OW20905   2.114   2.727   6.120  0.1573 -0.6686  0.1942
 3149SOL    HW120906   2.187   2.754   6.064 -0.9408  1.3559 -0.2829
 3149SOL    HW220907   2.045   2.728   6.053  0.8347  0.6558 -0.5007
 3150SOL     OW20908   3.928   3.102   4.567  0.2229 -0.8528  0.2651
 3150SOL    HW120909   3.929   3.028   4.506  2.2368 -0.5934  0.0022
 3150SOL    HW220910   3.847   3.147   4.540  1.2302  1.6796  1.5085
 3151SOL     OW20911   4.592   0.223  10.755 -0.1479 -0.1067 -0.3738
 3151SOL    HW120912   4.570   0.133  10.731 -3.9395  1.2705 -2.0225
 3151SOL    HW220913   4.554   0.227  10.843  2.2208  0.6734  0.6066
 3152SOL     OW20914   2.090   0.178   5.036 -0.3550  0.7546  0.0792
 3152SOL    HW120915   2.135   0.129   4.967 -1.2516 -1.1040  0.8225
 3152SOL    HW220916   2.155   0.248   5.045  0.1413  0.3332 -0.1965
 3153SOL     OW20917   4.178   1.942  10.992 -0.0220  0.5100 -0.5812
 3153SOL    HW120918   4.151   1.915  11.080  4.7830 -0.6328  0.5044
 3153SOL    HW220919   4.270   1.920  10.982 -0.3600 -0.9170 -0.5860
 3154SOL     OW20920   2.598   1.566  10.648  0.6147 -0.6672  0.1532
 3154SOL    HW120921   2.533   1.628  10.615  0.9306 -0.7499 -0.6298
 3154SOL    HW220922   2.674   1.585  10.593 -1.2078 -0.5890 -2.3227
 3155SOL     OW20923   4.576   1.146  16.702  0.4254 -0.5865  0.1711
 3155SOL    HW120924   4.643   1.091  16.741  1.3082  0.0468 -0.4525
 3155SOL    HW220925   4.629   1.225  16.698  0.3018 -0.4798  0.6344
 3156SOL     OW20926   0.852   2.324  15.470  0.3697 -0.2172  0.1002
 3156SOL    HW120927   0.901   2.242  15.461 -1.3372 -1.4255  1.6853
 3156SOL    HW220928   0.811   2.329  15.384 -0.6834 -1.7955  0.5105
 3157SOL     OW20929   0.203   4.393   3.390 -0.3206 -0.1634  0.0953
 3157SOL    HW120930   0.285   4.442   3.386 -0.1660 -0.4067  0.2551
 3157SOL    HW220931   0.148   4.464   3.423 -1.1914 -0.4413 -0.7544
 3158SOL     OW20932   4.189   3.392  11.323  0.1006  0.5511  0.2188
 3158SOL    HW120933   4.268   3.357  11.364  1.4694  1.0952 -1.9711
 3158SOL    HW220934   4.130   3.388  11.398 -0.0730 -0.5989  0.0205
 3159SOL     OW20935   4.171   2.928   3.924 -0.2417  0.5421  0.1291
 3159SOL    HW120936   4.189   3.018   3.951 -0.3209  0.4803  0.3878
 3159SOL    HW220937   4.235   2.934   3.852 -0.2574  2.1091  0.2555
 3160SOL     OW20938   1.597   1.463   9.767  0.3203 -0.3643 -0.3630
 3160SOL    HW120939   1.643   1.385   9.796 -2.0049 -1.7877 -0.5420
 3160SOL    HW220940   1.503   1.441   9.765  0.0611  0.9557 -2.2214
 3161SOL     OW20941   4.069   1.388   3.430 -0.3281  0.1257  0.3758
 3161SOL    HW120942   4.014   1.313   3.406  0.1780  0.6531 -2.4177
 3161SOL    HW220943   4.099   1.423   3.346 -1.5493  0.3482  0.0247
 3162SOL     OW20944   0.695   3.766   7.112  0.0137 -0.3029  0.2452
 3162SOL    HW120945   0.659   3.847   7.076  0.3063 -0.4723 -0.4287
 3162SOL    HW220946   0.614   3.727   7.145  0.3180 -1.0387  0.1286
 3163SOL     OW20947   0.206   3.140   6.782 -0.8747 -0.9806 -0.7880
 3163SOL    HW120948   0.123   3.178   6.811  0.2615  1.5286 -0.7509
 3163SOL    HW220949   0.208   3.065   6.841 -0.9066 -1.4651 -1.4065
 3164SOL     OW20950   4.171   4.073   7.435  0.1239 -0.0225  0.2472
 3164SOL    HW120951   4.142   4.111   7.517 -1.7100 -0.5988 -0.1449
 3164SOL    HW220952   4.187   3.989   7.477  2.3138  0.7657  1.0395
 3165SOL     OW20953   4.676   0.431  12.043  0.5350  0.2018  0.2373
 3165SOL    HW120954   4.640   0.518  12.061  0.2461 -0.2798  2.0106
 3165SOL    HW220955   4.608   0.378  12.000  0.1905 -2.0421  3.5142
 3166SOL     OW20956   0.514   2.743  12.021 -0.0008  0.1674 -0.1083
 3166SOL    HW120957   0.529   2.663  12.071 -1.3278  0.2241  0.3503
 3166SOL    HW220958   0.454   2.712  11.954  1.0895 -1.2236 -0.4436
 3167SOL     OW20959   0.105   1.689   7.372 -0.0475  0.0306 -0.1480
 3167SOL    HW120960   0.192   1.650   7.362 -0.4195 -0.0098 -3.5254
 3167SOL    HW220961   0.045   1.614   7.371  0.6232 -0.5186  2.0331
 3168SOL     OW20962   3.004   1.031  11.706 -0.1707  0.0089 -0.6008
 3168SOL    HW120963   3.096   1.033  11.678 -0.2874  0.2501 -0.9627
 3168SOL    HW220964   2.995   1.122  11.732  2.5833  0.1805 -0.1771
 3169SOL     OW20965   2.763   4.034   4.332 -0.0721 -0.1236  0.2277
 3169SOL    HW120966   2.808   4.048   4.248 -0.6609 -1.0413 -0.2331
 3169SOL    HW220967   2.718   3.953   4.310 -0.9716  0.4777 -0.1670
 3170SOL     OW20968   1.020   1.447   5.502 -0.7019 -0.0203  0.2820
 3170SOL    HW120969   1.114   1.446   5.484 -0.4370  3.7029  1.5248
 3170SOL    HW220970   0.985   1.383   5.440  1.1077  0.0448 -0.7987
 3171SOL     OW20971   3.460   1.740  13.731 -0.5968 -0.3370  0.4687
 3171SOL    HW120972   3.475   1.831  13.759  0.2495 -0.5001  0.5497
 3171SOL    HW220973   3.530   1.739  13.665 -0.0487  2.2407  0.9799
 3172SOL     OW20974   0.238   4.403   1.051 -0.4821 -0.6873  0.2211
 3172SOL    HW120975   0.184   4.442   1.120 -1.7164 -0.5256 -0.8316
 3172SOL    HW220976   0.282   4.477   1.008 -0.5392 -0.9866 -0.3573
 3173SOL     OW20977   4.704   1.318   0.195 -0.3248  0.2423 -0.2244
 3173SOL    HW120978   4.715   1.410   0.170  0.9127  0.1752  0.0696
 3173SOL    HW220979   0.053   1.313   0.259  0.2665 -1.0224 -0.9743
 3174SOL     OW20980   2.099   0.081  11.935 -0.3633 -0.3296  0.2859
 3174SOL    HW120981   2.161   0.096  11.864  1.1851  1.1593  1.9882
 3174SOL    HW220982   2.055   0.166  11.932  0.3839  0.0203 -0.7775
 3175SOL     OW20983   2.254   0.172  12.158 -0.3420 -0.1509 -0.2195
 3175SOL    HW120984   2.203   0.128  12.090 -1.5009 -3.1028  2.5503
 3175SOL    HW220985   2.342   0.152  12.125 -1.5380 -4.4226 -0.8818
 3176SOL     OW20986   2.398   3.305   3.878 -0.1607 -0.5691  0.5779
 3176SOL    HW120987   2.434   3.248   3.811 -0.6455 -0.1652 -0.0297
 3176SOL    HW220988   2.358   3.376   3.827 -1.4628 -0.2038  2.1041
 3177SOL     OW20989   0.842   4.153   2.765 -0.4658 -0.0263 -0.4116
 3177SOL    HW120990   0.911   4.210   2.732  0.0402  0.0370  0.7595
 3177SOL    HW220991   0.875   4.081   2.711  1.8514  0.4466  0.3807
 3178SOL     OW20992   3.535   0.702  16.965 -0.4799 -0.2243  1.2564
 3178SOL    HW120993   3.498   0.790  16.958 -1.4576 -0.7688 -0.4306
 3178SOL    HW220994   3.455   0.657  16.938 -0.6269  0.5215  0.4661
 3179SOL     OW20995   1.159   1.768  15.078 -0.3216  0.4465  0.1716
 3179SOL    HW120996   1.245   1.759  15.119  0.0548  1.1827 -0.4591
 3179SOL    HW220997   1.102   1.769  15.155 -1.3612  0.0335 -0.5949
 3180SOL     OW20998   0.790   2.350  12.626  0.0366  0.2685 -0.1588
 3180SOL    HW120999   0.774   2.255  12.621 -0.5836  0.3469  0.3513
 3180SOL    HW221000   0.880   2.356  12.657 -0.0153  0.9228 -0.1456
 3181SOL     OW21001   2.298   0.091   9.146 -0.1451  0.1269  0.0558
 3181SOL    HW121002   2.302   0.007   9.101 -0.0870  0.1762 -0.0291
 3181SOL    HW221003   2.368   0.091   9.211 -0.8204 -1.2816  0.8006
 3182SOL     OW21004   4.325   1.941  16.685  0.7113  0.1302 -0.1119
 3182SOL    HW121005   4.385   1.974  16.752 -0.2789  1.3358  0.1841
 3182SOL    HW221006   4.303   1.860  16.733  2.3643 -0.4145 -0.2773
 3183SOL     OW21007   4.293   1.131  16.019  0.1224 -0.1870 -0.1948
 3183SOL    HW121008   4.242   1.194  16.069 -2.0339 -1.5960 -0.5900
 3183SOL    HW221009   4.354   1.182  15.965  1.4408 -1.5634 -0.0107
 3184SOL     OW21010   1.180   3.901   4.467 -0.2966  0.0452 -0.5082
 3184SOL    HW121011   1.180   3.805   4.476  1.1075  0.1010  0.1951
 3184SOL    HW221012   1.108   3.916   4.406 -0.3571  3.0602  0.3307
 3185SOL     OW21013   3.161   2.766   4.686  0.3473 -0.5680 -0.6810
 3185SOL    HW121014   3.212   2.710   4.744 -0.8344 -0.8639  0.0703
 3185SOL    HW221015   3.215   2.845   4.683  2.5295 -1.9937  1.3854
 3186SOL     OW21016   0.709   2.924   0.466 -0.1889 -0.2947 -0.2070
 3186SOL    HW121017   0.682   3.014   0.482  0.9886 -0.0747  0.5215
 3186SOL    HW221018   0.743   2.894   0.551 -1.3331 -1.8447 -0.3036
 3187SOL     OW21019   0.550   3.888   7.619 -0.1043 -0.1208 -0.4569
 3187SOL    HW121020   0.554   3.940   7.700 -1.5304 -1.4013  0.4373
 3187SOL    HW221021   0.455   3.889   7.616 -0.1546 -0.5515  0.8509
 3188SOL     OW21022   1.909   4.701   4.281  0.0637 -0.2506 -0.4338
 3188SOL    HW121023   1.828   0.028   4.280 -1.1969 -2.2625 -0.0425
 3188SOL    HW221024   1.881   4.627   4.227 -2.3845 -0.9385  1.7786
 3189SOL     OW21025   0.089   2.875   5.403  0.0130  0.4361 -0.3514
 3189SOL    HW121026   0.126   2.892   5.489 -1.7039 -1.2968  0.7508
 3189SOL    HW221027   0.119   2.944   5.344 -1.0433 -0.8129 -2.3659
 3190SOL     OW21028   0.380   4.169   2.617  0.3008 -0.3428 -0.1203
 3190SOL    HW121029   0.397   4.118   2.538  0.5013  0.5115 -0.6317
 3190SOL    HW221030   0.444   4.140   2.681 -0.6972 -2.5824 -0.1407
 3191SOL     OW21031   1.203   0.111   2.099  0.0720 -0.2419 -0.1065
 3191SOL    HW121032   1.260   0.040   2.070  2.0055  1.6127 -0.8980
 3191SOL    HW221033   1.268   0.166   2.142 -0.2833  0.5104 -0.5315
 3192SOL     OW21034   0.650   3.191   8.753  0.0280  0.9741 -0.6601
 3192SOL    HW121035   0.608   3.174   8.837  0.4118 -0.4089 -0.7429
 3192SOL    HW221036   0.743   3.202   8.772  0.3757 -2.2244 -0.3531
 3193SOL     OW21037   2.499   2.447  11.319  0.2342 -0.3524  0.1219
 3193SOL    HW121038   2.594   2.443  11.314  0.0666 -0.5279 -3.2071
 3193SOL    HW221039   2.474   2.393  11.244 -0.1340  0.6848 -0.5213
 3194SOL     OW21040   4.651   2.834   2.316  0.2020  0.0722 -0.3683
 3194SOL    HW121041   4.716   2.869   2.256 -0.8149  1.5965 -0.5904
 3194SOL    HW221042   4.630   2.754   2.268  3.1377 -0.2538 -1.0933
 3195SOL     OW21043   1.377   2.689   6.596 -0.5455 -0.1444 -0.1074
 3195SOL    HW121044   1.283   2.684   6.613 -0.4526 -0.8047  0.2279
 3195SOL    HW221045   1.417   2.745   6.662  1.5940  0.2673 -1.7582
 3196SOL     OW21046   4.680   0.512   3.615  0.2770 -0.2796 -0.3591
 3196SOL    HW121047   4.721   0.426   3.625  0.1427 -0.6813 -3.2923
 3196SOL    HW221048   4.609   0.518   3.679  0.8689 -1.8363  0.4577
 3197SOL     OW21049   0.657   1.686   8.268  0.1430 -0.0507 -0.5322
 3197SOL    HW121050   0.714   1.673   8.344 -1.3030  2.5000  1.0077
 3197SOL    HW221051   0.595   1.736   8.321  0.6190 -1.9315  1.7980
 3198SOL     OW21052   4.693   2.835   2.807  0.8367  0.0325  0.2362
 3198SOL    HW121053   4.668   2.869   2.722 -0.7039 -0.7581  0.3718
 3198SOL    HW221054   4.689   2.741   2.790  0.6094  0.1571 -0.3677
 3199SOL     OW21055   3.987   3.307   8.814  0.6541  0.0627 -0.1593
 3199SOL    HW121056   4.055   3.246   8.840  2.2499  1.8204 -0.2222
 3199SOL    HW221057   3.993   3.384   8.871 -2.0857 -1.2615  1.9186
 3200SOL     OW21058   4.162   1.141   8.360  0.2906  0.3782 -0.0088
 3200SOL    HW121059   4.213   1.212   8.399  1.8537  0.4719 -2.2483
 3200SOL    HW221060   4.176   1.067   8.420 -0.5696  1.1878  1.1864
 3201SOL     OW21061   4.526   0.495   5.851 -0.8448  0.0849  0.8896
 3201SOL    HW121062   4.446   0.477   5.899 -0.3213  0.1434  1.7928
 3201SOL    HW221063   4.513   0.588   5.831 -0.3069 -0.1472 -0.5913
 3202SOL     OW21064   2.697   0.080  13.447 -0.1591  0.0657 -0.0449
 3202SOL    HW121065   2.638   0.022  13.495 -0.7075  1.0906  0.5067
 3202SOL    HW221066   2.631   0.147  13.430 -0.1021 -0.1425 -1.0672
 3203SOL     OW21067   2.167   3.269   5.532 -0.1598  0.1460 -0.4529
 3203SOL    HW121068   2.160   3.232   5.444 -1.7131 -1.3550  0.3016
 3203SOL    HW221069   2.242   3.213   5.555 -0.0718 -0.4271 -2.1514
 3204SOL     OW21070   3.710   3.218   3.862  0.0907  0.2883 -0.3696
 3204SOL    HW121071   3.746   3.130   3.856  2.1267  0.9492  1.5914
 3204SOL    HW221072   3.772   3.271   3.811 -0.1142  0.9335  0.0450
 3205SOL     OW21073   4.578   0.665   9.458 -0.1775  0.3031  0.2467
 3205SOL    HW121074   4.549   0.747   9.417 -0.0458  0.9080  1.3505
 3205SOL    HW221075   4.661   0.648   9.413 -0.1854  2.4077 -0.5782
 3206SOL     OW21076   2.892   3.938   3.110 -0.3347 -0.1516  0.2957
 3206SOL    HW121077   2.985   3.917   3.097 -0.7847 -1.2906 -1.1318
 3206SOL    HW221078   2.857   3.857   3.070 -0.6221 -0.4152  1.0846
 3207SOL     OW21079   1.916   0.719   1.267 -0.1253 -0.0156 -0.2332
 3207SOL    HW121080   1.936   0.684   1.354  4.1400 -2.0123 -1.9695
 3207SOL    HW221081   1.825   0.734   1.292  0.0769 -0.2744  0.6518
 3208SOL     OW21082   1.223   0.423   5.631 -0.6331 -0.0985  0.1623
 3208SOL    HW121083   1.207   0.510   5.595  0.7364  0.4878  0.9733
 3208SOL    HW221084   1.308   0.445   5.669  0.2011 -1.4463 -0.9041
 3209SOL     OW21085   3.838   1.719  15.805 -0.1078 -0.3123 -0.3632
 3209SOL    HW121086   3.751   1.713  15.765  0.4518 -2.2979 -1.3155
 3209SOL    HW221087   3.902   1.700  15.736 -1.8573 -1.1516 -1.7684
 3210SOL     OW21088   0.745   3.606   6.426 -0.2489 -0.4413  0.6678
 3210SOL    HW121089   0.782   3.687   6.462 -0.6129 -0.1135  0.3146
 3210SOL    HW221090   0.665   3.600   6.478  0.0159  2.1088  1.3586
 3211SOL     OW21091   3.035   4.203   4.664 -0.2217 -0.6407  0.2368
 3211SOL    HW121092   3.007   4.112   4.677  3.6609 -1.5980  1.9459
 3211SOL    HW221093   3.028   4.229   4.572  0.4288  0.3793  0.4759
 3212SOL     OW21094   4.584   0.846   9.056  0.2560 -0.0248 -0.3814
 3212SOL    HW121095   4.497   0.806   9.061 -0.6920  2.1031  0.3359
 3212SOL    HW221096   4.608   0.840   9.148 -2.8363  0.3426  0.4367
 3213SOL     OW21097   2.360   3.637   8.047 -0.1830 -0.1648 -0.1607
 3213SOL    HW121098   2.347   3.699   7.975  2.5703  0.2172 -0.3251
 3213SOL    HW221099   2.452   3.615   8.031 -0.1940 -0.2553 -0.1010
 3214SOL     OW21100   2.058   2.002   8.578  0.4475 -0.0238 -0.5242
 3214SOL    HW121101   2.032   2.070   8.640 -0.5558  2.2892 -3.5414
 3214SOL    HW221102   2.022   2.034   8.496 -0.9517  3.2347  1.3793
 3215SOL     OW21103   4.018   3.876   1.181  0.2412 -0.4315 -0.2577
 3215SOL    HW121104   4.035   3.957   1.231 -2.6797  1.2027 -1.9025
 3215SOL    HW221105   4.105   3.852   1.148  0.2505 -2.1112  0.9904
 3216SOL     OW21106   1.635   3.420   3.393  0.4733  0.4102 -0.2762
 3216SOL    HW121107   1.666   3.432   3.483 -1.3639  0.9165  0.2861
 3216SOL    HW221108   1.545   3.450   3.401 -0.4738 -3.0722  1.8388
 3217SOL     OW21109   1.545   3.134  15.358 -0.0825 -0.4014 -0.3720
 3217SOL    HW121110   1.611   3.072  15.327 -2.5587 -1.5537 -3.3072
 3217SOL    HW221111   1.572   3.146  15.449 -1.7426  0.1292  0.0489
 3218SOL     OW21112   3.521   4.140   5.630 -0.7264 -0.1495  0.0319
 3218SOL    HW121113   3.565   4.082   5.567 -0.8078  0.6198 -0.7222
 3218SOL    HW221114   3.496   4.075   5.696  0.1835  0.0831  0.6112
 3219SOL     OW21115   3.314   1.140  14.041 -0.8677  0.3787 -0.1457
 3219SOL    HW121116   3.264   1.207  14.087 -0.1571 -0.6016  2.0460
 3219SOL    HW221117   3.263   1.135  13.960 -0.0850 -4.1317 -0.3891
 3220SOL     OW21118   1.065   0.268   8.818  0.2203  0.0032  0.6673
 3220SOL    HW121119   1.063   0.185   8.771  1.1753  1.5528 -2.1233
 3220SOL    HW221120   1.007   0.249   8.892  1.3801 -2.4187  0.9495
 3221SOL     OW21121   2.729   3.471   2.652  0.1633  0.1053 -0.2991
 3221SOL    HW121122   2.655   3.438   2.703  0.0825  1.0791  0.1956
 3221SOL    HW221123   2.691   3.544   2.603 -1.1457  0.8631  1.8367
 3222SOL     OW21124   2.907   2.982   4.695 -0.6100  0.1782  0.6759
 3222SOL    HW121125   2.915   2.962   4.601  1.4521 -0.6598  1.0151
 3222SOL    HW221126   2.934   2.901   4.739  0.8927  0.5028  0.3701
 3223SOL     OW21127   1.135   3.184   8.201  0.0393 -0.2049 -0.1561
 3223SOL    HW121128   1.075   3.209   8.272 -1.3204 -2.2531 -0.5745
 3223SOL    HW221129   1.067   3.135   8.155  0.9186  0.5148 -2.1808
 3224SOL     OW21130   3.180   4.431  17.441  0.0021  0.4106 -0.2586
 3224SOL    HW121131   3.198   4.525  17.449  0.5689  0.4609 -2.1960
 3224SOL    HW221132   3.086   4.423  17.459 -0.3936  0.4262 -2.2923
 3225SOL     OW21133   1.089   1.642  14.821  0.2685  0.2692 -0.0221
 3225SOL    HW121134   1.181   1.648  14.795  0.4167 -1.8460 -0.0041
 3225SOL    HW221135   1.093   1.658  14.915 -1.3264  0.0724  0.0743
 3226SOL     OW21136   2.985   4.248   3.421 -0.3836  0.4445 -0.8628
 3226SOL    HW121137   2.925   4.286   3.357 -1.9801  0.3772  0.5802
 3226SOL    HW221138   3.041   4.321   3.447  0.7157 -1.0035  0.8016
 3227SOL     OW21139   2.812   1.400   7.502 -0.5200  0.6437 -0.2454
 3227SOL    HW121140   2.851   1.314   7.518  0.7848  1.2440 -0.1983
 3227SOL    HW221141   2.879   1.457   7.540  0.9105  0.9177 -3.1185
 3228SOL     OW21142   3.732   4.677  14.163 -0.4426  0.0035  0.0935
 3228SOL    HW121143   3.781   4.693  14.244  1.7212  1.7167 -1.5451
 3228SOL    HW221144   3.802   4.657  14.101  0.3780  0.8572  0.7256
 3229SOL     OW21145   3.861   1.916   0.087 -0.0720 -0.2163  0.1355
 3229SOL    HW121146   3.789   1.865   0.123  0.4644 -3.5983 -3.4976
 3229SOL    HW221147   3.901   1.938   0.171  0.5031  3.0049 -0.9749
 3230SOL     OW21148   3.763   0.080   2.723  0.2870  0.4207  0.2455
 3230SOL    HW121149   3.758   0.036   2.638 -1.7690 -1.3212  1.2730
 3230SOL    HW221150   3.845   0.038   2.748 -0.5383 -0.4910  1.3876
 3231SOL     OW21151   4.024   2.963   1.939 -0.1239  0.2236  0.0933
 3231SOL    HW121152   4.095   2.958   1.876 -0.7180 -1.1939 -0.4655
 3231SOL    HW221153   4.034   2.891   2.002 -0.8997  0.5200  0.5665
 3232SOL     OW21154   0.519   1.436   3.056  0.5222  0.6748  0.2833
 3232SOL    HW121155   0.519   1.527   3.027  1.0990  0.9894  1.2632
 3232SOL    HW221156   0.470   1.436   3.139  0.7548 -2.4547  0.4040
 3233SOL     OW21157   3.533   4.477  12.209  0.4329 -0.3488 -0.6322
 3233SOL    HW121158   3.499   4.392  12.181 -1.1400  0.9007 -2.5031
 3233SOL    HW221159   3.626   4.478  12.186  0.2146 -2.2714 -1.6601
 3234SOL     OW21160   0.476   3.476   8.254 -0.7732 -0.0824 -0.0552
 3234SOL    HW121161   0.521   3.541   8.308 -1.2801  0.0263  0.2327
 3234SOL    HW221162   0.487   3.523   8.171 -0.4363 -0.9901 -0.5201
 3235SOL     OW21163   0.674   1.095  14.812 -0.3789 -0.0713 -0.0847
 3235SOL    HW121164   0.676   1.183  14.774 -1.9832 -0.3572 -0.8381
 3235SOL    HW221165   0.767   1.076  14.826  0.2309  0.4919 -3.4117
 3236SOL     OW21166   0.281   3.485   6.149  0.5039 -0.1498 -0.0066
 3236SOL    HW121167   0.347   3.523   6.091  1.4453 -1.6730  0.0844
 3236SOL    HW221168   0.205   3.539   6.126  2.1167  0.9197 -2.7946
 3237SOL     OW21169   2.775   1.128   7.956 -0.1465 -0.8638 -0.0090
 3237SOL    HW121170   2.816   1.192   7.898 -0.8530  0.8994  1.4287
 3237SOL    HW221171   2.686   1.150   7.928  0.2670 -1.6430 -1.9141
 3238SOL     OW21172   4.537   1.799  10.490 -0.3687  0.2275  0.1483
 3238SOL    HW121173   4.559   1.804  10.583 -2.6959 -1.9252  0.8291
 3238SOL    HW221174   4.590   1.722  10.469  1.0098  0.7888  1.6165
 3239SOL     OW21175   0.760   3.688   9.363 -0.2712 -0.0569 -0.1668
 3239SOL    HW121176   0.841   3.665   9.410  0.5600  0.5515 -1.3071
 3239SOL    HW221177   0.751   3.623   9.294 -0.8423 -1.7558  1.5079
 3240SOL     OW21178   2.400   2.263   1.292 -0.5483  0.2039  0.4722
 3240SOL    HW121179   2.376   2.354   1.305 -1.0868  0.4417 -2.2607
 3240SOL    HW221180   2.427   2.265   1.200  2.2820  2.1784  1.3624
 3241SOL     OW21181   1.245   3.507   8.431 -0.2879  0.7972 -0.1280
 3241SOL    HW121182   1.296   3.435   8.395  0.1564  1.9803 -1.8387
 3241SOL    HW221183   1.244   3.477   8.522 -2.0574 -0.8638 -0.7033
 3242SOL     OW21184   2.756   3.549  14.138 -0.0562  0.0505  0.3235
 3242SOL    HW121185   2.742   3.618  14.203  0.3506  0.1402  0.3157
 3242SOL    HW221186   2.839   3.511  14.166 -0.7313 -0.7888  1.1962
 3243SOL     OW21187   0.772   1.722   8.566  0.7169 -0.4681 -0.6971
 3243SOL    HW121188   0.784   1.632   8.597 -2.6077 -0.1613  1.3234
 3243SOL    HW221189   0.737   1.753   8.649  0.6019 -0.6476 -0.6774
 3244SOL     OW21190   1.051   0.541   6.295 -0.6932  0.8243  0.5050
 3244SOL    HW121191   1.008   0.619   6.331 -3.0099 -0.7681  1.2082
 3244SOL    HW221192   1.104   0.588   6.231 -0.6739 -1.3916 -1.0947
 3245SOL     OW21193   2.183   4.496   2.717 -0.2972 -0.9268  0.1150
 3245SOL    HW121194   2.099   4.457   2.692 -1.6443  0.4112  2.5323
 3245SOL    HW221195   2.216   4.439   2.787 -2.4290 -0.9193  1.1279
 3246SOL     OW21196   1.361   3.440   6.608  0.2062  0.4525  0.1474
 3246SOL    HW121197   1.363   3.500   6.682  0.0913  0.5489  0.0724
 3246SOL    HW221198   1.327   3.359   6.645  1.8166 -0.8924 -1.3498
 3247SOL     OW21199   3.631   0.156  14.465 -0.0948  0.5843 -0.1335
 3247SOL    HW121200   3.678   0.209  14.528  0.4156 -1.4303  1.1769
 3247SOL    HW221201   3.697   0.090  14.443  2.8272  3.3821  0.2379
 3248SOL     OW21202   1.777   0.927   1.700  0.7637  0.5335 -0.6084
 3248SOL    HW121203   1.837   0.858   1.671 -1.1750 -0.8595 -1.2542
 3248SOL    HW221204   1.841   0.995   1.722  1.4742  0.4461 -2.3718
 3249SOL     OW21205   3.527   4.075  16.150 -0.0009  0.0426  0.1103
 3249SOL    HW121206   3.577   4.003  16.189  0.1575 -0.3700 -0.8456
 3249SOL    HW221207   3.583   4.085  16.072  2.3381  0.4344  1.8397
 3250SOL     OW21208   0.937   0.523   2.798  0.0988 -0.6240  0.3584
 3250SOL    HW121209   0.992   0.468   2.855  1.8808  1.4157  0.6202
 3250SOL    HW221210   0.961   0.604   2.843  0.7812 -0.4975 -0.2332
 3251SOL     OW21211   2.543   3.645   2.527  0.6527 -0.0274  0.0755
 3251SOL    HW121212   2.589   3.707   2.471  1.1781 -1.5860 -1.1934
 3251SOL    HW221213   2.495   3.706   2.584  0.2423 -1.2684  1.0718
 3252SOL     OW21214   0.061   4.299   7.177 -0.0820  0.1168  0.1122
 3252SOL    HW121215   0.020   4.276   7.260 -0.1744  1.3918  0.4111
 3252SOL    HW221216   0.025   4.383   7.148  2.3498  0.5007 -1.8471
 3253SOL     OW21217   3.513   0.925  14.058  0.3436  0.4528  0.2100
 3253SOL    HW121218   3.508   0.939  13.964  1.2583 -0.6849 -0.0083
 3253SOL    HW221219   3.601   0.893  14.075  0.1711 -0.0615  0.1446
 3254SOL     OW21220   3.927   2.203   5.599  0.3535 -0.0237 -0.4675
 3254SOL    HW121221   3.923   2.222   5.692  2.0607  1.7271 -0.7372
 3254SOL    HW221222   4.010   2.239   5.566  1.2247  0.6422  2.4782
 3255SOL     OW21223   1.994   0.372   8.420 -0.2751 -0.0103 -0.4509
 3255SOL    HW121224   1.978   0.459   8.457 -0.7135  0.6493 -2.1812
 3255SOL    HW221225   2.006   0.316   8.497  0.8409  1.5243  0.4927
 3256SOL     OW21226   2.382   3.606   1.462  0.2758  0.4305 -0.1204
 3256SOL    HW121227   2.375   3.700   1.446 -1.5592  0.5422  1.3445
 3256SOL    HW221228   2.428   3.578   1.382  0.3066 -1.2220  0.4768
 3257SOL     OW21229   3.941   3.748   1.545  0.3888  0.3193 -0.0376
 3257SOL    HW121230   4.031   3.772   1.567 -0.4012  2.0187  1.3361
 3257SOL    HW221231   3.905   3.833   1.521 -0.2392  0.2738  0.7473
 3258SOL     OW21232   3.617   3.022   6.771  0.2095 -0.1064  0.2641
 3258SOL    HW121233   3.707   3.031   6.742  0.8714 -1.0477  2.0062
 3258SOL    HW221234   3.630   2.956   6.839 -3.1388 -1.6415 -0.5874
 3259SOL     OW21235   1.855   0.369   6.041  0.3843  0.0293  0.7587
 3259SOL    HW121236   1.768   0.334   6.059  0.0103  0.8453  0.5483
 3259SOL    HW221237   1.863   0.366   5.946  1.3127 -0.3165  0.8474
 3260SOL     OW21238   0.391   1.284   2.646 -0.0513 -0.1226 -0.4998
 3260SOL    HW121239   0.457   1.215   2.652 -0.3534 -0.4056 -0.4416
 3260SOL    HW221240   0.318   1.228   2.621 -1.9073  2.4731 -0.8698
 3261SOL     OW21241   2.507   2.559   0.290  0.3794  0.3284  0.3716
 3261SOL    HW121242   2.582   2.563   0.350  0.8393 -1.5857 -0.0785
 3261SOL    HW221243   2.552   2.526   0.213 -0.2022  0.1360  0.1169
 3262SOL     OW21244   4.575   2.022   7.983 -0.1588 -0.0146 -0.0244
 3262SOL    HW121245   4.604   2.058   7.899 -2.2604  0.5147 -0.5364
 3262SOL    HW221246   4.491   1.981   7.963  1.0674 -1.2840 -2.5176
 3263SOL     OW21247   4.333   3.943   3.209  0.4591  0.1130  0.3427
 3263SOL    HW121248   4.281   3.862   3.205  2.4854 -1.2979  2.2292
 3263SOL    HW221249   4.370   3.956   3.122  0.3988 -0.5018  0.2235
 3264SOL     OW21250   1.156   3.670   1.658 -0.3986 -0.3834  0.8280
 3264SOL    HW121251   1.246   3.683   1.628 -0.3334  0.5198  1.4101
 3264SOL    HW221252   1.149   3.575   1.645  0.7014 -0.2404 -0.7361
 3265SOL     OW21253   1.151   1.535   4.271 -0.4725 -0.2827  0.3161
 3265SOL    HW121254   1.079   1.488   4.314 -1.9211  0.2345 -1.5463
 3265SOL    HW221255   1.161   1.475   4.197  0.9397  0.0270  0.2592
 3266SOL     OW21256   4.717   1.387   8.544 -0.2610  0.3207 -0.0643
 3266SOL    HW121257   4.644   1.444   8.569  0.0409  1.6003 -2.0276
 3266SOL    HW221258   0.059   1.453   8.518 -0.1666  0.8436  1.4807
 3267SOL     OW21259   1.005   4.082   7.531  0.3891  0.2293 -0.3516
 3267SOL    HW121260   1.017   4.013   7.596  2.7741  1.1159  0.1636
 3267SOL    HW221261   1.057   4.052   7.456 -0.6781  0.9728 -1.3960
 3268SOL     OW21262   3.505   4.042  14.894  0.4146  0.4978 -0.2987
 3268SOL    HW121263   3.589   4.007  14.865 -0.3716  0.0186 -2.0484
 3268SOL    HW221264   3.484   4.090  14.813 -0.6013  0.5407 -0.0182
 3269SOL     OW21265   0.804   0.164  16.202  0.1651 -0.3508 -0.1687
 3269SOL    HW121266   0.723   0.117  16.185  0.4309 -1.2543  1.0484
 3269SOL    HW221267   0.787   0.178  16.296  1.1494 -1.4347  0.1681
 3270SOL     OW21268   2.791   4.089   4.038 -0.5927 -0.3993  0.5768
 3270SOL    HW121269   2.874   4.125   4.070 -0.4294 -0.9894  0.8143
 3270SOL    HW221270   2.763   4.152   3.971 -1.2317  1.5392  2.6632
 3271SOL     OW21271   3.288   4.197   2.848 -0.6224  0.7606  0.3208
 3271SOL    HW121272   3.212   4.141   2.862 -0.3260 -0.3156 -2.4589
 3271SOL    HW221273   3.336   4.183   2.930  0.9862 -0.6718 -0.8624
 3272SOL     OW21274   0.748   4.410   3.912  0.1887 -0.5701 -0.3099
 3272SOL    HW121275   0.832   4.432   3.952 -0.4188 -0.1853  0.7617
 3272SOL    HW221276   0.700   4.490   3.931 -1.2044 -1.0016 -2.0392
 3273SOL     OW21277   2.170   0.802   3.869 -0.0199  0.4931 -0.3625
 3273SOL    HW121278   2.131   0.884   3.901  2.6998  0.8736  2.0207
 3273SOL    HW221279   2.128   0.739   3.926  0.2215  0.4186 -0.2669
 3274SOL     OW21280   1.762   0.220   8.911  0.3230  0.2013 -0.0911
 3274SOL    HW121281   1.814   0.296   8.938  1.7455 -0.7035 -0.2755
 3274SOL    HW221282   1.698   0.205   8.981  0.2207 -0.4365 -0.3219
 3275SOL     OW21283   4.056   1.081   1.311 -0.0932 -0.0046 -0.0406
 3275SOL    HW121284   3.961   1.083   1.314 -0.0600  1.7282 -0.0168
 3275SOL    HW221285   4.055   1.006   1.251 -1.0932  1.4873 -1.8815
 3276SOL     OW21286   4.257   2.120   2.562 -0.2611 -0.2378  0.5730
 3276SOL    HW121287   4.331   2.072   2.525 -0.9564 -1.4273  0.7353
 3276SOL    HW221288   4.186   2.107   2.499 -1.0741 -2.2774  1.8905
 3277SOL     OW21289   0.687   2.856  10.278 -0.4928 -0.0298 -0.3674
 3277SOL    HW121290   0.729   2.882  10.360 -1.0313  1.7803 -0.6702
 3277SOL    HW221291   0.720   2.930  10.227  0.0906  0.4729  0.7367
 3278SOL     OW21292   0.011   0.592   7.367 -0.1283  0.6718 -0.3310
 3278SOL    HW121293   4.699   0.650   7.299  1.3170  3.0183  0.9604
 3278SOL    HW221294   0.103   0.616   7.372  0.1740 -0.5391 -0.0681
 3279SOL     OW21295   1.801   2.641   2.504 -0.5491 -0.4505  0.4222
 3279SOL    HW121296   1.844   2.600   2.429  1.1330  0.5249  0.8595
 3279SOL    HW221297   1.876   2.664   2.559 -0.2184  0.3403 -0.3472
 3280SOL     OW21298   2.230   4.394  11.021 -0.1307 -0.2445 -0.2604
 3280SOL    HW121299   2.174   4.410  10.945 -0.7283 -1.3996 -0.0681
 3280SOL    HW221300   2.199   4.458  11.085  1.3107 -0.3464  0.5254
 3281SOL     OW21301   3.785   3.991  14.019 -0.0689  0.4199 -0.2272
 3281SOL    HW121302   3.742   3.976  13.935 -2.6049 -0.2379  1.1549
 3281SOL    HW221303   3.877   3.981  13.995  0.3938  0.1369  1.6278
 3282SOL     OW21304   1.024   1.296   1.244 -0.2117  0.0637  0.0021
 3282SOL    HW121305   1.085   1.345   1.300 -1.8372  1.8857  0.1890
 3282SOL    HW221306   1.030   1.346   1.163  0.3654  0.5822  0.3640
 3283SOL     OW21307   4.638   4.540   2.745 -0.4650  0.5379  0.2442
 3283SOL    HW121308   4.639   4.448   2.772 -1.2391  0.3255 -0.4360
 3283SOL    HW221309   0.008   4.558   2.757 -1.0546  3.7374 -0.0071
 3284SOL     OW21310   3.756   0.220   8.493  0.1964 -0.3023  0.5242
 3284SOL    HW121311   3.681   0.169   8.522 -2.7819  2.8265 -1.6888
 3284SOL    HW221312   3.827   0.157   8.477  2.8092  2.1563  2.2541
 3285SOL     OW21313   1.507   2.893   4.406  0.0950  0.0560 -0.4528
 3285SOL    HW121314   1.473   2.884   4.317 -0.8105 -1.0176 -0.0053
 3285SOL    HW221315   1.490   2.811   4.453 -0.6475 -0.0800 -0.9520
 3286SOL     OW21316   0.860   4.431   2.506 -0.5344  0.0361  0.3902
 3286SOL    HW121317   0.771   4.409   2.477 -0.7468 -1.0852  1.8788
 3286SOL    HW221318   0.841   4.504   2.564  0.4995  0.9729 -0.4658
 3287SOL     OW21319   0.464   0.432   8.520  0.2122  0.6395 -1.1374
 3287SOL    HW121320   0.398   0.402   8.582 -1.1917 -0.8231 -3.3519
 3287SOL    HW221321   0.541   0.397   8.566 -2.2032 -1.7473  1.0285
 3288SOL     OW21322   2.734   1.716   6.777  0.7126 -0.0075 -0.0641
 3288SOL    HW121323   2.749   1.769   6.855 -0.0956 -1.6715  1.2285
 3288SOL    HW221324   2.823   1.710   6.744  0.5149  0.4214 -0.6656
 3289SOL     OW21325   2.431   2.598   7.992 -0.6039 -0.4249 -0.3849
 3289SOL    HW121326   2.489   2.540   8.041  1.3153 -0.0635 -2.2458
 3289SOL    HW221327   2.352   2.546   7.975 -1.2017  0.4554 -0.2840
 3290SOL     OW21328   3.837   0.931  16.669  0.4270  0.1613  0.9979
 3290SOL    HW121329   3.921   0.911  16.628 -0.4453  1.1890 -1.2907
 3290SOL    HW221330   3.780   0.860  16.640 -0.6420  1.7320 -0.7044
 3291SOL     OW21331   3.557   4.330   8.682 -0.7592  0.2716 -0.9564
 3291SOL    HW121332   3.571   4.354   8.590 -0.0525 -0.1370 -0.9592
 3291SOL    HW221333   3.533   4.237   8.673 -1.6415  0.1831  2.1496
 3292SOL     OW21334   2.599   3.055   7.442  0.6146 -0.3335 -0.7181
 3292SOL    HW121335   2.529   3.103   7.488  0.0597  1.3584 -3.3516
 3292SOL    HW221336   2.653   3.022   7.514 -0.2612  0.8922  0.4939
 3293SOL     OW21337   3.193   3.400   5.941 -0.0319  0.0469  0.0984
 3293SOL    HW121338   3.176   3.462   6.011 -0.0589  1.0931 -0.8458
 3293SOL    HW221339   3.156   3.440   5.863 -0.2945 -0.2687  0.0630
 3294SOL     OW21340   3.918   3.408   4.277 -0.0131  0.1842  0.0455
 3294SOL    HW121341   4.008   3.435   4.292 -0.4073  1.4286  0.1467
 3294SOL    HW221342   3.915   3.331   4.220 -0.3377  1.1860 -1.2997
 3295SOL     OW21343   1.917   3.181   4.392  0.3395 -0.2835 -0.8941
 3295SOL    HW121344   1.842   3.240   4.392 -0.6137 -1.4894 -0.1729
 3295SOL    HW221345   1.919   3.168   4.486 -0.6319  0.9594 -0.7050
 3296SOL     OW21346   2.890   4.276  11.947 -0.4075  0.4170 -0.3364
 3296SOL    HW121347   2.958   4.240  12.004  1.5517  2.9663 -1.0680
 3296SOL    HW221348   2.845   4.343  11.998 -1.2933  1.4695 -2.4600
 3297SOL     OW21349   2.431   3.224   4.874 -0.0484  0.0378 -0.4298
 3297SOL    HW121350   2.403   3.152   4.817  1.2992 -1.3961  0.7196
 3297SOL    HW221351   2.523   3.203   4.865  0.2415  0.2293  2.2517
 3298SOL     OW21352   2.262   3.227   7.996 -0.8244 -0.1703  0.3297
 3298SOL    HW121353   2.347   3.238   8.040 -1.7281  1.3494  1.6960
 3298SOL    HW221354   2.276   3.290   7.925 -1.3646  0.0650  0.4326
 3299SOL     OW21355   0.011   4.678   9.884  0.4309  0.0766 -0.2853
 3299SOL    HW121356   4.680   4.714   9.955  0.0401  0.1343 -0.6070
 3299SOL    HW221357   0.092   4.654   9.928 -0.1392 -1.4924 -0.0763
 3300SOL     OW21358   3.889   4.372   8.765  0.2264 -0.1283 -0.9110
 3300SOL    HW121359   3.814   4.312   8.763 -0.3876  0.6160 -0.1810
 3300SOL    HW221360   3.956   4.309   8.738  1.6933  1.1767 -0.2558
 3301SOL     OW21361   1.064   2.969   2.010  0.3704 -0.1452  0.3422
 3301SOL    HW121362   1.028   2.881   2.020 -1.5538  0.5523 -0.5256
 3301SOL    HW221363   1.109   2.980   2.094  2.2868 -0.7366 -0.6078
 3302SOL     OW21364   1.572   0.189   0.651  0.2113 -0.2911 -0.3765
 3302SOL    HW121365   1.584   0.236   0.568  1.3544  1.3660  0.7267
 3302SOL    HW221366   1.640   0.122   0.645  0.6453 -0.0086  1.5070
 3303SOL     OW21367   2.980   2.004   2.787 -0.4729 -0.0210  0.4215
 3303SOL    HW121368   2.895   2.047   2.782 -1.0043 -1.0110  1.0573
 3303SOL    HW221369   3.007   2.052   2.865  0.4926  1.0465 -0.5581
 3304SOL     OW21370   4.492   0.745   3.320 -0.6341  0.0955 -0.0875
 3304SOL    HW121371   4.416   0.730   3.376 -0.2451 -0.1965  0.3685
 3304SOL    HW221372   4.441   0.781   3.247 -1.6553  0.7980  0.9702
 3305SOL     OW21373   1.678   3.189   3.263  0.5287 -0.1478 -0.1278
 3305SOL    HW121374   1.650   3.200   3.172 -0.5389 -0.2521  0.1894
 3305SOL    HW221375   1.662   3.275   3.301  3.2949 -0.0092  0.6988
 3306SOL     OW21376   2.026   2.332   9.352  0.0973  0.1612 -0.0093
 3306SOL    HW121377   2.093   2.355   9.417 -1.0831 -1.4659  1.7949
 3306SOL    HW221378   1.973   2.410   9.337 -1.6447 -1.0785 -0.2859
 3307SOL     OW21379   2.034   2.332   6.443 -0.4977  0.7431 -0.3293
 3307SOL    HW121380   2.081   2.364   6.365  0.8181 -0.5883 -0.0884
 3307SOL    HW221381   1.945   2.366   6.432 -0.8889  0.7539  2.8936
 3308SOL     OW21382   1.015   4.014   4.261 -0.2933 -0.1471 -0.2013
 3308SOL    HW121383   0.922   4.008   4.240 -0.3564 -0.4993  0.1844
 3308SOL    HW221384   1.033   4.099   4.222 -0.3998 -0.1903 -0.3477
 3309SOL     OW21385   2.897   1.462   2.950 -0.6098  0.3674  0.0915
 3309SOL    HW121386   2.807   1.437   2.971  0.1398 -1.7701  0.7091
 3309SOL    HW221387   2.939   1.456   3.036 -1.0806 -0.1385  0.2816
 3310SOL     OW21388   0.537   3.521  10.115 -0.6381  0.2645  0.4971
 3310SOL    HW121389   0.617   3.513  10.063 -2.2295  1.4221 -2.1490
 3310SOL    HW221390   0.469   3.540  10.050  0.5870 -1.7554 -1.3717
 3311SOL     OW21391   0.083   3.440   4.839 -0.0131  0.2757 -0.0536
 3311SOL    HW121392   0.092   3.527   4.801  1.6074  1.0309  2.1025
 3311SOL    HW221393   0.027   3.401   4.771 -1.6959  1.5588  0.5842
 3312SOL     OW21394   1.951   1.224   5.102 -0.0932  0.4795 -0.4439
 3312SOL    HW121395   1.971   1.209   5.010  1.1633 -3.9527  0.5360
 3312SOL    HW221396   1.985   1.147   5.147  0.1894 -0.4425 -2.2355
 3313SOL     OW21397   3.070   3.836   1.855 -0.4942  0.6002  0.1749
 3313SOL    HW121398   3.043   3.909   1.799  0.5358  0.6496 -0.2461
 3313SOL    HW221399   3.000   3.838   1.921 -2.0656 -1.9930 -1.4265
 3314SOL     OW21400   3.356   3.020   4.573 -0.4511 -0.0959 -0.2450
 3314SOL    HW121401   3.437   2.992   4.616 -0.1407 -1.8891 -1.9574
 3314SOL    HW221402   3.383   3.033   4.482 -2.5122  2.5084 -0.4578
 3315SOL     OW21403   3.135   3.866   8.303  0.3483  0.0682 -0.2417
 3315SOL    HW121404   3.152   3.773   8.290  3.0083  0.5941 -0.6382
 3315SOL    HW221405   3.164   3.906   8.221  0.6614 -3.6099 -1.9517
 3316SOL     OW21406   2.509   1.358   3.844 -0.2565 -0.1340  0.0270
 3316SOL    HW121407   2.601   1.349   3.818 -0.6783 -0.9704 -1.1828
 3316SOL    HW221408   2.494   1.448   3.815 -1.7180  0.0614  1.3873
 3317SOL     OW21409   0.019   1.586   0.098 -0.0856 -0.4939  0.9869
 3317SOL    HW121410   4.684   1.598   0.174 -2.8937  1.4911 -1.4584
 3317SOL    HW221411   4.677   1.542   0.043  0.3306  0.9292 -0.6383
 3318SOL     OW21412   4.618   3.228   9.261 -0.2221  0.2428 -0.0333
 3318SOL    HW121413   4.674   3.150   9.256  0.6243  0.7645  1.1879
 3318SOL    HW221414   4.659   3.287   9.197  1.3667 -1.0333 -0.2016
 3319SOL     OW21415   4.054   0.241   5.481  0.9486 -0.2576 -0.9376
 3319SOL    HW121416   3.981   0.216   5.425  0.8516 -0.7050 -0.6029
 3319SOL    HW221417   4.037   0.335   5.493  2.3249 -0.2484  0.8990
 3320SOL     OW21418   3.270   2.806   1.315  0.4573  0.0583  0.3541
 3320SOL    HW121419   3.269   2.780   1.223 -0.4700 -0.0219  0.3885
 3320SOL    HW221420   3.296   2.897   1.300 -0.9177  0.2156 -1.1037
 3321SOL     OW21421   1.140   1.498   8.060 -0.1902 -0.0960  0.4155
 3321SOL    HW121422   1.114   1.468   7.973 -1.2761  1.9070  0.0589
 3321SOL    HW221423   1.153   1.593   8.055 -0.7471 -0.0164  0.5053
 3322SOL     OW21424   3.356   2.681  10.454  0.1081 -0.2675  0.1619
 3322SOL    HW121425   3.270   2.642  10.464  0.3275 -0.1175  2.8742
 3322SOL    HW221426   3.398   2.627  10.521  0.9567  0.2709  0.0718
 3323SOL     OW21427   4.023   4.104   4.835  0.0206 -0.0598 -0.1485
 3323SOL    HW121428   3.937   4.118   4.875  0.6578  1.2041  0.7803
 3323SOL    HW221429   4.066   4.185   4.860 -2.2707  0.6023  1.6579
 3324SOL     OW21430   4.591   2.552   0.419 -0.6522 -0.4903 -0.2071
 3324SOL    HW121431   4.581   2.523   0.510  3.0394  0.0977  0.3810
 3324SOL    HW221432   4.670   2.502   0.399  0.1870  0.2596  1.3032
 3325SOL     OW21433   2.564   3.978   7.265  0.0084  0.5991 -0.0951
 3325SOL    HW121434   2.594   3.957   7.176 -0.9649 -0.9877 -0.0368
 3325SOL    HW221435   2.589   4.070   7.279  1.7761  0.1938 -0.5252
 3326SOL     OW21436   0.834   3.857   8.856  0.3338 -0.5833  0.5435
 3326SOL    HW121437   0.808   3.941   8.895  1.1058  0.1517 -0.5414
 3326SOL    HW221438   0.890   3.816   8.922  2.4293 -0.1825 -0.9993
 3327SOL     OW21439   2.776   0.747   7.244  0.1993 -0.3388 -0.3550
 3327SOL    HW121440   2.824   0.664   7.247  0.2673 -0.3533 -1.5434
 3327SOL    HW221441   2.813   0.802   7.312  0.7509  0.3691 -1.2217
 3328SOL     OW21442   0.404   0.109   2.363 -0.3111  0.0393 -0.2558
 3328SOL    HW121443   0.393   0.080   2.272  1.0473  1.5774 -0.9068
 3328SOL    HW221444   0.396   0.204   2.360 -1.7385 -0.1060 -1.0700
 3329SOL     OW21445   0.136   3.391   2.081  0.5479  0.1828 -0.1931
 3329SOL    HW121446   0.042   3.407   2.092  0.4279 -1.3470  1.0400
 3329SOL    HW221447   0.152   3.416   1.990 -1.0166  2.1962  0.0759
 3330SOL     OW21448   3.648   0.086  14.925 -0.0669 -0.1611  0.4015
 3330SOL    HW121449   3.690   0.172  14.933  0.1094 -0.2172  0.0513
 3330SOL    HW221450   3.584   0.095  14.996 -0.4947  1.9277 -0.2566
 3331SOL     OW21451   2.169   3.275   2.029 -0.0404  0.2628 -0.1598
 3331SOL    HW121452   2.223   3.353   2.043  0.3455 -0.1302  0.5280
 3331SOL    HW221453   2.080   3.310   2.033 -0.9260 -2.0218  0.3552
 3332SOL     OW21454   0.282   3.291   9.154  1.0084  0.5824  0.4598
 3332SOL    HW121455   0.283   3.226   9.085  1.3827 -0.7417  1.7183
 3332SOL    HW221456   0.193   3.324   9.139  0.9261 -0.4426 -1.2513
 3333SOL     OW21457   3.770   1.619   7.923 -0.3754  0.1202 -0.0547
 3333SOL    HW121458   3.794   1.712   7.918 -0.3983  0.2325  1.9853
 3333SOL    HW221459   3.695   1.624   7.863 -0.3391  0.8032 -0.0436
 3334SOL     OW21460   1.576   2.971   0.439 -0.4086 -0.4792 -0.2548
 3334SOL    HW121461   1.614   2.961   0.527  1.9153  2.4608 -0.9112
 3334SOL    HW221462   1.577   3.067   0.434  1.1973 -0.4702  0.2772
 3335SOL     OW21463   1.262   3.696   6.153 -0.4770  0.1934 -1.2084
 3335SOL    HW121464   1.218   3.779   6.171 -0.3125 -0.3363  1.6364
 3335SOL    HW221465   1.337   3.701   6.213 -0.7684  0.9969 -0.9123
 3336SOL     OW21466   2.637   2.117   4.116  0.5262 -0.7175  0.3002
 3336SOL    HW121467   2.608   2.129   4.025 -0.5248  0.2769  0.7777
 3336SOL    HW221468   2.728   2.089   4.099  0.7575  0.2184  0.0046
 3337SOL     OW21469   4.188   0.575  13.038  0.0972 -0.0477 -0.5347
 3337SOL    HW121470   4.203   0.487  13.072 -1.6361 -1.6406 -3.9014
 3337SOL    HW221471   4.236   0.559  12.956 -0.0812  2.0226 -1.0340
 3338SOL     OW21472   4.348   2.126   5.884 -0.5094  0.8141  0.1379
 3338SOL    HW121473   4.254   2.120   5.866 -0.6732 -1.3289  1.7518
 3338SOL    HW221474   4.337   2.153   5.975  3.7484 -0.4679  1.0379
 3339SOL     OW21475   1.881   4.379   8.016 -0.2500 -0.3260 -0.7351
 3339SOL    HW121476   1.788   4.385   7.995 -0.3028  1.2708 -0.0731
 3339SOL    HW221477   1.896   4.468   8.048 -0.6956 -1.0061  1.3850
 3340SOL     OW21478   1.322   2.254   6.136  0.8313  0.1754  0.2953
 3340SOL    HW121479   1.229   2.246   6.158  0.5988  2.7929  0.2614
 3340SOL    HW221480   1.340   2.166   6.102 -1.0394  0.6084 -1.8683
 3341SOL     OW21481   4.579   1.931   8.343 -0.2034 -0.5906  0.4172
 3341SOL    HW121482   4.497   1.940   8.295  0.3847  2.3276 -0.0252
 3341SOL    HW221483   4.580   2.000   8.410  2.0132  1.3781 -1.6452
 3342SOL     OW21484   3.553   1.790   8.841  0.7962 -0.2713 -0.0502
 3342SOL    HW121485   3.477   1.794   8.782  0.0223 -2.5931  0.7592
 3342SOL    HW221486   3.625   1.786   8.778 -1.4503  0.3636 -2.6830
 3343SOL     OW21487   1.745   1.979   7.328  0.5648  0.3162  0.0094
 3343SOL    HW121488   1.664   1.946   7.290  1.2529 -3.6900  1.9880
 3343SOL    HW221489   1.733   1.952   7.419  2.1881  1.3082  0.5200
 3344SOL     OW21490   3.725   3.313   0.477 -0.1756  0.8180 -0.1740
 3344SOL    HW121491   3.729   3.219   0.462  0.2765  1.0964 -1.8960
 3344SOL    HW221492   3.749   3.319   0.569  0.5805 -0.6015 -0.2910
 3345SOL     OW21493   2.532   4.511   2.319  0.0170  0.2685 -0.2169
 3345SOL    HW121494   2.464   4.573   2.346 -2.2827 -1.7970 -1.2924
 3345SOL    HW221495   2.548   4.448   2.390  2.0394  0.4132 -0.5682
 3346SOL     OW21496   1.217   1.989  10.885  0.1672 -0.7043  0.0003
 3346SOL    HW121497   1.259   2.057  10.833  3.7339  0.5149  4.5670
 3346SOL    HW221498   1.284   1.941  10.934  0.0271  1.8478  2.6564
 3347SOL     OW21499   3.780   1.475  13.533 -0.4043  0.1963 -0.9372
 3347SOL    HW121500   3.741   1.465  13.620  0.4040 -0.0597 -0.6010
 3347SOL    HW221501   3.874   1.466  13.550  0.1668  2.6604 -2.8355
 3348SOL     OW21502   3.772   2.725   3.763  0.0526  0.0037  0.0684
 3348SOL    HW121503   3.702   2.692   3.707 -1.2274  3.0295 -0.1004
 3348SOL    HW221504   3.836   2.743   3.693  1.4336 -0.1273  1.2835
 3349SOL     OW21505   4.152   4.418   2.197 -0.2775 -0.3106 -0.3186
 3349SOL    HW121506   4.221   4.431   2.261 -0.6526 -0.9437  0.2099
 3349SOL    HW221507   4.189   4.419   2.108 -0.2954 -0.4819 -0.3287
 3350SOL     OW21508   2.136   4.498   0.607 -0.8585 -0.3656 -0.3510
 3350SOL    HW121509   2.098   4.585   0.592  1.8424  0.8354 -0.2521
 3350SOL    HW221510   2.229   4.521   0.609 -0.7798 -0.4351 -2.5010
 3351SOL     OW21511   1.585   2.247   6.310  0.0602  0.0999 -0.3350
 3351SOL    HW121512   1.560   2.211   6.225 -0.6369  0.1045 -0.1291
 3351SOL    HW221513   1.499   2.240   6.352 -0.2532 -0.5141 -1.0842
 3352SOL     OW21514   3.207   3.570   8.290  0.3091 -0.0766  0.2763
 3352SOL    HW121515   3.147   3.515   8.339  0.6497  0.2003  1.0107
 3352SOL    HW221516   3.222   3.513   8.215 -0.6902  0.2660 -0.1912
 3353SOL     OW21517   2.571   1.867   2.254 -0.1966 -0.0910 -0.5661
 3353SOL    HW121518   2.615   1.890   2.335 -2.3921  2.2835 -0.0445
 3353SOL    HW221519   2.489   1.917   2.255  1.0503  1.8064  2.4027
 3354SOL     OW21520   4.122   1.016   9.990 -0.2223 -0.4864  0.0608
 3354SOL    HW121521   4.096   0.959   9.918  3.1702  1.6674 -2.9055
 3354SOL    HW221522   4.052   1.080  10.000  0.4828  0.2076  0.6290
 3355SOL     OW21523   0.548   2.967   5.978 -0.1906 -0.2101 -0.2531
 3355SOL    HW121524   0.455   2.988   5.969 -0.5464 -0.7054  2.3256
 3355SOL    HW221525   0.595   3.046   5.949  0.5152 -1.2747 -2.0288
 3356SOL     OW21526   1.544   4.395   2.757 -0.1651 -0.1963 -0.3181
 3356SOL    HW121527   1.578   4.388   2.846 -1.3603  1.6539  0.2894
 3356SOL    HW221528   1.451   4.376   2.772  0.4710 -2.3049  0.9450
 3357SOL     OW21529   3.982   1.440  11.980  0.0801  0.0989  0.2856
 3357SOL    HW121530   3.949   1.361  11.937  0.5464  1.3259 -2.3229
 3357SOL    HW221531   4.053   1.410  12.038  1.1605  0.1392 -1.0205
 3358SOL     OW21532   0.662   2.988   3.810 -0.0591 -0.5971  0.4442
 3358SOL    HW121533   0.588   2.932   3.790 -0.4160 -0.2558  0.8155
 3358SOL    HW221534   0.645   2.996   3.904 -2.6886 -1.3783  0.0299
 3359SOL     OW21535   4.031   2.775   3.683 -0.1863  0.2336  0.0084
 3359SOL    HW121536   4.065   2.823   3.759 -0.8150  0.2901  0.2514
 3359SOL    HW221537   4.048   2.841   3.616 -2.1932 -0.0364 -0.7472
 3360SOL     OW21538   0.913   4.427   9.343 -0.5113 -0.1223  0.1781
 3360SOL    HW121539   1.001   4.416   9.307 -1.0229  0.7627 -1.3500
 3360SOL    HW221540   0.933   4.428   9.437  1.4255  0.5244 -0.2338
 3361SOL     OW21541   3.510   1.165  11.020  0.2774  0.0670 -0.3449
 3361SOL    HW121542   3.586   1.170  11.077  0.0265 -1.2687  0.0984
 3361SOL    HW221543   3.458   1.187  11.097 -1.7212 -0.8548 -1.4349
 3362SOL     OW21544   3.203   4.105   5.615 -0.2435 -0.3460 -0.5146
 3362SOL    HW121545   3.151   4.055   5.678  1.4028 -1.3641  0.0344
 3362SOL    HW221546   3.291   4.074   5.638 -1.0709 -1.1273  1.6628
 3363SOL     OW21547   1.218   3.636  12.636  0.2549 -0.4460  0.7429
 3363SOL    HW121548   1.284   3.694  12.597 -0.1008 -0.9390 -0.6106
 3363SOL    HW221549   1.280   3.564  12.649  0.1120 -0.6492  0.3337
 3364SOL     OW21550   2.308   1.271   7.701  0.5801 -0.4242 -0.1163
 3364SOL    HW121551   2.358   1.206   7.750 -0.4622 -3.2474 -2.7844
 3364SOL    HW221552   2.229   1.287   7.752  2.2706  1.4941  1.8878
 3365SOL     OW21553   2.409   3.809   2.058 -0.0376 -0.0716 -0.0112
 3365SOL    HW121554   2.388   3.811   2.151  0.5136  0.9571  0.0878
 3365SOL    HW221555   2.385   3.900   2.040 -0.3158 -0.3188 -0.9142
 3366SOL     OW21556   0.589   3.352   5.895 -0.7293  0.9267 -0.0338
 3366SOL    HW121557   0.544   3.434   5.914 -1.8043  0.3628 -0.1341
 3366SOL    HW221558   0.653   3.348   5.967 -0.6313 -0.7530 -0.2052
 3367SOL     OW21559   2.684   2.716   2.704  0.3359  0.4173 -0.0530
 3367SOL    HW121560   2.660   2.765   2.626 -0.2574 -2.0686 -1.4554
 3367SOL    HW221561   2.723   2.634   2.672 -0.1052  0.4104 -0.5675
 3368SOL     OW21562   0.122   3.417   7.212  0.5382 -0.5404  0.4030
 3368SOL    HW121563   0.165   3.470   7.279 -0.7133  0.1586  0.6545
 3368SOL    HW221564   0.114   3.333   7.256 -3.7529 -0.3256  0.0875
 3369SOL     OW21565   4.176   3.309   5.102  0.0793 -0.5911 -0.1914
 3369SOL    HW121566   4.094   3.276   5.140 -1.1850  2.0633 -0.6340
 3369SOL    HW221567   4.190   3.271   5.015  0.6829 -0.9074  0.0385
 3370SOL     OW21568   3.823   1.550  14.740  0.3779 -0.4584  0.2550
 3370SOL    HW121569   3.821   1.530  14.834  2.0534  0.5452  0.5181
 3370SOL    HW221570   3.743   1.508  14.711 -1.6607  2.9854  0.8780
 3371SOL     OW21571   2.088   1.963   9.572 -0.8105  0.5799 -0.0978
 3371SOL    HW121572   2.138   1.931   9.647 -1.7815  2.3680  1.3060
 3371SOL    HW221573   2.006   1.924   9.600  0.2410  0.0323  2.2508
 3372SOL     OW21574   2.254   2.587  17.190  0.1825 -0.0124  0.3162
 3372SOL    HW121575   2.286   2.677  17.190 -1.1455  0.4560 -0.0088
 3372SOL    HW221576   2.267   2.568  17.097  0.3631 -0.5699  0.4538
 3373SOL     OW21577   1.807   2.392  10.744  0.2173  0.2909  0.0294
 3373SOL    HW121578   1.745   2.438  10.800  0.2637  1.2746 -0.7355
 3373SOL    HW221579   1.854   2.343  10.811  0.3172  1.1265  0.5688
 3374SOL     OW21580   0.755   3.209   5.349  0.4236 -0.0981  0.6254
 3374SOL    HW121581   0.753   3.145   5.420  1.4318 -0.5024  0.2837
 3374SOL    HW221582   0.681   3.186   5.293  0.1841  1.8508  0.1585
 3375SOL     OW21583   3.885   1.658   4.175 -0.5765 -0.0983 -0.3286
 3375SOL    HW121584   3.956   1.691   4.230  0.0972 -2.4393  0.2277
 3375SOL    HW221585   3.926   1.579   4.139  0.0282  0.2239 -0.3488
 3376SOL     OW21586   0.749   0.209   3.182 -0.1516  0.2252  0.1372
 3376SOL    HW121587   0.716   0.299   3.171  0.9673  0.5759 -0.3025
 3376SOL    HW221588   0.753   0.180   3.091  3.6507  1.6056 -0.1424
 3377SOL     OW21589   0.768   2.556   5.978  0.6815 -0.2384  0.7983
 3377SOL    HW121590   0.752   2.644   6.014 -0.8557 -0.7191  1.3050
 3377SOL    HW221591   0.833   2.575   5.911  0.3953  2.8248  1.3795
 3378SOL     OW21592   0.170   0.307   3.330 -0.0017 -0.5146 -0.0135
 3378SOL    HW121593   0.101   0.361   3.290  0.2931  0.2234  0.4681
 3378SOL    HW221594   0.244   0.341   3.279 -1.6773  0.7469 -1.5783
 3379SOL     OW21595   4.367   1.149   5.389  0.6005  0.6741 -0.2457
 3379SOL    HW121596   4.378   1.243   5.404 -0.5950  0.7292  0.3337
 3379SOL    HW221597   4.280   1.145   5.431  0.0852  2.1027 -1.1775
 3380SOL     OW21598   0.851   1.399   4.746  0.4943  0.5348  0.4246
 3380SOL    HW121599   0.873   1.468   4.683 -0.5241 -0.7321 -1.3017
 3380SOL    HW221600   0.890   1.430   4.827 -1.9730  1.4040  1.2688
 3381SOL     OW21601   3.728   2.740   6.547 -0.6943  0.5288 -0.1930
 3381SOL    HW121602   3.699   2.650   6.533  1.1871 -0.3947  1.8725
 3381SOL    HW221603   3.642   2.780   6.561 -0.2786  2.0533 -2.0631
 3382SOL     OW21604   1.012   2.181   0.879 -0.5849 -0.3412  0.4853
 3382SOL    HW121605   1.093   2.133   0.897 -0.6279 -0.8429 -0.6951
 3382SOL    HW221606   1.027   2.263   0.927 -1.5650  0.3140 -0.3118
 3383SOL     OW21607   2.871   4.539   5.932  0.6737  0.4549  0.1621
 3383SOL    HW121608   2.910   4.531   5.845  3.1400  1.8338  1.1265
 3383SOL    HW221609   2.945   4.546   5.993  1.8304 -2.2003 -0.9448
 3384SOL     OW21610   1.469   2.645  11.586 -0.3859 -0.1525  0.3509
 3384SOL    HW121611   1.503   2.731  11.609 -0.0472 -0.0683 -0.4598
 3384SOL    HW221612   1.457   2.597  11.668  0.6240  1.5043  1.4660
 3385SOL     OW21613   1.879   3.094   8.604 -0.1414 -0.2169 -0.5845
 3385SOL    HW121614   1.807   3.035   8.627 -0.3011  0.3541  0.3716
 3385SOL    HW221615   1.839   3.169   8.561 -0.7901 -0.1535  0.1206
 3386SOL     OW21616   0.294   4.291   7.883 -0.0647  0.0300  0.2729
 3386SOL    HW121617   0.342   4.260   7.807 -0.0385 -0.5361  0.5139
 3386SOL    HW221618   0.274   4.209   7.929 -1.6362  0.9755  1.2927
 3387SOL     OW21619   2.068   2.074  10.681 -0.0876  0.0169  0.3154
 3387SOL    HW121620   2.025   2.124  10.750  1.5985 -2.2377  2.9938
 3387SOL    HW221621   2.065   1.983  10.711  0.7812  0.2980  1.2335
 3388SOL     OW21622   3.274   1.571   6.709  0.3646 -0.3796  0.2761
 3388SOL    HW121623   3.271   1.601   6.799  0.1740  1.5245 -0.3727
 3388SOL    HW221624   3.369   1.572   6.703  0.3910  1.8776  1.2227
 3389SOL     OW21625   2.100   0.693  10.693 -0.4642 -0.0330  0.2108
 3389SOL    HW121626   2.082   0.786  10.704  0.1771  0.0013  0.9651
 3389SOL    HW221627   2.045   0.661  10.764  0.0088  0.9134  1.0150
 3390SOL     OW21628   1.997   4.272  14.984  0.2395 -0.9593 -0.2222
 3390SOL    HW121629   1.934   4.219  14.936 -1.7924  0.7706  0.5453
 3390SOL    HW221630   2.016   4.347  14.928  1.6002 -0.0779  1.3931
 3391SOL     OW21631   1.896   1.658   1.544 -0.4373 -0.3584 -0.5975
 3391SOL    HW121632   1.877   1.591   1.478 -2.6841  2.9576 -3.2734
 3391SOL    HW221633   1.833   1.725   1.519  2.1270  2.0986 -0.4397
 3392SOL     OW21634   1.663   4.204   9.188 -0.3484  0.0569  0.5451
 3392SOL    HW121635   1.707   4.186   9.271  1.8262 -1.5650 -0.9314
 3392SOL    HW221636   1.692   4.294   9.177  1.0520 -0.6142 -1.3355
 3393SOL     OW21637   0.143   4.374   0.533  0.0074 -0.5374 -0.3385
 3393SOL    HW121638   0.128   4.358   0.626 -1.5558 -0.1391 -0.5276
 3393SOL    HW221639   0.065   4.330   0.499 -0.7519  0.3224  0.3146
 3394SOL     OW21640   3.115   3.042   8.379 -0.3315  0.2115 -0.6422
 3394SOL    HW121641   3.133   3.084   8.464 -1.3777 -1.7691  0.5464
 3394SOL    HW221642   3.205   3.035   8.345 -0.0899  0.4485 -0.0653
 3395SOL     OW21643   3.096   3.785   9.370  0.0026 -0.2009 -0.1928
 3395SOL    HW121644   3.174   3.740   9.403  1.0133  1.3275 -0.4954
 3395SOL    HW221645   3.105   3.793   9.275 -0.0962  3.0754  0.0719
 3396SOL     OW21646   0.208   2.258  17.274 -0.2564  0.2032 -0.1287
 3396SOL    HW121647   0.237   2.171  17.301 -0.2388 -0.9963 -4.0487
 3396SOL    HW221648   0.283   2.313  17.296 -0.7312 -0.0178  2.0444
 3397SOL     OW21649   0.684   1.122   3.885  0.2771  0.1804 -0.2579
 3397SOL    HW121650   0.614   1.161   3.937  2.4817  1.0918  2.0572
 3397SOL    HW221651   0.652   1.033   3.872  3.3038 -0.5468 -2.7553
 3398SOL     OW21652   1.808   4.604   8.208 -1.1270  0.9246 -1.4127
 3398SOL    HW121653   1.886   4.630   8.159 -0.0713  0.6842  0.1608
 3398SOL    HW221654   1.757   4.684   8.226 -2.2193  0.3421 -1.8946
 3399SOL     OW21655   3.817   2.965   9.387  0.5571 -0.4468 -0.5635
 3399SOL    HW121656   3.827   3.043   9.333 -1.8498 -0.8509 -1.5857
 3399SOL    HW221657   3.822   2.996   9.477  1.7069 -1.9074 -0.1147
 3400SOL     OW21658   0.992   2.103  11.029 -0.9360  0.1471 -0.2983
 3400SOL    HW121659   0.930   2.048  10.981 -0.7763  0.0661 -0.4123
 3400SOL    HW221660   1.071   2.055  11.005 -0.1242  1.3089  0.0879
 3401SOL     OW21661   1.421   4.005   5.730  0.2436  0.5695 -0.5872
 3401SOL    HW121662   1.423   4.045   5.643  2.0518 -2.5902 -1.9927
 3401SOL    HW221663   1.331   4.032   5.751  1.1086  1.9791  1.3190
 3402SOL     OW21664   3.789   3.241   7.703 -0.4548  0.2227 -0.2422
 3402SOL    HW121665   3.832   3.237   7.789 -1.3199  0.5256  0.2059
 3402SOL    HW221666   3.781   3.336   7.692 -1.9719  0.3389  1.8333
 3403SOL     OW21667   3.806   2.565   9.039 -0.1905 -0.6116 -0.1884
 3403SOL    HW121668   3.892   2.571   9.079 -0.6513 -2.2943  1.0284
 3403SOL    HW221669   3.827   2.490   8.984  2.9164 -2.0270  2.9669
 3404SOL     OW21670   1.429   1.657  11.688 -0.1963  0.1618 -0.3104
 3404SOL    HW121671   1.483   1.612  11.752  0.0484  1.1875  0.2108
 3404SOL    HW221672   1.471   1.741  11.665 -1.8340  0.2938 -2.8377
 3405SOL     OW21673   1.395   3.281   5.445 -0.2054  0.0362 -0.2055
 3405SOL    HW121674   1.384   3.317   5.533 -0.7093 -0.1564 -0.1920
 3405SOL    HW221675   1.442   3.355   5.407  1.9057 -0.6447  1.0709
 3406SOL     OW21676   2.385   1.172   4.431 -0.3669  0.6526  0.1589
 3406SOL    HW121677   2.452   1.119   4.387  0.2661  2.3176 -0.8693
 3406SOL    HW221678   2.313   1.155   4.370  0.2741 -1.2858 -0.0853
 3407SOL     OW21679   3.010   1.099  16.838 -1.0493 -0.0006 -0.1030
 3407SOL    HW121680   3.058   1.017  16.826  1.0892  1.2973 -0.4635
 3407SOL    HW221681   2.962   1.067  16.914 -0.2396 -1.5441 -0.2314
 3408SOL     OW21682   4.265   3.812  17.279  0.0154  0.6785 -0.0862
 3408SOL    HW121683   4.266   3.897  17.234 -0.4128  0.9911  0.4966
 3408SOL    HW221684   4.213   3.831  17.357 -1.5503 -3.4865 -0.1449
 3409SOL     OW21685   3.992   0.704   4.597 -0.3697  0.3660  0.7073
 3409SOL    HW121686   4.068   0.757   4.620  0.3383 -0.7011  0.7969
 3409SOL    HW221687   3.932   0.779   4.596  0.0857  0.7230 -0.9832
 3410SOL     OW21688   1.717   2.782   2.202 -0.3897 -0.3739  0.1046
 3410SOL    HW121689   1.810   2.761   2.192  0.1016  0.7795  2.3163
 3410SOL    HW221690   1.720   2.873   2.230 -1.2558 -0.1391 -0.5654
 3411SOL     OW21691   2.730   0.763   3.312 -0.1985 -0.4694 -0.3732
 3411SOL    HW121692   2.648   0.810   3.326 -0.2616 -0.3489 -1.1454
 3411SOL    HW221693   2.695   0.675   3.312  0.3982 -0.7079  0.1947
 3412SOL     OW21694   2.582   0.564  17.249  0.1981 -0.1113  0.7788
 3412SOL    HW121695   2.572   0.489  17.190 -0.5048 -0.4754  1.3687
 3412SOL    HW221696   2.509   0.547  17.308  0.0251 -1.2581  0.2421
 3413SOL     OW21697   4.544   0.748   8.500 -0.4502  0.6181  0.2892
 3413SOL    HW121698   4.578   0.659   8.500 -0.4154  0.6320  0.1332
 3413SOL    HW221699   4.466   0.710   8.461  1.2818 -0.2960 -2.2728
 3414SOL     OW21700   3.079   0.073   7.532  0.7903  0.0435 -0.4638
 3414SOL    HW121701   3.063   0.128   7.609  1.6377  0.0084 -0.2713
 3414SOL    HW221702   3.012   0.011   7.560  1.1614 -0.8259 -1.5261
 3415SOL     OW21703   1.550   0.081   3.695 -0.6014  0.4396 -0.2345
 3415SOL    HW121704   1.460   0.063   3.668 -1.7013  0.8922  3.1007
 3415SOL    HW221705   1.574   0.169   3.667 -0.8822  0.7942  0.6127
 3416SOL     OW21706   2.365   0.013   5.955 -0.4682  0.0509 -0.1528
 3416SOL    HW121707   2.327   4.716   5.869  2.3544 -3.4980 -0.5866
 3416SOL    HW221708   2.458   0.011   5.933 -0.7865  0.2863 -1.5241
 3417SOL     OW21709   1.569   0.176  10.968  0.4842  0.4965  0.0177
 3417SOL    HW121710   1.596   0.207  10.882  1.2763  1.3392  0.5602
 3417SOL    HW221711   1.564   0.250  11.029 -1.7780 -0.1159  0.5676
 3418SOL     OW21712   2.711   2.836   0.115 -0.4075  0.0377  0.2064
 3418SOL    HW121713   2.719   2.932   0.108 -0.9404  0.2719  2.8528
 3418SOL    HW221714   2.794   2.815   0.157  0.2696 -0.6062 -1.4610
 3419SOL     OW21715   3.930   2.617   6.324  0.0259  0.0699 -0.5388
 3419SOL    HW121716   4.010   2.568   6.302 -1.6002 -2.6388 -0.3510
 3419SOL    HW221717   3.870   2.551   6.359 -1.5114  0.8742 -1.6602
 3420SOL     OW21718   4.398   1.574   8.673 -0.8158  0.3275  0.3944
 3420SOL    HW121719   4.438   1.582   8.760  1.0686  1.9497 -0.6144
 3420SOL    HW221720   4.470   1.605   8.617 -2.0049  1.0550 -0.7233
 3421SOL     OW21721   3.221   1.645   2.355 -0.1725  0.0437  0.0259
 3421SOL    HW121722   3.203   1.594   2.435 -1.8294  0.5805 -0.0010
 3421SOL    HW221723   3.147   1.705   2.347 -0.1625  0.2630  1.5507
 3422SOL     OW21724   0.089   4.182   6.889 -0.1757 -1.1026 -0.0730
 3422SOL    HW121725   0.131   4.221   6.965  1.4621 -0.2694 -1.3854
 3422SOL    HW221726   0.016   4.242   6.872  1.2256  0.2083 -1.5335
 3423SOL     OW21727   1.775   3.481   5.511  0.5059  0.5999  0.1495
 3423SOL    HW121728   1.848   3.521   5.463  0.9071  2.4081  2.2663
 3423SOL    HW221729   1.817   3.398   5.532 -1.7555 -0.3663  0.8569
 3424SOL     OW21730   3.399   4.268   1.206  0.0627  0.7601 -0.1862
 3424SOL    HW121731   3.407   4.216   1.125 -1.3720 -1.5368  1.1507
 3424SOL    HW221732   3.472   4.329   1.196 -1.6969  3.2170  2.2464
 3425SOL     OW21733   4.621   3.228   7.502  0.5318 -0.2912  0.0778
 3425SOL    HW121734   4.669   3.145   7.491  2.9069  1.2743 -1.3529
 3425SOL    HW221735   4.590   3.227   7.592 -2.5195 -0.8904 -0.9487
 3426SOL     OW21736   3.569   2.271  17.286 -0.7221  0.0843  0.3480
 3426SOL    HW121737   3.548   2.262  17.193 -1.6476  0.1790  0.5404
 3426SOL    HW221738   3.594   2.182  17.313 -0.8672  0.3236  1.2820
 3427SOL     OW21739   0.579   4.109   6.346 -0.3747 -0.4404 -0.5704
 3427SOL    HW121740   0.589   4.154   6.263  1.0690 -1.2232 -0.8167
 3427SOL    HW221741   0.667   4.076   6.359 -0.4257 -0.2335  0.3044
 3428SOL     OW21742   2.677   0.224  16.900  0.1685  0.1874 -0.0430
 3428SOL    HW121743   2.700   0.214  16.993  0.3424 -0.5832 -0.1700
 3428SOL    HW221744   2.762   0.223  16.856 -1.0111 -1.1424 -2.2965
 3429SOL     OW21745   4.631   1.983   9.224  0.2296  0.2228  0.1208
 3429SOL    HW121746   4.719   2.004   9.255  0.4825 -1.8982  0.8006
 3429SOL    HW221747   4.647   1.895   9.189  1.7625  0.3325  0.5710
 3430SOL     OW21748   3.125   3.637   1.659  0.2716  0.7288 -0.3081
 3430SOL    HW121749   3.100   3.580   1.732 -0.5804  0.6099 -0.6974
 3430SOL    HW221750   3.136   3.721   1.704  1.1184  1.1798 -1.3584
 3431SOL     OW21751   2.316   0.770  11.508 -0.0656 -0.3210 -0.1995
 3431SOL    HW121752   2.307   0.864  11.523  1.5685 -0.4246  1.3612
 3431SOL    HW221753   2.411   0.762  11.498  0.0420  0.2038  0.4511
 3432SOL     OW21754   3.956   1.231  10.090  0.5249  0.3509  0.1729
 3432SOL    HW121755   3.968   1.251  10.182 -1.5650 -0.4028  0.6008
 3432SOL    HW221756   3.885   1.167  10.086  0.4858  0.5102 -1.6559
 3433SOL     OW21757   1.688   1.443   2.064  0.2562 -0.1446 -0.0370
 3433SOL    HW121758   1.697   1.348   2.056  0.6163 -0.1503  0.4513
 3433SOL    HW221759   1.656   1.456   2.154 -1.7064  0.7797 -0.8634
 3434SOL     OW21760   3.053   1.898   9.786 -0.4478  0.0961 -0.1695
 3434SOL    HW121761   3.117   1.901   9.715 -1.2406  0.6082 -0.8635
 3434SOL    HW221762   3.113   1.858   9.848 -2.0710 -3.2196 -0.7534
 3435SOL     OW21763   3.699   1.029   3.615  0.3545  0.1539  0.6843
 3435SOL    HW121764   3.676   1.066   3.700  0.2555 -2.1298  1.6338
 3435SOL    HW221765   3.732   0.944   3.644  0.8616  0.0663 -0.1653
 3436SOL     OW21766   3.538   3.436   3.661 -0.4203  0.2459  0.3550
 3436SOL    HW121767   3.633   3.445   3.653 -0.7735  2.7400 -1.0474
 3436SOL    HW221768   3.523   3.380   3.585  1.7654  0.2754 -0.1176
 3437SOL     OW21769   1.794   4.705   5.626  0.3119  0.2540  0.2580
 3437SOL    HW121770   1.876   0.002   5.580  1.3927  1.2356  2.5875
 3437SOL    HW221771   1.737   0.016   5.557  0.7989 -1.0755 -0.7930
 3438SOL     OW21772   4.712   0.863   5.466  0.0246 -0.4827 -0.0650
 3438SOL    HW121773   4.713   0.800   5.538 -0.1055 -1.1657 -0.6633
 3438SOL    HW221774   0.026   0.817   5.391  0.4365 -0.0017 -0.1583
 3439SOL     OW21775   3.686   0.540   9.114  0.2746  0.0452  0.4727
 3439SOL    HW121776   3.704   0.631   9.091  2.5044 -0.4290  0.3491
 3439SOL    HW221777   3.758   0.522   9.175 -1.0860 -0.1371  2.0063
 3440SOL     OW21778   1.417   1.402  10.795  0.4582  0.2431  0.4140
 3440SOL    HW121779   1.476   1.432  10.863  2.0829  0.0354 -0.9005
 3440SOL    HW221780   1.356   1.475  10.799  0.5383  0.1477  2.9548
 3441SOL     OW21781   4.623   0.508   2.136  0.2248  0.1048  0.3465
 3441SOL    HW121782   4.655   0.469   2.054  0.3207 -1.1353  0.9664
 3441SOL    HW221783   4.685   0.479   2.202 -1.6549 -2.2064  1.1181
 3442SOL     OW21784   3.809   1.594   2.557  0.3693  0.6723 -0.0171
 3442SOL    HW121785   3.832   1.535   2.629 -0.4555 -1.8244 -1.7951
 3442SOL    HW221786   3.893   1.624   2.524  0.5429 -1.2589 -1.3127
 3443SOL     OW21787   0.015   0.659  15.170  0.4742  0.5356 -0.1168
 3443SOL    HW121788   4.689   0.669  15.089  1.0940 -2.4694 -0.8727
 3443SOL    HW221789   0.103   0.676  15.137  0.4799  1.6226  0.4571
 3444SOL     OW21790   0.933   2.109  13.194 -0.1974 -0.0904 -0.0029
 3444SOL    HW121791   1.012   2.060  13.219 -0.9974 -0.8137  1.0875
 3444SOL    HW221792   0.976   2.168  13.132 -0.9718  0.1883 -0.2611
 3445SOL     OW21793   3.765   2.109   4.645 -0.3847  0.9337 -0.7968
 3445SOL    HW121794   3.778   2.021   4.609  1.7547  0.2064  1.7724
 3445SOL    HW221795   3.850   2.144   4.617  0.1981  0.8351  0.8585
 3446SOL     OW21796   3.568   0.134   6.084  0.0349  0.5513 -0.3869
 3446SOL    HW121797   3.612   0.093   6.158 -0.5407  0.5788 -0.0290
 3446SOL    HW221798   3.536   0.218   6.115  2.0101  1.1492  0.0345
 3447SOL     OW21799   0.638   0.268   3.678 -0.2720  0.1027  0.1306
 3447SOL    HW121800   0.672   0.287   3.765  2.0506 -1.5153 -0.4228
 3447SOL    HW221801   0.662   0.344   3.626 -1.3335  1.0937  1.0842
 3448SOL     OW21802   1.874   1.426   3.043  0.7323 -0.1474  0.6964
 3448SOL    HW121803   1.793   1.393   3.004  0.9177  0.4755 -0.2062
 3448SOL    HW221804   1.913   1.358   3.098  1.7894  0.1065  0.2710
 3449SOL     OW21805   2.821   0.638   4.779  0.1262  0.6247 -0.4335
 3449SOL    HW121806   2.899   0.606   4.825  0.2836 -0.2253 -1.2719
 3449SOL    HW221807   2.839   0.615   4.688 -1.7229  1.1131 -0.9187
 3450SOL     OW21808   4.047   3.653   2.927 -0.4330  0.1113 -0.5300
 3450SOL    HW121809   4.001   3.569   2.933  0.0345 -0.0089  1.4005
 3450SOL    HW221810   3.974   3.709   2.954 -0.6525 -0.3003 -0.2731
 3451SOL     OW21811   0.595   1.293   4.791  0.2588  0.0103  0.2616
 3451SOL    HW121812   0.562   1.343   4.716  0.4859  0.0232  0.1707
 3451SOL    HW221813   0.671   1.349   4.806  1.0999 -0.8744 -0.6989
 3452SOL     OW21814   2.733   0.714   1.555  0.1203 -0.1315 -0.5326
 3452SOL    HW121815   2.756   0.744   1.468  0.3165 -0.7195 -0.6856
 3452SOL    HW221816   2.756   0.621   1.550 -0.3343 -0.4812  3.2919
 3453SOL     OW21817   0.027   4.605   5.989  0.0116  0.0280 -0.3413
 3453SOL    HW121818   0.083   4.528   6.001  0.1345  0.0833 -0.5658
 3453SOL    HW221819   0.036   4.653   6.071  0.4459 -0.0460 -0.3446
 3454SOL     OW21820   1.185   3.441  10.297  0.2973 -0.4281 -0.7691
 3454SOL    HW121821   1.210   3.443  10.205 -2.6147  0.1015 -1.5468
 3454SOL    HW221822   1.247   3.505  10.331 -1.1952 -0.2997  1.7387
 3455SOL     OW21823   2.162   1.585   3.829 -0.1472 -0.0329  0.5365
 3455SOL    HW121824   2.241   1.638   3.824  0.4417 -1.1529 -2.2532
 3455SOL    HW221825   2.151   1.565   3.736 -2.0784 -0.0176  0.7501
 3456SOL     OW21826   2.564   3.249   6.308  0.6264  0.2443 -0.0555
 3456SOL    HW121827   2.654   3.243   6.276  0.6276 -1.2284  0.2229
 3456SOL    HW221828   2.573   3.264   6.402 -0.9355 -2.2270  0.4988
 3457SOL     OW21829   3.268   0.577   7.581 -0.1281  0.0482 -0.1560
 3457SOL    HW121830   3.252   0.586   7.675  0.8743  3.0247 -0.2647
 3457SOL    HW221831   3.188   0.533   7.553 -1.0012  0.6898  1.3300
 3458SOL     OW21832   3.722   1.558   0.784 -0.7866 -0.3291  0.0691
 3458SOL    HW121833   3.800   1.596   0.743 -2.8574  4.9806  1.0212
 3458SOL    HW221834   3.720   1.479   0.730 -0.4446  1.5346 -2.6404
 3459SOL     OW21835   2.574   0.241  13.694  0.2063 -0.7989  0.0713
 3459SOL    HW121836   2.604   0.274  13.609  1.5450 -0.9207  0.5119
 3459SOL    HW221837   2.487   0.208  13.671  0.5697 -0.2614 -2.0916
 3460SOL     OW21838   2.745   1.947   3.556  0.5274  0.3520 -0.0516
 3460SOL    HW121839   2.724   1.940   3.463 -1.3427  0.9423  0.3314
 3460SOL    HW221840   2.681   1.882   3.587  0.5291  0.0323 -0.7226
 3461SOL     OW21841   3.612   4.603   8.287  0.2968 -0.0174  0.0437
 3461SOL    HW121842   3.575   4.646   8.365 -3.3012  0.8831 -2.1753
 3461SOL    HW221843   3.694   4.582   8.332 -0.3412  2.6199  2.4724
 3462SOL     OW21844   4.096   2.667   8.896 -0.3114 -0.3472 -0.2048
 3462SOL    HW121845   4.104   2.710   8.981 -2.5184 -0.9041  0.2997
 3462SOL    HW221846   4.144   2.726   8.838  1.4373 -0.9067  0.6631
 3463SOL     OW21847   0.493   1.077   7.671 -0.1011  0.2431  0.3986
 3463SOL    HW121848   0.488   1.127   7.752 -0.5762 -0.1529  0.6133
 3463SOL    HW221849   0.568   1.020   7.689  0.9905  1.0881 -1.4153
 3464SOL     OW21850   2.400   0.982  12.577 -0.2556 -0.0759  0.2431
 3464SOL    HW121851   2.373   1.058  12.628 -3.0909 -1.2471  0.5418
 3464SOL    HW221852   2.494   0.994  12.570  0.2864 -4.0870  0.2984
 3465SOL     OW21853   3.043   0.413   8.813 -0.0027 -0.3029 -0.0470
 3465SOL    HW121854   3.119   0.387   8.761 -0.4680  1.6944 -1.7241
 3465SOL    HW221855   3.000   0.328   8.820 -0.3778 -0.0743  0.4517
 3466SOL     OW21856   0.418   3.555   5.296 -0.1040  0.1184  0.0712
 3466SOL    HW121857   0.420   3.592   5.207 -0.8580  0.7342  0.3036
 3466SOL    HW221858   0.322   3.554   5.303 -0.2036 -3.1412 -1.9010
 3467SOL     OW21859   0.407   3.553   8.695  0.1321 -0.2222 -0.1045
 3467SOL    HW121860   0.346   3.490   8.657  0.6225 -0.6789 -0.1474
 3467SOL    HW221861   0.446   3.494   8.759  0.5875 -1.5982 -1.6324
 3468SOL     OW21862   4.497   1.295  16.976  0.3314  0.4382 -0.1063
 3468SOL    HW121863   4.464   1.239  16.906  0.5590 -1.3329  1.2364
 3468SOL    HW221864   4.527   1.222  17.029  2.7351  1.1803 -0.4329
 3469SOL     OW21865   1.000   0.717  15.226  0.5485  0.0546  0.5845
 3469SOL    HW121866   1.006   0.670  15.309 -0.3132 -0.0092  0.6043
 3469SOL    HW221867   0.967   0.644  15.174  1.6528 -1.1757  1.6389
 3470SOL     OW21868   3.676   2.498   3.951  0.5976  0.0505  0.4863
 3470SOL    HW121869   3.710   2.587   3.942 -0.1486  0.2660 -0.1454
 3470SOL    HW221870   3.714   2.499   4.039 -0.2716 -3.9533  0.8953
 3471SOL     OW21871   3.559   4.425  11.280  0.6065  0.7707  0.3771
 3471SOL    HW121872   3.589   4.336  11.300  1.0685  0.8365 -0.0224
 3471SOL    HW221873   3.619   4.476  11.333  0.7831 -3.0304  3.8011
 3472SOL     OW21874   2.446   2.188   0.065 -0.4915 -0.3581  0.3609
 3472SOL    HW121875   2.387   2.262   0.050  0.7593  0.6439  0.3572
 3472SOL    HW221876   2.437   2.171   0.159  0.9549  1.9364  0.9163
 3473SOL     OW21877   2.823   3.581   6.732  0.4127  1.1132  0.2595
 3473SOL    HW121878   2.863   3.561   6.647  0.7118 -2.9713  1.3356
 3473SOL    HW221879   2.733   3.595   6.703  0.4233 -0.3320 -0.5050
 3474SOL     OW21880   3.231   0.819   4.451 -0.0207  0.5011 -0.1077
 3474SOL    HW121881   3.146   0.823   4.407 -0.7222  0.1307  1.1995
 3474SOL    HW221882   3.240   0.724   4.459 -0.3353  0.6926  2.6210
 3475SOL     OW21883   0.652   0.743   4.295 -0.2939 -0.3229 -0.0825
 3475SOL    HW121884   0.592   0.765   4.224  0.4019  0.0292 -0.5606
 3475SOL    HW221885   0.726   0.802   4.280 -2.0252  1.9888  0.3810
 3476SOL     OW21886   3.928   3.791   3.547  0.0476  0.2903 -0.6171
 3476SOL    HW121887   3.973   3.858   3.497 -0.4176  3.0611  2.6669
 3476SOL    HW221888   3.986   3.719   3.523  1.1712  1.0771 -0.2344
 3477SOL     OW21889   1.520   2.830   2.015  0.0760  0.7008 -0.4033
 3477SOL    HW121890   1.567   2.891   1.959 -0.9602  2.2633  0.4129
 3477SOL    HW221891   1.586   2.812   2.082 -0.4695  1.3191  0.3068
 3478SOL     OW21892   2.677   3.806   2.288 -0.3999  0.2387  0.2958
 3478SOL    HW121893   2.586   3.833   2.295 -0.6047 -0.3634 -0.0241
 3478SOL    HW221894   2.701   3.866   2.218  0.6097 -1.0853 -0.5030
 3479SOL     OW21895   4.193   1.035   4.271  0.5349  1.0543 -0.2118
 3479SOL    HW121896   4.178   0.985   4.190  3.2880  0.6374 -0.4916
 3479SOL    HW221897   4.221   1.119   4.236  0.6444  0.8990 -0.5085
 3480SOL     OW21898   3.380   0.060  16.532 -0.6045 -0.1517  0.0034
 3480SOL    HW121899   3.457   0.005  16.547  1.1462  2.1165 -0.5241
 3480SOL    HW221900   3.333   0.073  16.614  0.6633 -3.3534  1.2343
 3481SOL     OW21901   0.272   2.931   1.169 -0.5062 -0.1395 -0.1397
 3481SOL    HW121902   0.215   3.006   1.188 -0.0092  0.0506  0.5806
 3481SOL    HW221903   0.257   2.874   1.245 -0.6240  0.5825  0.3778
 3482SOL     OW21904   3.996   0.693   3.510  0.4561  0.1574  0.8018
 3482SOL    HW121905   3.930   0.650   3.456 -1.5605  2.3800  1.4871
 3482SOL    HW221906   4.069   0.650   3.466  2.0253  1.6258  1.9625
 3483SOL     OW21907   0.551   1.312   8.842  0.8088  0.1410 -0.0816
 3483SOL    HW121908   0.555   1.247   8.912  2.8342 -0.0895 -0.4157
 3483SOL    HW221909   0.608   1.268   8.779  0.3320 -1.6213  0.7297
 3484SOL     OW21910   4.091   3.717   0.691 -0.4386 -0.0831  0.7410
 3484SOL    HW121911   4.167   3.688   0.640 -0.5113  1.1795 -0.0714
 3484SOL    HW221912   4.035   3.722   0.613 -0.3515  0.0129  0.6851
 3485SOL     OW21913   1.401   1.780   2.717 -0.1726 -0.1810  0.7150
 3485SOL    HW121914   1.452   1.808   2.794 -1.7056  2.1808  0.8913
 3485SOL    HW221915   1.447   1.821   2.644  1.9658  1.1457  2.7865
 3486SOL     OW21916   3.598   4.105   6.033 -0.0241 -0.1078 -0.4143
 3486SOL    HW121917   3.533   4.170   6.006  0.6809  0.7362 -0.0967
 3486SOL    HW221918   3.603   4.131   6.125  0.3532 -0.7568 -0.2511
 3487SOL     OW21919   0.627   0.489   4.246 -0.0375  0.0753  0.2277
 3487SOL    HW121920   0.634   0.575   4.288  0.3942  1.1025 -1.9619
 3487SOL    HW221921   0.661   0.505   4.159  2.1846 -2.0087  0.7047
 3488SOL     OW21922   2.017   3.801   3.520 -0.3197  0.4452  0.6420
 3488SOL    HW121923   2.059   3.886   3.528  1.5837 -0.4255 -0.2679
 3488SOL    HW221924   1.992   3.792   3.612 -0.9029 -1.6680  0.2855
 3489SOL     OW21925   3.972   4.324   5.530  0.3743  0.4581 -0.0449
 3489SOL    HW121926   4.018   4.295   5.451 -2.1146 -1.6692 -0.7147
 3489SOL    HW221927   3.900   4.371   5.487 -0.3094 -2.0970 -1.6952
 3490SOL     OW21928   3.117   2.078   5.623  0.4410 -0.0492 -0.1421
 3490SOL    HW121929   3.195   2.076   5.679  0.6545 -0.4574 -0.4492
 3490SOL    HW221930   3.157   2.112   5.543 -1.3117 -0.0550 -1.0239
 3491SOL     OW21931   1.257   3.770   4.802 -0.7066 -0.4001 -0.1591
 3491SOL    HW121932   1.297   3.696   4.755  0.2557  0.6006 -0.9023
 3491SOL    HW221933   1.315   3.844   4.787  0.8290 -2.0131 -2.2951
 3492SOL     OW21934   2.082   4.529   5.984 -0.1029 -0.1290 -0.1462
 3492SOL    HW121935   2.103   4.461   5.919  1.6685  0.4818 -0.2163
 3492SOL    HW221936   2.023   4.583   5.933 -1.4179 -1.1800  0.2465
 3493SOL     OW21937   1.956   4.599  12.085  0.3017  0.1377 -0.3672
 3493SOL    HW121938   1.907   4.673  12.121  1.6461  1.6433 -1.6035
 3493SOL    HW221939   2.015   4.642  12.022 -1.2597  2.2465 -0.4032
 3494SOL     OW21940   4.144   1.433   8.946  0.5554  0.4130  0.1325
 3494SOL    HW121941   4.145   1.368   8.876  0.2149 -0.3463  0.8281
 3494SOL    HW221942   4.167   1.396   9.031  1.1146 -0.6999 -0.5026
 3495SOL     OW21943   1.619   1.460  14.778  0.1769  0.4413  0.1605
 3495SOL    HW121944   1.648   1.545  14.744  2.1810 -0.1685  0.3075
 3495SOL    HW221945   1.678   1.396  14.738  1.2055  1.4701  0.0237
 3496SOL     OW21946   1.221   4.700   7.437  0.3282 -0.3360  0.3009
 3496SOL    HW121947   1.213   4.633   7.504 -1.9068  0.5119  0.9017
 3496SOL    HW221948   1.256   4.645   7.367 -0.1547  0.3657 -0.5054
 3497SOL     OW21949   2.877   0.615  15.877  0.0188  0.4160  0.5423
 3497SOL    HW121950   2.911   0.544  15.933 -2.2984 -1.2008 -0.0722
 3497SOL    HW221951   2.883   0.693  15.932  1.6065  0.5827  0.1205
 3498SOL     OW21952   1.687   3.607  17.355 -0.2122 -0.0236  0.0707
 3498SOL    HW121953   1.698   3.688  17.404  1.4965 -0.3113  0.1772
 3498SOL    HW221954   1.597   3.581  17.375 -0.2147  0.3710  0.5620
 3499SOL     OW21955   4.631   2.625  12.829  0.0538  0.3482  0.2967
 3499SOL    HW121956   4.662   2.622  12.739  0.8973  0.3453  0.5832
 3499SOL    HW221957   4.694   2.569  12.874 -0.7234 -0.4466  0.3750
 3500SOL     OW21958   4.365   2.858   9.319  0.5900  0.0392  0.7469
 3500SOL    HW121959   4.411   2.919   9.376  0.2615  1.6474 -0.6879
 3500SOL    HW221960   4.398   2.779   9.361  0.2612 -0.9707 -0.8664
 3501SOL     OW21961   4.556   3.183   2.052  0.4052  0.2492 -0.3798
 3501SOL    HW121962   4.602   3.169   1.970  1.3062 -1.7321  0.4675
 3501SOL    HW221963   4.568   3.278   2.052  0.1694  0.2868  0.9992
 3502SOL     OW21964   2.650   3.240   2.470 -0.2805 -0.2264 -0.2917
 3502SOL    HW121965   2.634   3.291   2.550 -1.7372  0.5225 -1.0734
 3502SOL    HW221966   2.733   3.198   2.495  1.3453  1.2812 -3.2635
 3503SOL     OW21967   3.072   4.654  15.945 -0.3533 -0.1365 -0.6531
 3503SOL    HW121968   3.087   4.683  16.034  0.4410 -0.7390 -0.5946
 3503SOL    HW221969   3.145   4.703  15.908 -0.5036  1.4011  1.0915
 3504SOL     OW21970   2.374   3.065   0.322 -0.2665  0.1198 -0.2516
 3504SOL    HW121971   2.429   2.992   0.351  0.5479  1.2356  1.0123
 3504SOL    HW221972   2.322   3.026   0.252  0.7517 -0.5084 -0.6541
 3505SOL     OW21973   3.385   0.316   2.864 -0.0347  0.0025 -0.6933
 3505SOL    HW121974   3.344   0.323   2.778 -0.7601 -1.1578 -0.4362
 3505SOL    HW221975   3.450   0.384   2.846 -0.1862  0.9008  2.1736
 3506SOL     OW21976   1.979   0.175  17.578 -0.3665 -0.3897  0.2197
 3506SOL    HW121977   2.038   0.100  17.582  0.9245  0.6208  0.4545
 3506SOL    HW221978   1.951   0.159  17.488 -3.6115  2.6866  0.6911
 3507SOL     OW21979   2.806   3.192   6.175 -0.8045 -0.1625 -0.2066
 3507SOL    HW121980   2.897   3.195   6.145 -1.0093 -0.9918 -0.9262
 3507SOL    HW221981   2.762   3.151   6.100  0.0404 -2.0128  0.3082
 3508SOL     OW21982   0.169   0.443   4.382 -0.7089 -0.0475 -0.3027
 3508SOL    HW121983   0.131   0.450   4.469  1.3317  2.2548  0.4159
 3508SOL    HW221984   0.165   0.529   4.341  0.3465  0.6877  1.1882
 3509SOL     OW21985   0.109   2.621  13.866  0.2222  0.0099 -0.6263
 3509SOL    HW121986   0.047   2.549  13.874  0.4070 -0.4035 -2.9393
 3509SOL    HW221987   0.141   2.599  13.778 -1.1314  0.2876 -1.1933
 3510SOL     OW21988   1.086   2.921   8.927  0.3282 -0.0106  0.1693
 3510SOL    HW121989   1.117   2.885   9.010 -3.0086 -2.3082  0.4171
 3510SOL    HW221990   1.161   2.967   8.890 -0.6759  1.3822 -0.1088
 3511SOL     OW21991   0.647   1.994   2.097 -0.0020 -0.0359  0.0879
 3511SOL    HW121992   0.561   1.983   2.058  0.3171 -0.3264 -0.5366
 3511SOL    HW221993   0.694   1.913   2.076  0.2566 -0.1545  1.0932
 3512SOL     OW21994   2.169   0.808   6.163  0.0407  0.3200 -0.0492
 3512SOL    HW121995   2.151   0.768   6.248 -1.2104 -0.7586 -0.8195
 3512SOL    HW221996   2.176   0.726   6.113  2.0960  0.2967  0.2636
 3513SOL     OW21997   2.260   4.060   8.370  1.1334 -0.1268  0.3136
 3513SOL    HW121998   2.263   4.069   8.274  0.2477 -2.1675  0.1055
 3513SOL    HW221999   2.172   4.088   8.391  2.3084  2.2356  2.0751
 3514SOL     OW22000   3.817   2.831  12.208  0.1692 -0.3315  0.0818
 3514SOL    HW122001   3.824   2.808  12.300  2.9128 -0.8522 -0.2641
 3514SOL    HW222002   3.900   2.797  12.176 -0.4305 -1.2513 -0.5080
 3515SOL     OW22003   3.275   3.442   1.274  0.0891 -0.1461 -0.2625
 3515SOL    HW122004   3.192   3.458   1.319  0.6593 -1.8191  1.3401
 3515SOL    HW222005   3.289   3.534   1.251 -0.6456  0.3774  1.4115
 3516SOL     OW22006   4.471   3.328  12.078  0.1546 -0.0299  0.2514
 3516SOL    HW122007   4.522   3.302  12.154 -1.8885 -0.3877  1.4817
 3516SOL    HW222008   4.450   3.421  12.092  0.5454  0.2871 -1.2077
 3517SOL     OW22009   3.664   1.491   3.249 -0.2938 -0.0350 -0.8171
 3517SOL    HW122010   3.731   1.517   3.312 -1.3899  0.2866  0.2098
 3517SOL    HW222011   3.615   1.572   3.238 -0.0302  0.2899  0.4640
 3518SOL     OW22012   1.511   4.710   8.752  0.1415  0.3759  0.3017
 3518SOL    HW122013   1.585   0.013   8.807 -0.0214  1.0885  0.1744
 3518SOL    HW222014   1.483   0.062   8.700 -0.6590  0.7080  1.2129
 3519SOL     OW22015   3.696   3.999   5.445  0.0091  0.2078  0.1421
 3519SOL    HW122016   3.708   4.068   5.379  0.6308  1.2743  1.3614
 3519SOL    HW222017   3.693   3.921   5.390 -1.2825  0.2920  0.0696
 3520SOL     OW22018   2.829   3.657   4.944  0.4250 -0.0426 -0.5128
 3520SOL    HW122019   2.766   3.706   4.998 -0.8787 -0.7865 -1.3787
 3520SOL    HW222020   2.911   3.705   4.957  0.3487  0.1505 -0.7394
 3521SOL     OW22021   4.555   1.125   2.762  0.5318 -0.4411  0.0823
 3521SOL    HW122022   4.542   1.145   2.670 -3.7777 -0.5240  0.6514
 3521SOL    HW222023   4.632   1.068   2.764  1.8029  1.2920  0.0720
 3522SOL     OW22024   2.460   3.307   8.690  0.1058  0.0076 -0.5562
 3522SOL    HW122025   2.384   3.352   8.653 -0.7412 -0.7631  0.2602
 3522SOL    HW222026   2.507   3.280   8.611 -0.6615 -3.0986  0.0501
 3523SOL     OW22027   4.479   3.146   8.115 -0.1172 -0.6460 -0.1073
 3523SOL    HW122028   4.524   3.082   8.060 -0.3700 -0.9135 -0.0035
 3523SOL    HW222029   4.422   3.084   8.161 -2.6864  1.0219 -0.9966
 3524SOL     OW22030   4.516   2.944   5.320 -0.2317  0.0424  0.1192
 3524SOL    HW122031   4.574   3.019   5.305  1.3642 -1.5297 -1.5755
 3524SOL    HW222032   4.577   2.870   5.319 -1.2001 -0.7649  0.9455
 3525SOL     OW22033   2.113   2.337  15.895  0.6088  1.1860  0.1010
 3525SOL    HW122034   2.063   2.378  15.966  0.4779  0.0467  0.6704
 3525SOL    HW222035   2.080   2.375  15.813 -0.2834  3.1856  1.3939
 3526SOL     OW22036   2.709   1.709   0.070 -0.0986  0.1056 -0.5602
 3526SOL    HW122037   2.629   1.669   0.035 -0.3626  0.0700  0.0767
 3526SOL    HW222038   2.674   1.795   0.096  0.4988 -0.1488  1.0891
 3527SOL     OW22039   1.020   0.347   4.912 -0.1344  0.4104 -0.0492
 3527SOL    HW122040   0.980   0.299   4.985  0.3004 -0.4454 -0.3666
 3527SOL    HW222041   1.020   0.275   4.849  1.7876 -0.7131  1.2251
 3528SOL     OW22042   2.545   0.670   3.851  0.4481  0.4007 -0.0812
 3528SOL    HW122043   2.633   0.640   3.875  0.1936 -3.7790 -4.3002
 3528SOL    HW222044   2.501   0.665   3.936 -0.6465 -0.5219 -0.6893
 3529SOL     OW22045   3.316   2.073   6.349  0.0300  0.0857 -0.3107
 3529SOL    HW122046   3.228   2.089   6.315 -0.0055  0.8428  0.1356
 3529SOL    HW222047   3.326   2.132   6.424 -0.7521 -1.2750  0.8563
 3530SOL     OW22048   0.528   2.609   8.392  0.2080  0.1130  0.4232
 3530SOL    HW122049   0.510   2.528   8.439  0.5397  0.4500  1.1292
 3530SOL    HW222050   0.617   2.591   8.362  0.4218  0.3708  0.9108
 3531SOL     OW22051   1.434   1.397   0.360  0.4392  0.3697 -0.2296
 3531SOL    HW122052   1.528   1.400   0.343  0.2023  0.1250 -1.5515
 3531SOL    HW222053   1.402   1.463   0.299  1.0393  0.7136 -0.1839
 3532SOL     OW22054   3.893   1.639   2.944  0.2264 -0.2691 -0.4972
 3532SOL    HW122055   3.967   1.689   2.978 -0.3442  0.2165  0.0242
 3532SOL    HW222056   3.838   1.695   2.889 -1.1672 -0.8238  0.3088
 3533SOL     OW22057   2.426   0.681   5.935 -0.4684  0.4218  0.7938
 3533SOL    HW122058   2.478   0.711   6.010 -0.1775 -0.9117  1.1397
 3533SOL    HW222059   2.345   0.670   5.986 -1.1823 -2.9355 -1.0865
 3534SOL     OW22060   1.411   2.219   7.918 -0.4459  0.1395 -0.4350
 3534SOL    HW122061   1.486   2.248   7.865 -0.0619 -0.8574 -0.4422
 3534SOL    HW222062   1.429   2.134   7.958  1.5664  0.4010 -0.7487
 3535SOL     OW22063   2.347   3.831  12.011 -0.5547 -0.3334 -0.1224
 3535SOL    HW122064   2.413   3.870  12.068 -1.4089 -1.2863  1.5300
 3535SOL    HW222065   2.381   3.748  11.980  0.9079 -0.0020  0.5756
 3536SOL     OW22066   0.219   3.674   8.910  0.1795 -0.3404  0.5748
 3536SOL    HW122067   0.195   3.583   8.893 -1.8050 -0.0135  1.6075
 3536SOL    HW222068   0.274   3.664   8.988  2.3109 -0.0810 -0.8942
 3537SOL     OW22069   0.198   1.421   3.017  0.4475  0.2369 -0.1708
 3537SOL    HW122070   0.200   1.331   2.984 -2.1769  0.4206 -0.8683
 3537SOL    HW222071   0.172   1.460   2.934  0.3146 -1.4692 -0.9328
 3538SOL     OW22072   4.293   1.732   2.297 -0.4071  0.4897 -0.0845
 3538SOL    HW122073   4.245   1.764   2.220 -1.0988 -1.4630 -0.4596
 3538SOL    HW222074   4.318   1.645   2.266 -1.2002 -0.5306  2.1477
 3539SOL     OW22075   0.678   3.032   8.253  0.5609 -0.3274  0.7811
 3539SOL    HW122076   0.601   2.983   8.225  1.8645 -2.9098  1.7304
 3539SOL    HW222077   0.632   3.078   8.323 -1.7650 -0.2896 -0.7862
 3540SOL     OW22078   4.623   4.566   5.182 -0.0098  0.5521  0.2401
 3540SOL    HW122079   4.673   4.517   5.247  3.8500 -0.5706 -3.5611
 3540SOL    HW222080   4.620   4.503   5.109 -0.3611 -0.2154  0.9128
 3541SOL     OW22081   1.785   2.046   8.125  0.2827  0.0099 -0.1795
 3541SOL    HW122082   1.737   2.105   8.067 -0.5710 -0.2480  0.2581
 3541SOL    HW222083   1.820   1.986   8.059 -1.4941 -1.5011  0.2222
 3542SOL     OW22084   3.233   2.376   4.873  0.6361  0.3534  0.1005
 3542SOL    HW122085   3.279   2.377   4.789  1.9022  0.1723  0.7973
 3542SOL    HW222086   3.256   2.462   4.907  0.7620  0.3521  0.0153
 3543SOL     OW22087   2.044   1.092   2.987 -0.2028  0.2340 -1.0382
 3543SOL    HW122088   1.974   1.037   2.952 -0.1844 -0.2340 -0.3429
 3543SOL    HW222089   2.104   1.026   3.021 -1.0664 -0.3806 -0.7226
 3544SOL     OW22090   0.270   0.369  15.984 -0.1763 -0.8549  0.0724
 3544SOL    HW122091   0.361   0.348  16.001 -0.4840 -1.5576  0.8508
 3544SOL    HW222092   0.272   0.461  16.010 -1.2463 -0.1149 -2.4271
 3545SOL     OW22093   2.084   1.005   2.583  0.5330 -0.2154 -0.2566
 3545SOL    HW122094   2.167   1.023   2.626  1.1193 -2.2287 -0.5492
 3545SOL    HW222095   2.102   0.912   2.567 -1.6740 -0.8649  1.0107
 3546SOL     OW22096   1.759   2.084   1.848 -0.2381  0.5105  0.0820
 3546SOL    HW122097   1.832   2.146   1.846 -0.8644  1.2689  0.4994
 3546SOL    HW222098   1.805   2.002   1.833  0.9014  0.7845  2.1018
 3547SOL     OW22099   2.451   2.067  12.591 -0.0674 -0.5110 -0.1178
 3547SOL    HW122100   2.473   1.974  12.584 -0.7908 -0.7551  0.6991
 3547SOL    HW222101   2.377   2.076  12.531  1.1127 -0.3347 -1.5468
 3548SOL     OW22102   3.534   1.259   3.495 -0.0508 -0.3873 -0.3380
 3548SOL    HW122103   3.605   1.196   3.508 -0.3635 -0.5773  0.4465
 3548SOL    HW222104   3.456   1.215   3.527 -0.9886  1.6462  0.1525
 3549SOL     OW22105   3.804   0.771   9.012  0.3046  0.4066 -0.5832
 3549SOL    HW122106   3.805   0.748   8.919 -3.7848  0.9755 -0.7723
 3549SOL    HW222107   3.753   0.852   9.002 -1.6521 -0.7333  0.1364
 3550SOL     OW22108   1.136   2.127  15.205  0.4835  0.1316  0.4780
 3550SOL    HW122109   1.102   2.119  15.293  0.5364 -2.1620  0.2884
 3550SOL    HW222110   1.154   2.040  15.171 -0.4201 -0.3948  1.3683
 3551SOL     OW22111   2.292   0.165   1.283  0.1686 -0.5414  0.0498
 3551SOL    HW122112   2.235   0.217   1.227  3.4952  2.7681 -0.2308
 3551SOL    HW222113   2.257   0.183   1.370  0.3599  0.9950 -0.1977
 3552SOL     OW22114   2.366   0.445   7.117  0.4561  0.1026  0.7069
 3552SOL    HW122115   2.294   0.389   7.087 -0.0790  1.6372 -0.8234
 3552SOL    HW222116   2.317   0.514   7.162 -0.1379  1.0488 -1.4075
 3553SOL     OW22117   0.258   4.066   8.302 -0.0466  0.4882  0.0539
 3553SOL    HW122118   0.316   4.023   8.364 -1.0277  0.2400  0.8030
 3553SOL    HW222119   0.199   3.991   8.296  0.3491  0.1903 -0.0651
 3554SOL     OW22120   2.545   3.569   6.635 -0.3968 -0.5305 -0.0771
 3554SOL    HW122121   2.484   3.501   6.664 -1.9823  0.7792 -0.2762
 3554SOL    HW222122   2.502   3.653   6.653  1.0526  0.0752  0.5564
 3555SOL     OW22123   4.265   2.895  15.767 -0.0487  0.6329 -0.2730
 3555SOL    HW122124   4.304   2.882  15.853  0.5356 -1.4020 -0.8517
 3555SOL    HW222125   4.225   2.810  15.750  0.3794  0.2017  0.9127
 3556SOL     OW22126   2.068   4.070   3.333  0.2249 -0.1810  0.5078
 3556SOL    HW122127   1.993   4.022   3.297  1.1786 -0.2172 -1.3995
 3556SOL    HW222128   2.035   4.154   3.366  1.6925 -0.7725  3.5359
 3557SOL     OW22129   4.332   0.840   8.112  0.1321 -0.1142 -0.3128
 3557SOL    HW122130   4.243   0.851   8.078 -0.4629  0.7729  1.5706
 3557SOL    HW222131   4.316   0.793   8.194  1.9887 -1.9023 -0.9806
 3558SOL     OW22132   1.310   3.448  10.048 -0.1693  0.1858  0.1078
 3558SOL    HW122133   1.308   3.522   9.987 -0.1900  0.5046  0.4994
 3558SOL    HW222134   1.397   3.408  10.047  1.2275  3.3176 -2.9254
 3559SOL     OW22135   0.605   2.054   9.236  0.7291 -0.3683 -0.4174
 3559SOL    HW122136   0.653   2.137   9.245  0.2066 -0.4224  2.6316
 3559SOL    HW222137   0.516   2.087   9.239  0.8400 -0.0274 -0.8661
 3560SOL     OW22138   1.552   0.747   8.455 -0.3932 -0.2798 -0.3538
 3560SOL    HW122139   1.536   0.812   8.523  0.4345  0.6857 -1.0844
 3560SOL    HW222140   1.551   0.669   8.510  0.6895 -0.9944 -1.3542
 3561SOL     OW22141   0.425   2.464   9.164  0.2415  0.7906  0.3636
 3561SOL    HW122142   0.503   2.471   9.220  0.2518 -1.3699  0.6346
 3561SOL    HW222143   0.471   2.468   9.080  0.3195  0.5392  0.3935
 3562SOL     OW22144   1.292   4.221   2.783 -0.4178 -0.4315  0.1206
 3562SOL    HW122145   1.236   4.275   2.727  1.5020  1.5363  0.0877
 3562SOL    HW222146   1.307   4.149   2.722 -0.6534  0.1534 -0.6313
 3563SOL     OW22147   2.949   0.296   9.645 -0.9367 -0.6779  0.1966
 3563SOL    HW122148   3.010   0.222   9.647  2.0068  1.7271 -0.2320
 3563SOL    HW222149   2.911   0.295   9.733 -0.6960 -0.2815  0.3085
 3564SOL     OW22150   1.038   4.443   5.739 -0.1658  0.3003  0.2884
 3564SOL    HW122151   1.019   4.373   5.801 -1.0371  1.2375  1.0886
 3564SOL    HW222152   1.133   4.449   5.751 -0.0754 -0.0943 -0.2464
 3565SOL     OW22153   3.796   2.822   6.232  0.0159  0.2304  0.4897
 3565SOL    HW122154   3.854   2.750   6.258 -0.0361  0.9193  2.5552
 3565SOL    HW222155   3.716   2.825   6.285 -0.0571 -1.5044  0.4740
 3566SOL     OW22156   2.495   0.777   3.458  0.1310  0.4402  0.0491
 3566SOL    HW122157   2.468   0.700   3.506 -0.3478  0.4882 -0.1418
 3566SOL    HW222158   2.475   0.846   3.521 -0.6252  0.9352 -0.7335
 3567SOL     OW22159   4.338   1.638   9.140 -0.1706 -0.6560  0.0859
 3567SOL    HW122160   4.318   1.685   9.220  2.9205 -1.0974  1.1233
 3567SOL    HW222161   4.312   1.547   9.155 -0.9811 -0.5372 -0.5859
 3568SOL     OW22162   3.244   1.566  15.914 -0.2406  0.0166  0.1333
 3568SOL    HW122163   3.304   1.637  15.935  0.5766 -0.3375 -1.0283
 3568SOL    HW222164   3.181   1.610  15.857  0.6041  0.6020 -0.3423
 3569SOL     OW22165   0.273   4.385   9.449  0.2315 -0.0856 -0.0946
 3569SOL    HW122166   0.359   4.422   9.428  1.0501 -1.0883  1.5504
 3569SOL    HW222167   0.280   4.293   9.423  1.5949  0.4404 -1.6025
 3570SOL     OW22168   1.285   1.941   9.934 -0.1155 -0.3220  0.6856
 3570SOL    HW122169   1.239   1.971   9.856  0.6156 -0.3774  0.2346
 3570SOL    HW222170   1.299   1.848   9.915  2.1438  0.1682 -0.0574
 3571SOL     OW22171   2.093   4.389   8.254 -0.3062 -0.3656 -0.0913
 3571SOL    HW122172   2.014   4.340   8.235 -1.2146  1.1830 -0.3176
 3571SOL    HW222173   2.064   4.462   8.308 -1.6963 -2.2676  1.7246
 3572SOL     OW22174   0.236   1.180   8.986  0.4951 -0.0244 -0.0085
 3572SOL    HW122175   0.283   1.096   8.984 -0.9633 -0.8317 -0.7425
 3572SOL    HW222176   0.196   1.173   8.899 -0.8327  1.1422  0.5023
 3573SOL     OW22177   0.812   1.230   7.825  0.4647  0.5191 -0.5452
 3573SOL    HW122178   0.774   1.285   7.893 -0.9025  0.3468 -1.1785
 3573SOL    HW222179   0.745   1.205   7.762  1.4619 -0.1806 -1.3387
 3574SOL     OW22180   3.061   0.661   8.721  0.1389 -0.1282  0.0961
 3574SOL    HW122181   3.047   0.573   8.757  1.1100 -0.6395 -0.7713
 3574SOL    HW222182   3.106   0.636   8.640 -0.2493 -3.5681  0.9203
 3575SOL     OW22183   2.263   2.404   7.732  0.1954 -0.6075  0.3841
 3575SOL    HW122184   2.231   2.317   7.709 -1.6548  0.4118 -0.8951
 3575SOL    HW222185   2.185   2.456   7.749  0.7407  0.2529  0.2307
 3576SOL     OW22186   0.717   0.816   2.305 -0.4555 -0.0341 -0.2189
 3576SOL    HW122187   0.712   0.886   2.370 -1.8727 -0.9246  0.6264
 3576SOL    HW222188   0.645   0.838   2.245  2.1235  2.3438 -2.4497
 3577SOL     OW22189   3.403   1.510   3.545  0.3143  0.2952  0.3305
 3577SOL    HW122190   3.325   1.469   3.505  0.3341  0.4083  0.1746
 3577SOL    HW222191   3.461   1.435   3.535 -1.7792 -1.2209 -0.5251
 3578SOL     OW22192   2.168   1.724   8.157  0.3160 -0.2277  0.0678
 3578SOL    HW122193   2.188   1.634   8.184 -0.8194 -0.7223 -0.7457
 3578SOL    HW222194   2.074   1.728   8.176  0.3278 -0.4050  0.1642
 3579SOL     OW22195   0.844   1.978   7.837  0.6417  0.1220  0.1683
 3579SOL    HW122196   0.907   1.911   7.812  2.9783  2.5982 -0.5734
 3579SOL    HW222197   0.759   1.944   7.809  1.1489 -0.1195 -1.0692
 3580SOL     OW22198   4.394   1.914   4.606 -0.1088 -0.3701  0.1858
 3580SOL    HW122199   4.363   1.900   4.516 -0.5417 -0.1052  0.2934
 3580SOL    HW222200   4.461   1.982   4.599 -1.5850  1.0930  0.3708
 3581SOL     OW22201   1.571   1.056   1.550 -0.2209  0.0775 -0.0571
 3581SOL    HW122202   1.614   1.006   1.620 -0.6666  1.2853  1.0867
 3581SOL    HW222203   1.646   1.109   1.524 -0.6713 -0.0311 -1.5708
 3582SOL     OW22204   0.177   1.711  17.088 -0.0945  0.0680  0.2541
 3582SOL    HW122205   0.143   1.623  17.073 -2.1860  0.8754  0.3419
 3582SOL    HW222206   0.224   1.737  17.009 -2.2338  0.3051 -0.9371
 3583SOL     OW22207   3.230   0.473   9.330 -0.0456  0.3739 -0.6804
 3583SOL    HW122208   3.244   0.493   9.423 -0.1714 -3.4423  0.1827
 3583SOL    HW222209   3.192   0.385   9.331  2.3237 -0.6284  0.6424
 3584SOL     OW22210   2.632   3.534   4.745  0.4071  0.0300  0.0775
 3584SOL    HW122211   2.676   3.596   4.804  0.1132 -0.4417  0.7870
 3584SOL    HW222212   2.540   3.535   4.771  0.1619  1.2095 -0.8853
 3585SOL     OW22213   4.171   4.460  12.886 -0.0227 -0.2078 -0.2113
 3585SOL    HW122214   4.196   4.395  12.820 -1.6200  0.2161 -1.2355
 3585SOL    HW222215   4.154   4.535  12.829 -2.0947 -0.1801  0.4655
 3586SOL     OW22216   1.927   3.516  10.047 -0.2486  0.4922  0.0279
 3586SOL    HW122217   2.016   3.520  10.081  0.1767  0.3329 -1.0737
 3586SOL    HW222218   1.916   3.427  10.014 -0.0952 -0.0491  1.4072
 3587SOL     OW22219   2.386   0.604   3.637 -0.2163  0.1206 -0.3961
 3587SOL    HW122220   2.358   0.514   3.621 -0.1351 -0.1451  0.9408
 3587SOL    HW222221   2.437   0.582   3.715 -0.3328  1.9900  0.2077
 3588SOL     OW22222   4.632   2.392  12.594  0.1872 -0.1735 -0.0924
 3588SOL    HW122223   4.706   2.338  12.565  0.6322 -0.4173  1.5022
 3588SOL    HW222224   4.673   2.478  12.587  0.1379 -0.1512 -0.1009
 3589SOL     OW22225   2.561   1.071   4.262  0.0462  0.0532 -0.6643
 3589SOL    HW122226   2.604   0.990   4.290 -0.8107 -0.5314 -1.0400
 3589SOL    HW222227   2.541   1.044   4.172  1.9530 -1.5779 -0.6134
 3590SOL     OW22228   2.836   4.265   2.766  0.0249  0.1524 -0.5552
 3590SOL    HW122229   2.917   4.263   2.715 -0.0117 -2.3934 -0.5569
 3590SOL    HW222230   2.819   4.177   2.731 -1.7903 -0.0232  0.7621
 3591SOL     OW22231   1.195   1.284   1.710 -0.1203  0.2028 -0.5188
 3591SOL    HW122232   1.250   1.258   1.783 -0.2203  0.5515 -0.3184
 3591SOL    HW222233   1.266   1.286   1.646 -0.4437  1.6132 -0.8397
 3592SOL     OW22234   1.596   0.205   6.785 -0.0763 -0.4996 -0.2971
 3592SOL    HW122235   1.561   0.181   6.871 -0.9373  2.2616  0.1449
 3592SOL    HW222236   1.523   0.259   6.755  0.4150  1.7102  2.3717
 3593SOL     OW22237   1.828   1.480  13.887  0.5219 -0.1886 -0.0854
 3593SOL    HW122238   1.834   1.570  13.855  0.8523 -0.1534  0.0740
 3593SOL    HW222239   1.777   1.438  13.817  0.8385  1.7659 -1.5044
 3594SOL     OW22240   0.863   2.976  10.435  0.6787  0.6584 -0.4627
 3594SOL    HW122241   0.950   2.940  10.454  0.4265 -0.8266 -2.0931
 3594SOL    HW222242   0.892   3.067  10.427  2.1856  0.4163  2.3208
 3595SOL     OW22243   3.882   3.664  14.008 -0.3684  0.0763 -0.3383
 3595SOL    HW122244   3.881   3.742  13.952 -2.2118  1.1781  1.2209
 3595SOL    HW222245   3.973   3.638  13.993 -0.2467  1.0952 -1.3723
 3596SOL     OW22246   1.266   3.602   5.811  0.1388 -0.1850  0.0854
 3596SOL    HW122247   1.182   3.647   5.801  0.3058  0.0190 -0.3940
 3596SOL    HW222248   1.305   3.641   5.890  0.4412 -2.2357  0.9636
 3597SOL     OW22249   1.855   2.579   3.360 -0.1515 -0.1753 -0.6021
 3597SOL    HW122250   1.862   2.563   3.266 -1.4375 -2.0072 -0.3786
 3597SOL    HW222251   1.838   2.492   3.397 -0.2447  0.0510 -0.1107
 3598SOL     OW22252   4.521   1.319   1.646 -0.0729 -0.0133  0.5135
 3598SOL    HW122253   4.428   1.321   1.622 -0.3882 -1.0066  1.6241
 3598SOL    HW222254   4.508   1.253   1.715 -1.0349 -0.0107  0.3297
 3599SOL     OW22255   2.325   0.528  15.334 -0.2414  0.4942 -0.3660
 3599SOL    HW122256   2.395   0.566  15.280  0.2739  0.1958  0.0871
 3599SOL    HW222257   2.358   0.438  15.331 -0.0361  0.6366 -2.0376
 3600SOL     OW22258   1.527   2.513   7.734  0.0221  0.4272 -0.1114
 3600SOL    HW122259   1.622   2.509   7.723 -0.0357  1.0659 -0.8559
 3600SOL    HW222260   1.509   2.536   7.643 -2.8985 -0.9711  0.0969
 3601SOL     OW22261   1.185   3.900   5.453 -0.0617  0.2028  0.7653
 3601SOL    HW122262   1.203   3.811   5.483  2.0800  0.5407  0.4819
 3601SOL    HW222263   1.135   3.881   5.373 -0.8107 -0.6288  1.4187
 3602SOL     OW22264   3.912   0.251   6.095 -0.3403 -0.4865  0.0259
 3602SOL    HW122265   3.853   0.325   6.104  0.1951 -0.4780  3.2589
 3602SOL    HW222266   3.871   0.194   6.160  1.1634 -0.3165  1.1043
 3603SOL     OW22267   0.913   3.240   3.991 -0.0491 -0.0960  0.5028
 3603SOL    HW122268   0.850   3.271   3.926  0.4856 -0.1052 -0.0209
 3603SOL    HW222269   0.924   3.316   4.049 -0.0892  0.8306 -0.7197
 3604SOL     OW22270   2.174   1.635   2.768  0.6485 -0.2079  0.2156
 3604SOL    HW122271   2.213   1.623   2.681  0.2452  2.1110 -0.2905
 3604SOL    HW222272   2.104   1.570   2.762 -1.7472  2.5409 -1.7211
 3605SOL     OW22273   4.444   4.517   5.640 -0.6180  0.1028  0.1129
 3605SOL    HW122274   4.459   4.599   5.594 -1.6542  0.0172 -0.3652
 3605SOL    HW222275   4.382   4.483   5.575 -1.6451  0.9048  0.6906
 3606SOL     OW22276   1.283   2.316  12.224 -0.5717 -0.3267 -0.3174
 3606SOL    HW122277   1.202   2.286  12.183 -1.7463  1.3103  0.8143
 3606SOL    HW222278   1.282   2.267  12.306  2.7022  1.6592  0.9134
 3607SOL     OW22279   1.086   3.904  14.128  0.6209 -0.7827  0.5723
 3607SOL    HW122280   1.116   3.813  14.120  0.6093 -0.6158 -1.2133
 3607SOL    HW222281   1.021   3.896  14.198 -0.0428  0.5469  0.0985
 3608SOL     OW22282   4.015   2.943   2.916  0.2685  0.7289 -0.1123
 3608SOL    HW122283   4.093   2.898   2.887 -0.2063 -0.1602 -0.0016
 3608SOL    HW222284   3.954   2.870   2.911  0.8367  0.0781  2.5634
 3609SOL     OW22285   1.205   1.072   7.660 -0.4100  0.1101  0.3034
 3609SOL    HW122286   1.116   1.084   7.627  1.3417  1.4671 -3.9763
 3609SOL    HW222287   1.210   0.980   7.686 -0.6430 -0.2578 -0.9380
 3610SOL     OW22288   2.174   3.798   4.422  0.0877  0.2444 -0.2645
 3610SOL    HW122289   2.228   3.877   4.411  1.2393 -0.5920 -0.5964
 3610SOL    HW222290   2.227   3.740   4.368  0.2376  0.5184 -0.4148
 3611SOL     OW22291   2.415   1.710  14.790 -0.0989  0.4568  0.1438
 3611SOL    HW122292   2.449   1.750  14.870  0.0690 -1.3495  0.9890
 3611SOL    HW222293   2.464   1.628  14.800 -2.2811 -0.6004  1.9705
 3612SOL     OW22294   2.999   3.133   4.911  0.5913 -0.0492 -0.3290
 3612SOL    HW122295   2.946   3.089   4.844 -0.3789  1.2351 -0.4012
 3612SOL    HW222296   2.945   3.212   4.920 -2.8581 -2.8015  2.9968
 3613SOL     OW22297   1.512   1.292  15.670 -0.0181  0.2281 -0.3347
 3613SOL    HW122298   1.455   1.364  15.696 -1.0845 -0.2236 -1.4434
 3613SOL    HW222299   1.597   1.337  15.672  1.3857 -2.4115 -0.8871
 3614SOL     OW22300   3.161   2.988   9.059 -0.0611 -0.8120 -0.4447
 3614SOL    HW122301   3.247   3.009   9.095  0.5530 -0.9317 -1.8350
 3614SOL    HW222302   3.184   2.992   8.966 -0.9841  0.1041 -0.6302
 3615SOL     OW22303   1.067   0.393  10.158 -0.0821 -0.0066 -0.5740
 3615SOL    HW122304   1.078   0.486  10.178 -2.4646  0.5673 -1.9527
 3615SOL    HW222305   1.021   0.405  10.075 -0.2143 -0.7626 -0.6073
 3616SOL     OW22306   3.099   3.230   7.800 -0.3059  0.3258 -0.1867
 3616SOL    HW122307   3.095   3.171   7.725  4.9875 -0.1836 -0.0546
 3616SOL    HW222308   3.177   3.284   7.786 -0.0445 -0.2590 -1.0289
 3617SOL     OW22309   4.431   1.228   4.427  0.2905 -0.4092  0.6160
 3617SOL    HW122310   4.515   1.264   4.397  0.9085  0.0436  2.8141
 3617SOL    HW222311   4.453   1.135   4.442  0.2928 -0.6892 -1.2296
 3618SOL     OW22312   0.852   1.531   2.295 -0.7865  0.1984  0.4409
 3618SOL    HW122313   0.940   1.495   2.279 -0.7565  0.6421 -0.3867
 3618SOL    HW222314   0.873   1.620   2.325  0.8969  0.3622 -1.2164
 3619SOL     OW22315   3.514   0.069   2.915  0.2870 -0.0193  0.6893
 3619SOL    HW122316   3.482   0.154   2.886  3.8237  1.2193  0.4246
 3619SOL    HW222317   3.592   0.057   2.862 -1.3711 -0.9687 -1.5390
 3620SOL     OW22318   1.905   3.820   8.099 -0.3643 -0.4213  0.6109
 3620SOL    HW122319   1.851   3.819   8.177 -1.0758  0.3588  0.1352
 3620SOL    HW222320   1.991   3.815   8.140  0.9357 -1.5890 -2.2595
 3621SOL     OW22321   2.580   2.353   6.563 -0.1284  0.6478 -0.5500
 3621SOL    HW122322   2.608   2.275   6.515  0.2139  1.1152 -1.1178
 3621SOL    HW222323   2.632   2.352   6.643 -0.9993 -0.3461  0.0046
 3622SOL     OW22324   0.572   1.756   3.115 -0.6434 -0.3962  0.0346
 3622SOL    HW122325   0.629   1.828   3.086 -0.5344 -0.8892 -0.9626
 3622SOL    HW222326   0.482   1.781   3.094 -0.8131 -0.7056  0.4004
 3623SOL     OW22327   3.162   3.031  13.280 -0.2316 -0.4117 -0.2467
 3623SOL    HW122328   3.077   3.066  13.307  0.4461  0.0688  1.2400
 3623SOL    HW222329   3.147   3.004  13.189  0.7113  1.0273 -0.8299
 3624SOL     OW22330   0.257   2.933  10.184 -0.8582  0.4099 -0.7263
 3624SOL    HW122331   0.304   2.952  10.265  0.3760 -0.1658 -1.3058
 3624SOL    HW222332   0.168   2.944  10.216 -0.2206 -0.1128  1.1998
 3625SOL     OW22333   3.615   4.251  11.873 -0.0457 -0.8412  0.1306
 3625SOL    HW122334   3.550   4.221  11.936 -0.6006 -1.0471 -0.5407
 3625SOL    HW222335   3.673   4.297  11.933 -1.1580  0.7614 -0.0098
 3626SOL     OW22336   3.376   2.611   4.869  0.6726 -0.7973  0.1019
 3626SOL    HW122337   3.382   2.697   4.911 -0.7090 -1.3277  1.3989
 3626SOL    HW222338   3.456   2.613   4.817 -0.1191 -0.3582 -1.1012
 3627SOL     OW22339   1.997   0.970  11.539 -0.5303 -0.1953 -0.0423
 3627SOL    HW122340   1.955   1.017  11.612 -2.7441 -0.5234 -1.1272
 3627SOL    HW222341   1.945   1.004  11.467 -1.0988 -3.6345 -1.2091
 3628SOL     OW22342   2.104   3.987  15.205 -0.2064  0.3321 -0.7367
 3628SOL    HW122343   2.128   3.967  15.296 -1.2140  2.1994 -0.0761
 3628SOL    HW222344   2.132   4.078  15.204  0.4391  0.1364 -0.6335
 3629SOL     OW22345   3.851   0.272   4.775 -0.2249 -0.4376 -0.2522
 3629SOL    HW122346   3.919   0.285   4.841 -0.6777 -0.6609  0.2587
 3629SOL    HW222347   3.846   0.348   4.717 -1.8887  0.8889  1.6620
 3630SOL     OW22348   0.290   0.623   3.298  0.2668  0.0726  0.0584
 3630SOL    HW122349   0.301   0.671   3.380 -1.0168  0.7064 -0.1389
 3630SOL    HW222350   0.195   0.616   3.285  0.4021  0.7913 -1.3896
 3631SOL     OW22351   0.102   2.374   3.439  0.1454  1.0541  0.3247
 3631SOL    HW122352   0.019   2.401   3.477 -1.0291 -0.4001 -1.2084
 3631SOL    HW222353   0.105   2.429   3.360 -1.4384  0.9089  0.1760
 3632SOL     OW22354   2.905   1.740   3.668 -0.6309  0.2602 -0.0249
 3632SOL    HW122355   2.839   1.807   3.682  1.1305  1.3708  2.9583
 3632SOL    HW222356   2.902   1.692   3.751 -2.1772  1.8059  0.8035
 3633SOL     OW22357   3.495   4.191   6.663  0.0250  0.2336  0.1027
 3633SOL    HW122358   3.456   4.107   6.688 -1.1318  0.2723 -1.5224
 3633SOL    HW222359   3.553   4.212   6.736 -1.2746 -0.3246  1.3100
 3634SOL     OW22360   1.736   3.808   4.791 -0.4826  0.0941  0.3546
 3634SOL    HW122361   1.648   3.771   4.780 -1.5548  2.2575  1.5470
 3634SOL    HW222362   1.730   3.851   4.877  0.5837 -2.6323  1.7761
 3635SOL     OW22363   1.467   1.872   7.608 -0.1189  0.1588  0.0071
 3635SOL    HW122364   1.558   1.902   7.610  0.4680 -1.5971 -0.4404
 3635SOL    HW222365   1.470   1.801   7.543  2.7488  1.8585 -1.6862
 3636SOL     OW22366   4.638   3.850   3.661 -0.4183 -0.2181  0.1092
 3636SOL    HW122367   4.709   3.902   3.700 -0.2729 -0.0977 -0.3201
 3636SOL    HW222368   4.606   3.915   3.599 -2.4364 -2.1847 -0.9002
 3637SOL     OW22369   1.682   3.739   5.254 -0.1577 -0.7293 -1.1096
 3637SOL    HW122370   1.737   3.752   5.331  0.9011  0.8388 -2.1283
 3637SOL    HW222371   1.618   3.809   5.257  1.6316  0.9957 -3.0279
 3638SOL     OW22372   0.421   1.486  17.546  0.1951  0.0885 -0.2786
 3638SOL    HW122373   0.377   1.487  17.631 -1.0612 -0.1009 -0.9361
 3638SOL    HW222374   0.344   1.461  17.494 -0.1377 -0.1770  0.3461
 3639SOL     OW22375   1.340   3.157   7.731 -0.3441  0.0893  0.4225
 3639SOL    HW122376   1.319   3.123   7.818  1.8183 -2.4451 -0.0378
 3639SOL    HW222377   1.296   3.091   7.677 -0.9597  0.9839 -0.1697
 3640SOL     OW22378   3.234   3.726   9.674 -0.5848  0.1929  0.0637
 3640SOL    HW122379   3.221   3.636   9.704  0.3271  0.0541  0.0455
 3640SOL    HW222380   3.159   3.766   9.717 -1.7492 -1.4439 -0.4274
 3641SOL     OW22381   2.150   4.094  11.367 -0.1656  0.0750  0.3225
 3641SOL    HW122382   2.110   4.031  11.428 -0.8060  1.9287  1.8130
 3641SOL    HW222383   2.207   4.035  11.317  0.3633  0.1399  0.8506
 3642SOL     OW22384   0.697   2.079   5.274 -0.0468 -0.3272  0.6889
 3642SOL    HW122385   0.616   2.062   5.226 -0.5430 -1.8334  2.0788
 3642SOL    HW222386   0.758   2.089   5.201  1.6029 -0.0423  2.0972
 3643SOL     OW22387   4.040   4.415   7.421 -0.0502  0.3084 -0.4975
 3643SOL    HW122388   4.123   4.425   7.375  1.0201 -1.5744  1.0313
 3643SOL    HW222389   4.062   4.457   7.505 -0.3571 -1.2824  0.3727
 3644SOL     OW22390   0.596   2.480   2.771  0.3775 -0.0003 -0.4079
 3644SOL    HW122391   0.669   2.418   2.766  0.5783  0.1689  0.5406
 3644SOL    HW222392   0.523   2.418   2.766  0.6586 -0.3634  0.0171
 3645SOL     OW22393   4.689   4.422   8.440 -0.6220  0.4814  0.3976
 3645SOL    HW122394   4.659   4.507   8.407 -2.0388 -0.7797 -1.5218
 3645SOL    HW222395   0.041   4.441   8.497 -1.7412 -1.0391  2.4120
 3646SOL     OW22396   1.489   0.436   8.934 -0.1907 -0.4646  0.3276
 3646SOL    HW122397   1.555   0.487   8.887 -1.4725  1.3434  0.4897
 3646SOL    HW222398   1.536   0.407   9.012  2.2696  1.5634 -0.4046
 3647SOL     OW22399   2.252   4.203  10.118 -0.0613 -0.1538 -0.5258
 3647SOL    HW122400   2.262   4.156  10.200  0.9740 -0.1009 -0.6224
 3647SOL    HW222401   2.272   4.132  10.057  0.3836 -0.6752  0.2328
 3648SOL     OW22402   2.619   1.607   5.268  0.0189 -0.6004 -0.0653
 3648SOL    HW122403   2.602   1.607   5.362 -0.6658 -0.5415 -0.1848
 3648SOL    HW222404   2.540   1.570   5.227  0.2515 -0.9249 -0.2242
 3649SOL     OW22405   3.370   3.782   6.524  0.0896 -0.6658  0.1493
 3649SOL    HW122406   3.370   3.844   6.597 -4.0832 -0.8623  0.3264
 3649SOL    HW222407   3.421   3.709   6.558 -1.3061 -1.9522 -0.5090
 3650SOL     OW22408   2.308   3.477   4.517 -0.3163  0.5194  0.1984
 3650SOL    HW122409   2.328   3.563   4.479 -0.4444 -0.1136 -1.2793
 3650SOL    HW222410   2.363   3.475   4.595  1.2034 -1.9635 -0.9497
 3651SOL     OW22411   2.662   0.837   6.617  0.6613  0.2712  0.1372
 3651SOL    HW122412   2.691   0.822   6.707 -1.4050 -1.5683  0.4850
 3651SOL    HW222413   2.644   0.746   6.596  0.6402  0.1174  0.8157
 3652SOL     OW22414   0.427   3.579   8.008 -0.1728 -0.3811 -0.1122
 3652SOL    HW122415   0.439   3.669   8.038  1.4969 -0.7582  0.3316
 3652SOL    HW222416   0.362   3.587   7.938 -0.2227  0.6232  0.0392
 3653SOL     OW22417   0.441   3.008   7.903  0.0637 -0.6724  0.2761
 3653SOL    HW122418   0.405   2.985   7.989  1.2887 -0.1974  0.9129
 3653SOL    HW222419   0.369   3.039   7.848  1.1541  0.9314 -0.2590
 3654SOL     OW22420   1.222   3.139  10.371 -0.5365  1.0361  0.1986
 3654SOL    HW122421   1.278   3.096  10.305 -0.8760 -1.3779  1.4743
 3654SOL    HW222422   1.183   3.207  10.316 -0.5587  2.7095  2.2910
 3655SOL     OW22423   3.120   0.067   9.678  0.1701 -0.2109 -0.0890
 3655SOL    HW122424   3.134   0.055   9.772  0.0292  2.4660  0.2667
 3655SOL    HW222425   3.115   4.700   9.645 -1.4983 -1.5813  3.8631
 3656SOL     OW22426   4.543   0.256   4.391 -0.0191 -0.0019  0.0414
 3656SOL    HW122427   4.599   0.222   4.321 -2.0829 -2.0334 -0.5931
 3656SOL    HW222428   4.466   0.200   4.383 -0.5346  0.4399  1.7439
 3657SOL     OW22429   1.335   2.689   1.502  0.2642  0.2354  0.5436
 3657SOL    HW122430   1.325   2.782   1.525  0.0422  0.4024 -0.2051
 3657SOL    HW222431   1.363   2.649   1.584  0.9048 -1.7190 -0.6340
 3658SOL     OW22432   1.667   3.030   9.180 -0.1083  0.0840  0.5471
 3658SOL    HW122433   1.710   3.087   9.243  0.7621  0.5257 -0.4382
 3658SOL    HW222434   1.574   3.046   9.194  0.6634  3.1246  2.0685
 3659SOL     OW22435   2.822   3.578   8.456  0.2149  0.2312  0.1350
 3659SOL    HW122436   2.860   3.635   8.523  0.6286 -0.4408  0.4725
 3659SOL    HW222437   2.789   3.508   8.513 -0.0928  0.1494 -0.1437
 3660SOL     OW22438   1.815   4.577   7.049  0.3464  0.6993  0.0686
 3660SOL    HW122439   1.872   4.617   6.983  1.2132  0.2092  0.5186
 3660SOL    HW222440   1.770   4.659   7.073 -0.3376  0.3350  0.0238
 3661SOL     OW22441   0.800   1.318  10.930 -0.1812  0.8288  0.2819
 3661SOL    HW122442   0.871   1.339  10.869  0.4339 -0.5922  0.4841
 3661SOL    HW222443   0.727   1.348  10.876  0.9135 -0.2034 -1.8008
 3662SOL     OW22444   4.694   4.171   4.281  0.2593 -0.0984 -0.6331
 3662SOL    HW122445   4.673   4.238   4.345 -0.0999 -0.4486 -0.3821
 3662SOL    HW222446   0.045   4.129   4.325  0.2696 -0.0713 -0.6248
 3663SOL     OW22447   3.694   3.233   2.067  0.2891 -0.1767  0.4427
 3663SOL    HW122448   3.651   3.168   2.123  0.4571  0.5485  1.4272
 3663SOL    HW222449   3.729   3.188   1.990  1.7328  0.4027  0.7482
 3664SOL     OW22450   1.867   3.395   8.531 -0.0790 -0.3029 -0.1002
 3664SOL    HW122451   1.956   3.361   8.533 -0.3077 -0.8120  1.9575
 3664SOL    HW222452   1.884   3.488   8.549 -1.5325 -0.0085 -0.2455
 3665SOL     OW22453   0.785   0.062   7.134  0.0400  0.5477  0.0379
 3665SOL    HW122454   0.711   0.045   7.192  0.6563  2.4860  1.4168
 3665SOL    HW222455   0.855   0.071   7.199  1.8925  1.0858 -1.9816
 3666SOL     OW22456   1.194   0.540   3.805  0.0728 -0.2328  0.6277
 3666SOL    HW122457   1.156   0.505   3.724 -1.2011  1.1636  0.6177
 3666SOL    HW222458   1.129   0.604   3.834 -0.2275  0.5270 -1.6894
 3667SOL     OW22459   4.286   1.626   4.224  0.3727  0.6302 -0.2654
 3667SOL    HW122460   4.374   1.591   4.207  1.3753  2.5355  0.9935
 3667SOL    HW222461   4.255   1.562   4.289 -0.1792 -0.2403 -1.3788
 3668SOL     OW22462   2.523   1.839  16.280  0.3231  0.5672 -0.4562
 3668SOL    HW122463   2.434   1.806  16.264  0.7930  0.4162 -2.6977
 3668SOL    HW222464   2.524   1.911  16.343  3.0480  0.2584 -0.1481
 3669SOL     OW22465   0.174   0.613  16.125 -0.6175 -0.0557 -0.2022
 3669SOL    HW122466   0.132   0.696  16.147 -3.8043 -1.9298  0.8650
 3669SOL    HW222467   0.134   0.557  16.191 -0.5390 -1.2458 -1.1725
 3670SOL     OW22468   4.384   2.516   2.789  0.0476 -0.5671 -0.1199
 3670SOL    HW122469   4.335   2.468   2.722  1.6061 -1.5133 -0.5921
 3670SOL    HW222470   4.346   2.481   2.871  1.2283  0.1904  0.7453
 3671SOL     OW22471   2.410   0.925   7.508  0.2671  0.1618 -0.5657
 3671SOL    HW122472   2.319   0.945   7.531  1.0073  0.9506  1.7057
 3671SOL    HW222473   2.465   0.972   7.570  1.9812 -1.4303 -0.9058
 3672SOL     OW22474   2.934   4.048  16.945 -0.1086  0.3825 -0.0019
 3672SOL    HW122475   3.004   4.058  16.880 -0.7097  2.0913 -0.3836
 3672SOL    HW222476   2.984   4.017  17.020 -0.8415 -0.6314  0.0740
 3673SOL     OW22477   1.671   4.243   3.941  0.3600 -0.0994  0.2560
 3673SOL    HW122478   1.585   4.246   3.982 -0.8752 -2.0971 -2.1787
 3673SOL    HW222479   1.709   4.196   4.015 -1.6352 -0.6258  0.9435
 3674SOL     OW22480   2.338   0.136  14.274 -0.0903  0.3360  0.0190
 3674SOL    HW122481   2.368   0.052  14.238 -2.7704 -0.6167  0.0172
 3674SOL    HW222482   2.389   0.199  14.223  1.0022 -1.5527 -1.2094
 3675SOL     OW22483   1.237   3.210   4.238 -0.4921  0.0834  0.1520
 3675SOL    HW122484   1.301   3.228   4.306 -0.8075 -1.2142  0.7821
 3675SOL    HW222485   1.166   3.271   4.261 -0.3706  0.3222 -0.0961
 3676SOL     OW22486   1.890   3.222   7.230 -0.3448 -0.4971  0.4110
 3676SOL    HW122487   1.972   3.255   7.191 -0.9492 -0.5119 -0.8704
 3676SOL    HW222488   1.918   3.161   7.299 -0.2720 -0.5657  0.3215
 3677SOL     OW22489   3.151   3.894  15.093  0.9687  0.4902  0.1120
 3677SOL    HW122490   3.219   3.834  15.063  2.5777  1.2200  2.3006
 3677SOL    HW222491   3.123   3.946  15.018 -0.5148  0.2178  0.4653
 3678SOL     OW22492   3.524   0.151   2.397 -0.1607 -0.8510 -0.0693
 3678SOL    HW122493   3.537   0.074   2.453 -1.0248 -0.8459  0.1326
 3678SOL    HW222494   3.522   0.094   2.320  2.1186 -2.3752  0.9830
 3679SOL     OW22495   1.485   3.578   4.555  0.1930 -0.6646 -0.1411
 3679SOL    HW122496   1.445   3.556   4.640  1.7004  0.6531  0.9192
 3679SOL    HW222497   1.508   3.489   4.530  0.3465 -1.0604  1.3871
 3680SOL     OW22498   0.501   1.027   2.631 -0.6029  0.3318  0.0127
 3680SOL    HW122499   0.597   1.018   2.635 -0.7323 -1.3549 -0.4258
 3680SOL    HW222500   0.488   0.956   2.694  2.3188 -0.0083  0.2615
 3681SOL     OW22501   2.658   1.214   9.939 -0.3945  0.4373 -0.0980
 3681SOL    HW122502   2.753   1.207   9.931 -0.6653 -1.4476 -1.7116
 3681SOL    HW222503   2.630   1.150   9.874 -1.7513  1.6794 -0.7305
 3682SOL     OW22504   2.100   0.477   9.194 -0.1777 -0.4509  0.1358
 3682SOL    HW122505   2.012   0.515   9.196 -0.3312 -0.9137  2.0245
 3682SOL    HW222506   2.148   0.542   9.245  0.6056 -1.4495  0.6794
 3683SOL     OW22507   1.386   3.417   8.080  0.2991  0.1106  0.0676
 3683SOL    HW122508   1.416   3.366   8.156  1.1012  0.7673  0.2016
 3683SOL    HW222509   1.304   3.374   8.057  1.2532 -1.4459 -0.3938
 3684SOL     OW22510   2.645   1.977   0.114  0.5729 -0.7542  0.0964
 3684SOL    HW122511   2.570   2.034   0.098  1.7335  0.8871  0.5344
 3684SOL    HW222512   2.625   1.948   0.203  0.5558  0.8226  0.6090
 3685SOL     OW22513   2.282   0.043  16.335  0.4120  0.1033  0.2628
 3685SOL    HW122514   2.234   0.057  16.254 -0.4484 -2.6565  0.3128
 3685SOL    HW222515   2.317   4.677  16.329  0.1491 -0.1536  2.3506
 3686SOL     OW22516   4.333   1.235   4.169  0.2924  0.8412  0.5199
 3686SOL    HW122517   4.368   1.283   4.094 -1.0264 -1.4876 -1.5763
 3686SOL    HW222518   4.408   1.184   4.201 -0.8239 -1.8213 -1.1022
 3687SOL     OW22519   1.538   2.621   6.399  0.5057  0.6090  0.3622
 3687SOL    HW122520   1.481   2.578   6.335  2.0102  1.2093 -1.3798
 3687SOL    HW222521   1.472   2.650   6.462 -0.9975  0.0698 -0.9695
 3688SOL     OW22522   4.418   3.791   7.265 -0.0181 -0.2308  0.6517
 3688SOL    HW122523   4.507   3.756   7.264 -0.1564 -0.5967  1.0920
 3688SOL    HW222524   4.380   3.742   7.338 -2.5298 -0.1462 -0.5789
 3689SOL     OW22525   1.770   0.252  11.966 -0.3237 -0.3844  0.6982
 3689SOL    HW122526   1.731   0.300  11.892 -0.4215  0.6248  1.3993
 3689SOL    HW222527   1.861   0.278  11.952 -1.1643  1.1655 -1.9348
 3690SOL     OW22528   0.248   3.269  16.549 -0.7600  0.0286 -0.1897
 3690SOL    HW122529   0.281   3.216  16.476  0.6830 -1.7920  1.7788
 3690SOL    HW222530   0.157   3.243  16.537 -0.8685  0.1969  0.2962
 3691SOL     OW22531   3.856   3.384   5.427  0.2085 -0.2304  0.3001
 3691SOL    HW122532   3.826   3.318   5.490 -1.9382 -0.6765 -1.1816
 3691SOL    HW222533   3.851   3.335   5.345 -1.2829  1.2151 -0.4799
 3692SOL     OW22534   2.270   1.953   8.289  0.2096 -0.7541  0.7118
 3692SOL    HW122535   2.334   1.892   8.325 -0.5152 -1.2189  1.2220
 3692SOL    HW222536   2.213   1.889   8.248 -1.1183  0.0028  1.3533
 3693SOL     OW22537   3.328   1.471   8.369 -0.0685 -0.3976 -0.0539
 3693SOL    HW122538   3.301   1.470   8.461  0.6065  0.7480  0.1554
 3693SOL    HW222539   3.415   1.511   8.379 -0.6104  0.6168  0.5235
 3694SOL     OW22540   4.671   0.328   6.414 -0.3771  0.2362  0.3757
 3694SOL    HW122541   4.578   0.326   6.392 -0.1615 -2.8220 -0.3482
 3694SOL    HW222542   4.720   0.271   6.354 -1.9918 -2.4855  1.6729
 3695SOL     OW22543   0.799   0.941   5.607 -0.3324  0.1875 -0.0268
 3695SOL    HW122544   0.848   0.912   5.683  1.1111 -0.5793 -1.2550
 3695SOL    HW222545   0.742   0.866   5.593 -0.6974  0.0175  2.4565
 3696SOL     OW22546   0.364   4.337   4.164  0.3426  0.9525  0.8132
 3696SOL    HW122547   0.345   4.364   4.074  1.7657 -1.5290 -0.2247
 3696SOL    HW222548   0.303   4.266   4.186  0.3848  0.0126 -2.1537
 3697SOL     OW22549   2.703   2.594  12.943  0.1288 -0.3184 -0.4567
 3697SOL    HW122550   2.616   2.632  12.928  0.1979  0.7458  1.7696
 3697SOL    HW222551   2.728   2.575  12.852 -0.7398  0.6795 -0.9036
 3698SOL     OW22552   3.904   3.245   5.084 -0.4130 -0.4750  0.7484
 3698SOL    HW122553   3.834   3.300   5.049  0.0080 -2.8369 -3.8025
 3698SOL    HW222554   3.918   3.192   5.006 -1.4448 -0.8410  0.8114
 3699SOL     OW22555   2.936   4.175   5.947 -0.0111  0.6588 -0.4549
 3699SOL    HW122556   2.879   4.219   6.009  0.9895  0.2678  0.7496
 3699SOL    HW222557   3.014   4.227   5.968 -0.0558  0.4412  0.2509
 3700SOL     OW22558   0.290   3.251  15.803 -0.0660  0.0692  0.3781
 3700SOL    HW122559   0.255   3.181  15.747  1.4426 -2.0509  2.0829
 3700SOL    HW222560   0.265   3.328  15.751  0.8813  2.0881  2.9139
 3701SOL     OW22561   3.877   4.708   6.744 -0.5976 -0.1397  0.2703
 3701SOL    HW122562   3.962   0.030   6.744 -0.8869  0.4096 -0.8319
 3701SOL    HW222563   3.870   4.679   6.835 -0.0890 -0.2905  0.2633
 3702SOL     OW22564   4.487   4.468   3.496  0.4946  0.4496 -0.1450
 3702SOL    HW122565   4.392   4.460   3.492  0.3591  2.4582 -0.8972
 3702SOL    HW222566   4.503   4.540   3.436  1.2093  1.2060  0.9444
 3703SOL     OW22567   0.917   2.067  17.366  0.7069 -0.5006 -0.0601
 3703SOL    HW122568   0.994   2.124  17.371  0.7552 -0.5383 -0.3639
 3703SOL    HW222569   0.911   2.053  17.460 -0.1907  0.1809 -0.0183
 3704SOL     OW22570   1.982   4.039   5.300  0.4775  0.2354 -0.0305
 3704SOL    HW122571   2.033   3.960   5.279 -0.6432 -0.2027 -1.1034
 3704SOL    HW222572   2.017   4.060   5.387  2.3219 -0.1479 -0.6647
 3705SOL     OW22573   2.859   3.683   3.679  0.0507 -0.3365  0.1513
 3705SOL    HW122574   2.948   3.719   3.669  0.3235 -1.4081 -1.1757
 3705SOL    HW222575   2.832   3.740   3.751 -0.4843 -0.5467  0.1148
 3706SOL     OW22576   1.382   1.295   3.224 -0.1183 -0.6451 -0.6482
 3706SOL    HW122577   1.352   1.276   3.313 -1.9505 -0.0482 -1.1215
 3706SOL    HW222578   1.298   1.290   3.178 -0.8680  1.7481  0.4128
 3707SOL     OW22579   0.387   4.348   8.959  0.7286 -0.3733  0.5040
 3707SOL    HW122580   0.390   4.252   8.969 -1.9263 -0.5855 -0.8522
 3707SOL    HW222581   0.429   4.370   9.042  1.3033  0.4999 -0.0225
 3708SOL     OW22582   1.236   0.790   7.692  0.5341 -0.4135 -0.0032
 3708SOL    HW122583   1.291   0.754   7.761  1.5325 -0.4636 -0.8119
 3708SOL    HW222584   1.269   0.745   7.614  0.1154 -1.3396  0.3639
 3709SOL     OW22585   2.103   0.988   7.658  0.4257 -0.1481 -0.4534
 3709SOL    HW122586   2.182   1.003   7.710 -1.2033 -0.0326  2.0002
 3709SOL    HW222587   2.034   1.032   7.708  0.2500  0.5667 -1.3293
 3710SOL     OW22588   3.528   1.405  11.741 -0.1265  0.4147  0.3786
 3710SOL    HW122589   3.470   1.373  11.810  0.3750  2.8055  1.8893
 3710SOL    HW222590   3.548   1.491  11.777 -1.2186  0.9550 -0.3094
 3711SOL     OW22591   2.487   1.807   6.024 -0.7614  0.0014 -0.4308
 3711SOL    HW122592   2.577   1.815   6.057 -0.9031 -1.1572  0.2215
 3711SOL    HW222593   2.507   1.811   5.931 -2.9455  0.8995 -0.8636
 3712SOL     OW22594   1.549   1.755   0.416 -0.7841 -0.8413 -0.0139
 3712SOL    HW122595   1.565   1.764   0.322 -2.4759  0.0267 -0.2048
 3712SOL    HW222596   1.583   1.838   0.447 -2.3677 -0.4673  0.7247
 3713SOL     OW22597   4.384   3.075   9.121 -0.2150  0.3040 -0.4443
 3713SOL    HW122598   4.336   3.146   9.163  1.0151  0.2021  1.1537
 3713SOL    HW222599   4.373   3.006   9.187  1.2404  1.7224  1.2691
 3714SOL     OW22600   3.511   2.350  13.497 -0.1079  0.5379 -0.0670
 3714SOL    HW122601   3.579   2.415  13.477 -0.9050  0.9857 -1.3474
 3714SOL    HW222602   3.468   2.378  13.578 -0.9403  1.4171 -0.8025
 3715SOL     OW22603   0.728   3.285   8.116  0.2663 -0.0729  0.7014
 3715SOL    HW122604   0.774   3.201   8.111  1.7279  0.7713  0.0571
 3715SOL    HW222605   0.646   3.269   8.162  0.5063 -0.7600  0.9013
 3716SOL     OW22606   2.441   1.177   5.478 -0.3041  0.6606  0.5226
 3716SOL    HW122607   2.383   1.253   5.481 -1.5970 -0.3225 -0.0621
 3716SOL    HW222608   2.495   1.201   5.554  1.1265 -1.2079  0.0902
 3717SOL     OW22609   3.921   4.589   2.656  0.2153 -0.0538  0.3396
 3717SOL    HW122610   3.875   4.600   2.572 -2.0822  0.6766  1.7058
 3717SOL    HW222611   3.881   4.504   2.674  2.4831 -1.1844  0.0740
 3718SOL     OW22612   3.525   0.503   7.532  1.0488 -0.1982  0.4164
 3718SOL    HW122613   3.430   0.507   7.522  0.9573 -2.6496  0.2963
 3718SOL    HW222614   3.537   0.585   7.581 -0.1238 -1.0360  2.0671
 3719SOL     OW22615   4.269   4.178   3.327  0.2339 -0.5188 -0.8971
 3719SOL    HW122616   4.300   4.098   3.285  1.5105 -0.3504 -0.2899
 3719SOL    HW222617   4.267   4.236   3.250  0.0876  0.7432  0.0643
 3720SOL     OW22618   2.388   0.750  15.864  0.1172  0.0987 -0.7041
 3720SOL    HW122619   2.469   0.762  15.915  0.5486  0.2427 -1.4221
 3720SOL    HW222620   2.416   0.777  15.776 -0.5245  0.0602 -0.9152
 3721SOL     OW22621   3.267   0.371   5.888  0.3237  0.3391 -0.6234
 3721SOL    HW122622   3.286   0.332   5.803  0.0679 -0.1912 -0.4410
 3721SOL    HW222623   3.256   0.292   5.940  0.0768  0.4456 -0.5151
 3722SOL     OW22624   0.102   3.087  11.562 -0.1642 -0.4260  0.0686
 3722SOL    HW122625   0.031   3.048  11.613 -1.2028  2.5731  0.9445
 3722SOL    HW222626   0.175   3.059  11.617 -0.0369  0.3175  0.2813
 3723SOL     OW22627   3.751   2.634   8.202  0.3108  0.1521 -0.1319
 3723SOL    HW122628   3.764   2.547   8.163  0.7531  0.4912 -0.7506
 3723SOL    HW222629   3.798   2.686   8.136  0.0817 -0.4308 -0.7577
 3724SOL     OW22630   0.278   0.612   2.449 -0.4236  0.2482 -0.3964
 3724SOL    HW122631   0.323   0.691   2.420  0.6858  0.9875  3.4273
 3724SOL    HW222632   0.245   0.592   2.361  0.3633 -2.2101 -0.1374
 3725SOL     OW22633   1.155   0.223   5.839  0.1441 -0.5812 -0.1704
 3725SOL    HW122634   1.194   0.283   5.775 -0.3442  1.2809  1.2930
 3725SOL    HW222635   1.157   0.270   5.923  1.3887 -0.2663 -0.3757
 3726SOL     OW22636   2.696   3.736  14.336 -0.7245  0.2671  0.1630
 3726SOL    HW122637   2.671   3.713  14.425  0.7572 -2.1456 -0.0264
 3726SOL    HW222638   2.672   3.828  14.335  0.1537  0.5246  2.0335
 3727SOL     OW22639   2.422   0.944   1.619 -0.1407  0.3260 -0.7003
 3727SOL    HW122640   2.488   1.002   1.582 -0.0324  1.2023  0.8967
 3727SOL    HW222641   2.341   0.956   1.570  0.2215  1.6154 -0.9639
 3728SOL     OW22642   1.245   2.569   7.552  0.2023 -0.2465  0.2158
 3728SOL    HW122643   1.180   2.616   7.604 -1.7688 -1.7946 -0.8256
 3728SOL    HW222644   1.253   2.485   7.598  1.2328 -0.6281 -0.6617
 3729SOL     OW22645   2.025   2.024   3.536  0.0269  0.8553 -0.2234
 3729SOL    HW122646   1.957   1.991   3.477 -1.1984 -0.7888  2.0856
 3729SOL    HW222647   2.059   2.102   3.492  0.3748  0.0779 -1.3369
 3730SOL     OW22648   0.807   2.469   3.511 -0.7999 -0.0954  0.1899
 3730SOL    HW122649   0.794   2.437   3.600  1.7440  1.5659  1.1720
 3730SOL    HW222650   0.748   2.417   3.457 -2.4847  1.8867  0.1274
 3731SOL     OW22651   2.660   4.703   5.918 -0.4338  0.0058 -0.2216
 3731SOL    HW122652   2.712   4.623   5.908  0.8044  0.9016 -0.9636
 3731SOL    HW222653   2.698   0.032   5.989 -2.6755  1.1923  0.1249
 3732SOL     OW22654   2.329   1.855  12.236  0.2226  0.5407 -0.2856
 3732SOL    HW122655   2.269   1.792  12.195  0.0188 -0.0858  0.9607
 3732SOL    HW222656   2.330   1.829  12.328  0.9257  1.3338 -0.0656
 3733SOL     OW22657   0.553   4.099   3.321  0.1032 -0.2193  0.0660
 3733SOL    HW122658   0.612   4.172   3.299 -1.2817  0.1556 -2.3743
 3733SOL    HW222659   0.580   4.084   3.412 -1.1615  0.7519  0.6095
 3734SOL     OW22660   0.253   1.037  10.935  0.1333 -0.7556  0.4586
 3734SOL    HW122661   0.326   1.037  10.996 -0.3732  1.1206  1.0702
 3734SOL    HW222662   0.277   1.116  10.886 -0.0562  0.3573  2.1707
 3735SOL     OW22663   0.925   2.229  12.333 -0.0666  0.4739  0.6843
 3735SOL    HW122664   0.971   2.236  12.249 -0.1277 -1.1989  0.5146
 3735SOL    HW222665   0.999   2.252  12.390 -0.0405 -0.6976  1.1290
 3736SOL     OW22666   2.299   2.423   6.473 -0.5971 -1.0381 -0.0023
 3736SOL    HW122667   2.344   2.375   6.542 -0.9341  1.2202  1.7735
 3736SOL    HW222668   2.275   2.500   6.523 -1.5298 -1.7232  0.6153
 3737SOL     OW22669   0.441   2.553   3.058  0.2545 -0.3407  0.1344
 3737SOL    HW122670   0.375   2.586   2.997 -1.6862 -1.3143  1.7143
 3737SOL    HW222671   0.421   2.607   3.135 -1.8818  0.7013 -1.1768
 3738SOL     OW22672   2.566   2.837   7.265  0.1073 -0.4237  0.7130
 3738SOL    HW122673   2.555   2.900   7.336  1.3838  1.1101 -0.4423
 3738SOL    HW222674   2.554   2.751   7.305 -0.2354 -1.3923 -1.5157
 3739SOL     OW22675   1.317   4.523   7.273 -0.2302 -0.3302 -0.3230
 3739SOL    HW122676   1.271   4.543   7.191  0.2798  0.3307 -0.4471
 3739SOL    HW222677   1.407   4.502   7.249  0.9015  0.0435  3.4919
 3740SOL     OW22678   4.453   4.174   0.728 -0.2145 -0.0988 -0.4118
 3740SOL    HW122679   4.398   4.150   0.803 -1.1020  2.6886 -0.1462
 3740SOL    HW222680   4.414   4.259   0.707 -1.2242  0.0934  2.3066
 3741SOL     OW22681   3.298   4.181   8.281 -0.0939  0.1262 -0.2134
 3741SOL    HW122682   3.256   4.218   8.204  0.9669 -1.1568 -1.4052
 3741SOL    HW222683   3.224   4.169   8.340 -0.4216 -2.6134 -1.2165
 3742SOL     OW22684   3.757   2.189   8.271 -0.0270  0.2518 -0.8345
 3742SOL    HW122685   3.688   2.170   8.207 -0.1696  0.6716 -0.8072
 3742SOL    HW222686   3.782   2.097   8.276 -1.4786 -0.2416 -2.5404
 3743SOL     OW22687   1.130   2.123   6.869 -0.8665 -0.5097  0.4476
 3743SOL    HW122688   1.120   2.197   6.929  0.9757  1.0056 -1.1062
 3743SOL    HW222689   1.066   2.145   6.802  0.7661  1.7352 -0.3751
 3744SOL     OW22690   2.396   3.940  14.663 -0.1393  0.2186 -0.0529
 3744SOL    HW122691   2.332   3.994  14.710 -2.9640 -1.9564 -1.3775
 3744SOL    HW222692   2.351   3.856  14.657 -1.6429  0.7820  3.2835
 3745SOL     OW22693   2.022   1.141   3.751 -0.6067  0.3415  0.7566
 3745SOL    HW122694   2.103   1.173   3.711 -1.3982  2.6235  1.0134
 3745SOL    HW222695   1.950   1.188   3.710 -0.8473 -1.6141 -1.1145
 3746SOL     OW22696   3.663   4.453   9.823 -0.0477  0.1964  0.4970
 3746SOL    HW122697   3.722   4.526   9.842  0.8201 -0.2319 -0.5793
 3746SOL    HW222698   3.580   4.494   9.799  0.0049 -0.7897 -1.3219
 3747SOL     OW22699   1.967   0.032   6.929  0.1233 -0.3124  0.3680
 3747SOL    HW122700   2.004   0.104   6.981 -0.0102 -0.3812  0.5572
 3747SOL    HW222701   2.007   0.049   6.843  0.3635 -0.5422  0.4340
 3748SOL     OW22702   4.148   3.845   7.577 -0.1706 -0.0865 -0.4436
 3748SOL    HW122703   4.221   3.797   7.538 -1.3329 -0.9029 -1.6821
 3748SOL    HW222704   4.090   3.774   7.604  0.1386 -0.3310 -0.4313
 3749SOL     OW22705   0.197   4.212  12.899 -0.2840  0.1940 -0.1934
 3749SOL    HW122706   0.148   4.190  12.819 -0.8285 -1.3567  0.5489
 3749SOL    HW222707   0.123   4.254  12.943  0.2382 -0.5050  1.3538
 3750SOL     OW22708   3.354   4.142   7.887 -0.1030 -0.0259  0.5665
 3750SOL    HW122709   3.437   4.189   7.894  0.2615 -0.7716  1.2079
 3750SOL    HW222710   3.316   4.180   7.966 -1.9241  1.8027 -1.1950
 3751SOL     OW22711   2.936   3.603  11.029 -0.0596 -0.9166 -0.6257
 3751SOL    HW122712   2.942   3.508  11.034 -0.3983 -0.9000  0.0148
 3751SOL    HW222713   3.025   3.628  11.055  0.2588 -2.5119 -0.1910
 3752SOL     OW22714   3.040   1.847   2.338  0.3365 -0.1235 -0.6579
 3752SOL    HW122715   2.986   1.787   2.286  0.1025 -0.2230 -0.3044
 3752SOL    HW222716   2.976   1.874   2.405 -1.7978 -0.9625 -2.3516
 3753SOL     OW22717   4.214   0.699   2.816  0.2616 -0.1238 -0.1095
 3753SOL    HW122718   4.140   0.656   2.860 -1.2210  0.7199 -1.7827
 3753SOL    HW222719   4.259   0.736   2.892  3.4447 -0.1965 -1.9709
 3754SOL     OW22720   2.127   0.628   5.526  0.8756  0.2158 -0.1849
 3754SOL    HW122721   2.138   0.536   5.550 -1.7418  0.4160  1.7701
 3754SOL    HW222722   2.190   0.652   5.458  2.3414 -2.6998  0.1540
 3755SOL     OW22723   2.045   4.147   6.221  0.3420 -0.1984 -0.5797
 3755SOL    HW122724   2.080   4.107   6.142  0.0225 -1.2804 -0.1684
 3755SOL    HW222725   2.100   4.114   6.292 -1.3404  0.1479  0.8837
 3756SOL     OW22726   3.347   2.157   0.663 -0.2278 -0.5550 -0.9563
 3756SOL    HW122727   3.406   2.089   0.697 -0.0986  0.3933  0.7264
 3756SOL    HW222728   3.339   2.135   0.570  2.9350  1.3180 -1.6584
 3757SOL     OW22729   2.814   2.400   3.772  0.0312  0.7683 -0.3165
 3757SOL    HW122730   2.892   2.451   3.794  0.4152  0.1189 -0.1872
 3757SOL    HW222731   2.856   2.319   3.744 -1.9292  0.3913 -2.1140
 3758SOL     OW22732   2.144   2.281  17.092  0.1956 -1.1464  0.2150
 3758SOL    HW122733   2.213   2.283  17.026 -0.6906  0.4898 -0.6663
 3758SOL    HW222734   2.067   2.317  17.048  1.7172  0.3320 -1.2241
 3759SOL     OW22735   1.780   1.193   0.419 -0.3935  0.2577 -0.4811
 3759SOL    HW122736   1.737   1.126   0.366 -0.6760  0.5361 -0.6105
 3759SOL    HW222737   1.825   1.247   0.354 -1.5602  2.0230  0.1435
 3760SOL     OW22738   2.198   4.205   4.015 -0.0043  0.4876  0.4437
 3760SOL    HW122739   2.287   4.177   4.039 -0.9372 -2.1569  0.7742
 3760SOL    HW222740   2.141   4.129   4.010 -1.6305  1.7399  0.0360
 3761SOL     OW22741   3.447   2.884   8.384  0.2477 -0.0086  0.2001
 3761SOL    HW122742   3.492   2.800   8.397 -1.1931 -0.9350 -0.7142
 3761SOL    HW222743   3.450   2.922   8.471  2.0186 -0.9631  0.5441
 3762SOL     OW22744   4.582   0.090  11.893  0.0389  0.0938 -0.2663
 3762SOL    HW122745   4.564   4.721  11.874  1.6860 -0.6092  1.5349
 3762SOL    HW222746   4.676   0.097  11.877 -0.2159 -0.2948 -1.8525
 3763SOL     OW22747   2.842   1.369   8.159 -0.0324 -0.5091  0.2052
 3763SOL    HW122748   2.891   1.434   8.210  3.1023  0.4836 -4.0094
 3763SOL    HW222749   2.807   1.311   8.226 -0.7804  0.0451  0.2984
 3764SOL     OW22750   2.581   0.176   4.083  0.7039  0.5294 -0.2085
 3764SOL    HW122751   2.497   0.148   4.119 -0.4572  3.0061 -0.9728
 3764SOL    HW222752   2.628   0.094   4.068  2.8973  1.7951 -0.4108
 3765SOL     OW22753   2.285   0.953  12.054 -0.0648  0.6755  0.1288
 3765SOL    HW122754   2.297   1.045  12.076 -0.2302  0.1998  2.2131
 3765SOL    HW222755   2.356   0.922  12.110 -0.1764  1.1763  0.5353
 3766SOL     OW22756   4.165   2.783   7.094  0.3516  0.0188 -0.1118
 3766SOL    HW122757   4.256   2.788   7.064  0.1510 -1.8214 -1.0725
 3766SOL    HW222758   4.182   2.713   7.157 -1.4530  0.6056  1.0284
 3767SOL     OW22759   0.250   4.579  12.779 -0.6475 -0.0277 -0.1551
 3767SOL    HW122760   0.330   4.617  12.813  2.6219 -5.0643 -2.1502
 3767SOL    HW222761   0.198   4.571  12.860  0.5296 -1.2051  0.4860
 3768SOL     OW22762   1.356   1.527   6.240 -0.0630 -0.7689 -0.3240
 3768SOL    HW122763   1.421   1.597   6.240 -1.3319  0.4678  4.0037
 3768SOL    HW222764   1.316   1.544   6.155  2.2471  2.2855 -0.7880
 3769SOL     OW22765   4.497   4.467  11.943 -0.2763 -0.2355  0.0829
 3769SOL    HW122766   4.582   4.474  11.899 -0.3865 -1.4132 -0.3213
 3769SOL    HW222767   4.468   4.391  11.892 -3.1660  0.7667  0.2365
 3770SOL     OW22768   3.087   3.495   9.248  0.5782 -0.4451  0.0340
 3770SOL    HW122769   3.058   3.575   9.290 -0.1405 -0.1928 -0.9468
 3770SOL    HW222770   3.169   3.485   9.296  0.2829 -1.5124  0.3308
 3771SOL     OW22771   2.365   1.443   7.002  0.2922 -0.0235 -0.6204
 3771SOL    HW122772   2.384   1.356   7.036  2.7648  1.7873  2.6456
 3771SOL    HW222773   2.378   1.498   7.079  0.4869 -3.0429  1.4805
 3772SOL     OW22774   0.423   0.840   7.275  0.7084 -0.5457 -0.5272
 3772SOL    HW122775   0.330   0.837   7.252  1.0667  1.1941 -2.1381
 3772SOL    HW222776   0.449   0.748   7.276  0.5421 -0.5922 -0.4465
 3773SOL     OW22777   3.450   0.635  14.802  0.2275  0.6200 -0.0708
 3773SOL    HW122778   3.406   0.561  14.843 -1.6309  1.7542  0.0053
 3773SOL    HW222779   3.410   0.707  14.852 -0.6416  0.7609 -0.9745
 3774SOL     OW22780   3.008   1.896   2.013 -0.5624 -0.0448 -0.1142
 3774SOL    HW122781   2.991   1.807   2.045 -0.3509 -0.1755 -0.3668
 3774SOL    HW222782   2.931   1.918   1.961 -0.1091  0.2027 -0.6831
 3775SOL     OW22783   4.493   2.083  15.523 -0.4106 -0.6325 -0.2023
 3775SOL    HW122784   4.497   2.101  15.617 -0.8178 -3.5256  0.3638
 3775SOL    HW222785   4.543   2.002  15.513 -1.8406 -1.3205 -1.7844
 3776SOL     OW22786   2.362   2.485   8.680  0.1001  0.2237  0.0958
 3776SOL    HW122787   2.398   2.482   8.768  1.7971  0.5030 -0.5853
 3776SOL    HW222788   2.304   2.561   8.685  1.6019  1.3405  0.5592
 3777SOL     OW22789   2.449   4.161   7.493  0.2397 -1.0133 -0.2335
 3777SOL    HW122790   2.373   4.110   7.520  0.0506 -0.6515 -0.0868
 3777SOL    HW222791   2.520   4.098   7.502  0.5939 -0.5335  0.3531
 3778SOL     OW22792   2.314   1.538   7.652  0.5714 -0.5174 -0.1480
 3778SOL    HW122793   2.258   1.510   7.579 -0.5419  0.4431  0.3376
 3778SOL    HW222794   2.337   1.451   7.684 -0.4104  0.0294  2.0067
 3779SOL     OW22795   0.810   3.089   4.172  0.3402 -0.1695  0.2174
 3779SOL    HW122796   0.850   3.128   4.094  1.7527 -2.4089 -0.1527
 3779SOL    HW222797   0.852   3.139   4.243  1.6411 -1.8352  0.5994
 3780SOL     OW22798   0.608   2.301   9.555 -0.2419  0.2443  0.2077
 3780SOL    HW122799   0.615   2.344   9.640 -3.0991  1.3017 -0.1164
 3780SOL    HW222800   0.580   2.215   9.587  1.2475 -0.0091  0.8204
 3781SOL     OW22801   0.814   0.564   5.461 -0.1714  0.1776  0.2067
 3781SOL    HW122802   0.818   0.478   5.503  3.2156 -0.3555 -1.2452
 3781SOL    HW222803   0.746   0.614   5.506 -1.3632  1.0928 -2.6165
 3782SOL     OW22804   4.325   3.312  12.419 -0.3662  0.1513  0.6043
 3782SOL    HW122805   4.305   3.268  12.336  1.3856 -0.9087  0.7387
 3782SOL    HW222806   4.420   3.313  12.411 -0.4514 -1.2054 -0.5642
 3783SOL     OW22807   3.947   4.196   4.001 -0.2006 -0.3617  0.5565
 3783SOL    HW122808   3.905   4.177   4.085  1.7974 -0.2259  1.5871
 3783SOL    HW222809   3.957   4.107   3.965 -0.2607 -0.5099  0.9024
 3784SOL     OW22810   4.227   0.397   1.552  0.7237 -0.2709 -0.3777
 3784SOL    HW122811   4.210   0.488   1.530  0.8545 -0.5363 -1.5867
 3784SOL    HW222812   4.142   0.381   1.592  0.2722 -1.8565 -1.9777
 3785SOL     OW22813   0.788   0.810   2.840 -0.3008 -0.0196  0.1022
 3785SOL    HW122814   0.694   0.810   2.823  0.0945 -1.3692 -2.1165
 3785SOL    HW222815   0.797   0.875   2.909 -2.3043  0.6163 -0.2457
 3786SOL     OW22816   2.649   3.236   8.495 -0.3653 -0.2148  0.1320
 3786SOL    HW122817   2.672   3.237   8.402 -0.3805  1.2846  0.1527
 3786SOL    HW222818   2.721   3.285   8.535  0.9193 -1.9215 -0.0703
 3787SOL     OW22819   1.914   2.085  17.153  0.2881 -0.2976 -0.6782
 3787SOL    HW122820   1.952   2.098  17.067  1.0542  1.5700 -0.0516
 3787SOL    HW222821   1.951   2.163  17.196  0.7842 -0.6740 -0.4263
 3788SOL     OW22822   2.488   2.854   2.145 -0.1742  0.9850  0.4806
 3788SOL    HW122823   2.548   2.906   2.092  0.8865 -2.0493 -1.3245
 3788SOL    HW222824   2.410   2.909   2.142 -0.7624  0.1307 -0.2217
 3789SOL     OW22825   1.764   4.644  14.988 -0.0660  0.2580 -0.5480
 3789SOL    HW122826   1.750   4.549  14.991 -0.1296  0.3026  0.4807
 3789SOL    HW222827   1.713   4.671  15.063 -0.9068 -0.2866 -0.9254
 3790SOL     OW22828   2.075   1.280   0.566 -0.2069 -0.1561 -0.0980
 3790SOL    HW122829   2.076   1.197   0.519  2.5065 -0.3127  0.2236
 3790SOL    HW222830   2.080   1.249   0.656 -0.3079  0.9612  0.2919
 3791SOL     OW22831   4.234   2.218   4.222 -0.2461 -0.4632 -0.4551
 3791SOL    HW122832   4.147   2.195   4.253  0.7360 -0.6379  2.1503
 3791SOL    HW222833   4.209   2.262   4.140 -1.2628  0.8724  0.5725
 3792SOL     OW22834   4.201   0.838   3.258 -0.4778 -0.1160  0.3898
 3792SOL    HW122835   4.153   0.764   3.296  0.7399 -1.3179 -0.3821
 3792SOL    HW222836   4.164   0.919   3.293 -0.5497  0.2979 -0.6424
 3793SOL     OW22837   1.766   3.478   3.651 -0.0955  0.2134 -0.3466
 3793SOL    HW122838   1.792   3.400   3.700 -1.3975  0.2484  0.4053
 3793SOL    HW222839   1.855   3.515   3.649  0.1225 -0.2976  0.0701
 3794SOL     OW22840   1.825   1.296   3.617 -0.1346 -0.2538  0.1670
 3794SOL    HW122841   1.839   1.330   3.529  1.1055  0.7101  0.7399
 3794SOL    HW222842   1.730   1.279   3.621 -0.0459 -0.9695 -0.7336
 3795SOL     OW22843   1.859   2.838   1.167 -0.2299 -0.1578 -0.3714
 3795SOL    HW122844   1.940   2.852   1.216 -0.9494 -1.3551  1.1512
 3795SOL    HW222845   1.880   2.754   1.125  3.5035  1.4134 -1.6383
 3796SOL     OW22846   3.799   1.525   7.161  0.5710 -0.0096 -0.1003
 3796SOL    HW122847   3.786   1.557   7.071  1.9481 -0.3412 -0.4230
 3796SOL    HW222848   3.713   1.507   7.198  0.0150 -1.2409 -1.9665
 3797SOL     OW22849   0.602   3.504   2.815 -0.1824  0.6013 -0.1120
 3797SOL    HW122850   0.510   3.494   2.790 -1.0913  0.8422  3.0304
 3797SOL    HW222851   0.643   3.426   2.779  0.1451  1.3526 -1.3576
 3798SOL     OW22852   3.217   3.186   8.612 -0.4971 -0.1654 -0.5658
 3798SOL    HW122853   3.270   3.251   8.659 -0.2739 -1.5476  1.1074
 3798SOL    HW222854   3.242   3.107   8.659  3.0155  0.8386 -0.7396
 3799SOL     OW22855   2.978   0.162   2.885  0.2106 -0.0975 -0.0903
 3799SOL    HW122856   2.903   0.157   2.944  0.6510 -1.1404  0.3686
 3799SOL    HW222857   3.049   0.187   2.944  2.1395  0.1722 -2.5238
 3800SOL     OW22858   0.296   2.388   5.679  0.0724  0.4433  0.4892
 3800SOL    HW122859   0.267   2.473   5.711 -1.9931 -0.5012  1.1292
 3800SOL    HW222860   0.289   2.384   5.584 -1.1500  0.8374  0.5711
 3801SOL     OW22861   0.271   2.932   3.225 -0.5212  0.5963  0.2447
 3801SOL    HW122862   0.326   2.856   3.242 -1.6232 -0.7409 -2.2707
 3801SOL    HW222863   0.250   2.922   3.133 -1.6289 -2.9350  0.9010
 3802SOL     OW22864   3.979   0.798  13.156  0.3557 -0.3420 -0.1830
 3802SOL    HW122865   3.924   0.734  13.111 -0.1324 -0.7019  0.9132
 3802SOL    HW222866   3.917   0.824  13.224 -0.0575 -0.7411 -0.4074
 3803SOL     OW22867   0.384   4.105  13.717  0.0233  0.1030 -0.8082
 3803SOL    HW122868   0.457   4.130  13.661  0.2790 -1.4156 -1.1380
 3803SOL    HW222869   0.319   4.164  13.677  2.9289  2.7920 -1.5778
 3804SOL     OW22870   0.922   1.410   8.174 -0.3230  0.4544 -0.3315
 3804SOL    HW122871   1.000   1.426   8.121 -0.0241  1.0235  0.2872
 3804SOL    HW222872   0.935   1.461   8.254  0.6471 -0.7988  0.3162
 3805SOL     OW22873   2.537   0.559   5.004 -0.2724 -0.1755 -0.7887
 3805SOL    HW122874   2.490   0.643   4.997  2.3926  1.2934 -0.7864
 3805SOL    HW222875   2.551   0.541   4.911  3.0646  0.1216 -0.3159
 3806SOL     OW22876   3.408   0.994   2.867 -0.9071 -0.3986 -0.4334
 3806SOL    HW122877   3.345   0.923   2.875 -0.6710 -0.3881  1.5583
 3806SOL    HW222878   3.492   0.949   2.873 -0.1960  0.9308 -0.2211
 3807SOL     OW22879   2.892   2.825   8.946  0.1046  0.2061  0.1478
 3807SOL    HW122880   2.823   2.877   8.905  0.0948  1.3965  1.6748
 3807SOL    HW222881   2.912   2.879   9.023  0.9569 -0.0933  0.1419
 3808SOL     OW22882   3.169   3.568  16.256  0.1311 -0.2464  0.1733
 3808SOL    HW122883   3.253   3.590  16.216  0.4373 -2.0960 -0.1709
 3808SOL    HW222884   3.206   3.507  16.320  3.8834 -1.1145 -2.7964
 3809SOL     OW22885   3.300   4.431   2.441  0.4550  0.1487 -0.4202
 3809SOL    HW122886   3.230   4.468   2.388  0.7637  1.4965  0.1281
 3809SOL    HW222887   3.299   4.343   2.402 -0.2158 -0.5428  1.1417
 3810SOL     OW22888   3.562   3.566   2.470  0.2063  0.3934  0.3438
 3810SOL    HW122889   3.578   3.608   2.386  0.9012 -0.1023  0.2342
 3810SOL    HW222890   3.646   3.525   2.492  0.2589 -0.0655 -0.7451
 3811SOL     OW22891   1.531   3.360   9.037  0.2352 -0.0732  0.1289
 3811SOL    HW122892   1.606   3.333   8.984 -0.0530 -1.2523  0.3227
 3811SOL    HW222893   1.498   3.277   9.071  0.6008 -0.5175 -0.5744
 3812SOL     OW22894   3.323   4.680  14.580 -0.1000  0.7072 -0.0701
 3812SOL    HW122895   3.384   4.674  14.654  0.4503 -4.0964 -0.8821
 3812SOL    HW222896   3.331   0.048  14.553 -1.2229  0.3987 -1.3857
 3813SOL     OW22897   4.618   3.944   0.634  0.5877  0.6892 -0.3234
 3813SOL    HW122898   4.635   3.986   0.549  0.8524  2.3091  0.5279
 3813SOL    HW222899   4.545   3.994   0.672  0.8028 -0.5074  1.6534
 3814SOL     OW22900   1.773   4.472   9.129  0.0095  0.1995 -0.1693
 3814SOL    HW122901   1.818   4.471   9.213  1.0852  1.5596 -0.7185
 3814SOL    HW222902   1.821   4.546   9.092 -2.2419  0.8452 -1.8303
 3815SOL     OW22903   3.272   2.184   5.113 -0.1176  0.5873 -0.6943
 3815SOL    HW122904   3.244   2.246   5.181 -2.0333 -1.3050  0.2437
 3815SOL    HW222905   3.260   2.234   5.033 -2.6381 -1.0185 -1.3082
 3816SOL     OW22906   3.708   4.497   1.808  0.1143 -0.3039 -0.3214
 3816SOL    HW122907   3.749   4.485   1.894  2.2842 -1.4665 -1.5084
 3816SOL    HW222908   3.681   4.589   1.818 -0.6098 -0.4355 -1.1324
 3817SOL     OW22909   1.182   4.330   3.652 -0.5571  0.8400  0.1232
 3817SOL    HW122910   1.149   4.311   3.739 -0.4845 -2.2534 -0.5172
 3817SOL    HW222911   1.266   4.286   3.668  0.1720  1.6165 -1.5313
 3818SOL     OW22912   0.599   4.431   6.828  0.9892  0.3624  0.3086
 3818SOL    HW122913   0.608   4.526   6.818 -2.8251  0.7264  0.5430
 3818SOL    HW222914   0.562   4.438   6.916  0.7737  3.4210 -0.0205
 3819SOL     OW22915   2.122   1.752   5.808  0.0715  0.1692  0.2733
 3819SOL    HW122916   2.124   1.813   5.881 -0.6454  1.0798 -0.4773
 3819SOL    HW222917   2.198   1.696   5.824  1.2613  1.4479 -0.8983
 3820SOL     OW22918   2.054   1.138   1.310 -0.2850 -0.5974 -0.6397
 3820SOL    HW122919   2.049   1.229   1.280  1.7093 -0.4617 -0.6200
 3820SOL    HW222920   1.964   1.117   1.333 -0.3571 -0.7864 -1.0972
 3821SOL     OW22921   1.754   3.067   2.272 -0.0986 -0.2031  0.2993
 3821SOL    HW122922   1.795   3.052   2.357  2.9927  2.0484 -0.7996
 3821SOL    HW222923   1.732   3.160   2.275 -1.1298 -0.4405  0.1505
 3822SOL     OW22924   1.439   2.807  14.635  0.3869 -0.0268  0.3975
 3822SOL    HW122925   1.459   2.715  14.622 -2.3084 -0.8416  1.8877
 3822SOL    HW222926   1.526   2.846  14.628  0.2757  0.2857  0.7264
 3823SOL     OW22927   1.373   1.497   0.631 -0.2553 -0.4839  0.3120
 3823SOL    HW122928   1.433   1.479   0.559  0.3765 -1.1897  1.0097
 3823SOL    HW222929   1.388   1.591   0.637 -2.2092 -0.1268 -0.4632
 3824SOL     OW22930   1.323   0.226  10.265  0.2979  0.0154 -0.1556
 3824SOL    HW122931   1.227   0.215  10.263  0.3162 -0.0840 -0.6763
 3824SOL    HW222932   1.345   0.274  10.185  0.2642  2.7432  1.5166
 3825SOL     OW22933   1.382   2.793   8.676  0.1801 -0.1547 -0.0199
 3825SOL    HW122934   1.365   2.699   8.681 -0.7518  0.2497  3.9138
 3825SOL    HW222935   1.348   2.812   8.589 -0.8974 -0.1505  0.4059
 3826SOL     OW22936   2.934   0.934   7.715 -0.1041  0.3396  0.1260
 3826SOL    HW122937   2.846   0.920   7.750 -0.2662  1.5478  0.2086
 3826SOL    HW222938   2.961   0.844   7.697  2.7360  1.0762  0.6467
 3827SOL     OW22939   3.102   1.832   5.757  0.3288  0.4025  0.1614
 3827SOL    HW122940   3.178   1.775   5.744  0.6449  0.3125  2.4668
 3827SOL    HW222941   3.119   1.887   5.681  0.8700  1.6487  1.1963
 3828SOL     OW22942   3.534   1.849   6.594  0.2640  0.0904 -0.2050
 3828SOL    HW122943   3.442   1.837   6.617 -0.0638 -0.7498 -1.9661
 3828SOL    HW222944   3.558   1.768   6.638 -0.0545  0.3226  0.3914
 3829SOL     OW22945   2.421   1.089   1.841  0.0301  0.1164  0.1092
 3829SOL    HW122946   2.413   1.045   1.756  1.3360  2.0211 -0.9820
 3829SOL    HW222947   2.507   1.063   1.873  0.8914 -0.2249 -2.4820
 3830SOL     OW22948   3.054   2.107   7.724 -0.3437 -0.0243 -0.3347
 3830SOL    HW122949   3.062   2.179   7.662 -0.6060  1.9206  1.9132
 3830SOL    HW222950   3.024   2.155   7.801 -0.5851 -0.7862  0.0526
 3831SOL     OW22951   4.439   3.258  16.328 -0.0860 -0.0395 -0.8561
 3831SOL    HW122952   4.415   3.292  16.241 -0.4056 -1.3804 -1.3088
 3831SOL    HW222953   4.353   3.256  16.369  0.0818 -1.0823 -0.5500
 3832SOL     OW22954   1.535   4.053   8.056 -0.3011  0.1830  0.0394
 3832SOL    HW122955   1.473   4.116   8.019 -0.4894  0.6885  1.1967
 3832SOL    HW222956   1.516   3.974   8.006 -1.4077  1.4699 -1.5766
 3833SOL     OW22957   3.452   1.072   8.975  0.1784 -0.2164 -0.5220
 3833SOL    HW122958   3.462   1.091   9.068 -0.6024  0.3773 -0.5535
 3833SOL    HW222959   3.411   0.985   8.976  0.9382 -0.6160 -3.4950
 3834SOL     OW22960   1.433   2.155   7.540 -0.1576  0.4769  0.1635
 3834SOL    HW122961   1.451   2.069   7.579 -1.2415  0.0281 -0.3222
 3834SOL    HW222962   1.516   2.201   7.550  0.6868 -0.4808 -2.4069
 3835SOL     OW22963   2.968   4.614   5.061 -1.0103 -0.7072 -0.2843
 3835SOL    HW122964   2.967   4.545   5.128  1.4671  0.6630  1.1582
 3835SOL    HW222965   3.061   4.623   5.042 -0.9636 -0.5792  0.0131
 3836SOL     OW22966   2.797   1.942   5.137  0.0975  0.0852  0.3308
 3836SOL    HW122967   2.880   1.959   5.181  0.0332  2.3763 -0.4228
 3836SOL    HW222968   2.816   1.872   5.075 -1.0735 -1.4070  1.6597
 3837SOL     OW22969   3.385   0.531   4.220  0.0309  0.2435  0.1718
 3837SOL    HW122970   3.384   0.574   4.306  2.2448  0.7805 -0.0679
 3837SOL    HW222971   3.330   0.454   4.235 -0.0164  0.3147  0.3712
 3838SOL     OW22972   1.691   0.325   6.313  0.3419  0.4407 -0.2998
 3838SOL    HW122973   1.616   0.354   6.365  0.2429  0.2143 -0.3148
 3838SOL    HW222974   1.700   0.395   6.249 -0.8561 -0.9087 -1.9333
 3839SOL     OW22975   2.190   2.304   4.892  0.1833 -0.2075 -0.9065
 3839SOL    HW122976   2.150   2.253   4.961  1.7245  1.0543  0.9383
 3839SOL    HW222977   2.279   2.320   4.925 -0.6647 -0.5074  1.4857
 3840SOL     OW22978   2.270   2.347   9.150 -0.1690 -0.0149 -0.1141
 3840SOL    HW122979   2.290   2.426   9.200  0.0977 -1.0670  1.4423
 3840SOL    HW222980   2.334   2.285   9.184 -0.9205  0.6044  2.4047
 3841SOL     OW22981   3.449   3.421   3.910 -1.0773 -0.2330 -0.2504
 3841SOL    HW122982   3.477   3.412   3.818  1.0532 -1.3241  0.4988
 3841SOL    HW222983   3.404   3.339   3.927 -1.0730 -0.0395  0.6513
 3842SOL     OW22984   1.932   2.261  14.106 -0.7221  0.3799 -0.1023
 3842SOL    HW122985   2.026   2.254  14.119 -0.7829 -2.5477 -1.2996
 3842SOL    HW222986   1.926   2.218  14.021  0.1965 -1.2892  0.6906
 3843SOL     OW22987   1.665   1.082   1.145  0.1916  0.4088 -0.7775
 3843SOL    HW122988   1.732   1.064   1.078  0.5115 -1.1018 -0.0512
 3843SOL    HW222989   1.587   1.081   1.089 -0.2098 -2.2575 -0.1762
 3844SOL     OW22990   2.957   1.264  15.994  0.0254 -0.0357  0.1687
 3844SOL    HW122991   3.023   1.273  16.062 -0.5407  0.8256  0.5997
 3844SOL    HW222992   2.906   1.191  16.030 -0.1282  0.6318  1.2992
 3845SOL     OW22993   4.608   1.506  10.787  0.0137 -0.0713  0.0816
 3845SOL    HW122994   4.647   1.419  10.798  0.7360  0.0642 -1.4250
 3845SOL    HW222995   4.682   1.560  10.760 -0.2800 -0.7087 -1.9842
 3846SOL     OW22996   2.848   1.334   0.701  0.1925 -0.0044 -0.0119
 3846SOL    HW122997   2.795   1.258   0.678  0.0511 -0.4822  1.8520
 3846SOL    HW222998   2.791   1.404   0.734 -0.0521 -0.5717  0.7785
 3847SOL     OW22999   0.749   3.233   7.251 -0.3777 -0.1999 -0.8976
 3847SOL    HW123000   0.681   3.301   7.253  0.1611  0.3386 -0.6969
 3847SOL    HW223001   0.825   3.274   7.292 -0.0329 -1.5624 -0.1822
 3848SOL     OW23002   1.054   0.893   1.445 -0.4123  0.0430  0.7113
 3848SOL    HW123003   1.065   0.972   1.391 -1.3920  0.1182  0.6192
 3848SOL    HW223004   1.061   0.825   1.379  3.4463 -1.4428  2.6459
 3849SOL     OW23005   2.658   2.750   4.848  0.1641  0.0123 -0.2836
 3849SOL    HW123006   2.722   2.776   4.783  1.1282 -1.4701  0.0697
 3849SOL    HW223007   2.658   2.822   4.911  2.1503 -0.4833  0.2759
 3850SOL     OW23008   4.122   4.089  11.510  0.2564  0.3833  0.0886
 3850SOL    HW123009   4.214   4.081  11.536 -0.5484 -0.8238  2.5650
 3850SOL    HW223010   4.134   4.077  11.416  1.8011 -0.3346  0.3763
 3851SOL     OW23011   2.712   4.253  11.587  0.1279 -0.1675  0.5086
 3851SOL    HW123012   2.692   4.323  11.649 -0.0723 -1.3850  1.8184
 3851SOL    HW223013   2.628   4.214  11.567 -0.1095  0.2980  0.5892
 3852SOL     OW23014   4.049   2.631   2.738  0.0984  0.2447  0.4580
 3852SOL    HW123015   4.060   2.570   2.811  5.4675 -0.1269 -0.6562
 3852SOL    HW223016   4.014   2.570   2.673  4.2050  0.0042 -1.5352
 3853SOL     OW23017   4.647   1.134  17.680  0.4918 -0.0157 -0.3120
 3853SOL    HW123018   4.670   1.198   0.054  2.9387 -0.4438 -0.7426
 3853SOL    HW223019   4.600   1.190  17.619 -0.3392  0.2943  0.6060
 3854SOL     OW23020   2.694   4.256  15.950  0.2052  0.7549  0.1075
 3854SOL    HW123021   2.607   4.289  15.930 -0.4647 -1.0497  0.0851
 3854SOL    HW223022   2.693   4.244  16.045 -0.1030  1.5504  0.2031
 3855SOL     OW23023   3.781   4.046   6.281  0.0521 -0.1476  0.7784
 3855SOL    HW123024   3.826   4.130   6.286 -2.2337  1.0605  0.8392
 3855SOL    HW223025   3.847   3.992   6.237  0.3511 -0.6320  1.8130
 3856SOL     OW23026   2.857   3.877   8.348 -0.1241 -0.2739  0.1781
 3856SOL    HW123027   2.807   3.819   8.407  2.3135 -1.9544  0.6152
 3856SOL    HW223028   2.947   3.850   8.365  0.3172  0.4145 -1.1405
 3857SOL     OW23029   4.069   3.597   1.350 -0.5256 -0.1109  0.3991
 3857SOL    HW123030   4.062   3.644   1.267  1.1184  0.8489  0.8034
 3857SOL    HW223031   4.019   3.659   1.403  0.4046  1.3073 -0.4071
 3858SOL     OW23032   0.882   1.278   1.463 -0.1092 -0.5524 -0.2954
 3858SOL    HW123033   0.861   1.369   1.441  3.5946  0.6094  0.8919
 3858SOL    HW223034   0.940   1.268   1.388  0.7474  2.5487 -0.0544
 3859SOL     OW23035   2.616   4.515   1.976 -0.3116  0.3013  0.2040
 3859SOL    HW123036   2.646   4.605   1.988 -0.0461 -0.1179  2.6917
 3859SOL    HW223037   2.663   4.480   1.901  3.0430 -0.5656  2.7095
 3860SOL     OW23038   2.443   3.077   7.714  0.1107 -0.1706 -0.0141
 3860SOL    HW123039   2.443   2.988   7.749 -1.0513 -0.4315 -0.6632
 3860SOL    HW223040   2.374   3.098   7.778  2.5304  1.4319  2.0482
 3861SOL     OW23041   0.882   0.422   1.114 -0.7482 -0.7363 -0.2973
 3861SOL    HW123042   0.885   0.516   1.130  0.5777 -0.9661  0.7689
 3861SOL    HW223043   0.794   0.432   1.077 -0.7934 -3.4737 -0.9352
 3862SOL     OW23044   2.048   2.239   8.754 -0.1426 -0.2177  0.2842
 3862SOL    HW123045   2.026   2.318   8.706  1.1897 -0.8960 -1.4462
 3862SOL    HW223046   2.043   2.272   8.844 -0.1523 -1.1055  0.6117
 3863SOL     OW23047   4.260   1.538  16.289 -0.3326 -0.5702  0.3182
 3863SOL    HW123048   4.259   1.560  16.383 -1.3371  1.6856 -0.2132
 3863SOL    HW223049   4.197   1.599  16.251  1.4243  0.3342 -1.1467
 3864SOL     OW23050   0.113   1.717   3.536 -0.2284 -0.4273 -0.1697
 3864SOL    HW123051   0.086   1.793   3.485  0.4196  0.2971  0.5794
 3864SOL    HW223052   0.103   1.766   3.617  0.0681 -0.9725  0.2023
 3865SOL     OW23053   3.002   4.483   9.298  0.0109  0.0208  0.3602
 3865SOL    HW123054   3.063   4.486   9.224 -1.5349 -0.1181 -0.9108
 3865SOL    HW223055   2.998   4.388   9.301  0.7547 -0.1574 -4.3857
 3866SOL     OW23056   2.694   2.986  12.766 -0.0887  0.2588  0.4147
 3866SOL    HW123057   2.721   2.930  12.838 -1.4655 -0.3128  0.4973
 3866SOL    HW223058   2.633   3.044  12.812 -1.6808 -2.2008  1.3996
 3867SOL     OW23059   2.561   2.638   3.379 -0.1577  0.4601  0.0775
 3867SOL    HW123060   2.579   2.725   3.343  0.5032 -0.0100 -0.7170
 3867SOL    HW223061   2.468   2.640   3.403  0.1305  1.3486  1.1365
 3868SOL     OW23062   1.289   1.804   6.103  0.0443 -0.2699 -0.0508
 3868SOL    HW123063   1.291   1.890   6.063  0.0908 -1.1012 -1.8325
 3868SOL    HW223064   1.363   1.761   6.061  0.5274 -0.0757  0.6018
 3869SOL     OW23065   1.930   1.923  10.183 -0.0124  0.3202  0.1794
 3869SOL    HW123066   1.937   1.935  10.277  1.1298  1.3331 -0.0296
 3869SOL    HW223067   1.845   1.967  10.169  0.6940  1.4257 -0.7125
 3870SOL     OW23068   0.544   3.009   6.844 -0.0801 -0.3925  0.4893
 3870SOL    HW123069   0.503   2.933   6.803 -1.5774  0.9501 -0.4738
 3870SOL    HW223070   0.483   3.029   6.915 -0.1532 -1.5177  0.7397
 3871SOL     OW23071   4.700   3.409  10.227 -0.4715  0.2418 -0.1845
 3871SOL    HW123072   0.032   3.377  10.156 -0.7771  0.0045 -0.3172
 3871SOL    HW223073   0.034   3.463  10.282  0.5349 -0.5930 -0.4133
 3872SOL     OW23074   1.134   2.930   4.339 -0.0425  0.1672 -1.0345
 3872SOL    HW123075   1.147   3.022   4.315  0.1951  1.1396  2.8600
 3872SOL    HW223076   1.174   2.925   4.426  1.5252 -1.7577 -1.8647
 3873SOL     OW23077   3.038   4.605   4.406 -0.2731  0.0784  0.1156
 3873SOL    HW123078   3.040   4.585   4.313 -2.0991 -0.1179  0.1187
 3873SOL    HW223079   3.060   4.521   4.445  2.1828  1.0343  0.8007
 3874SOL     OW23080   4.475   1.929  13.186 -0.5788 -0.3660  0.6014
 3874SOL    HW123081   4.468   2.020  13.215 -3.4130  0.5491 -3.0270
 3874SOL    HW223082   4.557   1.903  13.229 -0.4452  1.2947  1.3615
 3875SOL     OW23083   1.266   3.690  13.995  0.1799  0.2748 -0.5945
 3875SOL    HW123084   1.335   3.640  14.039  1.2967  1.8056 -0.5888
 3875SOL    HW223085   1.319   3.769  13.994  0.0986  0.3288 -0.5987
 3876SOL     OW23086   0.350   0.921   8.899  0.0534 -0.6890  0.4266
 3876SOL    HW123087   0.309   0.949   8.818 -0.5470 -3.2325 -0.1647
 3876SOL    HW223088   0.442   0.926   8.873 -0.6751 -1.1541 -2.2295
 3877SOL     OW23089   1.571   0.491  15.946 -0.0534  0.0802  0.3382
 3877SOL    HW123090   1.655   0.447  15.956  0.5219  0.9163 -0.8062
 3877SOL    HW223091   1.572   0.559  16.013 -1.2247 -0.8702  1.3201
 3878SOL     OW23092   2.824   2.639   5.365  0.0248 -0.0757 -0.0954
 3878SOL    HW123093   2.740   2.628   5.411 -0.2271  0.4002 -0.4478
 3878SOL    HW223094   2.881   2.632   5.441 -1.6753  1.1471  1.3072
 3879SOL     OW23095   0.826   3.000  12.224 -0.2495  0.9753 -0.0782
 3879SOL    HW123096   0.811   3.093  12.208 -3.5211  0.3810 -0.5817
 3879SOL    HW223097   0.882   3.001  12.301 -0.3433 -1.7579  0.0309
 3880SOL     OW23098   4.568   3.165   5.842  0.0878 -0.0427 -0.2054
 3880SOL    HW123099   4.546   3.085   5.794 -0.5302  1.4376 -2.4013
 3880SOL    HW223100   4.479   3.193   5.863  0.1964 -0.3439  0.6246
 3881SOL     OW23101   3.471   3.671   1.588  0.0711  0.0858  1.0132
 3881SOL    HW123102   3.460   3.577   1.577  0.7722  0.0724  0.3937
 3881SOL    HW223103   3.506   3.689   1.501 -0.7964 -0.9690  0.4521
 3882SOL     OW23104   1.851   3.400  17.450  0.3533 -0.0387 -0.6449
 3882SOL    HW123105   1.832   3.477  17.396 -0.8619  0.5031  0.5603
 3882SOL    HW223106   1.921   3.429  17.508  1.0925 -2.0432 -0.5323
 3883SOL     OW23107   2.334   3.987  17.264  0.0806 -0.2070  0.0646
 3883SOL    HW123108   2.374   3.913  17.309 -0.8829 -1.5413 -1.2434
 3883SOL    HW223109   2.291   4.018  17.343  0.1686  1.9556 -0.7376
 3884SOL     OW23110   3.482   0.201  15.883 -0.1757  0.2014  0.4335
 3884SOL    HW123111   3.447   0.290  15.880 -0.5032  0.0460 -0.5629
 3884SOL    HW223112   3.551   0.207  15.817  0.1031 -0.1685  0.6919
 3885SOL     OW23113   3.706   2.413  15.676 -0.2578  0.2597  0.0156
 3885SOL    HW123114   3.646   2.488  15.677  1.1804  1.4379  0.1797
 3885SOL    HW223115   3.756   2.423  15.595 -1.8602  0.4984 -0.9348
 3886SOL     OW23116   1.086   0.684   2.991  0.4744  0.2171  0.9408
 3886SOL    HW123117   1.078   0.779   2.983 -1.4491 -0.0585 -0.4570
 3886SOL    HW223118   1.169   0.681   3.038  0.6308 -1.4003  0.5556
 3887SOL     OW23119   2.050   1.640   4.908  0.1247 -0.0331 -0.3572
 3887SOL    HW123120   1.971   1.680   4.943  0.3591  0.4431 -0.3735
 3887SOL    HW223121   2.114   1.708   4.928 -0.4217  0.3740 -0.0074
 3888SOL     OW23122   4.467   0.043  16.638  0.0427  0.3521 -0.9773
 3888SOL    HW123123   4.384   0.066  16.681  1.0558 -0.8260  1.6070
 3888SOL    HW223124   4.453   0.093  16.557  1.1580  0.8805 -0.8410
 3889SOL     OW23125   1.283   1.682   7.237  0.1422  0.1116  0.4568
 3889SOL    HW123126   1.195   1.646   7.251 -0.5263  2.0810  1.2405
 3889SOL    HW223127   1.248   1.759   7.193 -1.0489 -0.8892 -0.3762
 3890SOL     OW23128   4.258   0.802  16.312  0.0189 -0.0644  0.1184
 3890SOL    HW123129   4.178   0.751  16.296  1.4854 -2.0336 -0.9813
 3890SOL    HW223130   4.270   0.795  16.407  0.5167  4.8328  0.4100
 3891SOL     OW23131   0.951   4.668   2.703  0.1195  0.2852 -0.0896
 3891SOL    HW123132   0.983   4.604   2.768 -0.8334 -0.0127  0.0784
 3891SOL    HW223133   0.907   0.009   2.759  0.9149  0.2283  0.6074
 3892SOL     OW23134   3.348   0.952  17.275  0.8515  0.2057  0.3554
 3892SOL    HW123135   3.293   0.921  17.347 -1.1190  2.8225 -0.0417
 3892SOL    HW223136   3.423   0.892  17.274  0.3206 -0.4566  0.2983
 3893SOL     OW23137   3.644   4.382   1.107 -0.3063 -0.4387 -0.5105
 3893SOL    HW123138   3.684   4.296   1.122 -0.0283  0.1628  2.2859
 3893SOL    HW223139   3.718   4.433   1.140 -0.8633  0.6639 -0.9737
 3894SOL     OW23140   4.438   1.833  10.021  0.4747  0.4575 -0.3146
 3894SOL    HW123141   4.510   1.897  10.015  1.5739 -0.7981 -0.3666
 3894SOL    HW223142   4.365   1.894  10.033 -0.4965 -1.2945  2.3606
 3895SOL     OW23143   2.894   2.172   3.651  0.3985  0.0125 -0.1960
 3895SOL    HW123144   2.856   2.096   3.607  1.9358 -1.0897  0.3662
 3895SOL    HW223145   2.977   2.132   3.676 -1.6793 -2.7203  2.3973
 3896SOL     OW23146   3.436   0.666   8.055  0.4400  0.5486  0.5216
 3896SOL    HW123147   3.529   0.646   8.056  0.2334 -0.3690  1.6931
 3896SOL    HW223148   3.426   0.761   8.048 -1.7557  0.4058  1.6414
 3897SOL     OW23149   2.461   4.100  11.528  0.0193 -0.3648 -0.5753
 3897SOL    HW123150   2.422   4.038  11.466  3.1171 -3.2982  0.3800
 3897SOL    HW223151   2.427   4.062  11.609 -0.7811  2.6568  0.4882
 3898SOL     OW23152   3.330   4.589   5.188 -0.6094  0.0540 -0.2640
 3898SOL    HW123153   3.393   4.604   5.117 -0.0456  0.7410  0.3778
 3898SOL    HW223154   3.293   4.506   5.160 -0.5757 -0.8601  2.3790
 3899SOL     OW23155   3.826   0.564   7.776  0.1926 -0.4862  0.3715
 3899SOL    HW123156   3.851   0.521   7.857  2.5299 -1.4332 -0.8489
 3899SOL    HW223157   3.901   0.617   7.753 -0.1578 -0.8338 -1.5745
 3900SOL     OW23158   0.259   2.572  10.132 -0.3471 -0.2359 -0.0876
 3900SOL    HW123159   0.292   2.626  10.060 -2.2391 -2.6446 -2.7464
 3900SOL    HW223160   0.317   2.608  10.199  0.9852 -0.9827 -0.8364
 3901SOL     OW23161   4.313   0.427   3.529  0.2472  0.3830 -0.2319
 3901SOL    HW123162   4.376   0.391   3.467  2.4505  2.2009  0.9093
 3901SOL    HW223163   4.339   0.519   3.531  1.3577  0.0828 -0.7488
 3902SOL     OW23164   2.373   1.072  15.348 -0.1438 -0.0504  0.6928
 3902SOL    HW123165   2.449   1.123  15.376  0.5412 -0.2804 -0.7398
 3902SOL    HW223166   2.424   0.991  15.353 -0.0923  0.1552  3.1847
 3903SOL     OW23167   4.528   1.018   7.769 -0.1486 -0.0269 -0.1664
 3903SOL    HW123168   4.480   0.957   7.825 -0.9129  1.1603  0.4686
 3903SOL    HW223169   4.589   1.053   7.834  0.3579 -1.2740  0.0289
 3904SOL     OW23170   1.417   3.981   4.651 -0.0980  0.4457 -0.2508
 3904SOL    HW123171   1.495   4.034   4.669 -0.1218  1.0925 -2.0495
 3904SOL    HW223172   1.450   3.924   4.583 -0.7373 -0.5899  0.3120
 3905SOL     OW23173   1.250   3.859   3.158  0.3027  0.0768  0.2823
 3905SOL    HW123174   1.195   3.875   3.082  0.3872 -0.3954  0.1242
 3905SOL    HW223175   1.254   3.765   3.143 -1.1024  0.2180 -0.9854
 3906SOL     OW23176   1.309   2.838   8.421 -0.6095 -0.0697  0.2837
 3906SOL    HW123177   1.239   2.796   8.372 -1.1103  0.6704  0.3763
 3906SOL    HW223178   1.256   2.906   8.461  1.3158  1.0683  0.8813
 3907SOL     OW23179   0.573   4.419   2.545  0.0828  0.0445 -0.2943
 3907SOL    HW123180   0.506   4.357   2.574 -0.6468 -0.3640 -2.9032
 3907SOL    HW223181   0.529   4.496   2.581 -0.1322 -0.2688  0.1167
 3908SOL     OW23182   4.695   1.800   5.822 -0.3446  0.0072 -0.4270
 3908SOL    HW123183   0.060   1.826   5.845  0.4522 -2.4326 -0.6873
 3908SOL    HW223184   4.640   1.878   5.816  0.1764  0.4460  0.6825
 3909SOL     OW23185   2.432   1.984   2.988 -0.0424  0.3191  0.1395
 3909SOL    HW123186   2.516   1.942   2.969  0.6036  2.9704 -2.7920
 3909SOL    HW223187   2.472   2.051   3.043  2.1109  0.0144 -1.0246
 3910SOL     OW23188   2.110   0.250  14.177 -0.3364  0.2047  0.0305
 3910SOL    HW123189   2.125   0.228  14.085 -0.3035 -2.2271  0.6129
 3910SOL    HW223190   2.189   0.215  14.218  1.7773  4.3962 -0.4945
 3911SOL     OW23191   1.003   1.604  14.227  0.2145  0.4522 -0.5323
 3911SOL    HW123192   0.928   1.575  14.279  0.4344  1.1443  0.1739
 3911SOL    HW223193   1.083   1.582  14.275  0.9389 -0.2084 -2.0358
 3912SOL     OW23194   0.529   0.830   4.991 -0.5631 -0.4335 -0.0451
 3912SOL    HW123195   0.607   0.802   5.038  0.5375  0.2758 -1.4409
 3912SOL    HW223196   0.527   0.760   4.925 -0.4812  0.2578 -0.7845
 3913SOL     OW23197   1.782   1.032   7.695 -0.5113 -0.2366 -0.1411
 3913SOL    HW123198   1.729   0.955   7.717 -1.6713  0.8126  0.7435
 3913SOL    HW223199   1.819   1.051   7.782 -0.1359 -0.4448 -0.2527
 3914SOL     OW23200   1.469   2.373   4.990  0.1129 -0.2539 -0.4905
 3914SOL    HW123201   1.382   2.347   4.961  0.7622 -0.4344 -2.2592
 3914SOL    HW223202   1.527   2.324   4.932  0.5540 -0.3466  0.0229
 3915SOL     OW23203   0.836   2.294   5.424 -0.4792  0.2317 -0.1532
 3915SOL    HW123204   0.833   2.201   5.398  0.9883 -0.6420  2.8663
 3915SOL    HW223205   0.758   2.325   5.378 -0.1034  1.4462  0.0520
 3916SOL     OW23206   0.697   2.263   1.334  0.1537  0.4658 -0.3165
 3916SOL    HW123207   0.755   2.285   1.407  0.8555 -0.3437 -0.6268
 3916SOL    HW223208   0.765   2.263   1.267 -0.1528 -0.1126 -0.6236
 3917SOL     OW23209   4.050   1.437   3.709  0.1872 -0.0036  0.0509
 3917SOL    HW123210   3.965   1.474   3.687  1.5930  2.4883 -1.1223
 3917SOL    HW223211   4.096   1.434   3.625 -0.7092  0.9174 -0.4740
 3918SOL     OW23212   0.315   1.416   9.204 -0.2312  0.1393  0.1425
 3918SOL    HW123213   0.343   1.380   9.120 -1.0486 -1.8645  0.7215
 3918SOL    HW223214   0.249   1.354   9.236  3.0035 -2.5284  1.6087
 3919SOL     OW23215   4.346   4.115   5.550  0.2316 -0.3369 -0.5561
 3919SOL    HW123216   4.251   4.109   5.536 -0.1431  1.7348  0.9889
 3919SOL    HW223217   4.365   4.031   5.590 -1.3448  0.6727  2.3214
 3920SOL     OW23218   1.926   2.195   4.524  0.6377  0.2472  0.5046
 3920SOL    HW123219   1.999   2.189   4.586  0.9385 -1.0742  0.0237
 3920SOL    HW223220   1.859   2.178   4.590  0.9022 -0.3298  0.6288
 3921SOL     OW23221   3.983   3.198   5.918 -0.1536  0.5188 -0.0612
 3921SOL    HW123222   3.893   3.230   5.927 -0.5035 -0.4977 -0.0445
 3921SOL    HW223223   4.027   3.283   5.909  0.6736  0.1302  0.3532
 3922SOL     OW23224   2.716   2.591  17.103 -0.4873 -0.1259  0.4202
 3922SOL    HW123225   2.693   2.552  17.019 -0.1150 -0.3442  0.4164
 3922SOL    HW223226   2.670   2.532  17.163 -1.1773  0.8650  0.8583
 3923SOL     OW23227   4.432   1.285   0.311 -0.1485  0.3551  0.5302
 3923SOL    HW123228   4.497   1.341   0.269 -0.2274  0.3754  0.4371
 3923SOL    HW223229   4.490   1.214   0.339  1.5890  1.7832  0.5838
 3924SOL     OW23230   1.648   1.092  12.216 -0.0330  0.7207  0.2308
 3924SOL    HW123231   1.733   1.113  12.254  0.8195 -1.5411 -0.4889
 3924SOL    HW223232   1.612   1.179  12.195 -1.2888  0.5503  1.6729
 3925SOL     OW23233   1.081   3.623   6.543  0.3022  0.4353 -0.0231
 3925SOL    HW123234   1.108   3.631   6.635 -2.0186 -3.5810  0.9955
 3925SOL    HW223235   1.150   3.569   6.504 -0.6238 -1.1675  0.5747
 3926SOL     OW23236   2.549   1.863  17.377 -0.5398  0.2569 -0.2715
 3926SOL    HW123237   2.570   1.924  17.447 -0.1877  0.3572 -0.4630
 3926SOL    HW223238   2.613   1.792  17.371 -2.3467 -1.1007 -3.8303
 3927SOL     OW23239   3.268   0.330   1.949 -0.3310 -0.7157 -0.2907
 3927SOL    HW123240   3.339   0.276   1.916  0.3031 -0.2342  0.2677
 3927SOL    HW223241   3.277   0.398   1.882 -0.5348  0.9950  1.4172
 3928SOL     OW23242   0.792   1.112   9.007 -0.0002 -0.2556  0.3773
 3928SOL    HW123243   0.811   1.132   9.098 -1.0059  1.5431  0.2050
 3928SOL    HW223244   0.879   1.075   8.997 -0.0394 -0.3055  0.2115
 3929SOL     OW23245   3.801   2.475   2.590  0.0875 -0.3116  0.1333
 3929SOL    HW123246   3.717   2.508   2.623  0.1970  0.3258 -0.2178
 3929SOL    HW223247   3.771   2.481   2.499  2.0272 -1.6753 -0.5887
 3930SOL     OW23248   4.705   2.617   7.271  0.5303  0.2860 -0.3072
 3930SOL    HW123249   4.699   2.563   7.350 -1.1859 -1.7153 -1.7975
 3930SOL    HW223250   4.614   2.644   7.260  1.0798  1.3736 -2.1319
 3931SOL     OW23251   2.828   4.253  12.823 -0.2163 -0.1963 -0.3002
 3931SOL    HW123252   2.794   4.332  12.866  0.9668 -0.0866  0.4424
 3931SOL    HW223253   2.877   4.213  12.896 -1.7433  0.8843  1.3096
 3932SOL     OW23254   2.016   3.027  15.210  0.9327 -0.0669 -0.2059
 3932SOL    HW123255   2.000   3.121  15.208  2.2902  0.0980 -3.0034
 3932SOL    HW223256   2.112   3.021  15.207  1.0171  0.8166  0.7061
 3933SOL     OW23257   4.395   3.643   5.504  0.3229 -0.2683 -0.0301
 3933SOL    HW123258   4.459   3.592   5.552  0.3353 -0.0131  0.2270
 3933SOL    HW223259   4.424   3.629   5.414  0.1092 -0.9112  0.0034
 3934SOL     OW23260   1.202   4.365   8.508 -0.1516  0.1459 -0.1123
 3934SOL    HW123261   1.241   4.298   8.453  1.2643  2.4908 -1.9573
 3934SOL    HW223262   1.265   4.364   8.580 -3.0184 -3.4635  2.3787
 3935SOL     OW23263   0.326   2.079   6.882 -0.0423  0.1104  0.0457
 3935SOL    HW123264   0.257   2.030   6.926  0.7930 -1.8532 -0.8469
 3935SOL    HW223265   0.371   2.016   6.826  0.8402 -0.4785  1.4189
 3936SOL     OW23266   1.142   1.136   3.237 -0.1640 -0.2382 -0.3127
 3936SOL    HW123267   1.134   1.085   3.156 -0.6733 -0.8770  0.1411
 3936SOL    HW223268   1.050   1.157   3.252  0.3328  1.1174  0.7853
 3937SOL     OW23269   4.546   3.419   8.177 -0.1778  0.2426 -0.3524
 3937SOL    HW123270   4.518   3.339   8.133 -1.4207  0.9822 -0.9225
 3937SOL    HW223271   4.494   3.406   8.256  0.3371  0.8995  0.1010
 3938SOL     OW23272   0.454   1.318   6.947  0.4323  0.4926 -0.4885
 3938SOL    HW123273   0.386   1.255   6.972 -0.3255  1.7958  0.7436
 3938SOL    HW223274   0.412   1.396   6.912  0.6790  0.5387 -0.6807
 3939SOL     OW23275   4.228   0.187   0.647  0.2148  0.5395 -0.6789
 3939SOL    HW123276   4.175   0.239   0.707 -1.5115 -0.5108 -1.2803
 3939SOL    HW223277   4.209   0.233   0.565 -3.9577  1.1135  0.5916
 3940SOL     OW23278   4.217   2.679  10.491 -0.1824  0.0643  0.1193
 3940SOL    HW123279   4.193   2.644  10.405  0.8605  0.9638 -0.5448
 3940SOL    HW223280   4.153   2.747  10.512  1.4419  1.3801  0.8465
 3941SOL     OW23281   1.488   2.170   1.904  0.4279 -0.5913  0.5609
 3941SOL    HW123282   1.575   2.130   1.906  0.0241 -1.4475  1.2822
 3941SOL    HW223283   1.512   2.249   1.952  0.2409 -1.4651  2.1059
 3942SOL     OW23284   0.396   0.053   8.640  0.2369  0.6977  0.2558
 3942SOL    HW123285   0.414   4.720   8.716 -1.7417 -0.3649 -0.0704
 3942SOL    HW223286   0.489   0.058   8.616 -0.3779  0.3475 -2.2293
 3943SOL     OW23287   3.439   2.203   8.577  0.1006  0.0252 -0.1483
 3943SOL    HW123288   3.477   2.230   8.660  0.7484  1.0761 -0.7832
 3943SOL    HW223289   3.375   2.273   8.562  1.3924  1.5158  1.3729
 3944SOL     OW23290   2.210   3.492  16.238 -0.4285  0.6665 -0.0682
 3944SOL    HW123291   2.272   3.512  16.168  0.6401 -1.1109  0.3845
 3944SOL    HW223292   2.157   3.571  16.229  1.4464  1.8626 -0.4756
 3945SOL     OW23293   4.159   2.025   9.328 -0.3814  0.2539 -0.3278
 3945SOL    HW123294   4.245   1.995   9.357 -0.3969  2.3120  1.7965
 3945SOL    HW223295   4.128   1.948   9.280 -0.1809  1.1183 -1.8446
 3946SOL     OW23296   2.878   2.518  13.302 -0.3539 -0.4398 -0.2876
 3946SOL    HW123297   2.920   2.599  13.332 -1.4853  0.2109 -0.4680
 3946SOL    HW223298   2.882   2.457  13.375 -1.4734  1.1296  1.0641
 3947SOL     OW23299   0.967   3.269   4.385 -0.2619  0.2846  0.2384
 3947SOL    HW123300   0.907   3.338   4.411 -2.5064 -0.3452 -3.1446
 3947SOL    HW223301   0.952   3.200   4.450 -1.1751 -0.5540 -0.8553
 3948SOL     OW23302   2.520   1.395   0.906 -0.0892 -0.8861 -0.0372
 3948SOL    HW123303   2.448   1.442   0.864  0.3710 -0.6411 -0.5533
 3948SOL    HW223304   2.584   1.464   0.888 -2.2266  0.8335 -1.0321
 3949SOL     OW23305   2.757   3.837   3.902  0.5692 -0.1639  0.1997
 3949SOL    HW123306   2.739   3.757   3.951 -3.6700  2.1625  2.4760
 3949SOL    HW223307   2.774   3.904   3.968 -2.6830  0.4494  0.4499
 3950SOL     OW23308   0.204   2.948   1.878 -0.3160  0.1274 -0.6352
 3950SOL    HW123309   0.216   2.931   1.785 -1.1037 -1.9705 -0.3452
 3950SOL    HW223310   0.242   3.035   1.891 -0.7086  0.2504 -0.3100
 3951SOL     OW23311   3.822   4.126   4.234  0.0706  0.1116  0.1312
 3951SOL    HW123312   3.729   4.138   4.248 -0.1958 -0.5805 -1.0019
 3951SOL    HW223313   3.838   4.044   4.282  0.4745 -1.0991 -2.0659
 3952SOL     OW23314   0.372   0.179   9.503 -0.1863  0.4723 -0.0252
 3952SOL    HW123315   0.333   0.236   9.568  0.6291  1.7478 -0.6568
 3952SOL    HW223316   0.398   0.101   9.553 -0.5962  0.2688 -0.1287
 3953SOL     OW23317   3.016   3.517   1.870  0.2051  0.0061  0.2791
 3953SOL    HW123318   2.987   3.606   1.887  1.2744  0.4139 -0.0524
 3953SOL    HW223319   3.001   3.486   1.960 -1.1196  0.2766  0.1534
 3954SOL     OW23320   3.439   2.148  12.029  0.5387  0.0465 -0.6573
 3954SOL    HW123321   3.395   2.142  12.114 -2.2528  0.8556 -2.0510
 3954SOL    HW223322   3.362   2.138  11.973 -1.1535  1.0650  1.4813
 3955SOL     OW23323   4.595   4.366   6.860 -0.3038 -0.0894  0.2143
 3955SOL    HW123324   4.557   4.321   6.936 -1.6222 -2.4768 -1.8326
 3955SOL    HW223325   4.617   4.454   6.890  3.2682 -0.3501 -1.6644
 3956SOL     OW23326   2.874   0.672  15.617 -0.7330 -0.0750  0.0071
 3956SOL    HW123327   2.841   0.757  15.646  2.3333  1.4072 -0.7909
 3956SOL    HW223328   2.877   0.633  15.705  0.2115 -1.0853 -0.4649
 3957SOL     OW23329   0.021   4.564   1.930 -0.2161 -0.0534 -0.4539
 3957SOL    HW123330   0.103   4.608   1.953  0.4106 -1.3354 -0.1988
 3957SOL    HW223331   0.051   4.482   1.890  0.0243  0.4982 -1.4118
 3958SOL     OW23332   0.699   3.437   6.748  0.2946  0.3512 -0.1602
 3958SOL    HW123333   0.739   3.523   6.755 -1.2778  0.9395  1.4247
 3958SOL    HW223334   0.640   3.451   6.673  0.8274 -2.9427 -1.2056
 3959SOL     OW23335   0.135   2.517  13.289  0.9046  0.5657 -0.5704
 3959SOL    HW123336   0.123   2.585  13.223  0.6358  1.7189  0.6388
 3959SOL    HW223337   0.230   2.529  13.295  0.9115  0.7606 -1.1527
 3960SOL     OW23338   1.306   0.886   1.156 -0.1752  0.4958 -0.4429
 3960SOL    HW123339   1.238   0.860   1.094  1.3199 -0.0600 -1.8735
 3960SOL    HW223340   1.347   0.799   1.163  0.3941  0.8659  0.7527
 3961SOL     OW23341   1.888   2.141   9.080  0.0286  0.5677  0.0312
 3961SOL    HW123342   1.975   2.129   9.119 -0.1577  0.2538  0.3461
 3961SOL    HW223343   1.905   2.209   9.015  1.5309 -0.2844 -0.4632
 3962SOL     OW23344   4.270   2.121   9.785 -0.5821 -0.1131  0.3216
 3962SOL    HW123345   4.331   2.049   9.769 -0.1638  0.6441 -1.4183
 3962SOL    HW223346   4.193   2.096   9.733 -0.2673 -2.0225  0.7710
 3963SOL     OW23347   1.796   1.920   2.104 -0.1546  0.2352 -0.0183
 3963SOL    HW123348   1.853   1.940   2.178  0.9171 -1.2369 -0.4411
 3963SOL    HW223349   1.834   1.979   2.039  0.5973  0.4352  0.6091
 3964SOL     OW23350   3.404   0.277  11.419  0.3435 -0.5420  0.7706
 3964SOL    HW123351   3.361   0.283  11.333 -0.4151 -0.1011  1.1731
 3964SOL    HW223352   3.438   0.188  11.423  0.2346 -0.6173  0.0756
 3965SOL     OW23353   0.776   1.284   3.685  0.4886 -0.2034  0.0603
 3965SOL    HW123354   0.735   1.222   3.745  1.1610  0.3477  1.1054
 3965SOL    HW223355   0.779   1.357   3.748 -0.6498 -0.9053  0.9272
 3966SOL     OW23356   3.381   1.816   6.364 -0.0042  0.3410 -0.1123
 3966SOL    HW123357   3.454   1.828   6.425 -2.1684 -1.7813  2.8740
 3966SOL    HW223358   3.363   1.909   6.346  0.8185  0.7378  1.0625
 3967SOL     OW23359   0.499   4.380   9.208  0.7730  0.3139  0.5074
 3967SOL    HW123360   0.575   4.346   9.253  0.7592 -0.5338 -0.1055
 3967SOL    HW223361   0.517   4.473   9.199 -0.3338  0.1532 -3.5040
 3968SOL     OW23362   4.491   1.116   6.603 -0.6972 -0.0234  0.0627
 3968SOL    HW123363   4.471   1.060   6.528  1.1733 -0.7561  0.1312
 3968SOL    HW223364   4.575   1.083   6.635 -0.6791 -2.0998 -2.1521
 3969SOL     OW23365   2.599   0.491   4.733  0.0116  0.1150 -0.0794
 3969SOL    HW123366   2.671   0.433   4.707 -0.9042 -1.5276  1.0353
 3969SOL    HW223367   2.651   0.569   4.751  1.4485 -0.7377 -0.4555
 3970SOL     OW23368   3.710   0.618   7.338 -0.1400  0.2752  0.4078
 3970SOL    HW123369   3.803   0.614   7.361  0.1703 -1.5975 -1.1106
 3970SOL    HW223370   3.657   0.559   7.392  1.2572 -0.1728  1.2961
 3971SOL     OW23371   2.059   1.230  14.593 -0.2207 -0.1003 -0.3768
 3971SOL    HW123372   2.095   1.233  14.682  0.1006 -1.5463 -0.4505
 3971SOL    HW223373   2.056   1.323  14.570 -2.6966  0.2209  1.2763
 3972SOL     OW23374   4.586   2.051   7.560 -0.3178  0.5779 -0.5782
 3972SOL    HW123375   4.609   1.962   7.583 -2.1800  0.5743  1.3065
 3972SOL    HW223376   4.611   2.095   7.641  0.3165 -0.1986 -0.3589
 3973SOL     OW23377   2.232   1.184  11.821  0.1579 -0.0470 -0.4174
 3973SOL    HW123378   2.183   1.140  11.891  0.9569 -2.5509 -1.4152
 3973SOL    HW223379   2.226   1.279  11.828 -0.5314 -0.2529  1.8132
 3974SOL     OW23380   2.778   0.887  15.369 -0.0944 -0.6572  0.7088
 3974SOL    HW123381   2.843   0.929  15.426 -2.4402  0.4837  2.5875
 3974SOL    HW223382   2.809   0.911  15.282  1.5955 -1.5186  1.0844
 3975SOL     OW23383   3.423   0.081  11.209 -0.9771  0.1984 -0.5117
 3975SOL    HW123384   3.345   0.122  11.170  0.7243  1.7433 -2.2432
 3975SOL    HW223385   3.384   4.720  11.233  2.6661 -0.4337  2.9390
 3976SOL     OW23386   3.663   2.130   2.632  0.3981  0.1295 -0.5895
 3976SOL    HW123387   3.724   2.073   2.586  1.1100 -1.4007  2.2030
 3976SOL    HW223388   3.664   2.210   2.579 -0.8138  0.5007 -0.0569
 3977SOL     OW23389   2.396   0.897  13.921  0.5766 -0.0762 -0.0750
 3977SOL    HW123390   2.406   0.951  13.843 -2.5101  0.6164  0.0142
 3977SOL    HW223391   2.321   0.845  13.893 -0.6004  3.5303 -3.6305
 3978SOL     OW23392   0.453   4.252   8.288 -0.2971 -0.3966  0.5554
 3978SOL    HW123393   0.444   4.338   8.329 -0.8476 -0.1022 -0.1863
 3978SOL    HW223394   0.362   4.221   8.284  0.0008 -1.2922  0.7480
 3979SOL     OW23395   3.356   0.291   8.974  0.3321 -0.4834  0.1622
 3979SOL    HW123396   3.351   0.264   9.065 -1.3970 -0.4632  0.0832
 3979SOL    HW223397   3.308   0.374   8.971  1.1440 -0.0543 -1.2582
 3980SOL     OW23398   3.267   3.182   5.394 -0.0570  0.2521  0.3291
 3980SOL    HW123399   3.209   3.258   5.399 -3.1450 -2.0361 -0.0796
 3980SOL    HW223400   3.349   3.223   5.420  1.7242 -2.2474 -1.3378
 3981SOL     OW23401   3.875   1.372   0.316 -0.1891  0.0454 -0.1141
 3981SOL    HW123402   3.824   1.330   0.385  0.4712  0.1473  0.4299
 3981SOL    HW223403   3.936   1.299   0.304 -0.0007  0.3716 -1.1828
 3982SOL     OW23404   3.503   1.613   4.748  0.5859 -0.2527  0.2792
 3982SOL    HW123405   3.536   1.571   4.828 -0.3424 -0.3733  0.5964
 3982SOL    HW223406   3.536   1.702   4.751 -0.3929  0.1004  0.5969
 3983SOL     OW23407   4.560   3.500   8.990 -0.0873  0.4698  0.2833
 3983SOL    HW123408   4.470   3.486   9.020 -0.7781  0.8561 -1.5883
 3983SOL    HW223409   4.547   3.577   8.934 -2.5881 -0.8888 -1.0464
 3984SOL     OW23410   1.607   2.877   3.222  0.3096 -0.7480  0.0541
 3984SOL    HW123411   1.678   2.917   3.272 -0.7372  0.4962  0.5601
 3984SOL    HW223412   1.562   2.960   3.204  2.8117  0.8866  1.2503
 3985SOL     OW23413   0.585   0.169   3.394  0.2147  0.3207 -0.6106
 3985SOL    HW123414   0.653   0.190   3.330  1.4702 -1.5273  0.1545
 3985SOL    HW223415   0.547   0.257   3.402 -0.9706 -0.0370 -2.1908
 3986SOL     OW23416   0.054   2.836  12.391 -0.5047  0.5744  0.6776
 3986SOL    HW123417   0.044   2.927  12.416 -3.9927  0.9165 -2.0721
 3986SOL    HW223418   0.102   2.854  12.310 -0.4105 -0.1087  0.5773
 3987SOL     OW23419   2.933   4.604   2.035 -0.2111 -0.4642  0.6597
 3987SOL    HW123420   2.910   4.691   2.002  1.0906 -1.1554 -2.0356
 3987SOL    HW223421   2.862   4.601   2.099 -1.5503 -1.1306 -0.8363
 3988SOL     OW23422   1.110   0.891  10.399 -0.1132 -0.2036 -0.0761
 3988SOL    HW123423   1.109   0.985  10.380  1.0823 -0.6597 -2.2976
 3988SOL    HW223424   1.179   0.886  10.465 -0.1819 -2.2150 -0.1559
 3989SOL     OW23425   2.422   2.735  16.247 -0.5403  0.7575 -0.2917
 3989SOL    HW123426   2.433   2.669  16.180  1.3574  0.2398  0.5222
 3989SOL    HW223427   2.386   2.688  16.322  0.0193 -1.7265 -1.5873
 3990SOL     OW23428   2.216   2.968   5.549 -0.2381  0.2436 -0.0729
 3990SOL    HW123429   2.219   2.918   5.467 -0.7269 -0.3461  0.2788
 3990SOL    HW223430   2.122   2.954   5.562 -0.0010 -1.8207 -0.6615
 3991SOL     OW23431   1.128   4.139  10.491  0.2622  0.1444 -0.0526
 3991SOL    HW123432   1.041   4.174  10.476 -0.1900 -0.8472  0.2369
 3991SOL    HW223433   1.147   4.123  10.399  2.0496 -0.7778  0.4630
 3992SOL     OW23434   1.829   1.415   1.394 -0.1472  0.1482 -0.0204
 3992SOL    HW123435   1.845   1.350   1.462 -0.2624  1.2805  1.0944
 3992SOL    HW223436   1.885   1.379   1.325 -0.3444 -0.1650 -0.0162
 3993SOL     OW23437   0.230   1.168   5.676 -0.2331 -0.4562 -0.1935
 3993SOL    HW123438   0.198   1.161   5.766 -1.1064 -0.6558 -0.5190
 3993SOL    HW223439   0.294   1.097   5.670 -2.0606 -2.1675  0.4787
 3994SOL     OW23440   0.003   1.335   8.841  0.2833 -0.3204  0.3195
 3994SOL    HW123441   4.696   1.244   8.840 -0.0706 -0.1986  0.0812
 3994SOL    HW223442   4.714   1.357   8.749  0.7938  0.6508  0.4837
 3995SOL     OW23443   0.864   0.996  10.328 -0.1830  0.1160  0.5342
 3995SOL    HW123444   0.940   0.938  10.330  1.2463  2.0003  1.7524
 3995SOL    HW223445   0.886   1.051  10.253  1.5687 -0.9095  0.2926
 3996SOL     OW23446   2.055   2.727  15.059 -0.7531  0.3942 -0.2445
 3996SOL    HW123447   2.000   2.796  15.095  1.8396  1.7081  1.1690
 3996SOL    HW223448   2.136   2.748  15.105  0.3743  1.6433 -2.8321
 3997SOL     OW23449   3.205   2.349   8.550 -0.4999 -0.4534 -0.2631
 3997SOL    HW123450   3.194   2.427   8.495  1.9763  1.8204  2.4533
 3997SOL    HW223451   3.137   2.361   8.617 -0.6799 -1.8455 -0.1982
 3998SOL     OW23452   2.802   0.301   3.717 -0.8647  0.5529 -0.5228
 3998SOL    HW123453   2.741   0.336   3.783  1.2393  1.4617  0.9291
 3998SOL    HW223454   2.750   0.333   3.643 -0.7593  0.8797 -0.4543
 3999SOL     OW23455   3.537   1.509   5.003 -0.2902  0.3659  0.2235
 3999SOL    HW123456   3.583   1.541   5.081 -0.6758  0.9742  0.2003
 3999SOL    HW223457   3.464   1.462   5.043  0.0302 -0.9343 -0.7165
 4000SOL     OW23458   0.507   1.398   5.268 -0.0853  0.0077  0.9589
 4000SOL    HW123459   0.596   1.428   5.249 -0.3762  0.2719  0.0032
 4000SOL    HW223460   0.469   1.474   5.312 -1.1880 -1.1547  2.0058
 4001SOL     OW23461   2.099   3.844  12.112 -0.7742  0.3368 -0.0535
 4001SOL    HW123462   2.112   3.776  12.179 -5.0425  1.2960  1.7196
 4001SOL    HW223463   2.187   3.844  12.074 -1.0298  0.0898 -0.6323
 4002SOL     OW23464   2.523   4.019   8.408 -0.4541  0.1755 -0.0916
 4002SOL    HW123465   2.428   4.030   8.402 -0.4511 -0.7803 -1.9800
 4002SOL    HW223466   2.539   4.027   8.502 -0.1663 -0.1429 -0.1139
 4003SOL     OW23467   0.579   4.034   9.544 -0.5622 -0.0745 -0.5577
 4003SOL    HW123468   0.573   3.940   9.562  0.2419 -0.3596 -1.7762
 4003SOL    HW223469   0.668   4.036   9.507 -0.2495 -1.6563  0.1090
 4004SOL     OW23470   2.162   3.677   5.690 -0.2602 -0.4639  0.0636
 4004SOL    HW123471   2.228   3.620   5.731  0.9690  1.8182  1.2438
 4004SOL    HW223472   2.154   3.646   5.600  0.2233  2.5382 -0.9797
 4005SOL     OW23473   1.293   4.626   7.017  0.1542 -0.2412  0.2537
 4005SOL    HW123474   1.306   4.557   6.952 -1.1683  0.1971 -0.4697
 4005SOL    HW223475   1.197   4.627   7.022  0.2755  3.1109  1.9535
 4006SOL     OW23476   3.790   2.941   5.986 -0.1021  0.9426  0.1838
 4006SOL    HW123477   3.799   2.902   6.073  1.9805  3.3429  1.0144
 4006SOL    HW223478   3.703   2.979   5.996  0.1008  1.8711 -1.6701
 4007SOL     OW23479   2.886   3.244   8.318  0.1690  0.5379  0.1598
 4007SOL    HW123480   2.921   3.278   8.235  0.1166  0.4297  0.0939
 4007SOL    HW223481   2.940   3.302   8.371  0.6709 -0.7183  1.0232
 4008SOL     OW23482   3.804   3.987   9.352  0.1033 -0.3883  0.0957
 4008SOL    HW123483   3.738   3.961   9.288  0.4308 -0.1260 -0.3455
 4008SOL    HW223484   3.887   3.991   9.304 -0.2375  0.4142 -0.4330
 4009SOL     OW23485   3.096   0.547   0.604 -0.3238 -0.0373  0.5353
 4009SOL    HW123486   3.024   0.610   0.598  0.5362  1.0466  1.5402
 4009SOL    HW223487   3.175   0.599   0.589 -0.3021 -0.1377  0.3013
 4010SOL     OW23488   3.261   1.878  13.218 -0.2582 -0.3361 -0.1988
 4010SOL    HW123489   3.200   1.946  13.246 -0.3129 -1.2237  1.8356
 4010SOL    HW223490   3.245   1.888  13.124  2.1269 -0.0399 -0.5778
 4011SOL     OW23491   2.336   3.576  14.324 -0.4559  0.3162 -0.1558
 4011SOL    HW123492   2.406   3.561  14.389  0.6437  2.2095 -0.9052
 4011SOL    HW223493   2.384   3.602  14.246  1.8265  0.4371  1.2652
 4012SOL     OW23494   4.175   2.030   4.763 -1.0584  0.4744 -0.0970
 4012SOL    HW123495   4.245   2.091   4.786 -0.2976  0.3632 -2.1217
 4012SOL    HW223496   4.226   1.959   4.726 -1.0260  0.3019  0.2756
 4013SOL     OW23497   3.743   1.272   0.600  0.2442 -0.7523 -0.2676
 4013SOL    HW123498   3.826   1.285   0.647 -0.1027  0.9553 -0.1112
 4013SOL    HW223499   3.680   1.254   0.670 -2.1845 -0.9970 -2.5104
 4014SOL     OW23500   1.298   2.130   7.083 -0.4662 -0.2542  0.0955
 4014SOL    HW123501   1.276   2.038   7.066  1.3892 -0.6224 -0.2868
 4014SOL    HW223502   1.333   2.147   6.995  0.4754 -0.2697  0.4654
 4015SOL     OW23503   1.232   4.385   2.373 -0.2059  0.1509 -0.7864
 4015SOL    HW123504   1.324   4.408   2.385 -0.8007  1.0259  2.0064
 4015SOL    HW223505   1.196   4.467   2.340 -0.1031  0.7120  0.4997
 4016SOL     OW23506   2.598   3.669  16.560  0.5543 -0.3615 -0.1775
 4016SOL    HW123507   2.657   3.724  16.507  1.9422 -3.1886 -1.5972
 4016SOL    HW223508   2.515   3.715  16.549  2.0189  2.3111 -0.2129
 4017SOL     OW23509   4.615   2.052   5.464 -0.4748  0.1455 -0.1154
 4017SOL    HW123510   4.635   2.068   5.556 -0.1673  1.3904 -0.4097
 4017SOL    HW223511   4.558   1.975   5.464  1.5852 -1.3619  1.4071
 4018SOL     OW23512   4.141   0.217   9.335 -0.4208  0.4223 -0.0007
 4018SOL    HW123513   4.231   0.227   9.303 -0.6581  1.0254 -0.5017
 4018SOL    HW223514   4.132   0.286   9.401  0.6416  0.2657  0.2991
 4019SOL     OW23515   0.275   3.032   5.928 -0.7188  0.3155  0.0555
 4019SOL    HW123516   0.285   3.084   5.848 -1.7919  0.0714 -0.2449
 4019SOL    HW223517   0.255   3.105   5.987 -0.2865 -0.6896  1.4557
 4020SOL     OW23518   2.854   3.707   2.472 -0.0344  0.2162 -0.2112
 4020SOL    HW123519   2.931   3.757   2.444  1.0862 -0.2153  2.0881
 4020SOL    HW223520   2.788   3.743   2.413 -1.6684 -3.4429 -0.6002
 4021SOL     OW23521   2.071   4.079   8.996 -0.4485 -0.3424 -0.1151
 4021SOL    HW123522   2.041   4.109   9.082  0.7600 -1.1434  0.5721
 4021SOL    HW223523   1.996   4.030   8.960 -1.1970  1.4445 -1.0035
 4022SOL     OW23524   4.214   1.290   2.196  0.6644 -0.1878 -0.1806
 4022SOL    HW123525   4.231   1.235   2.120 -2.1865 -0.5512 -0.5367
 4022SOL    HW223526   4.159   1.243   2.258 -1.3541  0.5520 -1.4200
 4023SOL     OW23527   2.976   0.124  11.297 -0.0915 -0.3465  0.7147
 4023SOL    HW123528   2.883   0.104  11.291 -0.0040 -0.8810  1.1731
 4023SOL    HW223529   2.975   0.220  11.300  0.6838 -0.3505  1.0504
 4024SOL     OW23530   3.979   4.644   8.084 -0.3330  0.4303 -0.4249
 4024SOL    HW123531   4.040   4.660   8.012  1.2839  1.6066  1.2194
 4024SOL    HW223532   4.014   4.570   8.134 -3.9803 -1.5359 -0.8269
 4025SOL     OW23533   3.327   4.097   2.576  0.3578  0.5213 -0.0672
 4025SOL    HW123534   3.302   4.005   2.573  0.0630  0.6110 -0.4570
 4025SOL    HW223535   3.321   4.128   2.666 -0.3826 -1.7082  0.6395
 4026SOL     OW23536   3.125   1.361   2.853  0.2479  0.0066 -0.5503
 4026SOL    HW123537   3.192   1.332   2.916  0.4939  0.6298 -0.5303
 4026SOL    HW223538   3.118   1.451   2.884  0.5382 -0.5445  1.1341
 4027SOL     OW23539   2.605   2.725   0.728  0.1253 -0.1440  0.6188
 4027SOL    HW123540   2.521   2.682   0.710 -0.3815  1.8048 -1.5438
 4027SOL    HW223541   2.576   2.795   0.786 -0.7704  0.3374 -0.4172
 4028SOL     OW23542   0.580   0.680  10.273  1.0735 -0.4566  0.7246
 4028SOL    HW123543   0.606   0.602  10.223  2.3162  1.7284 -2.0527
 4028SOL    HW223544   0.539   0.645  10.352 -0.2054  1.2456  0.8017
 4029SOL     OW23545   1.352   3.639  12.904 -0.0299 -0.2827  0.7051
 4029SOL    HW123546   1.430   3.680  12.865 -0.6928 -0.0705 -0.3949
 4029SOL    HW223547   1.289   3.632  12.832  0.2406 -0.0178  0.4361
 4030SOL     OW23548   0.010   1.399   1.146 -0.5798 -0.6533  0.2751
 4030SOL    HW123549   4.653   1.395   1.095  0.1263 -2.1879 -0.7236
 4030SOL    HW223550   4.703   1.439   1.227 -1.8778 -0.9600 -0.0685
 4031SOL     OW23551   3.956   2.868   6.598  0.1760  0.0960  0.0776
 4031SOL    HW123552   3.870   2.829   6.586 -0.3575  1.5743 -0.9338
 4031SOL    HW223553   4.001   2.816   6.665 -0.1492 -0.4452 -0.1242
 4032SOL     OW23554   0.414   2.976  15.469 -0.7317 -0.1898  0.5591
 4032SOL    HW123555   0.494   3.014  15.434  0.3716  0.2048  3.5336
 4032SOL    HW223556   0.415   2.885  15.438 -0.1938  0.1432 -0.3988
 4033SOL     OW23557   2.016   0.875   7.101  0.0242 -0.1745  0.1185
 4033SOL    HW123558   1.981   0.790   7.073  0.0691 -0.3234  0.5167
 4033SOL    HW223559   2.102   0.875   7.059 -0.5027 -2.4279 -0.9661
 4034SOL     OW23560   0.920   1.099   8.189  0.3896 -0.6023 -0.2777
 4034SOL    HW123561   0.913   1.195   8.186 -1.6051 -0.7677 -0.4334
 4034SOL    HW223562   1.008   1.085   8.225  0.9961 -0.4125 -1.6729
 4035SOL     OW23563   1.080   0.087  10.114 -0.6655 -0.5129  0.1796
 4035SOL    HW123564   1.163   0.052  10.081 -1.2305 -0.5777 -1.1681
 4035SOL    HW223565   1.087   0.178  10.088 -0.8235 -1.1416 -2.0201
 4036SOL     OW23566   2.800   4.385   6.982 -0.1339 -0.3674 -0.3852
 4036SOL    HW123567   2.775   4.426   6.899 -0.0333  0.6805  0.0945
 4036SOL    HW223568   2.713   4.366   7.017 -1.0700  0.5005 -2.1706
 4037SOL     OW23569   3.448   3.735  15.659 -0.2089  0.5743  0.2879
 4037SOL    HW123570   3.467   3.820  15.620  2.6814 -0.9344 -1.5022
 4037SOL    HW223571   3.403   3.770  15.736  1.7031  0.1360  1.5825
 4038SOL     OW23572   2.296   4.118   3.671 -0.3306  0.6420  0.6673
 4038SOL    HW123573   2.204   4.092   3.676 -0.2861  0.2357 -0.5650
 4038SOL    HW223574   2.293   4.157   3.583  1.1750 -0.4128  0.1531
 4039SOL     OW23575   2.382   3.814   6.539 -0.0126 -0.1676  0.2576
 4039SOL    HW123576   2.411   3.829   6.450  2.0374 -1.5812  0.6993
 4039SOL    HW223577   2.424   3.878   6.596 -2.3370  0.5391  1.2081
 4040SOL     OW23578   0.131   0.608   1.093  0.3275 -1.0711 -0.7818
 4040SOL    HW123579   0.071   0.553   1.144 -0.1315 -0.7170 -0.9372
 4040SOL    HW223580   0.078   0.636   1.019 -1.7786  0.3593  1.2276
 4041SOL     OW23581   1.346   0.070  15.820  0.3551 -0.3914  0.4737
 4041SOL    HW123582   1.435   0.093  15.792  0.0144  2.2190  1.4829
 4041SOL    HW223583   1.354   0.070  15.916  0.8412  1.0586  0.4393
 4042SOL     OW23584   3.974   2.688   6.880  0.6147 -0.4190 -0.4193
 4042SOL    HW123585   3.892   2.698   6.928  0.6547  0.3027 -0.4974
 4042SOL    HW223586   4.036   2.729   6.939  1.3019 -0.7133 -0.9428
 4043SOL     OW23587   2.897   4.711  11.597 -0.0761 -0.2281 -0.8186
 4043SOL    HW123588   2.878   4.718  11.503 -1.8745 -0.6459 -0.4828
 4043SOL    HW223589   2.888   4.616  11.602  0.1436 -0.1691  0.6932
 4044SOL     OW23590   2.514   3.161   3.690 -0.5423 -0.5150 -0.1879
 4044SOL    HW123591   2.535   3.136   3.600 -1.7431 -0.7144 -0.4062
 4044SOL    HW223592   2.578   3.100   3.726 -0.6071 -0.7650 -0.4980
 4045SOL     OW23593   3.914   1.666   5.686  0.5744 -0.9706 -0.5474
 4045SOL    HW123594   3.852   1.691   5.755  1.3598 -0.0453 -0.1849
 4045SOL    HW223595   3.940   1.754   5.659  0.1044  0.0832  2.4236
 4046SOL     OW23596   2.019   3.251  11.708 -0.2926  0.5663 -0.3800
 4046SOL    HW123597   2.073   3.233  11.631 -0.1227 -0.8926  0.0713
 4046SOL    HW223598   1.930   3.263  11.673 -0.2113  2.3237  0.0221
 4047SOL     OW23599   3.925   2.134  16.520 -0.2286 -0.2192 -0.0043
 4047SOL    HW123600   4.000   2.159  16.575 -0.2739 -1.7704  0.7582
 4047SOL    HW223601   3.912   2.219  16.479 -0.6214 -0.5346 -0.5373
 4048SOL     OW23602   0.713   4.304  12.774  0.1829 -0.1361  0.3717
 4048SOL    HW123603   0.642   4.255  12.815 -0.2834 -1.4053 -1.9339
 4048SOL    HW223604   0.791   4.266  12.812  0.2837 -1.1356 -0.8381
 4049SOL     OW23605   0.077   3.240   3.409  0.2225 -0.3269  0.2149
 4049SOL    HW123606   0.156   3.185   3.409  0.3655 -0.1215  0.5186
 4049SOL    HW223607   0.084   3.273   3.499  0.7494 -1.2983  0.5285
 4050SOL     OW23608   3.285   2.231   7.991 -0.3236  0.1937 -0.5666
 4050SOL    HW123609   3.296   2.298   7.923  1.3339  0.0684 -0.4196
 4050SOL    HW223610   3.210   2.270   8.037 -0.8656 -1.0502 -0.4000
 4051SOL     OW23611   2.995   1.199   5.820  0.3838  0.6106  0.0462
 4051SOL    HW123612   2.985   1.156   5.735 -0.2566  0.1372  0.3670
 4051SOL    HW223613   2.964   1.288   5.800 -0.6009  0.4699  0.9260
 4052SOL     OW23614   0.240   0.269   5.719 -0.4833 -0.1366  0.4303
 4052SOL    HW123615   0.210   0.178   5.713  1.4531 -0.8153  0.9259
 4052SOL    HW223616   0.156   0.314   5.713 -1.6343 -2.1992  0.9303
 4053SOL     OW23617   4.411   2.252   3.175 -0.0584 -0.1738 -0.3001
 4053SOL    HW123618   4.373   2.258   3.088 -1.6957  2.1895  0.5664
 4053SOL    HW223619   4.478   2.320   3.163 -1.9849  1.3321 -2.5792
 4054SOL     OW23620   4.301   3.847  11.795  0.1948  0.2936 -0.6711
 4054SOL    HW123621   4.347   3.929  11.813  2.3202 -0.9205 -0.5618
 4054SOL    HW223622   4.358   3.806  11.730  0.3068  1.9324 -1.6112
 4055SOL     OW23623   0.961   3.975   3.286  0.3413 -0.1860  0.0361
 4055SOL    HW123624   0.948   3.895   3.236  0.0622  1.2184 -2.1534
 4055SOL    HW223625   0.975   3.949   3.377  0.8461  2.3513  0.6845
 4056SOL     OW23626   1.381   3.371   5.699 -0.1679  0.4211 -0.3021
 4056SOL    HW123627   1.462   3.417   5.717 -0.4610  0.5309  0.7139
 4056SOL    HW223628   1.325   3.421   5.758  1.7524  1.0353  0.9778
 4057SOL     OW23629   4.183   4.524   6.956 -0.5626  0.3640  0.8009
 4057SOL    HW123630   4.219   4.438   6.975  1.0027  1.1629  1.4747
 4057SOL    HW223631   4.124   4.505   6.884 -0.3204 -1.0058  0.9763
 4058SOL     OW23632   0.628   1.993   1.370 -0.2994 -0.6214  0.3059
 4058SOL    HW123633   0.538   2.002   1.338 -0.1939 -1.5828 -0.2967
 4058SOL    HW223634   0.655   2.084   1.358 -1.5276 -0.2912 -0.0496
 4059SOL     OW23635   4.047   2.093  17.691  0.1197 -0.3437 -0.6771
 4059SOL    HW123636   4.110   2.134   0.055  0.9481  0.3153 -2.0424
 4059SOL    HW223637   3.983   2.052   0.055  0.2465 -1.0486 -1.0294
 4060SOL     OW23638   0.306   4.177   6.253  0.8522 -0.1544  0.0500
 4060SOL    HW123639   0.294   4.267   6.284 -1.9488 -0.8034  0.8199
 4060SOL    HW223640   0.390   4.159   6.296  0.9309 -4.9352 -2.1395
 4061SOL     OW23641   1.593   1.930  12.601 -0.1214 -0.2440 -0.4177
 4061SOL    HW123642   1.557   1.895  12.682 -0.0851  1.4609  0.3499
 4061SOL    HW223643   1.560   1.862  12.543  3.2556 -1.6657 -0.6699
 4062SOL     OW23644   2.460   4.164   6.069 -0.2992  0.0476 -0.0677
 4062SOL    HW123645   2.536   4.203   6.025  0.1363  0.2168  0.8259
 4062SOL    HW223646   2.393   4.232   6.070 -0.4600 -0.1300  1.7625
 4063SOL     OW23647   4.721   0.168  14.952  0.0791  0.0996 -0.2870
 4063SOL    HW123648   0.016   0.261  14.936 -3.3458  0.9527  0.8212
 4063SOL    HW223649   4.683   0.143  14.868  1.6149  0.1790 -0.9977
 4064SOL     OW23650   0.099   4.002   2.577 -0.2874  0.1068 -0.2337
 4064SOL    HW123651   0.135   4.048   2.502  0.8180  0.9864  0.8342
 4064SOL    HW223652   0.176   3.982   2.630 -0.5731 -1.8757 -0.5648
 4065SOL     OW23653   0.694   0.521   8.191  0.5944  0.3018  0.3837
 4065SOL    HW123654   0.641   0.461   8.245 -2.8952  0.7847 -2.4934
 4065SOL    HW223655   0.628   0.579   8.153  2.7219  1.2637 -1.8155
 4066SOL     OW23656   2.845   4.240   8.382  0.3472 -0.2035  0.0870
 4066SOL    HW123657   2.837   4.261   8.475 -0.8019 -0.9729  0.1625
 4066SOL    HW223658   2.778   4.293   8.339  1.0812  2.3976  2.1429
 4067SOL     OW23659   3.152   3.435   5.353 -0.0019 -0.3666 -0.0269
 4067SOL    HW123660   3.146   3.471   5.265 -3.6461  0.0271  0.3651
 4067SOL    HW223661   3.143   3.507   5.415 -0.1884  0.8255 -1.4401
 4068SOL     OW23662   4.697   0.958   2.552 -0.4331 -0.5893 -0.2618
 4068SOL    HW123663   4.617   0.905   2.562 -1.2525  0.8217  0.6447
 4068SOL    HW223664   4.657   1.024   2.495 -2.6332 -0.9135  0.8990
 4069SOL     OW23665   0.498   4.572   3.967 -0.0517 -0.4361 -0.5734
 4069SOL    HW123666   0.438   4.626   3.916 -0.5884 -1.2100 -0.7469
 4069SOL    HW223667   0.450   4.490   3.963 -1.5116  0.4937 -2.0316
 4070SOL     OW23668   3.969   3.091  14.604 -0.2178 -0.1435  0.1551
 4070SOL    HW123669   4.050   3.123  14.644 -1.1934  0.1927  1.8669
 4070SOL    HW223670   3.961   3.153  14.532 -0.9097  1.5853  1.7462
 4071SOL     OW23671   2.150   3.840   5.169 -0.1567 -0.2886 -0.5652
 4071SOL    HW123672   2.175   3.749   5.182 -1.4795 -0.4475  0.8132
 4071SOL    HW223673   2.233   3.887   5.168  0.2495 -0.9866  0.4618
 4072SOL     OW23674   1.105   2.248  13.026  1.1181 -0.3796 -1.0620
 4072SOL    HW123675   1.180   2.299  13.056  0.6212 -0.0244 -0.4268
 4072SOL    HW223676   1.136   2.212  12.943 -0.3457 -2.3645 -0.7442
 4073SOL     OW23677   1.734   3.699   7.008  0.1572  0.0120 -0.1003
 4073SOL    HW123678   1.754   3.671   7.097  0.4163  3.3363  0.8911
 4073SOL    HW223679   1.760   3.627   6.950 -1.3914 -0.2103 -0.5230
 4074SOL     OW23680   4.516   3.618   5.216  0.5654 -0.1279  0.0738
 4074SOL    HW123681   4.562   3.639   5.135  0.9647 -0.6084  0.1772
 4074SOL    HW223682   4.504   3.524   5.210 -2.2032  0.1856  0.5582
 4075SOL     OW23683   4.503   0.891  11.339  0.1446  0.4024 -0.0686
 4075SOL    HW123684   4.556   0.958  11.296 -0.2619  1.0070  0.3611
 4075SOL    HW223685   4.516   0.821  11.276  0.5695 -0.7691  1.3023
 4076SOL     OW23686   2.023   0.381   2.451  0.0553  0.2959  0.3428
 4076SOL    HW123687   2.062   0.402   2.367  0.7870  0.4194  0.7144
 4076SOL    HW223688   2.073   0.310   2.492  0.2401 -1.1151 -2.3310
 4077SOL     OW23689   2.508   1.021  15.068  0.1924  0.6122  0.5645
 4077SOL    HW123690   2.553   1.054  15.145  2.0746  1.0523 -0.7265
 4077SOL    HW223691   2.460   0.946  15.106 -2.1150  1.6299 -0.3370
 4078SOL     OW23692   2.438   3.514   2.980 -0.2710 -0.0997 -0.3038
 4078SOL    HW123693   2.425   3.453   3.053  2.6060 -1.2446 -0.7504
 4078SOL    HW223694   2.447   3.593   3.033 -0.6086  0.6558 -1.3702
 4079SOL     OW23695   4.473   2.104   1.063 -0.2586 -0.1213 -0.0075
 4079SOL    HW123696   4.526   2.180   1.037  0.2753 -0.7497 -0.7654
 4079SOL    HW223697   4.475   2.098   1.158 -1.4204  2.8596  0.1931
 4080SOL     OW23698   2.299   4.135  12.092 -0.7990  0.3086 -0.3667
 4080SOL    HW123699   2.295   4.075  12.017 -0.6283  1.5781 -1.3973
 4080SOL    HW223700   2.367   4.096  12.147  0.1372  0.1059 -1.6823
 4081SOL     OW23701   2.698   3.082   8.231  0.1540  0.0229  0.2225
 4081SOL    HW123702   2.694   3.011   8.296 -0.6455 -1.1173 -1.0542
 4081SOL    HW223703   2.782   3.117   8.261  0.4078  1.1048 -1.7117
 4082SOL     OW23704   1.010   1.003   8.737 -0.1066 -0.1849  0.1167
 4082SOL    HW123705   1.078   1.049   8.689  0.5738 -1.1811  0.1175
 4082SOL    HW223706   1.039   0.994   8.827  0.5630 -2.1961 -0.3023
 4083SOL     OW23707   4.630   2.247  10.540 -0.0695  0.2777  0.4211
 4083SOL    HW123708   4.674   2.313  10.486  0.6065 -0.2324  0.3466
 4083SOL    HW223709   4.546   2.288  10.560 -1.2341 -1.5406 -0.7624
 4084SOL     OW23710   2.518   3.550   2.254  0.4387 -0.1707  0.2539
 4084SOL    HW123711   2.591   3.602   2.219 -0.1979  0.8836  0.4637
 4084SOL    HW223712   2.525   3.559   2.349 -1.7409 -3.6403  0.7254
 4085SOL     OW23713   3.726   0.728  13.772 -0.1977 -0.4058  0.6051
 4085SOL    HW123714   3.787   0.786  13.816 -2.0242  2.3956 -0.5705
 4085SOL    HW223715   3.647   0.780  13.787 -0.2790 -0.2997 -0.1780
 4086SOL     OW23716   3.146   4.634   7.298  0.3824 -0.5118  0.5660
 4086SOL    HW123717   3.054   4.637   7.274  0.0597  1.6706  2.0888
 4086SOL    HW223718   3.142   4.695   7.371  0.7538 -2.3983  2.1708
 4087SOL     OW23719   1.830   3.473  11.690 -0.0764 -0.2790 -0.1722
 4087SOL    HW123720   1.749   3.508  11.653 -0.3340  0.3716  0.9996
 4087SOL    HW223721   1.819   3.378  11.696 -1.4414 -0.1709 -0.7996
 4088SOL     OW23722   1.644   1.027  15.326 -0.0122 -0.4057 -0.4869
 4088SOL    HW123723   1.681   0.979  15.252  1.9157  0.2682  0.0426
 4088SOL    HW223724   1.727   1.042  15.371  0.8129 -1.5966 -1.6351
 4089SOL     OW23725   2.255   2.052   5.688  0.2836 -0.1493  0.7487
 4089SOL    HW123726   2.161   2.066   5.696 -0.0398 -1.2014 -1.2550
 4089SOL    HW223727   2.287   2.136   5.721 -1.7368  1.9623 -2.6538
 4090SOL     OW23728   2.108   0.951  13.295  0.0214 -0.4527  0.0389
 4090SOL    HW123729   2.155   0.919  13.217 -0.5538  0.9364 -0.8788
 4090SOL    HW223730   2.040   0.885  13.303  0.8163 -1.4326 -1.1370
 4091SOL     OW23731   4.370   1.604   6.579  0.1356 -0.2731  0.7861
 4091SOL    HW123732   4.419   1.577   6.501 -2.2175 -1.8418 -0.1181
 4091SOL    HW223733   4.395   1.538   6.644  2.3105  2.3877  2.6775
 4092SOL     OW23734   0.211   1.182  17.446 -0.4803  0.5446 -0.6278
 4092SOL    HW123735   0.232   1.164  17.538 -2.3811 -3.0455 -0.9073
 4092SOL    HW223736   0.291   1.154  17.402 -0.1974  2.8088 -1.5225
 4093SOL     OW23737   2.236   0.613   5.261  0.0989 -0.1431  0.0404
 4093SOL    HW123738   2.330   0.613   5.278 -0.0405  1.2425  0.8152
 4093SOL    HW223739   2.218   0.530   5.216 -1.6315  0.0428  0.4033
 4094SOL     OW23740   2.951   2.140  16.990 -0.5501  0.0005 -0.0494
 4094SOL    HW123741   2.910   2.197  17.056  0.4049 -1.0691  1.4740
 4094SOL    HW223742   3.043   2.128  17.012 -0.4557  0.0652 -0.4181
 4095SOL     OW23743   3.003   4.173  13.028  0.3293  0.8021 -0.6262
 4095SOL    HW123744   3.054   4.142  12.952 -3.1976 -0.8489 -2.3130
 4095SOL    HW223745   3.071   4.226  13.070 -0.5879  0.1607  1.6269
 4096SOL     OW23746   4.275   1.046   2.502 -0.2511 -0.1729  0.2976
 4096SOL    HW123747   4.298   1.137   2.518  0.8462 -0.3986 -0.0027
 4096SOL    HW223748   4.186   1.057   2.469 -0.2210 -2.2839 -0.5336
 4097SOL     OW23749   3.297   3.540   9.419 -0.6356  0.1704 -0.4481
 4097SOL    HW123750   3.278   3.502   9.505  1.4833  0.9783  0.3934
 4097SOL    HW223751   3.376   3.593   9.431 -0.7396  0.1750  0.1951
 4098SOL     OW23752   1.198   3.636   4.451 -0.0506 -0.3354  0.6319
 4098SOL    HW123753   1.216   3.594   4.367  1.6499  2.3694 -0.3492
 4098SOL    HW223754   1.285   3.663   4.482  0.0312 -1.2252  1.2097
 4099SOL     OW23755   4.217   3.316   8.519 -0.0605  0.2019 -0.6895
 4099SOL    HW123756   4.186   3.235   8.480  1.0079 -0.7761  0.4984
 4099SOL    HW223757   4.149   3.318   8.587  0.4723  3.8820 -0.2618
 4100SOL     OW23758   3.477   3.517   6.170 -0.0918  0.0317  0.3942
 4100SOL    HW123759   3.476   3.607   6.202  1.2084  0.5822 -1.0961
 4100SOL    HW223760   3.479   3.533   6.076 -0.1756  1.4900  0.6281
 4101SOL     OW23761   3.910   4.201   1.353  0.3752  0.6447 -0.3736
 4101SOL    HW123762   3.994   4.247   1.357  0.9081 -0.2601 -1.1440
 4101SOL    HW223763   3.845   4.263   1.388  0.3320  0.6023 -0.3788
 4102SOL     OW23764   3.692   4.270   3.232  0.1971 -0.0799 -0.6667
 4102SOL    HW123765   3.760   4.203   3.232  0.2018 -0.0561  3.2622
 4102SOL    HW223766   3.699   4.291   3.325  0.9522 -0.9012 -0.5381
 4103SOL     OW23767   2.398   2.399  12.580 -0.1580 -0.1441  0.1469
 4103SOL    HW123768   2.464   2.343  12.539  1.5236  1.1277  1.0932
 4103SOL    HW223769   2.332   2.411  12.512 -0.7342  2.3926  1.1608
 4104SOL     OW23770   3.903   3.975  13.053  0.1122  0.2683  0.0119
 4104SOL    HW123771   3.928   3.934  12.970 -1.6618  0.8001 -0.7835
 4104SOL    HW223772   3.924   4.065  13.030  4.1857  0.3329  3.8620
 4105SOL     OW23773   4.584   4.058  17.175 -0.0299 -0.1603  0.4230
 4105SOL    HW123774   4.605   3.965  17.162  0.0721 -0.1109  0.2255
 4105SOL    HW223775   4.673   4.093  17.179 -0.2113  0.6261 -2.7802
 4106SOL     OW23776   2.814   4.151  14.466 -0.3785  0.7148  0.1076
 4106SOL    HW123777   2.759   4.173  14.390 -1.6188 -0.7646  0.5795
 4106SOL    HW223778   2.890   4.203  14.440 -0.5666 -0.3175 -2.5275
 4107SOL     OW23779   4.056   4.045   5.547  0.1620 -0.6404  0.0203
 4107SOL    HW123780   4.004   4.120   5.520 -0.1346 -1.0847 -0.6200
 4107SOL    HW223781   4.019   4.037   5.635 -0.1730 -0.0233 -0.0673
 4108SOL     OW23782   2.947   0.530   9.515 -0.3490 -0.1535 -0.0892
 4108SOL    HW123783   2.860   0.538   9.555 -0.1416 -1.0524  0.5448
 4108SOL    HW223784   2.966   0.440   9.543 -0.4142 -0.0509  0.2827
 4109SOL     OW23785   3.561   1.794  17.501  0.1654  0.2761 -0.3315
 4109SOL    HW123786   3.541   1.830  17.587  1.1572 -1.2331  0.5433
 4109SOL    HW223787   3.619   1.720  17.524  2.0664  1.4113 -1.4616
 4110SOL     OW23788   0.691   2.914  11.663  0.0676  0.5200 -0.9919
 4110SOL    HW123789   0.766   2.855  11.658 -0.1371  0.0638  1.1031
 4110SOL    HW223790   0.698   2.971  11.586  1.7608  0.2422 -1.0415
 4111SOL     OW23791   3.219   4.367   2.033 -0.7767  0.3618 -0.1571
 4111SOL    HW123792   3.212   4.288   1.980  1.3046  1.2194 -1.7118
 4111SOL    HW223793   3.142   4.356   2.088 -0.1962 -1.4432  0.2861
 4112SOL     OW23794   0.474   1.801   3.559 -0.2700 -0.6044 -0.3162
 4112SOL    HW123795   0.509   1.870   3.616  0.5679 -2.2928  1.2004
 4112SOL    HW223796   0.413   1.853   3.507  1.1467 -0.2094 -1.5914
 4113SOL     OW23797   4.520   3.868  16.586 -0.2663 -0.2802 -0.2030
 4113SOL    HW123798   4.555   3.796  16.534 -0.0813  1.3041 -2.2868
 4113SOL    HW223799   4.554   3.942  16.535  2.3381  0.2464  2.2776
 4114SOL     OW23800   1.252   3.136   4.742  0.5560  0.2133  0.5993
 4114SOL    HW123801   1.239   3.070   4.809  0.5909 -0.0968  0.3012
 4114SOL    HW223802   1.191   3.205   4.767  0.0836 -0.2774  0.7811
 4115SOL     OW23803   1.406   2.587   1.754  0.7868 -0.5067 -0.1305
 4115SOL    HW123804   1.355   2.638   1.817  1.9797  1.2717 -0.6347
 4115SOL    HW223805   1.489   2.632   1.762 -0.2879  1.0417  2.1803
 4116SOL     OW23806   3.144   0.637  16.478 -0.2049 -0.0970 -0.0610
 4116SOL    HW123807   3.058   0.596  16.463 -0.1828  0.6927 -2.3747
 4116SOL    HW223808   3.200   0.563  16.500  0.5991  0.1204 -1.4002
 4117SOL     OW23809   3.313   2.745   2.142 -0.1854 -0.5055  0.1575
 4117SOL    HW123810   3.372   2.763   2.069 -2.5600  0.6537 -1.4936
 4117SOL    HW223811   3.244   2.698   2.095 -0.7618  2.4723 -1.9531
 4118SOL     OW23812   2.194   2.241   8.284 -0.2725 -0.0197  0.1915
 4118SOL    HW123813   2.219   2.159   8.243 -0.0783  0.0963  0.0768
 4118SOL    HW223814   2.101   2.221   8.274  0.1142 -1.3410 -0.6522
 4119SOL     OW23815   3.660   1.259   4.592  0.1953  0.2991 -0.5002
 4119SOL    HW123816   3.694   1.313   4.663  0.8956 -0.3288 -0.3465
 4119SOL    HW223817   3.626   1.177   4.627  0.9879  0.4048  0.5081
 4120SOL     OW23818   3.382   0.846   2.366  0.3404  0.0166  0.0980
 4120SOL    HW123819   3.417   0.908   2.302  2.3887  0.4618  1.6110
 4120SOL    HW223820   3.407   0.889   2.448  1.3440  1.6875 -1.0793
 4121SOL     OW23821   3.773   1.712   5.917  0.3389 -0.2788 -0.1951
 4121SOL    HW123822   3.768   1.672   6.004 -1.2121  0.6311  0.1437
 4121SOL    HW223823   3.750   1.804   5.931 -0.5759 -0.4868 -0.3503
 4122SOL     OW23824   1.088   0.207   7.611  0.4638  0.2025 -0.0105
 4122SOL    HW123825   1.006   0.226   7.658  0.5565 -0.9142  0.6110
 4122SOL    HW223826   1.132   0.291   7.624 -0.4134  1.0830 -2.7400
 4123SOL     OW23827   3.232   3.248   1.638 -0.0070 -0.0747  0.2704
 4123SOL    HW123828   3.272   3.178   1.691  0.5411 -0.2263 -0.3434
 4123SOL    HW223829   3.144   3.253   1.674 -0.1734  2.6696 -0.5174
 4124SOL     OW23830   4.483   0.199   1.559 -0.4328 -0.0598 -0.0339
 4124SOL    HW123831   4.573   0.230   1.561  0.1888 -2.0427  2.5920
 4124SOL    HW223832   4.436   0.283   1.558 -0.1986  0.0957  1.3998
 4125SOL     OW23833   1.532   0.903   8.680 -0.8050  1.0487 -0.4690
 4125SOL    HW123834   1.489   0.845   8.743  0.3344  0.8409  0.1103
 4125SOL    HW223835   1.624   0.881   8.691 -0.2925  2.7680 -1.3888
 4126SOL     OW23836   1.827   1.205   7.500 -0.4669 -0.2087 -0.1986
 4126SOL    HW123837   1.892   1.137   7.482  0.1333 -0.2946  2.2260
 4126SOL    HW223838   1.791   1.170   7.581 -3.5947  2.3783 -0.4935
 4127SOL     OW23839   3.103   2.386   7.219 -0.8344  0.4890 -0.0446
 4127SOL    HW123840   3.191   2.404   7.252 -0.7199 -0.5134  0.2238
 4127SOL    HW223841   3.119   2.404   7.127 -1.5188  1.3373  0.0077
 4128SOL     OW23842   2.200   0.781   4.564  0.9213 -0.0406 -0.4058
 4128SOL    HW123843   2.275   0.721   4.559  1.0186  0.2932 -3.2726
 4128SOL    HW223844   2.174   0.759   4.653  0.7900  0.1359 -0.4017
 4129SOL     OW23845   1.182   0.484   7.668  0.4105 -0.1700  0.0123
 4129SOL    HW123846   1.163   0.514   7.756 -1.7557  0.3693 -0.6428
 4129SOL    HW223847   1.155   0.559   7.615  0.7481  0.3769  0.6160
 4130SOL     OW23848   3.773   4.130   0.036 -0.2387 -0.2058  0.3713
 4130SOL    HW123849   3.760   4.075   0.113  0.5159 -1.6581 -0.5420
 4130SOL    HW223850   3.685   4.160   0.013  0.4159  2.2696  1.0221
 4131SOL     OW23851   0.063   1.378  11.671 -0.2544  0.3687 -0.8923
 4131SOL    HW123852   0.129   1.433  11.713  0.1485 -0.6904 -0.1416
 4131SOL    HW223853   0.105   1.325  11.604  1.5129  1.7569 -0.8874
 4132SOL     OW23854   1.031   4.373   6.066 -0.0746  0.3342  0.1733
 4132SOL    HW123855   1.077   4.454   6.045 -0.4253  0.5952  0.4112
 4132SOL    HW223856   0.995   4.400   6.151 -0.2978 -0.0259  0.1933
 4133SOL     OW23857   4.082   4.545   4.515 -0.0224 -0.1583  0.2880
 4133SOL    HW123858   3.987   4.536   4.512 -0.0128  0.8967 -3.1359
 4133SOL    HW223859   4.081   4.628   4.562 -1.0128 -0.1745  0.2847
 4134SOL     OW23860   0.950   3.474   4.147  0.1808  0.1188 -0.3634
 4134SOL    HW123861   0.925   3.462   4.239  2.2763  0.4272  0.2575
 4134SOL    HW223862   0.980   3.565   4.147  1.1245 -0.1980 -0.7851
 4135SOL     OW23863   4.248   2.238  16.926 -0.3810  0.5212  0.3656
 4135SOL    HW123864   4.341   2.227  16.946 -0.4628 -0.7428  0.0488
 4135SOL    HW223865   4.223   2.311  16.982 -0.0712 -0.2194  1.4669
 4136SOL     OW23866   3.946   0.075   4.634  0.4902 -0.7520 -0.5307
 4136SOL    HW123867   3.917   0.143   4.694 -0.9078 -0.8989 -1.0466
 4136SOL    HW223868   3.875   0.011   4.640 -0.6608  0.3204 -2.5868
 4137SOL     OW23869   4.618   1.735   2.639 -0.4482 -0.1570  0.4207
 4137SOL    HW123870   4.631   1.825   2.669 -0.6329 -0.4257  1.3161
 4137SOL    HW223871   4.631   1.748   2.546 -0.1586  0.3409  0.5277
 4138SOL     OW23872   2.291   0.623   7.614 -0.5833  0.2700  0.2643
 4138SOL    HW123873   2.242   0.648   7.693  2.5156 -0.2341  2.3488
 4138SOL    HW223874   2.221   0.646   7.554 -0.4358 -0.5597 -0.2321
 4139SOL     OW23875   0.281   2.765   9.937 -0.3656  0.2412  0.1126
 4139SOL    HW123876   0.268   2.841   9.995 -2.3966 -0.3792  0.4772
 4139SOL    HW223877   0.376   2.771   9.940 -0.4580  1.5903  0.3651
 4140SOL     OW23878   2.199   2.500   4.096  0.5759  0.3617  0.2203
 4140SOL    HW123879   2.173   2.591   4.087 -1.2170 -0.1603  0.1871
 4140SOL    HW223880   2.127   2.471   4.152  2.2756 -0.5123  1.9800
 4141SOL     OW23881   1.270   1.786   3.097 -0.5629 -0.2970  0.6166
 4141SOL    HW123882   1.182   1.810   3.066 -0.7635 -1.5995  0.1624
 4141SOL    HW223883   1.267   1.693   3.075  0.4669 -0.3220  0.6190
 4142SOL     OW23884   1.195   1.514  16.086 -0.2037  0.0314  0.3774
 4142SOL    HW123885   1.182   1.563  16.005  2.3593 -1.1820 -0.7433
 4142SOL    HW223886   1.271   1.562  16.119 -1.5936  2.0279  0.6879
 4143SOL     OW23887   1.859   2.512  13.637 -0.1877  0.4178 -0.4506
 4143SOL    HW123888   1.923   2.569  13.595 -1.9360  0.3911 -3.1518
 4143SOL    HW223889   1.829   2.583  13.694  1.3345  0.3831  0.3998
 4144SOL     OW23890   4.402   2.049   9.078 -0.3378 -0.2312 -0.1177
 4144SOL    HW123891   4.346   1.979   9.044 -0.1234  0.5910 -2.1591
 4144SOL    HW223892   4.485   2.003   9.089 -0.8804 -0.9786  0.8787
 4145SOL     OW23893   4.028   2.144   6.995  0.1217  0.1336 -0.1841
 4145SOL    HW123894   4.117   2.168   6.968  0.7311  0.0849  1.7972
 4145SOL    HW223895   4.045   2.065   7.046  1.5330  0.0528 -0.7866
 4146SOL     OW23896   0.472   1.742   5.466  0.1347 -0.1416  0.1516
 4146SOL    HW123897   0.423   1.824   5.470  0.3460 -0.0504  0.8592
 4146SOL    HW223898   0.483   1.709   5.555  2.3820  0.2683  0.0198
 4147SOL     OW23899   2.376   1.346   6.002 -0.0032 -0.5394  0.0286
 4147SOL    HW123900   2.308   1.346   6.069 -0.3933 -0.8838 -0.3705
 4147SOL    HW223901   2.427   1.275   6.040  0.4438 -2.4041 -4.0320
 4148SOL     OW23902   1.904   1.145  15.441  0.0169  0.0486  0.1935
 4148SOL    HW123903   1.901   1.051  15.424 -1.9911  0.1736 -0.1151
 4148SOL    HW223904   1.992   1.170  15.413  0.9694 -2.2800  1.1015
 4149SOL     OW23905   2.708   4.026   1.839  0.1507  0.1181 -0.3252
 4149SOL    HW123906   2.629   3.993   1.796 -0.8364 -0.5128  1.9580
 4149SOL    HW223907   2.736   4.089   1.772  1.4538 -0.5702 -0.4214
 4150SOL     OW23908   0.538   3.749   9.541  0.1932  0.1521 -0.0891
 4150SOL    HW123909   0.601   3.706   9.483 -0.4108  1.7397 -1.9110
 4150SOL    HW223910   0.455   3.709   9.517  1.0009 -1.0444 -0.8674
 4151SOL     OW23911   0.992   1.129  14.579 -0.4888  0.1763  0.6157
 4151SOL    HW123912   0.956   1.074  14.510 -0.6099 -1.0771  1.6727
 4151SOL    HW223913   0.923   1.190  14.603 -0.5582 -0.3432  1.7515
 4152SOL     OW23914   4.330   0.734  11.610 -0.4277  0.4783  0.0450
 4152SOL    HW123915   4.321   0.814  11.663 -0.9178  0.8917 -0.6562
 4152SOL    HW223916   4.236   0.733  11.588 -0.1989  1.3618 -0.9721
 4153SOL     OW23917   4.253   0.610   4.880  0.3304  0.3168  0.1997
 4153SOL    HW123918   4.341   0.576   4.891  0.1023 -0.1105  0.6921
 4153SOL    HW223919   4.199   0.534   4.857  1.7175 -0.6196  0.0567
 4154SOL     OW23920   3.800   0.538   1.914 -0.3925 -0.6660 -0.1226
 4154SOL    HW123921   3.810   0.615   1.970  0.2050 -1.6127  1.0845
 4154SOL    HW223922   3.706   0.522   1.914 -0.4487 -0.3117 -1.1815
 4155SOL     OW23923   0.796   2.531   8.374  0.0400  0.2091  0.0249
 4155SOL    HW123924   0.862   2.600   8.362 -0.5635  0.8547  0.3926
 4155SOL    HW223925   0.843   2.450   8.356 -0.1645  0.1996 -0.4612
 4156SOL     OW23926   1.001   0.732   4.703  0.1186 -0.5612  0.0951
 4156SOL    HW123927   0.909   0.709   4.688 -0.3870  1.4155  0.1314
 4156SOL    HW223928   0.992   0.802   4.767  5.0629  0.9947 -0.8940
 4157SOL     OW23929   3.811   1.606   3.710  0.0540  0.1600  0.0475
 4157SOL    HW123930   3.826   1.684   3.764 -0.8950  0.3148  0.0869
 4157SOL    HW223931   3.775   1.547   3.776  0.4500  1.6787  1.6181
 4158SOL     OW23932   4.698   1.034   6.206 -0.5328 -0.2890  0.3242
 4158SOL    HW123933   4.703   0.940   6.187  1.8432 -0.7470  3.3306
 4158SOL    HW223934   0.049   1.048   6.264  0.1314 -1.2310 -0.2993
 4159SOL     OW23935   1.344   1.897   7.877  0.0337 -0.1842  0.3444
 4159SOL    HW123936   1.438   1.914   7.884  0.0721 -0.2846  0.0535
 4159SOL    HW223937   1.348   1.891   7.781 -0.8656 -1.1310  0.3737
 4160SOL     OW23938   4.086   0.306   0.829  0.5192  0.0103 -0.1255
 4160SOL    HW123939   4.008   0.360   0.835  1.6771  1.5928  0.5097
 4160SOL    HW223940   4.074   0.260   0.913  2.7468  1.3893  0.9619
 4161SOL     OW23941   3.035   0.502   9.837  0.4947  0.2224  0.4543
 4161SOL    HW123942   3.113   0.470   9.790  0.1569  1.7042 -1.0999
 4161SOL    HW223943   2.996   0.546   9.762  3.1577  1.1135 -0.4285
 4162SOL     OW23944   3.952   0.118  11.261 -0.4067  0.2303  0.0720
 4162SOL    HW123945   4.008   0.058  11.211 -0.6652 -1.2653  1.5836
 4162SOL    HW223946   3.898   0.147  11.187  2.1552 -2.3919 -2.8044
 4163SOL     OW23947   3.603   4.077  13.597  0.1867 -0.2381  0.4166
 4163SOL    HW123948   3.682   4.130  13.592  1.1886 -1.5301  2.3123
 4163SOL    HW223949   3.560   4.094  13.513  2.0020 -1.3552 -0.7329
 4164SOL     OW23950   4.690   3.586  15.777  0.0013 -0.2855 -0.5168
 4164SOL    HW123951   0.045   3.599  15.831  0.7397 -0.4207 -1.5516
 4164SOL    HW223952   4.686   3.662  15.719  0.2688  1.0454  1.2232
 4165SOL     OW23953   4.050   3.641  17.607  0.0845  0.5040  0.3877
 4165SOL    HW123954   4.120   3.576  17.608 -0.7822 -0.4452 -0.9046
 4165SOL    HW223955   3.977   3.585  17.582 -0.0546  1.0785 -0.4764
 4166SOL     OW23956   2.439   2.735   1.362 -0.2003  0.4017 -0.0308
 4166SOL    HW123957   2.438   2.683   1.281  1.5590 -2.5052  1.7924
 4166SOL    HW223958   2.449   2.815   1.311  0.6738  0.5233  0.3247
 4167SOL     OW23959   3.835   2.746   2.985  0.2510  0.5118 -0.3551
 4167SOL    HW123960   3.798   2.660   2.969 -2.1081  1.0206  2.3764
 4167SOL    HW223961   3.761   2.774   3.040 -0.2486  0.3994 -0.9651
 4168SOL     OW23962   1.900   0.135   5.204 -0.4289 -0.1471  0.3404
 4168SOL    HW123963   1.820   0.155   5.156  0.2172 -0.5786 -0.9116
 4168SOL    HW223964   1.967   0.140   5.136  0.3868  3.2251  1.3865
 4169SOL     OW23965   4.474   0.581  11.441  0.1850  0.3808 -0.0446
 4169SOL    HW123966   4.457   0.529  11.519 -0.8446  1.2068  0.2831
 4169SOL    HW223967   4.438   0.661  11.479 -0.1890 -0.0918  0.5892
 4170SOL     OW23968   3.571   4.197   4.361  0.4697  0.2146 -0.3411
 4170SOL    HW123969   3.508   4.125   4.351 -0.1045  0.6793 -0.0467
 4170SOL    HW223970   3.581   4.194   4.456  3.4809 -2.6826 -0.7636
 4171SOL     OW23971   2.314   1.124   8.442 -0.1109  0.1571 -0.9101
 4171SOL    HW123972   2.350   1.170   8.518  0.0408  2.1135 -2.1443
 4171SOL    HW223973   2.250   1.059   8.471 -2.1443  3.0432  1.0903
 4172SOL     OW23974   4.138   3.949   0.341  0.0899  0.3769  0.4193
 4172SOL    HW123975   4.186   4.031   0.335 -0.1110  0.4971  0.4386
 4172SOL    HW223976   4.088   3.940   0.260  1.8858  1.6493 -0.8226
 4173SOL     OW23977   3.221   3.843   2.649  0.0990 -0.2804  0.9110
 4173SOL    HW123978   3.136   3.822   2.689 -1.9333  2.0614 -2.1568
 4173SOL    HW223979   3.253   3.753   2.653  1.0915 -0.0164 -1.1319
 4174SOL     OW23980   1.588   3.199   4.024  1.0047  0.3902  0.5889
 4174SOL    HW123981   1.605   3.163   4.111  1.2107  0.2764  0.5017
 4174SOL    HW223982   1.516   3.260   4.041 -1.8054 -2.2163 -1.7408
 4175SOL     OW23983   0.878   2.408   0.266  0.7270 -0.2847 -0.3574
 4175SOL    HW123984   0.857   2.498   0.239  2.2829 -0.5073 -2.3112
 4175SOL    HW223985   0.966   2.409   0.229  0.5299 -3.0008 -0.8769
 4176SOL     OW23986   0.227   3.484   3.961 -0.1054  0.3358  0.1821
 4176SOL    HW123987   0.296   3.440   3.911  0.4496 -0.9274  2.0410
 4176SOL    HW223988   0.275   3.521   4.035  0.5551 -2.6262  1.2532
 4177SOL     OW23989   4.471   0.773  13.021  0.3602 -0.0299  0.1299
 4177SOL    HW123990   4.563   0.793  13.037  0.6163  0.1488 -1.6389
 4177SOL    HW223991   4.478   0.679  13.036 -0.9466  0.1790  2.1019
 4178SOL     OW23992   3.433   0.136   9.275 -0.3587  0.1290  0.2851
 4178SOL    HW123993   3.338   0.146   9.273 -0.1120  2.3492  0.1183
 4178SOL    HW223994   3.439   0.113   9.368  1.5984  1.1979  0.4177
 4179SOL     OW23995   3.898   1.444  15.659 -0.2504 -0.5782  0.4444
 4179SOL    HW123996   3.875   1.413  15.747 -1.5577 -1.6179 -0.2700
 4179SOL    HW223997   3.854   1.384  15.599  0.4426 -1.7917  1.1530
 4180SOL     OW23998   2.887   0.553   4.482  0.3313  0.7297  0.6699
 4180SOL    HW123999   2.955   0.491   4.456  0.3314  0.6955  0.7540
 4180SOL    HW224000   2.925   0.632   4.444 -1.3556  0.0082 -2.5440
 4181SOL     OW24001   2.437   2.096   0.619 -0.6863 -0.2358 -0.2948
 4181SOL    HW124002   2.465   2.033   0.685  4.2399  1.0126 -1.1859
 4181SOL    HW224003   2.433   2.175   0.673  0.3246  0.5908 -1.4347
 4182SOL     OW24004   1.078   0.109   4.682 -0.1558  0.5282  0.0843
 4182SOL    HW124005   1.004   0.143   4.632 -1.4671  0.1878  1.7865
 4182SOL    HW224006   1.107   0.024   4.650  1.8989  2.3252 -2.7632
 4183SOL     OW24007   2.971   3.345  11.132  0.6486  0.2976 -0.2212
 4183SOL    HW124008   3.052   3.296  11.147 -0.6116 -2.4760 -2.4858
 4183SOL    HW224009   2.952   3.373  11.222 -0.8688  2.0882 -1.0961
 4184SOL     OW24010   4.316   1.849   7.291  0.2836  0.1601  0.3426
 4184SOL    HW124011   4.389   1.904   7.264  0.3164  0.1748  0.4588
 4184SOL    HW224012   4.368   1.784   7.338 -1.4104 -1.2003  0.3532
 4185SOL     OW24013   2.927   4.647  16.449  0.0486 -0.1959  0.1298
 4185SOL    HW124014   3.007   4.670  16.402 -1.2017  0.2222 -1.7589
 4185SOL    HW224015   2.960   4.589  16.518 -0.6604 -1.7506 -0.8330
 4186SOL     OW24016   0.462   2.954   2.631  0.2226  0.2344  0.5345
 4186SOL    HW124017   0.420   2.937   2.547  0.5009  0.8159  0.2808
 4186SOL    HW224018   0.457   2.872   2.679 -0.8479 -0.0777 -0.1036
 4187SOL     OW24019   3.450   4.184  14.669 -0.1359 -0.1926  0.0255
 4187SOL    HW124020   3.438   4.257  14.608 -0.8025 -0.7545 -0.5167
 4187SOL    HW224021   3.426   4.111  14.612  0.2529  0.7507 -1.3698
 4188SOL     OW24022   0.731   0.461  10.231 -0.3678  0.2066 -0.0783
 4188SOL    HW124023   0.682   0.379  10.228  0.7092 -0.3122 -4.7069
 4188SOL    HW224024   0.804   0.442  10.290 -0.5443 -1.3798 -0.3715
 4189SOL     OW24025   0.029   2.259   5.147 -0.0087  0.5181  0.1763
 4189SOL    HW124026   4.695   2.280   5.073 -0.4087  2.7868  1.1273
 4189SOL    HW224027   0.106   2.218   5.108 -0.8317 -1.2935  0.3973
 4190SOL     OW24028   1.142   0.009   2.522  0.0384  0.0428  0.5447
 4190SOL    HW124029   1.109   4.675   2.452 -0.4974  0.8080  0.1796
 4190SOL    HW224030   1.074   4.698   2.581 -1.3559  1.5120 -0.2172
 4191SOL     OW24031   3.301   3.725   1.269 -0.0085  0.5629 -0.3998
 4191SOL    HW124032   3.256   3.809   1.273 -4.0607 -1.6878  1.6455
 4191SOL    HW224033   3.389   3.742   1.303  0.3069  0.0848 -0.9866
 4192SOL     OW24034   2.637   0.559   7.022  0.9692 -0.4496  0.6995
 4192SOL    HW124035   2.604   0.471   7.002  2.2735 -1.1447  1.6015
 4192SOL    HW224036   2.597   0.580   7.106 -0.9659  0.9614 -0.5772
 4193SOL     OW24037   1.224   2.918   4.588 -0.0350  0.1349  0.3980
 4193SOL    HW124038   1.192   2.860   4.658 -1.9815 -0.4017 -0.9347
 4193SOL    HW224039   1.262   2.988   4.641 -0.7959  0.8684 -0.0386
 4194SOL     OW24040   0.256   3.486   3.089  0.3231 -0.1563  0.0368
 4194SOL    HW124041   0.305   3.454   3.014 -1.0334  0.6432 -1.1831
 4194SOL    HW224042   0.267   3.579   3.072  0.3260 -0.1085  0.2879
 4195SOL     OW24043   4.246   2.345   2.962 -0.2844  0.2758 -0.1642
 4195SOL    HW124044   4.194   2.271   2.932  0.9365 -0.9709  0.7729
 4195SOL    HW224045   4.178   2.410   2.981 -1.4600 -0.2534 -2.6383
 4196SOL     OW24046   0.188   4.295   1.471 -0.6124  0.2748  0.2629
 4196SOL    HW124047   0.113   4.336   1.428  0.0716 -0.2521 -1.4113
 4196SOL    HW224048   0.141   4.262   1.548  1.3031 -1.7176  0.5619
 4197SOL     OW24049   1.758   2.153   3.314  0.3019 -0.1072  0.1313
 4197SOL    HW124050   1.679   2.171   3.365 -0.4184  0.5984 -1.2494
 4197SOL    HW224051   1.719   2.138   3.228  0.1271  0.3714  0.1233
 4198SOL     OW24052   2.368   1.375   2.763 -0.0079  0.1472  0.7640
 4198SOL    HW124053   2.291   1.342   2.810 -0.5169 -0.2149 -0.3306
 4198SOL    HW224054   2.334   1.397   2.676  0.3675  0.3172  0.6614
 4199SOL     OW24055   1.875   3.998   5.074  0.3643  0.2358 -0.5733
 4199SOL    HW124056   1.802   4.047   5.112  0.7065 -0.0210  0.4299
 4199SOL    HW224057   1.919   4.005   5.159  1.6417  0.7071 -1.2720
 4200SOL     OW24058   4.673   0.058   9.190  0.5231 -0.3892 -0.1291
 4200SOL    HW124059   4.717   4.696   9.190  0.0835 -0.6190 -0.5832
 4200SOL    HW224060   0.030   0.111   9.192 -0.2667  0.8546 -1.2105
 4201SOL     OW24061   3.460   0.304  11.692 -0.5210 -0.2877 -0.2177
 4201SOL    HW124062   3.468   0.303  11.597 -1.6303  1.8026 -0.3455
 4201SOL    HW224063   3.408   0.224  11.701 -1.3301 -0.0830 -2.9783
 4202SOL     OW24064   1.346   1.332   0.829 -1.0833 -0.0631  0.1685
 4202SOL    HW124065   1.430   1.287   0.827 -0.3783  1.2391  0.7340
 4202SOL    HW224066   1.358   1.395   0.758  0.7681 -0.5913  0.0158
 4203SOL     OW24067   0.369   1.991  17.251 -0.3574 -0.6031 -0.3204
 4203SOL    HW124068   0.403   1.910  17.290 -0.0126 -0.4418 -0.2885
 4203SOL    HW224069   0.448   2.040  17.275 -1.9909  1.4010  1.0171
 4204SOL     OW24070   4.056   3.415   3.945  0.0613 -0.1096  0.0670
 4204SOL    HW124071   4.136   3.465   3.960  0.2943 -0.1941 -0.9069
 4204SOL    HW224072   4.069   3.340   4.004  0.1674 -1.2492 -1.3840
 4205SOL     OW24073   3.040   4.233   7.016  0.5264 -0.0130 -0.4729
 4205SOL    HW124074   2.983   4.309   7.029  1.1166  0.6440 -1.7463
 4205SOL    HW224075   3.075   4.259   6.931 -1.0216 -0.2680 -1.1828
 4206SOL     OW24076   2.656   1.206   5.699 -0.3755  0.3132 -0.0793
 4206SOL    HW124077   2.618   1.141   5.758 -2.8551 -1.3667 -3.5608
 4206SOL    HW224078   2.641   1.287   5.747  1.1778  1.4855 -1.5366
 4207SOL     OW24079   3.743   4.392   5.409  0.3825 -0.1938  0.0364
 4207SOL    HW124080   3.664   4.442   5.429  1.1842  2.2881 -2.9376
 4207SOL    HW224081   3.711   4.340   5.335 -0.1175 -0.2855  0.3171
 4208SOL     OW24082   0.328   0.030   3.842 -0.1013 -0.5945  0.3290
 4208SOL    HW124083   0.337   0.107   3.786  0.0821  0.3491  1.6524
 4208SOL    HW224084   0.244   0.006   3.802 -0.8032  2.1003  0.1969
 4209SOL     OW24085   4.385   0.328   8.449 -0.1065 -0.1010 -0.1934
 4209SOL    HW124086   4.332   0.295   8.521  1.1228 -1.5255  0.0523
 4209SOL    HW224087   4.329   0.316   8.373 -0.2492  1.0669 -0.2709
 4210SOL     OW24088   4.311   0.006   1.558 -0.3214 -0.0560  0.2542
 4210SOL    HW124089   4.382   4.670   1.585 -0.5732  0.2765  1.6214
 4210SOL    HW224090   4.361   0.087   1.552 -0.7976  0.2620  0.6411
 4211SOL     OW24091   4.470   0.280   7.675 -0.6106  0.1301 -0.0497
 4211SOL    HW124092   4.450   0.249   7.587  4.0334 -0.1808 -1.0170
 4211SOL    HW224093   4.519   0.360   7.651 -0.6082 -0.4137 -1.8923
 4212SOL     OW24094   1.935   2.024   2.328 -0.1535 -0.1498  0.0580
 4212SOL    HW124095   1.980   2.066   2.255  1.5456 -0.6537  0.8270
 4212SOL    HW224096   1.893   2.098   2.372 -0.2130  0.0954 -0.4040
 4213SOL     OW24097   2.262   1.518   8.919 -0.4140 -0.0506  0.3964
 4213SOL    HW124098   2.229   1.607   8.933  2.4109  0.8724  1.1142
 4213SOL    HW224099   2.179   1.471   8.911 -0.1042 -0.2231 -1.9788
 4214SOL     OW24100   0.092   4.673   8.823 -0.0534  0.2333  0.4237
 4214SOL    HW124101   0.136   0.007   8.886 -1.5994  1.9163 -0.0198
 4214SOL    HW224102   0.092   4.589   8.870  0.8476  0.5272  0.9413
 4215SOL     OW24103   1.740   0.014   2.261  0.5581 -0.2470 -0.1126
 4215SOL    HW124104   1.801   0.018   2.187  1.4819  0.3653  0.6781
 4215SOL    HW224105   1.749   4.647   2.291  0.5478  0.3028  1.5150
 4216SOL     OW24106   2.617   0.582   6.531  0.2759  0.2805  0.3532
 4216SOL    HW124107   2.522   0.573   6.525  0.0967  1.3292  1.6526
 4216SOL    HW224108   2.634   0.559   6.439 -2.2528 -2.1099  0.4998
 4217SOL     OW24109   2.317   2.499   5.474 -0.7242  0.1874  0.3789
 4217SOL    HW124110   2.378   2.564   5.437 -1.2502  0.7618  0.5168
 4217SOL    HW224111   2.368   2.456   5.542  0.8715 -0.9968 -1.5724
 4218SOL     OW24112   4.597   0.427   6.116 -0.4999 -0.3451  0.7550
 4218SOL    HW124113   4.678   0.380   6.094  0.2364  0.6835  1.2769
 4218SOL    HW224114   4.598   0.490   6.044 -0.0568 -3.9094 -2.3593
 4219SOL     OW24115   4.270   1.775   3.940 -0.6151 -0.2696 -0.0281
 4219SOL    HW124116   4.290   1.841   4.007 -0.1439  1.3137 -1.7112
 4219SOL    HW224117   4.285   1.698   3.995  3.3636  0.8516  0.4994
 4220SOL     OW24118   2.451   3.184   5.586 -0.3135 -0.0236 -0.4080
 4220SOL    HW124119   2.466   3.235   5.506 -0.9635  0.3696 -0.2770
 4220SOL    HW224120   2.470   3.094   5.558  0.1876 -0.5217  1.4870
 4221SOL     OW24121   0.865   2.660   5.299 -0.3019  0.2709 -0.3610
 4221SOL    HW124122   0.927   2.693   5.364  1.1417 -0.6746 -1.2853
 4221SOL    HW224123   0.779   2.662   5.341 -0.0412 -2.1125  0.3021
 4222SOL     OW24124   1.898   0.035  12.583 -0.5642  0.6112 -0.0065
 4222SOL    HW124125   1.836   0.015  12.653 -0.9872 -1.8751 -1.0714
 4222SOL    HW224126   1.901   0.130  12.595 -0.1705  0.5195  0.6173
 4223SOL     OW24127   0.170   3.946   3.832 -0.4257 -0.1863 -0.1276
 4223SOL    HW124128   0.262   3.972   3.840 -0.5204 -0.2332  1.1294
 4223SOL    HW224129   0.174   3.878   3.764 -1.1454  0.3347 -0.6890
 4224SOL     OW24130   2.999   1.986   1.358  0.6096  0.0478 -0.5374
 4224SOL    HW124131   2.906   1.977   1.378  0.5464  2.1499  0.0693
 4224SOL    HW224132   3.028   1.895   1.361  1.3565  0.3640  1.2989
 4225SOL     OW24133   4.686   1.809   7.636  0.2729  0.1241  1.0032
 4225SOL    HW124134   4.632   1.737   7.667  0.3302 -1.0879 -1.6897
 4225SOL    HW224135   0.030   1.758   7.590 -1.5876 -1.6068  0.2170
 4226SOL     OW24136   3.370   2.090   5.773 -0.5536  0.0727  0.0505
 4226SOL    HW124137   3.419   2.169   5.748  1.9343 -1.3748  0.2882
 4226SOL    HW224138   3.337   2.116   5.859 -0.7408  2.4523 -0.7505
 4227SOL     OW24139   4.105   3.909   7.860 -0.0802 -0.6518  0.1397
 4227SOL    HW124140   4.188   3.931   7.818  0.2922 -2.9195 -0.3118
 4227SOL    HW224141   4.048   3.942   7.791  1.7400  0.5190 -0.8078
 4228SOL     OW24142   3.434   3.492   3.170 -0.1545  0.4411 -0.3244
 4228SOL    HW124143   3.452   3.555   3.101  1.1957 -1.1452 -1.3922
 4228SOL    HW224144   3.521   3.454   3.176  0.7558  2.5171 -0.4460
 4229SOL     OW24145   4.551   1.719  16.438  0.2835 -0.3718  0.0567
 4229SOL    HW124146   4.459   1.744  16.427 -0.0852 -1.7929 -0.0427
 4229SOL    HW224147   4.592   1.802  16.460 -1.9038  0.4334  1.0980
 4230SOL     OW24148   4.242   2.631   6.491  0.0151  0.6456  0.1145
 4230SOL    HW124149   4.154   2.594   6.498 -0.0490  0.3533 -2.0773
 4230SOL    HW224150   4.302   2.580   6.545 -0.1023 -0.8683 -1.1772
 4231SOL     OW24151   1.057   1.025   4.377 -0.8881  0.0147 -0.1558
 4231SOL    HW124152   0.990   1.083   4.412  0.4388  1.5241 -0.1444
 4231SOL    HW224153   1.132   1.084   4.383  0.6516 -1.7164 -2.0120
 4232SOL     OW24154   0.780   3.168   5.809 -0.6388 -0.2489  0.5505
 4232SOL    HW124155   0.830   3.225   5.751  0.2801 -1.2034  0.4173
 4232SOL    HW224156   0.706   3.227   5.822 -0.6531 -0.5867  1.9902
 4233SOL     OW24157   0.429   2.645  15.932  0.5335 -0.2089  0.0979
 4233SOL    HW124158   0.453   2.598  15.852  0.7234 -0.9853  0.6195
 4233SOL    HW224159   0.397   2.723  15.885  2.5770  1.2370  1.1152
 4234SOL     OW24160   2.868   2.717   4.116 -0.4472  0.4702 -0.5315
 4234SOL    HW124161   2.924   2.646   4.146 -2.3608 -0.7277  0.1729
 4234SOL    HW224162   2.912   2.748   4.037  0.5306 -0.6179 -0.4164
 4235SOL     OW24163   2.775   3.884  16.453 -0.3512 -0.0158  0.4371
 4235SOL    HW124164   2.727   3.954  16.496 -0.8629  0.3833 -0.7914
 4235SOL    HW224165   2.739   3.890  16.365  1.7077 -2.6190 -0.5867
 4236SOL     OW24166   4.390   3.943   0.932  0.5166 -0.5082  0.5946
 4236SOL    HW124167   4.314   3.948   0.873  0.6977  2.9008  0.6639
 4236SOL    HW224168   4.360   3.887   1.004 -0.4529  1.8900  2.0771
 4237SOL     OW24169   3.835   0.970  13.863 -0.1665 -0.0289  0.1182
 4237SOL    HW124170   3.831   0.959  13.958 -2.0851  0.3591  0.0796
 4237SOL    HW224171   3.847   1.064  13.851  1.5760 -0.4250 -1.3035
 4238SOL     OW24172   4.225   0.876   1.182 -0.1145 -0.2572  0.0792
 4238SOL    HW124173   4.212   0.901   1.091 -0.5914 -0.0967  0.1904
 4238SOL    HW224174   4.251   0.785   1.170 -0.7237 -0.6316  1.5156
 4239SOL     OW24175   0.415   0.312   4.445  0.2528  0.2840 -0.1787
 4239SOL    HW124176   0.326   0.331   4.413  0.1004  0.9314  0.6194
 4239SOL    HW224177   0.416   0.217   4.434  1.3056  0.1842  0.7694
 4240SOL     OW24178   2.081   2.806   8.052 -0.0139  0.3592  0.3810
 4240SOL    HW124179   2.065   2.825   8.144  1.0728  0.3006  0.5797
 4240SOL    HW224180   2.093   2.711   8.055 -1.6528  0.0993 -1.0984
 4241SOL     OW24181   0.322   2.969   9.444  0.5951  0.5176  0.0986
 4241SOL    HW124182   0.394   2.906   9.453  0.3696  0.1307 -0.7778
 4241SOL    HW224183   0.273   2.937   9.520  0.8506 -0.6435 -0.2140
 4242SOL     OW24184   3.714   1.461   5.627  0.1687  0.1933  0.3369
 4242SOL    HW124185   3.788   1.522   5.629  1.0118 -0.8637  1.4723
 4242SOL    HW224186   3.645   1.518   5.593 -0.2680 -1.6149 -1.7665
 4243SOL     OW24187   1.077   2.537   3.693 -0.0675  0.1232 -0.1447
 4243SOL    HW124188   1.034   2.480   3.757  0.2655 -0.2702 -0.2660
 4243SOL    HW224189   1.126   2.591   3.754  2.0867  0.5086 -2.1875
 4244SOL     OW24190   3.183   4.319   8.076 -0.0038 -0.1335 -0.5122
 4244SOL    HW124191   3.097   4.322   8.036  0.3330  0.5777 -1.1837
 4244SOL    HW224192   3.215   4.397   8.031  0.8411  0.3249  0.8938
 4245SOL     OW24193   1.707   3.156   0.670 -0.0674  0.2004 -0.2264
 4245SOL    HW124194   1.673   3.090   0.730  0.6270  1.1864  1.2571
 4245SOL    HW224195   1.799   3.146   0.697 -0.1986  0.2447  0.2439
 4246SOL     OW24196   0.898   0.420  16.144  0.0784 -0.1851 -1.1394
 4246SOL    HW124197   0.819   0.473  16.149  0.8718  1.1379 -2.6466
 4246SOL    HW224198   0.850   0.339  16.162 -0.2308 -0.1661 -1.8434
 4247SOL     OW24199   4.177   1.537   9.840 -0.3076 -0.1609  0.4191
 4247SOL    HW124200   4.155   1.628   9.819  1.6385 -0.2179 -1.9407
 4247SOL    HW224201   4.167   1.537   9.935 -0.4398 -0.5171  0.4033
 4248SOL     OW24202   4.373   2.466   9.208 -0.1821  0.4672  0.1786
 4248SOL    HW124203   4.407   2.531   9.269  0.2342  1.7220 -1.3912
 4248SOL    HW224204   4.437   2.396   9.214 -0.8430 -0.1825 -0.3616
 4249SOL     OW24205   4.633   3.344   9.653  0.4976  0.9515  0.4971
 4249SOL    HW124206   4.664   3.372   9.566 -1.5858  0.9949 -0.2281
 4249SOL    HW224207   4.560   3.286   9.631  1.5230 -0.5439  0.9889
 4250SOL     OW24208   3.973   3.272  11.011  0.0939 -0.1538 -0.0351
 4250SOL    HW124209   3.902   3.224  11.055  0.1697 -0.9113 -0.7437
 4250SOL    HW224210   3.956   3.245  10.921  0.2033 -1.0516  0.2044
 4251SOL     OW24211   0.181   1.903   2.818 -0.0356 -0.0909  0.2942
 4251SOL    HW124212   0.097   1.950   2.818  0.0460  0.0503  3.2451
 4251SOL    HW224213   0.232   1.928   2.741  1.5114 -0.6131  1.1520
 4252SOL     OW24214   2.747   4.175  10.607  0.0055  0.7935  0.0665
 4252SOL    HW124215   2.837   4.161  10.577 -0.0602  0.1468  0.1571
 4252SOL    HW224216   2.773   4.240  10.672 -1.0429 -0.5989  1.8802
 4253SOL     OW24217   4.448   1.028  14.196 -0.1395 -0.2329 -0.4939
 4253SOL    HW124218   4.473   0.936  14.193 -3.7541 -1.2694  1.3326
 4253SOL    HW224219   4.397   1.028  14.277 -0.5297 -0.7237 -0.7452
 4254SOL     OW24220   0.959   2.524   3.084 -0.1703 -0.5311 -0.3707
 4254SOL    HW124221   0.977   2.512   3.177  0.3777 -0.9023 -0.5262
 4254SOL    HW224222   0.877   2.475   3.087 -1.0202  1.0105  1.6389
 4255SOL     OW24223   0.762   0.364   5.639 -0.1145 -0.2734 -0.1802
 4255SOL    HW124224   0.804   0.395   5.719  0.3995  0.6015 -0.7754
 4255SOL    HW224225   0.719   0.288   5.677  0.3066 -0.9170 -0.9756
 4256SOL     OW24226   1.108   4.270   1.877  0.3413  0.2322  0.1971
 4256SOL    HW124227   1.053   4.347   1.871 -0.1450 -0.1830 -0.7028
 4256SOL    HW224228   1.052   4.202   1.914  2.7108 -1.3870  0.8147
 4257SOL     OW24229   2.488   2.669  10.337 -0.1847  0.0191  0.0733
 4257SOL    HW124230   2.550   2.738  10.361 -0.4903  0.7951 -1.3735
 4257SOL    HW224231   2.548   2.595  10.331  0.3811  0.3817  1.2513
 4258SOL     OW24232   3.948   0.716   5.996 -0.5949  0.4340  0.1892
 4258SOL    HW124233   3.986   0.721   6.084 -1.1087  0.9893  0.3756
 4258SOL    HW224234   3.930   0.806   5.969 -0.3923  0.9179  1.6861
 4259SOL     OW24235   1.917   1.109   7.228 -0.0305 -0.3977 -0.0289
 4259SOL    HW124236   1.943   1.032   7.178 -0.3107  1.0872 -2.4611
 4259SOL    HW224237   1.891   1.170   7.159  0.9977  0.7884  0.6409
 4260SOL     OW24238   3.656   0.011   5.593 -0.2949  0.0026 -0.5030
 4260SOL    HW124239   3.743   4.709   5.560 -0.1496  0.6047 -0.5774
 4260SOL    HW224240   3.678   0.104   5.603 -1.0283  0.1010  0.1149
 4261SOL     OW24241   1.284   2.034   5.920  0.4171  0.4056  0.1527
 4261SOL    HW124242   1.314   2.002   5.835 -0.4481  0.6165 -0.2310
 4261SOL    HW224243   1.192   2.054   5.905  0.7987 -0.1300 -2.9036
 4262SOL     OW24244   4.511   2.034  16.848 -0.2245  0.2611  0.1605
 4262SOL    HW124245   4.583   1.979  16.819  1.2934  1.7484  1.0579
 4262SOL    HW224246   4.530   2.050  16.941 -2.0739  1.1771  0.4014
 4263SOL     OW24247   2.142   0.683  11.946  0.4207  0.0038  0.7310
 4263SOL    HW124248   2.143   0.615  12.014  0.0072 -0.9931 -0.2661
 4263SOL    HW224249   2.198   0.654  11.874  0.0986 -1.1243  0.9279
 4264SOL     OW24250   4.424   2.428  10.597 -0.3168 -0.1165  0.2956
 4264SOL    HW124251   4.389   2.482  10.668 -1.3377 -0.3944  0.0133
 4264SOL    HW224252   4.409   2.482  10.519  1.2231 -0.5352 -0.2907
 4265SOL     OW24253   3.053   2.579   3.052 -0.3350  0.5813 -0.0729
 4265SOL    HW124254   3.046   2.486   3.030  0.9120  0.8660 -1.7083
 4265SOL    HW224255   2.976   2.598   2.997 -1.0055  0.1761  0.7199
 4266SOL     OW24256   1.721   3.514   4.965 -0.2296 -0.0206 -0.3685
 4266SOL    HW124257   1.770   3.596   4.979  1.4058 -1.0802  0.1150
 4266SOL    HW224258   1.715   3.519   4.869 -1.4967 -1.1345 -0.3371
 4267SOL     OW24259   1.023   2.863   3.307  0.5813 -0.1260  0.1705
 4267SOL    HW124260   1.025   2.790   3.369  1.1643 -0.5028 -0.2899
 4267SOL    HW224261   0.934   2.895   3.321  0.8750  0.0469  1.7454
 4268SOL     OW24262   3.662   1.436  13.783  0.0726  0.1357 -0.7943
 4268SOL    HW124263   3.582   1.394  13.752  1.5802 -2.3138 -1.3853
 4268SOL    HW224264   3.713   1.360  13.811  0.3310  1.0545  1.2479
 4269SOL     OW24265   3.846   4.456   5.744  0.0663  0.5403 -0.2429
 4269SOL    HW124266   3.892   4.396   5.686 -0.1216  1.5239 -1.4169
 4269SOL    HW224267   3.874   4.547   5.732 -0.4723  0.5347 -1.5887
 4270SOL     OW24268   0.180   1.924  10.529  0.4229  0.2152 -0.3900
 4270SOL    HW124269   0.121   1.958  10.461  1.9491  2.1372 -0.7602
 4270SOL    HW224270   0.114   1.921  10.598  0.8430  0.7449  0.0377
 4271SOL     OW24271   1.608   2.335   2.774 -0.1972 -0.5313 -0.4633
 4271SOL    HW124272   1.612   2.429   2.753 -2.1232 -0.4766 -0.6099
 4271SOL    HW224273   1.540   2.327   2.841  1.5387 -2.5396  1.0417
 4272SOL     OW24274   4.054   1.344   6.698  0.1531  0.2830  0.2190
 4272SOL    HW124275   4.100   1.413   6.745  0.6023 -0.3905  0.7691
 4272SOL    HW224276   4.014   1.302   6.774  1.2547 -0.9352  0.1344
 4273SOL     OW24277   3.837   3.881   7.595 -0.1594  0.4569 -0.0867
 4273SOL    HW124278   3.879   3.966   7.580 -2.5930  1.6054 -0.4791
 4273SOL    HW224279   3.814   3.888   7.688 -0.8017  2.3533 -0.3757
 4274SOL     OW24280   0.735   4.557   8.407  0.2358  0.1704  0.3055
 4274SOL    HW124281   0.779   4.493   8.464  1.4972  0.6918 -0.0776
 4274SOL    HW224282   0.715   4.508   8.327  1.3391  1.6277 -0.8560
 4275SOL     OW24283   3.450   2.680   9.806  0.6488 -0.3716 -0.5561
 4275SOL    HW124284   3.410   2.695   9.720 -2.2585  3.3734  1.4811
 4275SOL    HW224285   3.483   2.768   9.822 -0.8522 -0.0152  0.5338
 4276SOL     OW24286   3.776   3.961   1.452 -0.4712 -0.7492  0.0798
 4276SOL    HW124287   3.685   3.980   1.429  0.1563  3.2913  0.9972
 4276SOL    HW224288   3.820   4.037   1.415 -0.5495 -1.4808 -1.5484
 4277SOL     OW24289   2.153   1.389  15.908  0.2366 -0.6280 -0.2717
 4277SOL    HW124290   2.184   1.450  15.975 -0.6131 -0.0397 -0.4234
 4277SOL    HW224291   2.181   1.304  15.943 -0.9611 -2.0437 -2.7537
 4278SOL     OW24292   1.183   3.086   3.337 -0.1305  0.1300 -0.0537
 4278SOL    HW124293   1.175   2.996   3.304  1.6042  0.0910 -0.3642
 4278SOL    HW224294   1.279   3.088   3.343 -0.2090  2.8446  0.2561
 4279SOL     OW24295   0.499   3.833   8.065 -0.1709 -0.5758 -0.0273
 4279SOL    HW124296   0.485   3.897   7.994 -0.4227 -1.2486 -0.5806
 4279SOL    HW224297   0.587   3.863   8.087  0.0117 -0.7060 -0.5754
 4280SOL     OW24298   1.816   4.233   9.421  0.2276  0.1506 -0.1554
 4280SOL    HW124299   1.759   4.184   9.480  1.4436  0.3871  1.2234
 4280SOL    HW224300   1.896   4.222   9.473 -1.8326  1.0481  3.2042
 4281SOL     OW24301   4.271   0.229   8.188 -0.5418  0.2658  0.1611
 4281SOL    HW124302   4.262   0.232   8.093 -2.0599 -0.1473  0.3050
 4281SOL    HW224303   4.244   0.139   8.206 -3.2619  1.1306  0.3020
 4282SOL     OW24304   1.768   4.276   9.798  0.3584 -0.1529 -0.1771
 4282SOL    HW124305   1.833   4.310   9.736 -0.0329  0.8705 -0.0237
 4282SOL    HW224306   1.790   4.322   9.879 -2.9550  0.5236  0.3603
 4283SOL     OW24307   1.585   0.174  15.719  0.4124  0.2640 -0.1807
 4283SOL    HW124308   1.675   0.205  15.732  0.0551  2.0953 -1.9630
 4283SOL    HW224309   1.593   0.117  15.642 -2.4025 -1.2882  0.6582
 4284SOL     OW24310   0.217   2.033   5.154  1.2248 -0.4435 -0.1194
 4284SOL    HW124311   0.240   2.112   5.203 -2.4445 -1.2316  2.8657
 4284SOL    HW224312   0.194   1.980   5.230 -0.4795  0.1323 -0.2450
 4285SOL     OW24313   1.507   4.104   3.508 -0.3953 -0.3823  0.1852
 4285SOL    HW124314   1.525   4.015   3.540 -0.6643  0.3273  2.2909
 4285SOL    HW224315   1.459   4.091   3.426 -1.4491  2.4308  0.3662
 4286SOL     OW24316   1.587   0.982   0.692  0.4251 -0.6593 -0.0419
 4286SOL    HW124317   1.496   0.996   0.666  1.7201  1.9376 -3.2108
 4286SOL    HW224318   1.637   1.001   0.612  0.1565  3.6694  0.7816
 4287SOL     OW24319   3.581   1.039   4.722  0.3856  0.4580  0.1211
 4287SOL    HW124320   3.574   0.968   4.787 -0.5470  0.3654 -0.0799
 4287SOL    HW224321   3.495   1.021   4.685 -1.1455  0.1197  3.8093
 4288SOL     OW24322   1.114   0.343   2.922 -0.0139  0.0271 -0.0540
 4288SOL    HW124323   1.185   0.400   2.892  0.8330 -0.0557  1.7949
 4288SOL    HW224324   1.170   0.273   2.956 -0.9900 -0.1112  1.2744
 4289SOL     OW24325   1.093   4.535   5.335  0.3095  0.3104  0.7402
 4289SOL    HW124326   1.185   4.530   5.361 -0.1732  0.4107  2.4135
 4289SOL    HW224327   1.053   4.561   5.418 -1.6979  1.6971 -0.6626
 4290SOL     OW24328   3.475   1.152   8.731 -0.0927 -0.5517 -0.0083
 4290SOL    HW124329   3.397   1.110   8.694 -1.7023 -0.4165  3.2422
 4290SOL    HW224330   3.468   1.114   8.818  2.6197  2.0662  1.3474
 4291SOL     OW24331   3.152   3.523   3.173  0.1805  0.3882  0.2072
 4291SOL    HW124332   3.243   3.515   3.143  0.9049  3.1006  1.6539
 4291SOL    HW224333   3.160   3.531   3.268 -3.3595 -1.8620  0.6714
 4292SOL     OW24334   3.923   1.849  17.520  0.2398 -0.2784 -0.2061
 4292SOL    HW124335   3.981   1.924  17.511 -1.0542  0.6033 -1.1983
 4292SOL    HW224336   3.903   1.863  17.613  0.2696 -0.7241 -0.1322
 4293SOL     OW24337   2.311   3.535   3.725 -0.2980  0.4421  0.1449
 4293SOL    HW124338   2.345   3.620   3.697 -0.3024  0.4050  0.0256
 4293SOL    HW224339   2.224   3.571   3.738 -1.4099 -2.2265  0.0348
 4294SOL     OW24340   4.569   3.704   0.903 -0.3650  0.2077  0.0994
 4294SOL    HW124341   4.498   3.767   0.917 -0.2290  0.3760  0.0213
 4294SOL    HW224342   4.603   3.734   0.819  1.6246 -2.5097 -0.0757
 4295SOL     OW24343   3.533   3.971   1.080 -0.1696  0.4881  0.0745
 4295SOL    HW124344   3.610   4.022   1.103  0.3122  0.4263 -1.4221
 4295SOL    HW224345   3.527   3.903   1.147  0.4241  0.0136 -0.3512
 4296SOL     OW24346   0.357   2.410   2.026 -0.0293 -0.4373  0.1115
 4296SOL    HW124347   0.423   2.390   2.093  0.0871 -2.8001 -0.6922
 4296SOL    HW224348   0.281   2.355   2.048  1.1281 -2.1169 -0.0810
 4297SOL     OW24349   4.441   1.963   9.655 -0.3808  0.9710  0.2144
 4297SOL    HW124350   4.520   1.915   9.630  0.5886  1.7199  1.7659
 4297SOL    HW224351   4.418   2.003   9.571 -0.4233  0.5811  0.0414
 4298SOL     OW24352   3.549   2.550   1.205 -0.4888  0.3052  0.2405
 4298SOL    HW124353   3.463   2.537   1.243  1.3418 -2.3784  3.4204
 4298SOL    HW224354   3.532   2.524   1.115 -0.3429 -3.9754  1.4491
 4299SOL     OW24355   3.027   4.201  15.595 -0.0598  0.2274  0.6800
 4299SOL    HW124356   3.100   4.241  15.548 -2.3543  1.7744 -1.5802
 4299SOL    HW224357   3.051   4.221  15.685 -1.8881 -0.6927  1.3884
 4300SOL     OW24358   2.639   2.743   2.970 -0.1005  0.2061  0.8879
 4300SOL    HW124359   2.639   2.836   2.949  0.5310  0.4417  1.9687
 4300SOL    HW224360   2.632   2.701   2.884 -0.0359  1.0254  0.4856
 4301SOL     OW24361   0.897   0.684   7.740  0.1929  0.7428  0.2459
 4301SOL    HW124362   0.805   0.699   7.764 -1.0696 -1.8113 -2.9727
 4301SOL    HW224363   0.899   0.590   7.759  2.6251  0.6521 -0.4387
 4302SOL     OW24364   4.671   2.802   3.065 -0.4828  0.0381  0.3096
 4302SOL    HW124365   4.652   2.828   2.975  1.3491 -2.2100 -0.7425
 4302SOL    HW224366   0.036   2.765   3.061 -1.6790 -2.5544 -1.6324
 4303SOL     OW24367   4.268   3.174  12.168 -0.4122 -0.3429  0.4749
 4303SOL    HW124368   4.206   3.129  12.110  0.0613 -0.3074 -0.0570
 4303SOL    HW224369   4.327   3.226  12.115 -0.4625  0.4982  1.2456
 4304SOL     OW24370   4.314   3.822   3.605  0.3052  0.4926 -0.0304
 4304SOL    HW124371   4.407   3.834   3.622  0.0903  0.0620  1.4668
 4304SOL    HW224372   4.294   3.775   3.686 -1.0145  0.8954 -0.1247
 4305SOL     OW24373   1.911   2.932   0.718  0.1793  0.2463  0.0135
 4305SOL    HW124374   1.931   2.985   0.796 -0.1620  0.8344 -0.2976
 4305SOL    HW224375   1.816   2.919   0.718 -0.0441  1.7946 -0.1104
 4306SOL     OW24376   1.916   3.553   5.278  0.8111  0.1111  0.6063
 4306SOL    HW124377   1.889   3.613   5.209 -0.0822 -1.4641 -0.4249
 4306SOL    HW224378   2.005   3.583   5.298  0.9601  0.4034 -0.5050
 4307SOL     OW24379   1.340   3.189  15.196  0.4180 -0.3067 -0.1068
 4307SOL    HW124380   1.418   3.171  15.248 -0.5598 -1.0383  1.0946
 4307SOL    HW224381   1.370   3.140  15.120 -2.2050  1.8909 -2.5701
 4308SOL     OW24382   0.959   0.970  13.299 -0.4299  0.6259 -0.0310
 4308SOL    HW124383   0.961   1.027  13.376  0.5772 -1.9916  1.8737
 4308SOL    HW224384   1.021   0.898  13.310  0.3472  1.3279  0.1911
 4309SOL     OW24385   2.960   1.068  17.156  0.2652 -0.0964  0.2610
 4309SOL    HW124386   2.999   1.126  17.221 -2.3616  0.7466  1.0858
 4309SOL    HW224387   2.976   0.985  17.201 -1.1846 -0.8638 -0.6544
 4310SOL     OW24388   1.792   3.646   6.654  0.0909 -0.1943 -0.4750
 4310SOL    HW124389   1.753   3.727   6.620  0.1955 -0.2185 -0.6572
 4310SOL    HW224390   1.719   3.589   6.631 -1.7992  1.4979  1.4758
 4311SOL     OW24391   1.937   1.500   2.740  0.3453  0.2487 -0.5616
 4311SOL    HW124392   1.850   1.511   2.779 -0.2130  0.7045 -1.9176
 4311SOL    HW224393   1.893   1.470   2.660  1.5567 -1.5657 -0.5504
 4312SOL     OW24394   3.876   3.111   6.691 -0.1184 -0.1209 -0.2452
 4312SOL    HW124395   3.958   3.154   6.719 -0.8532 -0.4339  2.4346
 4312SOL    HW224396   3.907   3.027   6.657 -1.6685 -0.7699 -0.0263
 4313SOL     OW24397   2.039   2.460   1.795  0.2209 -0.1099 -0.1116
 4313SOL    HW124398   2.000   2.488   1.712 -0.2635 -0.0753  0.1282
 4313SOL    HW224399   2.102   2.530   1.814 -0.8367  0.6839  0.5011
 4314SOL     OW24400   0.818   2.577   4.483  0.5368 -0.4489  0.0388
 4314SOL    HW124401   0.828   2.656   4.430 -4.1614  0.7631  1.0374
 4314SOL    HW224402   0.837   2.619   4.567 -1.0016 -0.0520  0.1793
 4315SOL     OW24403   4.435   0.428   9.490  0.1178  0.1603 -0.3943
 4315SOL    HW124404   4.476   0.507   9.456 -1.3022  0.9342 -0.2849
 4315SOL    HW224405   4.503   0.362   9.477  0.5693  0.2647  1.4288
 4316SOL     OW24406   2.665   1.857   9.821 -0.1037  0.3057 -0.0992
 4316SOL    HW124407   2.695   1.939   9.782  1.2621 -0.7887 -1.3737
 4316SOL    HW224408   2.708   1.864   9.907  1.3657 -2.9409 -0.5801
 4317SOL     OW24409   3.551   4.353   9.399 -0.2280 -0.2801  0.3303
 4317SOL    HW124410   3.528   4.277   9.454  3.2306  0.0518  2.2066
 4317SOL    HW224411   3.501   4.331   9.321 -0.9148 -0.0655  0.7003
 4318SOL     OW24412   0.362   3.143   0.441  0.3022  0.2940  0.5737
 4318SOL    HW124413   0.362   3.048   0.433 -1.9697  0.5709 -2.7111
 4318SOL    HW224414   0.267   3.152   0.446  0.2118  1.7826 -3.4056
 4319SOL     OW24415   1.021   0.510   7.922 -0.3191  0.2902  0.9076
 4319SOL    HW124416   1.014   0.592   7.970 -0.3314  1.2326 -0.6891
 4319SOL    HW224417   0.930   0.483   7.930 -0.4929  0.6202  0.0389
 4320SOL     OW24418   1.193   1.295   6.890 -0.0861  0.0107  0.4330
 4320SOL    HW124419   1.248   1.347   6.832  0.5805 -0.3883  0.6971
 4320SOL    HW224420   1.255   1.275   6.961  0.3763  2.0400  0.5907
 4321SOL     OW24421   3.580   1.166  15.983 -0.2090  0.2229 -0.5392
 4321SOL    HW124422   3.545   1.159  15.894 -0.2563 -0.5777 -0.4577
 4321SOL    HW224423   3.510   1.135  16.041 -0.5308  0.2790 -0.8993
 4322SOL     OW24424   4.216   4.439   3.176  0.2390 -0.3605 -0.3675
 4322SOL    HW124425   4.167   4.383   3.116  3.0381 -0.9343 -2.1088
 4322SOL    HW224426   4.294   4.455   3.123  1.0420 -0.7718  0.7103
 4323SOL     OW24427   2.446   4.479  10.510  0.0700 -0.0578 -0.1069
 4323SOL    HW124428   2.475   4.548  10.570 -0.9768 -1.3820  1.8986
 4323SOL    HW224429   2.521   4.488  10.452  0.0218  2.4964  0.1991
 4324SOL     OW24430   4.632   1.474   9.139  0.3375 -0.2152 -0.3969
 4324SOL    HW124431   4.631   1.431   9.224 -0.1979  1.4302  0.4450
 4324SOL    HW224432   4.684   1.421   9.079 -1.2862 -0.4514 -1.5757
 4325SOL     OW24433   2.211   3.352   2.572  0.3661  0.2411  0.3659
 4325SOL    HW124434   2.179   3.335   2.661 -1.5031 -1.8300 -0.6881
 4325SOL    HW224435   2.269   3.277   2.555  0.0633 -0.2910  1.6804
 4326SOL     OW24436   1.207   4.455  16.513  0.1984  0.2814 -0.3487
 4326SOL    HW124437   1.289   4.427  16.472  1.0619  2.7948 -0.4122
 4326SOL    HW224438   1.167   4.498  16.438 -1.0104 -0.0887  0.0951
 4327SOL     OW24439   0.781   2.021   8.550  0.0590 -0.1944  0.5335
 4327SOL    HW124440   0.735   1.944   8.519  1.9969 -0.6977 -1.1127
 4327SOL    HW224441   0.834   2.031   8.470 -3.1025 -0.3063 -1.5430
 4328SOL     OW24442   0.251   4.392   2.722  0.2566 -0.0046  0.6717
 4328SOL    HW124443   0.288   4.312   2.685 -1.6222  0.5031 -2.2809
 4328SOL    HW224444   0.217   4.350   2.802  0.3939 -0.8544  0.2818
 4329SOL     OW24445   4.185   1.537   4.738 -0.0234 -0.4540 -0.3969
 4329SOL    HW124446   4.155   1.447   4.721 -1.5362 -0.3581  1.7958
 4329SOL    HW224447   4.135   1.582   4.670 -0.8498 -0.4954  0.1814
 4330SOL     OW24448   2.329   3.305   1.758 -0.1807  0.7210  0.5013
 4330SOL    HW124449   2.394   3.287   1.826 -0.5976  2.4452  1.3652
 4330SOL    HW224450   2.366   3.266   1.678 -0.7459 -0.7718  0.9750
 4331SOL     OW24451   4.712   0.724  16.784 -0.3650 -0.4489 -0.1351
 4331SOL    HW124452   4.719   0.630  16.765 -1.3688 -0.6948  0.7030
 4331SOL    HW224453   4.616   0.730  16.778 -0.2227  1.4158 -0.5218
 4332SOL     OW24454   3.561   3.520   9.005 -0.4066 -0.4146 -0.3213
 4332SOL    HW124455   3.583   3.445   8.951  0.5997  1.3708 -2.3734
 4332SOL    HW224456   3.515   3.483   9.080  0.2599 -1.1147 -0.2575
 4333SOL     OW24457   1.806   3.002   3.402 -0.0496 -0.1609 -0.2143
 4333SOL    HW124458   1.769   3.084   3.369  0.1772 -0.0723 -0.2438
 4333SOL    HW224459   1.899   3.014   3.383 -0.4182 -0.8953 -2.4691
 4334SOL     OW24460   4.036   1.168   0.297  0.1436  1.0058  0.3729
 4334SOL    HW124461   4.017   1.076   0.315 -3.3175  1.1122 -2.6163
 4334SOL    HW224462   4.088   1.163   0.217  0.7503 -3.1008  1.0174
 4335SOL     OW24463   1.518   0.316   8.204 -0.0482 -0.0775  0.5972
 4335SOL    HW124464   1.593   0.314   8.264 -0.0423 -1.5249  0.5416
 4335SOL    HW224465   1.449   0.362   8.252  1.8452  0.1815  3.0604
 4336SOL     OW24466   1.382   0.372   2.816 -0.6318  0.4622  0.6559
 4336SOL    HW124467   1.360   0.294   2.765  0.7516  1.2316 -1.1284
 4336SOL    HW224468   1.427   0.321   2.884 -0.3061 -1.2641 -0.8498
 4337SOL     OW24469   0.513   2.765   8.954  0.7602  0.2370  0.0068
 4337SOL    HW124470   0.457   2.750   9.030 -0.0756  1.9145 -0.2914
 4337SOL    HW224471   0.600   2.741   8.987  0.6695  0.1707  0.1991
 4338SOL     OW24472   3.962   3.754   7.176 -0.5587  0.0769  0.0974
 4338SOL    HW124473   3.934   3.663   7.170  0.2296 -0.0914 -0.8799
 4338SOL    HW224474   4.047   3.757   7.134 -0.4958 -0.6135  0.1714
 4339SOL     OW24475   0.596   0.873   3.791  0.4401  0.2780 -0.4764
 4339SOL    HW124476   0.505   0.866   3.761  0.3983 -1.1120 -0.0562
 4339SOL    HW224477   0.646   0.843   3.715 -0.5908  0.5399 -1.2610
 4340SOL     OW24478   2.601   4.322   8.317  0.2247  0.0766 -0.0289
 4340SOL    HW124479   2.520   4.373   8.324 -0.0594 -0.5338  1.1063
 4340SOL    HW224480   2.573   4.234   8.341  0.2411  0.6268  2.0360
 4341SOL     OW24481   1.908   4.409   7.252 -0.1362  0.2835 -0.3260
 4341SOL    HW124482   1.921   4.474   7.183  2.1839 -1.6326 -1.6865
 4341SOL    HW224483   1.812   4.400   7.250 -0.1663  1.2538 -3.7795
 4342SOL     OW24484   0.204   2.587  12.338  0.2789  0.1849 -0.1086
 4342SOL    HW124485   0.130   2.648  12.332  0.7416  1.0371  2.5582
 4342SOL    HW224486   0.248   2.610  12.420  0.2824  0.0871 -0.0834
 4343SOL     OW24487   2.370   0.936  12.312  0.2865 -0.1880  0.2167
 4343SOL    HW124488   2.342   0.846  12.330 -0.6437  0.2889  1.1582
 4343SOL    HW224489   2.350   0.977  12.396 -0.1263 -0.4532  0.2487
 4344SOL     OW24490   2.641   1.314   1.214 -0.4684  0.3351 -0.1180
 4344SOL    HW124491   2.655   1.267   1.131 -1.3252  0.4535 -0.3285
 4344SOL    HW224492   2.659   1.405   1.191 -1.3629  0.1214 -1.7070
 4345SOL     OW24493   2.006   0.222   4.416  0.2626 -0.0496 -0.4056
 4345SOL    HW124494   1.989   0.133   4.386 -1.0260  1.0028 -2.7842
 4345SOL    HW224495   2.037   0.199   4.504 -2.9421 -0.5684  0.5846
 4346SOL     OW24496   0.493   4.636  13.327  0.0765  0.0465  0.8041
 4346SOL    HW124497   0.451   4.570  13.272  0.3194  0.2512  0.3773
 4346SOL    HW224498   0.542   4.587  13.393  1.5774 -1.9782 -1.8526
 4347SOL     OW24499   0.400   0.424   6.815  0.1862 -0.2223 -0.1616
 4347SOL    HW124500   0.311   0.461   6.818  0.1356 -0.4107  0.7373
 4347SOL    HW224501   0.452   0.488   6.767 -1.7530  1.4925  0.0203
 4348SOL     OW24502   3.718   2.466   8.694  0.1340  0.2615  0.1446
 4348SOL    HW124503   3.742   2.433   8.607 -1.5921 -1.2303  0.2177
 4348SOL    HW224504   3.683   2.388   8.739 -1.6985  1.8201  1.4181
 4349SOL     OW24505   2.542   2.751   8.895 -0.1371  0.0808  0.0569
 4349SOL    HW124506   2.554   2.656   8.897 -1.1657 -0.0420  0.5760
 4349SOL    HW224507   2.502   2.772   8.980 -0.8902  2.5055 -0.8977
 4350SOL     OW24508   0.525   1.784   6.116  0.1559  0.4644 -0.0794
 4350SOL    HW124509   0.541   1.795   6.022 -0.4531  0.6979 -0.1513
 4350SOL    HW224510   0.484   1.698   6.107  0.5832  0.3744 -1.2487
 4351SOL     OW24511   1.077   3.207  16.265  0.3703  0.3739  0.5775
 4351SOL    HW124512   1.051   3.150  16.338 -3.0317  1.9551  0.6448
 4351SOL    HW224513   1.133   3.144  16.219  0.2076 -0.6844  1.8218
 4352SOL     OW24514   3.177   1.439   8.154  0.6341 -0.6472 -0.0461
 4352SOL    HW124515   3.221   1.448   8.239 -0.4635  1.8938  0.2573
 4352SOL    HW224516   3.163   1.530   8.128 -2.0482 -0.7529  1.1094
 4353SOL     OW24517   3.871   0.868   4.942  0.5384 -0.3583  0.8388
 4353SOL    HW124518   3.896   0.960   4.932  0.2208 -0.4288 -0.5546
 4353SOL    HW224519   3.819   0.862   4.862 -1.0499 -3.5773  2.1201
 4354SOL     OW24520   0.048   1.207  11.093  0.3314 -0.2037 -0.1360
 4354SOL    HW124521   0.002   1.208  11.177 -0.6288  0.0174 -0.6677
 4354SOL    HW224522   0.137   1.194  11.125 -0.1934 -2.1171  0.5493
 4355SOL     OW24523   0.855   0.449  10.620  0.0206  0.0326  0.3264
 4355SOL    HW124524   0.888   0.415  10.537  0.4113  0.2860  0.3815
 4355SOL    HW224525   0.824   0.369  10.664  1.2753 -0.7592 -0.2445
 4356SOL     OW24526   2.454   2.112   2.582  0.2162  0.3382  0.0872
 4356SOL    HW124527   2.361   2.108   2.559  0.0350 -2.6406  1.4347
 4356SOL    HW224528   2.462   2.018   2.599 -2.3941  0.1583  0.3209
 4357SOL     OW24529   1.571   1.280  14.473 -0.0095  0.4073 -0.1128
 4357SOL    HW124530   1.489   1.324  14.496  0.2238 -0.1901  1.8177
 4357SOL    HW224531   1.541   1.206  14.419  3.6186 -1.7193  0.8114
 4358SOL     OW24532   4.575   3.920  10.385 -0.2729  0.0889 -0.4265
 4358SOL    HW124533   4.482   3.945  10.376 -0.4561 -0.6986 -0.7189
 4358SOL    HW224534   4.556   3.826  10.389  0.0802 -0.0708 -2.7541
 4359SOL     OW24535   3.482   3.740   6.950  0.2681  0.1793  0.1030
 4359SOL    HW124536   3.550   3.696   7.001 -1.8549 -0.5321  2.3096
 4359SOL    HW224537   3.438   3.791   7.018  2.2521 -0.1260  1.5954
 4360SOL     OW24538   4.281   2.016   5.488 -0.1641 -0.5668  0.3210
 4360SOL    HW124539   4.345   1.957   5.447  1.1369 -0.4489  2.1908
 4360SOL    HW224540   4.320   2.100   5.463 -0.2598 -0.4081  0.6988
 4361SOL     OW24541   3.200   0.484  17.409  0.1181  0.4602  0.8061
 4361SOL    HW124542   3.226   0.533  17.332 -0.4645 -2.1491 -1.0535
 4361SOL    HW224543   3.106   0.498  17.410 -0.3159 -2.5092  2.8402
 4362SOL     OW24544   0.777   3.255  11.237  0.2656  0.0544  0.8746
 4362SOL    HW124545   0.795   3.292  11.324  0.5143  3.1975 -0.5116
 4362SOL    HW224546   0.762   3.339  11.194  1.3280 -0.3204 -0.2350
 4363SOL     OW24547   1.773   3.497   4.698 -0.2701  0.5839 -0.0925
 4363SOL    HW124548   1.766   3.477   4.604  0.7042  0.6954 -0.1872
 4363SOL    HW224549   1.852   3.549   4.686  1.2536 -2.1668 -2.0025
 4364SOL     OW24550   1.997   3.830  14.712  0.0695  0.8205 -0.0039
 4364SOL    HW124551   2.079   3.780  14.720 -0.1558  0.5414  0.5849
 4364SOL    HW224552   1.998   3.889  14.787 -1.9811  0.4183  0.3382
 4365SOL     OW24553   2.534   1.614   2.838 -0.6063 -0.1354  0.1415
 4365SOL    HW124554   2.613   1.571   2.804 -1.0027 -1.1463  0.5049
 4365SOL    HW224555   2.473   1.545   2.811  0.0570  0.2873 -2.5062
 4366SOL     OW24556   3.090   1.113   8.345  0.1624 -0.0550  0.7103
 4366SOL    HW124557   3.020   1.170   8.379 -0.0000 -0.5842  1.2658
 4366SOL    HW224558   3.109   1.147   8.257  1.1591  0.4718  1.1314
 4367SOL     OW24559   4.082   1.992   9.586 -0.2821 -0.4227 -0.4492
 4367SOL    HW124560   3.987   1.994   9.570 -0.4267  0.9787  0.5835
 4367SOL    HW224561   4.118   2.033   9.508  1.0250 -0.5872  0.0681
 4368SOL     OW24562   2.213   2.453   6.822 -0.4451 -0.1197 -0.0592
 4368SOL    HW124563   2.295   2.489   6.855 -1.0381 -0.6852  2.0625
 4368SOL    HW224564   2.225   2.360   6.837 -2.3475 -0.5845 -1.4321
 4369SOL     OW24565   4.226   2.135   3.342 -0.7066 -0.2135 -0.3452
 4369SOL    HW124566   4.216   2.189   3.421 -0.8099  1.3476 -1.4114
 4369SOL    HW224567   4.301   2.179   3.304  0.8786 -2.2637  0.4303
 4370SOL     OW24568   3.527   1.597   1.522 -0.5439 -0.2203  0.2920
 4370SOL    HW124569   3.445   1.631   1.486 -0.2131  1.6404  1.2688
 4370SOL    HW224570   3.507   1.611   1.615 -1.0516  0.1072  0.1319
 4371SOL     OW24571   3.634   0.927   2.497  0.0913  0.1526 -0.1297
 4371SOL    HW124572   3.636   1.013   2.456 -1.1080  0.7707  1.1114
 4371SOL    HW224573   3.566   0.952   2.559 -0.3660  1.8865 -1.3328
 4372SOL     OW24574   3.090   3.248   6.175  0.3333 -0.1733 -0.2789
 4372SOL    HW124575   3.151   3.239   6.248  0.5529  4.2252  0.0590
 4372SOL    HW224576   3.140   3.280   6.100 -0.5327  1.2491 -0.2454
 4373SOL     OW24577   4.520   0.968   8.674  0.3309 -0.4948 -0.3254
 4373SOL    HW124578   4.462   1.019   8.617  0.2411  1.8241  1.8202
 4373SOL    HW224579   4.538   0.894   8.616 -0.2584  0.0474 -1.1988
 4374SOL     OW24580   4.586   0.986   4.386 -0.3340  0.4110 -0.0676
 4374SOL    HW124581   4.584   0.952   4.296  1.5677  0.3054 -0.0649
 4374SOL    HW224582   4.511   0.942   4.426 -0.7297  1.6254  0.5123
 4375SOL     OW24583   4.680   1.442  14.369  0.2449 -0.4571 -0.3262
 4375SOL    HW124584   4.682   1.399  14.283  0.9020  1.3436 -1.2176
 4375SOL    HW224585   0.051   1.462  14.370  0.1767 -0.2447  1.4995
 4376SOL     OW24586   1.892   0.160   1.524  0.1170  0.2490 -0.1085
 4376SOL    HW124587   1.849   0.244   1.543 -0.9831 -0.2945 -0.2164
 4376SOL    HW224588   1.816   0.102   1.519  1.0201 -0.9689  0.3927
 4377SOL     OW24589   0.837   3.200   2.203 -0.0410 -0.1099  0.2843
 4377SOL    HW124590   0.814   3.194   2.296  1.0896  1.4228  0.6751
 4377SOL    HW224591   0.855   3.294   2.205  1.0668 -0.3165 -0.3590
 4378SOL     OW24592   0.563   4.216  15.307  0.1110 -0.5855  0.0361
 4378SOL    HW124593   0.519   4.245  15.227  0.2415 -0.5576 -0.0252
 4378SOL    HW224594   0.618   4.148  15.270  1.2537  1.0822 -1.3364
 4379SOL     OW24595   3.990   2.750   9.382  0.6150 -0.2941 -0.0685
 4379SOL    HW124596   4.010   2.701   9.302  0.7088 -2.7750  1.4575
 4379SOL    HW224597   3.919   2.807   9.354  0.1786 -2.5303 -3.4845
 4380SOL     OW24598   3.751   1.077   1.324 -0.3784 -0.0570  0.1229
 4380SOL    HW124599   3.733   1.096   1.416 -0.7440  2.3288 -0.4532
 4380SOL    HW224600   3.740   1.165   1.289 -1.2406 -1.0700 -2.1574
 4381SOL     OW24601   1.978   1.464   6.486  0.1896 -0.0514  0.1477
 4381SOL    HW124602   1.932   1.528   6.540 -2.3899 -0.9551 -0.9767
 4381SOL    HW224603   2.043   1.518   6.441  1.6331 -2.1334 -0.2401
 4382SOL     OW24604   1.793   1.021   2.825 -0.5872  0.1674  0.3889
 4382SOL    HW124605   1.810   1.067   2.743  1.4290 -0.7500  0.2889
 4382SOL    HW224606   1.821   0.931   2.809  0.0590  0.6867 -1.4030
 4383SOL     OW24607   0.225   3.409   7.868 -0.1797 -0.7668 -0.4267
 4383SOL    HW124608   0.195   3.409   7.959  0.5646  1.0419 -0.1908
 4383SOL    HW224609   0.153   3.365   7.823 -0.8439  0.0628 -0.1611
 4384SOL     OW24610   2.434   0.160   2.966 -0.0140  0.2667  0.3699
 4384SOL    HW124611   2.506   0.199   2.918 -0.1027 -1.1784 -0.9527
 4384SOL    HW224612   2.457   0.070   2.944 -2.8193 -0.0647 -1.1725
 4385SOL     OW24613   2.915   2.551   7.833 -0.3123  0.5278 -0.3242
 4385SOL    HW124614   2.874   2.616   7.890  0.1775 -0.1345  0.7781
 4385SOL    HW224615   2.993   2.592   7.794  1.2276 -0.6343  1.4949
 4386SOL     OW24616   3.423   1.827   5.327  0.5864 -0.1694  0.1029
 4386SOL    HW124617   3.388   1.856   5.242 -1.4419  1.2081  1.3986
 4386SOL    HW224618   3.510   1.867   5.321  0.2576  0.3684 -1.2468
 4387SOL     OW24619   0.115   1.553   8.932 -0.2924 -1.0045 -0.4346
 4387SOL    HW124620   0.070   1.469   8.918 -3.8027  0.4985  1.8302
 4387SOL    HW224621   0.197   1.527   8.890 -0.0501 -1.1083  0.1032
 4388SOL     OW24622   3.804   2.159   3.189  0.1268  0.0380 -0.1873
 4388SOL    HW124623   3.893   2.154   3.155  0.1018 -1.0841 -0.0849
 4388SOL    HW224624   3.761   2.155   3.104  0.5860 -1.8608 -0.3193
 4389SOL     OW24625   2.978   1.433   6.484 -0.1080 -0.3134 -0.0478
 4389SOL    HW124626   2.998   1.423   6.391 -1.8638  1.5414 -0.6134
 4389SOL    HW224627   3.053   1.488   6.505 -0.6770  0.8247 -1.0551
 4390SOL     OW24628   3.689   3.676  12.450 -0.1416 -0.3410  0.2309
 4390SOL    HW124629   3.775   3.636  12.440 -0.0770 -0.6571  2.1536
 4390SOL    HW224630   3.629   3.601  12.445 -0.4277  0.2007 -4.2841
 4391SOL     OW24631   1.575   1.292   6.883 -0.1389  0.3669 -0.3730
 4391SOL    HW124632   1.502   1.326   6.831 -0.5286  0.1542  0.0346
 4391SOL    HW224633   1.521   1.273   6.960  1.1628 -2.5594 -0.1792
 4392SOL     OW24634   3.999   3.636  14.686 -0.0065 -0.3701 -0.1171
 4392SOL    HW124635   3.954   3.719  14.668  0.7802  0.2173  0.6497
 4392SOL    HW224636   3.935   3.587  14.738 -0.5969 -1.0294 -1.4277
 4393SOL     OW24637   3.889   0.364   4.016  0.4334  0.7027  0.0600
 4393SOL    HW124638   3.829   0.430   4.050 -0.4883 -0.6531  1.1191
 4393SOL    HW224639   3.963   0.388   4.072  0.6113 -0.3045  0.2654
 4394SOL     OW24640   2.808   1.890  16.668 -0.0082  0.0013 -0.1198
 4394SOL    HW124641   2.775   1.903  16.579  0.1630  0.8424 -0.0531
 4394SOL    HW224642   2.897   1.859  16.650  0.1085  0.7543 -0.8308
 4395SOL     OW24643   0.363   4.085   8.983 -0.1558  0.4754 -0.5206
 4395SOL    HW124644   0.318   4.058   9.063  1.0972 -0.0687  0.0157
 4395SOL    HW224645   0.443   4.032   8.973  0.0332  0.3705  1.4775
 4396SOL     OW24646   0.655   2.645   3.762  0.9148  0.0719 -0.2418
 4396SOL    HW124647   0.741   2.658   3.800 -0.0150  1.9347  1.2187
 4396SOL    HW224648   0.595   2.655   3.836  1.3994  0.4646  0.0932
 4397SOL     OW24649   1.480   1.292   5.794  0.2169 -0.4028 -0.0474
 4397SOL    HW124650   1.511   1.284   5.885  1.6470  0.0561 -0.4903
 4397SOL    HW224651   1.548   1.243   5.747  1.3488 -0.9331  2.1277
 4398SOL     OW24652   4.201   1.953   1.007  0.0373 -0.1499 -0.7950
 4398SOL    HW124653   4.264   2.023   1.022  0.1351 -0.1672 -1.1176
 4398SOL    HW224654   4.122   2.001   1.029  0.8887  0.6132  0.5528
 4399SOL     OW24655   3.672   3.809   4.163  0.3363 -0.3678 -0.0294
 4399SOL    HW124656   3.618   3.844   4.234  1.0682  3.2368 -1.2582
 4399SOL    HW224657   3.604   3.791   4.098 -0.3693  0.7189  0.3889
 4400SOL     OW24658   3.698   2.532   2.969  0.3709 -0.2527 -0.2818
 4400SOL    HW124659   3.682   2.491   3.054  1.1723 -1.7893 -0.8688
 4400SOL    HW224660   3.635   2.490   2.911  0.7878 -0.7599 -0.3714
 4401SOL     OW24661   2.143   1.909   2.722 -0.3490 -0.2656  0.8992
 4401SOL    HW124662   2.169   1.822   2.751 -0.6596 -0.6842 -0.0831
 4401SOL    HW224663   2.121   1.896   2.630  0.1731  0.7406  0.6281
 4402SOL     OW24664   0.317   0.096   6.079 -0.6522  0.0326 -0.3218
 4402SOL    HW124665   0.387   0.161   6.075  0.1216 -0.9038 -1.4763
 4402SOL    HW224666   0.318   0.090   6.175  0.6216 -1.5978 -0.4409
 4403SOL     OW24667   1.229   3.811   1.892 -0.1320 -0.6664  0.1353
 4403SOL    HW124668   1.293   3.847   1.831  0.2779 -1.9301 -0.1651
 4403SOL    HW224669   1.171   3.764   1.833 -0.1210  1.8804 -1.8858
 4404SOL     OW24670   4.459   3.762   8.865 -0.0074 -0.3634 -0.2532
 4404SOL    HW124671   4.533   3.773   8.805  0.0845 -0.9374 -0.2373
 4404SOL    HW224672   4.391   3.796   8.806 -1.0476 -1.0348  0.5660
 4405SOL     OW24673   2.541   3.342   1.378 -0.2047  0.2812 -0.2064
 4405SOL    HW124674   2.466   3.324   1.322  0.1543  0.5035 -0.7587
 4405SOL    HW224675   2.535   3.274   1.445 -0.9490  1.4038  0.8562
 4406SOL     OW24676   0.706   2.238   6.632  0.0230  0.3589 -0.3500
 4406SOL    HW124677   0.660   2.157   6.611 -1.7725  0.9680  1.2715
 4406SOL    HW224678   0.658   2.273   6.707  0.8581 -0.0932  0.3983
 4407SOL     OW24679   1.559   1.437  16.963 -0.0740 -0.1375 -0.3932
 4407SOL    HW124680   1.604   1.492  17.027 -1.3772  0.8227 -0.2957
 4407SOL    HW224681   1.631   1.374  16.966  0.4925  0.4666 -1.6312
 4408SOL     OW24682   2.347   0.879   0.985  1.0373 -0.0468  0.7655
 4408SOL    HW124683   2.409   0.813   1.016 -1.1845 -2.1858  0.6707
 4408SOL    HW224684   2.389   0.965   0.985 -1.7277  1.2947 -0.8387
 4409SOL     OW24685   2.704   0.671   5.181  0.3754  0.1135 -0.4912
 4409SOL    HW124686   2.701   0.743   5.119  0.7536 -0.1517 -0.8217
 4409SOL    HW224687   2.655   0.600   5.141 -2.0601  2.2558 -1.2465
 4410SOL     OW24688   0.516   1.204   3.513  0.8518  0.1222  0.0464
 4410SOL    HW124689   0.528   1.198   3.419 -0.1168  0.9888 -0.1324
 4410SOL    HW224690   0.604   1.231   3.540  0.7326 -0.1932  0.7565
 4411SOL     OW24691   1.958   2.606   8.455 -0.0312  0.3724 -0.1598
 4411SOL    HW124692   2.013   2.554   8.513 -1.2848  0.2770  0.9482
 4411SOL    HW224693   1.905   2.535   8.417  1.5575 -0.2231 -1.2493
 4412SOL     OW24694   2.643   2.150   3.110  0.0884 -0.3618  0.7417
 4412SOL    HW124695   2.705   2.126   3.041 -1.6913 -0.3815 -0.8616
 4412SOL    HW224696   2.713   2.174   3.171 -0.6478  2.0284  0.6391
 4413SOL     OW24697   1.488   4.379   4.355 -0.2845 -0.0530 -0.0205
 4413SOL    HW124698   1.546   4.454   4.365  0.4954 -0.8086  1.1201
 4413SOL    HW224699   1.424   4.403   4.423 -0.1831  2.7805 -0.9063
 4414SOL     OW24700   3.478   3.979   8.407  0.2167 -0.0639  0.1413
 4414SOL    HW124701   3.407   4.039   8.386 -0.0626  0.7550  3.2894
 4414SOL    HW224702   3.471   3.986   8.503  1.2656  3.6686 -0.0725
 4415SOL     OW24703   0.229   1.579   6.635  0.1156 -0.5531 -0.2334
 4415SOL    HW124704   0.235   1.498   6.583 -1.0501 -0.3605 -0.6628
 4415SOL    HW224705   0.242   1.639   6.562 -1.2405 -1.3153 -1.0891
 4416SOL     OW24706   4.035   1.109   2.407 -0.0905 -0.4242  0.1096
 4416SOL    HW124707   4.022   1.067   2.322 -0.4198 -1.6864  0.7863
 4416SOL    HW224708   3.979   1.063   2.471 -1.1578  0.1467 -0.4073
 4417SOL     OW24709   2.749   0.433   8.567 -0.4228  0.4104  0.0882
 4417SOL    HW124710   2.686   0.499   8.538 -0.1296  0.1837 -1.0367
 4417SOL    HW224711   2.828   0.479   8.538 -1.3108  1.4036 -0.7802
 4418SOL     OW24712   4.663   1.252   3.623  0.0345  0.1250 -0.1307
 4418SOL    HW124713   4.702   1.276   3.539 -0.8556 -1.4521 -0.9919
 4418SOL    HW224714   4.609   1.326   3.648 -0.7955 -0.8728  1.0417
 4419SOL     OW24715   3.467   4.474  11.755  0.0937  0.0015  0.3359
 4419SOL    HW124716   3.536   4.409  11.770 -0.7562 -0.7687  0.9084
 4419SOL    HW224717   3.388   4.432  11.790 -1.6507  3.3273  0.3484
 4420SOL     OW24718   1.942   3.037   3.663 -0.0144  0.1155  0.2034
 4420SOL    HW124719   1.870   3.071   3.609  0.0001 -1.3799 -0.7786
 4420SOL    HW224720   1.891   2.987   3.728 -0.7593 -0.5194 -0.8726
 4421SOL     OW24721   1.095   1.971   3.935 -0.0902 -0.0037  0.5817
 4421SOL    HW124722   1.107   1.941   3.845  0.2322 -0.5522  0.8124
 4421SOL    HW224723   1.171   2.026   3.951 -0.9620  0.7661  1.9999
 4422SOL     OW24724   3.482   3.033   3.288 -0.0987  0.3592  0.0729
 4422SOL    HW124725   3.558   2.980   3.311  0.3327  0.9526  0.0253
 4422SOL    HW224726   3.448   3.002   3.204 -0.4519  0.2233  0.2666
 4423SOL     OW24727   1.230   3.424   6.170  0.0568  0.0644  0.4662
 4423SOL    HW124728   1.299   3.413   6.235  2.0127 -1.3999 -1.8566
 4423SOL    HW224729   1.237   3.520   6.169  2.9334 -0.1206  1.3739
 4424SOL     OW24730   1.354   2.030   1.343  0.3763  0.0140  0.4339
 4424SOL    HW124731   1.308   2.040   1.426 -2.4830 -1.7383 -0.9464
 4424SOL    HW224732   1.344   1.936   1.330 -0.5258  0.2008 -0.2074
 4425SOL     OW24733   0.411   3.882   6.340 -0.0833  0.4156  0.1846
 4425SOL    HW124734   0.461   3.963   6.351  0.4799  0.2289 -1.0639
 4425SOL    HW224735   0.375   3.867   6.428 -0.3659 -3.2156 -0.5482
 4426SOL     OW24736   4.081   2.696   0.837  0.3426 -0.1203  0.0930
 4426SOL    HW124737   4.109   2.631   0.773 -0.8489  0.3970 -0.9544
 4426SOL    HW224738   4.164   2.727   0.874  1.2282 -1.1746 -1.0328
 4427SOL     OW24739   4.306   3.638   7.475 -0.2006 -0.3521 -0.2298
 4427SOL    HW124740   4.292   3.570   7.408  1.0956 -2.1043  1.2932
 4427SOL    HW224741   4.300   3.585   7.554 -1.2300 -1.6026 -1.1499
 4428SOL     OW24742   2.011   2.137   0.651  0.1028  0.1604 -0.0612
 4428SOL    HW124743   2.048   2.068   0.596  0.6838  3.0878 -3.2896
 4428SOL    HW224744   1.956   2.079   0.705 -0.7848 -0.8731 -2.0884
 4429SOL     OW24745   4.345   1.778   4.817  0.4721 -0.8164  0.2535
 4429SOL    HW124746   4.301   1.706   4.772  0.6425 -0.6834 -0.1168
 4429SOL    HW224747   4.376   1.830   4.744  1.5932  2.2515  2.8954
 4430SOL     OW24748   1.729   1.174   0.078  0.3979  0.0988  0.3942
 4430SOL    HW124749   1.804   1.231   0.061  1.3023 -1.2413 -0.1104
 4430SOL    HW224750   1.769   1.089   0.096  2.0709  0.9678  0.7505
 4431SOL     OW24751   3.579   2.658  17.548 -0.2934  0.0111  0.1516
 4431SOL    HW124752   3.597   2.612  17.630 -1.5341 -1.4259 -0.3667
 4431SOL    HW224753   3.627   2.602  17.487  0.7048 -0.3765  1.2928
 4432SOL     OW24754   3.644   0.959   9.185 -0.5396 -0.0557  0.3650
 4432SOL    HW124755   3.598   0.906   9.120  0.3105  0.6760 -0.8221
 4432SOL    HW224756   3.705   1.013   9.135  2.1428 -1.3566  2.2104
 4433SOL     OW24757   3.137   3.827  12.776  0.4202  0.2199  1.0055
 4433SOL    HW124758   3.121   3.805  12.868 -1.5466 -0.9885  0.3616
 4433SOL    HW224759   3.046   3.841  12.752  0.1176  0.2676  2.1617
 4434SOL     OW24760   1.879   4.284   7.644  0.3565  0.3217 -0.1595
 4434SOL    HW124761   1.911   4.281   7.554 -0.5701 -1.4064 -0.4267
 4434SOL    HW224762   1.842   4.370   7.664 -1.2385  0.0532 -1.9800
 4435SOL     OW24763   4.220   3.301   3.294  0.3370 -0.4640 -0.0408
 4435SOL    HW124764   4.288   3.239   3.319 -0.4068 -0.5018  1.9357
 4435SOL    HW224765   4.233   3.292   3.200 -0.5873  0.4701 -0.2647
 4436SOL     OW24766   1.905   0.609   8.526  0.0676  0.4372 -0.2285
 4436SOL    HW124767   1.810   0.621   8.525  0.2623  2.1429  2.6238
 4436SOL    HW224768   1.935   0.632   8.613  0.5061  0.4567 -0.3838
 4437SOL     OW24769   2.436   0.273  14.048 -0.0382  0.0163 -0.4372
 4437SOL    HW124770   2.396   0.357  14.026 -1.3301 -0.3141  0.7218
 4437SOL    HW224771   2.523   0.285  14.010  1.1185  0.9641  2.5508
 4438SOL     OW24772   0.682   1.098  11.966  0.3747 -0.1397  0.0069
 4438SOL    HW124773   0.766   1.072  11.929  0.4373  0.0527  0.0122
 4438SOL    HW224774   0.718   1.108  12.054  1.0792  0.2305 -0.3215
 4439SOL     OW24775   0.528   3.155  15.881 -0.2608  0.6135  0.2326
 4439SOL    HW124776   0.595   3.204  15.834 -1.5501  1.4424 -0.7354
 4439SOL    HW224777   0.452   3.200  15.844 -0.3446  1.3415  1.2936
 4440SOL     OW24778   2.924   2.948   6.517  0.1385  0.2328 -0.1629
 4440SOL    HW124779   2.888   2.882   6.459 -0.9422  1.6357 -1.0828
 4440SOL    HW224780   2.881   3.028   6.486  1.0144  0.4056 -0.9455
 4441SOL     OW24781   4.593   3.408   8.479  0.2326 -0.2753  0.0048
 4441SOL    HW124782   4.682   3.380   8.501  1.0152  2.8935  0.8565
 4441SOL    HW224783   4.538   3.355   8.537  0.3012 -0.3450  0.0068
 4442SOL     OW24784   1.265   0.415   5.017 -0.1693  0.5094 -0.3369
 4442SOL    HW124785   1.329   0.434   4.949  0.2822  0.0759 -0.0290
 4442SOL    HW224786   1.187   0.409   4.962 -0.5620 -2.8169  0.5873
 4443SOL     OW24787   4.291   0.751   9.357  0.0751 -0.3435 -0.1927
 4443SOL    HW124788   4.336   0.789   9.433  1.1413 -0.0234 -0.9770
 4443SOL    HW224789   4.198   0.750   9.378  0.1133 -2.5287 -0.1432
 4444SOL     OW24790   3.628   0.386   8.885  0.4175  0.3538 -0.5274
 4444SOL    HW124791   3.653   0.426   8.968  1.8516 -2.7347  0.5319
 4444SOL    HW224792   3.547   0.344   8.915  0.6670  0.4153  0.2271
 4445SOL     OW24793   0.246   3.843   1.698 -0.2935 -0.3014 -0.7612
 4445SOL    HW124794   0.219   3.852   1.607  1.6197  2.4669 -1.0664
 4445SOL    HW224795   0.206   3.761   1.727 -0.7153 -0.4267 -1.7150
 4446SOL     OW24796   0.694   0.850   8.327  0.4697  0.7640  0.2141
 4446SOL    HW124797   0.684   0.935   8.371  0.7516  0.2587  1.2487
 4446SOL    HW224798   0.691   0.786   8.398  1.1195 -1.6230 -1.9138
 4447SOL     OW24799   4.424   4.372   6.184 -0.2732 -0.0445  0.2598
 4447SOL    HW124800   4.434   4.414   6.099 -1.7735  0.5657  0.3921
 4447SOL    HW224801   4.381   4.441   6.236  1.0756  1.4911 -0.6445
 4448SOL     OW24802   2.125   1.287   0.846  0.5828  0.1693 -0.4275
 4448SOL    HW124803   2.127   1.202   0.891 -0.5263  0.1036 -0.5081
 4448SOL    HW224804   2.057   1.339   0.888  1.3520  1.2667 -0.5660
 4449SOL     OW24805   2.936   1.652   4.037  0.4678  0.2465 -0.6162
 4449SOL    HW124806   2.845   1.657   4.008  0.1428 -2.0743  0.0049
 4449SOL    HW224807   2.939   1.563   4.074  2.6672  0.7767  0.5035
 4450SOL     OW24808   0.054   0.872   5.851  0.2350 -0.1184 -0.4678
 4450SOL    HW124809   0.117   0.942   5.867 -1.7481  1.5925 -0.2603
 4450SOL    HW224810   0.103   0.806   5.802 -0.7814 -0.8210 -0.5305
 4451SOL     OW24811   0.044   3.201  15.439  0.5130 -0.0814  0.1196
 4451SOL    HW124812   4.685   3.251  15.443  0.6339  0.0797  0.6959
 4451SOL    HW224813   0.099   3.277  15.456  1.9298 -1.1195  0.1243
 4452SOL     OW24814   4.347   2.390   2.260  0.0882  0.3403  0.0256
 4452SOL    HW124815   4.264   2.433   2.281  0.8198  2.6084 -1.8366
 4452SOL    HW224816   4.317   2.300   2.244  0.7337 -0.0382  0.9287
 4453SOL     OW24817   3.045   1.688   7.099 -0.1007 -0.1372 -0.4994
 4453SOL    HW124818   2.992   1.613   7.076  1.1788 -1.3186  0.4177
 4453SOL    HW224819   3.124   1.668   7.048  0.2937 -1.4366  0.6234
 4454SOL     OW24820   4.386   1.300  16.373 -0.3138 -0.1485  0.3161
 4454SOL    HW124821   4.346   1.385  16.355  0.5798  0.0743 -0.5907
 4454SOL    HW224822   4.442   1.297  16.296 -2.1342 -0.5005 -0.9842
 4455SOL     OW24823   0.096   1.122   0.440  0.4400  0.0609  0.4698
 4455SOL    HW124824   0.008   1.085   0.433 -0.5059  2.7329 -1.5977
 4455SOL    HW224825   0.075   1.213   0.459 -0.9131 -0.2512  0.4639
 4456SOL     OW24826   3.671   4.716   6.989 -0.5624 -0.2750  0.4521
 4456SOL    HW124827   3.677   4.621   6.993 -0.5631 -0.2024  2.6480
 4456SOL    HW224828   3.587   0.007   6.945 -0.0262  0.4237 -0.3432
 4457SOL     OW24829   1.606   2.548   5.524 -0.1781  0.2433 -0.6532
 4457SOL    HW124830   1.676   2.537   5.588 -0.8549 -0.7174 -0.0798
 4457SOL    HW224831   1.631   2.477   5.466 -1.5604  0.2225 -1.2153
 4458SOL     OW24832   3.065   0.174  17.225 -0.3031  0.4548 -0.0315
 4458SOL    HW124833   2.982   0.200  17.185  0.3155  1.1339 -0.8686
 4458SOL    HW224834   3.050   0.160  17.319 -1.0091 -0.1921 -0.2445
 4459SOL     OW24835   2.180   1.385   8.224 -0.1570  0.0323 -0.3081
 4459SOL    HW124836   2.096   1.413   8.188 -1.3741 -1.8528  1.0492
 4459SOL    HW224837   2.160   1.372   8.317  1.5819  1.0411  0.1925
 4460SOL     OW24838   2.671   1.816   6.440  0.6435 -0.0562  0.0076
 4460SOL    HW124839   2.623   1.838   6.360  0.1380  0.7149  0.5155
 4460SOL    HW224840   2.611   1.761   6.491 -1.9831  2.6576 -0.1394
 4461SOL     OW24841   0.061   2.375  15.289  0.0409 -0.3723 -0.3806
 4461SOL    HW124842   0.140   2.371  15.343 -0.2130  1.4728  0.1068
 4461SOL    HW224843   0.087   2.428  15.213  1.7120  0.3435  0.7069
 4462SOL     OW24844   2.247   0.122   4.538  0.2634 -0.2509  0.8446
 4462SOL    HW124845   2.265   0.164   4.622 -1.3730  1.3583  0.3853
 4462SOL    HW224846   2.164   0.081   4.562 -0.4467  0.9883  0.4801
 4463SOL     OW24847   0.370   2.327   2.806  0.3824 -0.4504  0.1271
 4463SOL    HW124848   0.399   2.247   2.850 -1.4628 -0.8723  0.6068
 4463SOL    HW224849   0.317   2.286   2.737  1.0692  0.4501 -0.9345
 4464SOL     OW24850   0.163   0.696   5.652 -0.1701 -0.4228 -0.0991
 4464SOL    HW124851   0.238   0.657   5.698 -0.2531 -2.7344 -1.9038
 4464SOL    HW224852   0.219   0.709   5.575 -0.1035  2.2630  0.4177
 4465SOL     OW24853   2.060   2.618  13.486 -0.0778  0.9759  0.2323
 4465SOL    HW124854   2.154   2.638  13.487  0.6339 -2.2305 -0.7642
 4465SOL    HW224855   2.045   2.594  13.394  1.7931 -1.5905  0.6038
 4466SOL     OW24856   0.614   3.668   5.490  0.0984  0.4223  0.1966
 4466SOL    HW124857   0.687   3.688   5.432  1.0757  0.5236  1.4789
 4466SOL    HW224858   0.562   3.611   5.432 -0.4033  0.9388  0.1365
 4467SOL     OW24859   3.993   1.307  14.789  0.1094 -0.3463 -0.0850
 4467SOL    HW124860   3.911   1.263  14.765 -0.4005 -0.3869  1.6719
 4467SOL    HW224861   3.973   1.381  14.733 -0.9310 -0.8707 -0.4220
 4468SOL     OW24862   0.052   0.647   2.919  0.0980  0.0132 -0.1091
 4468SOL    HW124863   4.694   0.596   2.925 -1.4035  2.5257  0.6614
 4468SOL    HW224864   0.081   0.638   2.828 -1.4239  2.0163 -0.7816
 4469SOL     OW24865   3.789   0.950   5.273 -0.7242 -0.3816  0.1057
 4469SOL    HW124866   3.762   0.908   5.355 -1.0956  0.8472  0.6171
 4469SOL    HW224867   3.841   0.882   5.229 -1.4642 -1.9382  1.6299
 4470SOL     OW24868   1.915   2.700  10.003  0.1531  0.3427  0.0923
 4470SOL    HW124869   1.861   2.767  10.045 -0.6596 -1.7551  2.3851
 4470SOL    HW224870   1.849   2.677   9.938  0.6855  0.9705 -0.6695
 4471SOL     OW24871   4.643   3.792   2.883  0.3452  0.4412  0.1710
 4471SOL    HW124872   4.673   3.775   2.793 -1.0959  0.5887 -0.3349
 4471SOL    HW224873   4.604   3.707   2.903  2.1109 -0.8054 -1.6087
 4472SOL     OW24874   2.856   4.343   2.437 -0.4307 -0.6514 -0.3905
 4472SOL    HW124875   2.920   4.299   2.493  0.8309  2.0267  0.2882
 4472SOL    HW224876   2.839   4.268   2.381  0.5185 -2.2682  1.4710
 4473SOL     OW24877   1.956   4.722  13.689 -0.2352 -0.0383 -0.1238
 4473SOL    HW124878   2.000   4.711  13.774 -0.1375  1.0178 -0.0398
 4473SOL    HW224879   2.028   0.028  13.634 -0.3941  1.9317  0.7088
 4474SOL     OW24880   3.481   0.529   5.338 -0.3782 -0.0576 -0.1805
 4474SOL    HW124881   3.470   0.594   5.269 -2.2740 -2.0780 -1.7875
 4474SOL    HW224882   3.482   0.580   5.419  0.0622  0.8815 -0.7769
 4475SOL     OW24883   1.083   3.201  10.046 -0.8113 -0.1985  0.6515
 4475SOL    HW124884   1.169   3.161  10.059  0.2945  1.7315 -0.6586
 4475SOL    HW224885   1.095   3.289  10.010  0.4661 -0.1584  1.1848
 4476SOL     OW24886   0.819   2.329   2.731  0.2387 -0.3773  0.1816
 4476SOL    HW124887   0.808   2.253   2.673 -1.0603 -0.5805  0.6795
 4476SOL    HW224888   0.901   2.358   2.691 -1.5133  1.2128 -2.2439
 4477SOL     OW24889   1.142   4.531  15.046  0.0749  0.5698  0.0784
 4477SOL    HW124890   1.079   4.557  14.978  0.5117 -0.4512 -0.7266
 4477SOL    HW224891   1.139   4.437  15.028  0.3683 -0.0752  3.4967
 4478SOL     OW24892   0.682   3.595  10.411 -0.0025 -0.1180  0.1213
 4478SOL    HW124893   0.678   3.542  10.332  1.0684 -0.7432  0.4884
 4478SOL    HW224894   0.774   3.620  10.418  0.1130 -0.4896 -0.1296
 4479SOL     OW24895   0.631   0.261   9.190 -0.1105 -0.2525 -0.4860
 4479SOL    HW124896   0.559   0.232   9.134  1.6310 -1.3759 -2.1194
 4479SOL    HW224897   0.695   0.194   9.168  0.1440  0.0720 -0.7223
 4480SOL     OW24898   2.402   0.913   8.109  0.4958  0.3922  0.3172
 4480SOL    HW124899   2.370   0.879   8.192 -3.7278  0.0879 -1.4078
 4480SOL    HW224900   2.444   0.993   8.141  2.4421 -0.3224 -0.4189
 4481SOL     OW24901   1.611   1.770   0.117 -0.2406 -0.0554  0.5179
 4481SOL    HW124902   1.682   1.769   0.053  1.2856 -1.0965  2.2439
 4481SOL    HW224903   1.550   1.707   0.079 -0.0798 -1.7636  3.0410
 4482SOL     OW24904   2.205   0.276   8.219  0.4387 -0.1442 -0.5088
 4482SOL    HW124905   2.172   0.346   8.277  1.6651  0.9973 -1.1771
 4482SOL    HW224906   2.290   0.310   8.191 -0.6095  1.2807 -1.9814
 4483SOL     OW24907   1.780   3.210  11.593 -0.0528  0.1577  0.4263
 4483SOL    HW124908   1.727   3.147  11.642 -1.3567  1.5048  0.7601
 4483SOL    HW224909   1.730   3.218  11.511 -0.3903 -0.2360  0.5962
 4484SOL     OW24910   3.815   4.567   3.079 -0.5778 -0.7208  0.1752
 4484SOL    HW124911   3.810   4.630   3.007  1.5457  0.0362  0.6849
 4484SOL    HW224912   3.840   4.492   3.025  2.6569  0.5372 -0.0554
 4485SOL     OW24913   4.504   2.639   1.653 -0.0628  0.7164 -0.4183
 4485SOL    HW124914   4.537   2.632   1.743 -0.8540  0.1066 -0.1705
 4485SOL    HW224915   4.411   2.620   1.665  0.3756 -1.1965 -0.0086
 4486SOL     OW24916   4.052   1.674   8.894  0.1528 -0.4873  0.3707
 4486SOL    HW124917   3.971   1.653   8.941 -0.6191  2.3792  0.3079
 4486SOL    HW224918   4.109   1.597   8.895  1.3653  0.4254  0.5421
 4487SOL     OW24919   0.088   0.034   5.664 -0.2942 -0.4971 -0.5150
 4487SOL    HW124920   0.069   0.046   5.571 -2.3457  1.2682  0.1299
 4487SOL    HW224921   0.103   4.663   5.669  1.1454 -0.3046 -1.1454
 4488SOL     OW24922   0.466   0.317   7.097 -0.3844 -0.5438  0.2130
 4488SOL    HW124923   0.536   0.269   7.052  0.3003 -0.0103  0.7067
 4488SOL    HW224924   0.421   0.344   7.018 -1.9825 -0.5983  1.1090
 4489SOL     OW24925   3.777   0.582   3.363 -0.0637  0.6903 -0.3478
 4489SOL    HW124926   3.707   0.641   3.335  0.6101  1.9040  0.4817
 4489SOL    HW224927   3.737   0.547   3.442 -0.7714  0.7025 -0.7039
 4490SOL     OW24928   0.316   1.573   5.323  0.3080 -0.2479 -0.4213
 4490SOL    HW124929   0.253   1.611   5.261 -0.9329 -1.8257 -0.1289
 4490SOL    HW224930   0.351   1.641   5.380  1.1415 -0.2496 -0.9346
 4491SOL     OW24931   1.609   0.812   4.762  0.0275 -0.6806 -0.0999
 4491SOL    HW124932   1.587   0.769   4.845 -1.8075  0.2085 -0.1350
 4491SOL    HW224933   1.586   0.901   4.788  1.3448 -0.1084 -0.8832
 4492SOL     OW24934   0.441   1.110   7.230  0.1167  0.2202  0.3899
 4492SOL    HW124935   0.423   1.025   7.269  0.0178 -0.9632 -2.2079
 4492SOL    HW224936   0.470   1.168   7.300 -0.4753  0.9010  0.0749
 4493SOL     OW24937   3.420   4.538   6.824  0.3978  0.3088 -0.1016
 4493SOL    HW124938   3.444   4.483   6.899  1.3885  2.2644  1.0051
 4493SOL    HW224939   3.505   4.549   6.781  1.8766 -0.6533  2.5408
 4494SOL     OW24940   3.474   4.261   6.367  0.2616  0.4085 -0.1033
 4494SOL    HW124941   3.538   4.294   6.303 -0.6826 -0.0148 -1.2663
 4494SOL    HW224942   3.532   4.234   6.438 -0.8871 -0.9220  0.3102
 4495SOL     OW24943   1.619   2.648  17.613  0.3131  0.0420  0.4705
 4495SOL    HW124944   1.567   2.603  17.680  0.3696 -0.1496  0.3868
 4495SOL    HW224945   1.657   2.573  17.568  1.3727  0.2430  1.0251
 4496SOL     OW24946   0.159   1.325   5.357  0.4283  0.2454  0.3856
 4496SOL    HW124947   0.202   1.408   5.338 -1.1027  1.2529  1.3527
 4496SOL    HW224948   0.073   1.353   5.387 -0.8442 -1.5653 -1.5869
 4497SOL     OW24949   2.767   3.069  13.765  0.2399  0.1545 -0.2194
 4497SOL    HW124950   2.836   3.049  13.828  0.2518  0.0412 -0.2683
 4497SOL    HW224951   2.698   3.015  13.804  0.5640 -0.1301 -0.0410
 4498SOL     OW24952   3.548   0.355   6.845  0.0052 -0.5402 -0.1127
 4498SOL    HW124953   3.469   0.359   6.790  0.7458  1.7525 -1.0010
 4498SOL    HW224954   3.614   0.318   6.788  1.1991  0.7944  0.3978
 4499SOL     OW24955   0.269   1.524   3.282  0.2388  0.1168 -0.3086
 4499SOL    HW124956   0.209   1.598   3.280  0.6267  0.4328 -0.1843
 4499SOL    HW224957   0.264   1.487   3.194  2.7147  0.3995 -0.5469
 4500SOL     OW24958   1.510   0.385  14.590 -0.2782 -0.2699 -0.5502
 4500SOL    HW124959   1.553   0.469  14.571  0.7628 -1.0973 -1.8860
 4500SOL    HW224960   1.566   0.359  14.663  0.1184  1.0318 -0.3855
 4501SOL     OW24961   0.966   0.084   6.356 -0.1106 -0.1013  0.0263
 4501SOL    HW124962   0.923   0.092   6.271 -1.7677  2.3889  1.1017
 4501SOL    HW224963   1.006   0.169   6.373  0.2154  0.0823 -1.6693
 4502SOL     OW24964   2.592   3.133   9.834 -0.3901  0.4932  0.1338
 4502SOL    HW124965   2.655   3.061   9.828 -0.2559  0.8107 -2.0506
 4502SOL    HW224966   2.604   3.166   9.924  0.6248 -0.9123  0.5056
 4503SOL     OW24967   0.790   0.512   4.961 -0.0218  0.1298 -0.1681
 4503SOL    HW124968   0.869   0.485   4.915  0.7689 -0.1879  1.3945
 4503SOL    HW224969   0.780   0.459   5.040  1.0032 -2.1089 -1.5444
 4504SOL     OW24970   2.161   2.430  15.596  0.5530 -0.2198 -0.0263
 4504SOL    HW124971   2.137   2.345  15.559 -1.4682 -0.8063  2.6934
 4504SOL    HW224972   2.240   2.411  15.645  0.2899  2.7144  1.5367
 4505SOL     OW24973   3.136   1.664  13.507  0.0633  0.3281  0.0928
 4505SOL    HW124974   3.092   1.749  13.516  1.3223  0.7997  1.7599
 4505SOL    HW224975   3.132   1.656  13.412  0.0282  1.8098 -0.0442
 4506SOL     OW24976   1.244   2.388   9.219  0.2749 -0.6265  0.6669
 4506SOL    HW124977   1.221   2.359   9.307 -1.1137 -0.4370  0.3693
 4506SOL    HW224978   1.271   2.478   9.240  1.4816 -1.0610  0.9540
 4507SOL     OW24979   4.247   0.997   9.206 -0.1026 -0.0863 -0.1452
 4507SOL    HW124980   4.175   0.972   9.147 -0.1461 -0.1447 -0.0681
 4507SOL    HW224981   4.264   0.913   9.249 -0.3509  0.4921  1.0830
 4508SOL     OW24982   3.554   2.874   4.097  0.6619 -0.2089  0.1765
 4508SOL    HW124983   3.539   2.837   4.010 -0.5203 -0.2178  0.3791
 4508SOL    HW224984   3.460   2.879   4.113  0.4329 -1.7045 -0.7012
 4509SOL     OW24985   1.699   0.019   6.624 -0.2613  0.0134 -0.2232
 4509SOL    HW124986   1.676   0.092   6.682  0.2601  1.0056 -1.2696
 4509SOL    HW224987   1.754   0.058   6.556  0.2925  0.0422  0.2336
 4510SOL     OW24988   1.975   2.764   5.363  0.3185  0.1930 -0.1683
 4510SOL    HW124989   1.893   2.731   5.325 -0.2379  1.8963 -0.4717
 4510SOL    HW224990   2.019   2.808   5.290 -0.3077 -0.5401 -0.9899
 4511SOL     OW24991   3.144   2.705   8.954  0.5358 -0.5984 -0.4129
 4511SOL    HW124992   3.056   2.741   8.963  0.2206 -1.2784 -0.7885
 4511SOL    HW224993   3.195   2.737   9.029 -0.4646 -0.7351  0.3150
 4512SOL     OW24994   1.233   0.680   7.277  0.3944  0.2706 -0.5493
 4512SOL    HW124995   1.176   0.688   7.354  1.8138 -0.0519  0.5387
 4512SOL    HW224996   1.319   0.687   7.318 -0.5663  0.6764  1.3754
 4513SOL     OW24997   4.570   2.327   6.917 -0.0589 -0.3000  0.0590
 4513SOL    HW124998   4.505   2.273   6.962  0.4006 -0.5827  0.3861
 4513SOL    HW224999   4.512   2.400   6.897 -2.2149 -2.5958 -2.1701
 4514SOL     OW25000   1.996   0.034   4.651 -0.2241  0.8006 -0.3820
 4514SOL    HW125001   2.003   4.670   4.611 -0.3374  0.9293 -0.6822
 4514SOL    HW225002   1.995   0.006   4.742  1.4893  0.4826 -0.4664
 4515SOL     OW25003   0.422   2.457  13.992  0.1318  0.7620  0.1051
 4515SOL    HW125004   0.476   2.446  14.070 -1.1650  0.5234  0.9811
 4515SOL    HW225005   0.434   2.549  13.971  2.2879  0.4553  0.0408
 4516SOL     OW25006   3.985   3.969   2.072  0.4151  0.1051  0.2826
 4516SOL    HW125007   3.924   4.023   2.021  1.6494  0.9636 -0.2876
 4516SOL    HW225008   3.958   3.884   2.037 -0.8410  1.2975 -1.6528
 4517SOL     OW25009   3.041   2.174   2.113 -0.0152  0.2217  0.2325
 4517SOL    HW125010   3.038   2.082   2.086  3.1274  0.1749 -0.0254
 4517SOL    HW225011   2.947   2.184   2.128  0.0344  0.0913  0.6400
 4518SOL     OW25012   1.569   3.085   5.358  0.4446 -0.0486  0.4017
 4518SOL    HW125013   1.518   3.165   5.372  1.6819  1.2185 -2.2699
 4518SOL    HW225014   1.561   3.035   5.439  0.6037 -0.5216  0.1228
 4519SOL     OW25015   4.112   2.470   1.909  0.0257 -0.2276  0.5496
 4519SOL    HW125016   4.016   2.473   1.916 -0.1856 -1.7653 -1.6756
 4519SOL    HW225017   4.120   2.383   1.948  3.9466 -0.3439 -0.5306
 4520SOL     OW25018   2.536   4.139   6.912  0.3222 -0.1458 -0.8497
 4520SOL    HW125019   2.454   4.180   6.941 -0.4607 -1.3460 -1.3660
 4520SOL    HW225020   2.581   4.155   6.994  0.2936 -2.8412 -0.3290
 4521SOL     OW25021   2.922   1.859   6.505 -0.0149 -0.1884 -0.1380
 4521SOL    HW125022   2.940   1.873   6.413  0.7667  3.7701  0.6389
 4521SOL    HW225023   2.828   1.843   6.504 -0.2818  1.3503  0.3821
 4522SOL     OW25024   1.580   2.123   2.595 -0.2629  0.5223 -0.0061
 4522SOL    HW125025   1.598   2.165   2.679 -1.8351  0.8205  0.1817
 4522SOL    HW225026   1.601   2.194   2.535  0.5818  1.0123  0.8603
 4523SOL     OW25027   3.043   3.102   4.071 -0.5190  0.2342  0.0487
 4523SOL    HW125028   3.002   3.121   4.155 -1.1712  0.2477 -0.2708
 4523SOL    HW225029   2.968   3.069   4.021 -0.1988 -1.2676  0.5731
 4524SOL     OW25030   2.343   2.091   5.311 -0.0729  0.0325  0.0393
 4524SOL    HW125031   2.406   2.057   5.375 -1.2459 -0.7745  0.7510
 4524SOL    HW225032   2.281   2.020   5.326 -1.9641  1.8004  0.5697
 4525SOL     OW25033   0.118   0.445   4.638  0.2171 -0.0223 -0.0922
 4525SOL    HW125034   0.061   0.406   4.704  1.7069  0.9754  1.7678
 4525SOL    HW225035   0.181   0.498   4.686 -0.1656 -0.2839  0.7124
 4526SOL     OW25036   2.356   0.365   8.746 -0.3960  0.2656 -0.0819
 4526SOL    HW125037   2.295   0.438   8.736  0.9541  1.4107  0.0918
 4526SOL    HW225038   2.334   0.342   8.836 -1.6184 -0.4546 -0.5499
 4527SOL     OW25039   1.929   1.225  15.132 -0.0610  0.2499 -0.0467
 4527SOL    HW125040   1.991   1.157  15.107 -0.7262 -0.3831  0.0466
 4527SOL    HW225041   1.979   1.298  15.096 -1.9794  1.3248 -0.5830
 4528SOL     OW25042   3.186   1.538  12.393  0.3444 -0.1559 -0.0020
 4528SOL    HW125043   3.148   1.618  12.430 -0.2467  0.9831 -2.9803
 4528SOL    HW225044   3.272   1.563  12.361  0.3580  0.1843  0.3016
 4529SOL     OW25045   1.575   2.494  12.479  0.8004 -0.1634  0.0267
 4529SOL    HW125046   1.541   2.498  12.390  0.2002  0.8489  0.3078
 4529SOL    HW225047   1.656   2.545  12.482  0.0769  0.9508  0.5202
 4530SOL     OW25048   2.808   1.685   8.154 -0.2504  0.3348  0.2036
 4530SOL    HW125049   2.862   1.646   8.223  2.5460  0.7618 -1.7152
 4530SOL    HW225050   2.778   1.764   8.199  0.1630  0.4868  0.2186
 4531SOL     OW25051   3.820   0.130   3.371 -0.3102  0.1731  0.6365
 4531SOL    HW125052   3.894   0.173   3.413  0.5514  0.9490 -1.6880
 4531SOL    HW225053   3.869   0.062   3.326  0.3564  1.3808 -0.4667
 4532SOL     OW25054   3.864   2.272  14.983  0.0680 -0.3650 -0.5605
 4532SOL    HW125055   3.798   2.236  14.924 -0.4282  0.3440 -0.4407
 4532SOL    HW225056   3.944   2.267  14.931  1.1174 -1.7587  1.1732
 4533SOL     OW25057   0.396   1.029   8.251 -0.1246  0.6924 -0.1436
 4533SOL    HW125058   0.323   0.970   8.234 -0.5077  1.3014 -0.6136
 4533SOL    HW225059   0.405   1.028   8.346  0.2430  0.4236 -0.1802
 4534SOL     OW25060   0.699   2.047   9.863 -0.3384 -0.5746  0.6257
 4534SOL    HW125061   0.628   1.990   9.834  2.7341 -4.5456  0.9113
 4534SOL    HW225062   0.742   1.996   9.931  2.5183  0.5300 -0.3303
 4535SOL     OW25063   3.716   2.719   0.122 -0.0657  0.2412  0.7113
 4535SOL    HW125064   3.718   2.627   0.095  1.7979 -0.1081  2.0036
 4535SOL    HW225065   3.795   2.725   0.175 -0.3045 -0.9839  1.2151
 4536SOL     OW25066   1.061   2.658  11.137  0.3572 -0.0933  0.3114
 4536SOL    HW125067   1.061   2.682  11.230  0.7873 -2.2829  0.8826
 4536SOL    HW225068   1.067   2.743  11.094 -0.5830  0.2974  0.9619
 4537SOL     OW25069   2.600   4.361   4.876  0.5041 -0.2036  0.2637
 4537SOL    HW125070   2.694   4.345   4.883  0.2989 -0.2013  3.1226
 4537SOL    HW225071   2.591   4.403   4.962  1.6600  0.7833 -0.0938
 4538SOL     OW25072   3.530   2.945  17.670  0.1046  0.3581  0.3372
 4538SOL    HW125073   3.550   2.907  17.585  0.2525 -0.8824  0.9320
 4538SOL    HW225074   3.603   2.913   0.027 -0.2749 -1.1978 -0.1028
 4539SOL     OW25075   3.460   1.138   1.088  0.0976 -0.2779  0.2361
 4539SOL    HW125076   3.430   1.208   1.029 -0.9754 -0.2430  0.8197
 4539SOL    HW225077   3.482   1.076   1.019  2.0670  1.8011 -1.0134
 4540SOL     OW25078   3.773   3.560   5.117  0.3749 -0.1952  0.4939
 4540SOL    HW125079   3.862   3.578   5.088  0.5022 -0.0839  0.9581
 4540SOL    HW225080   3.755   3.493   5.050 -0.4426  2.3498 -1.8209
 4541SOL     OW25081   0.691   1.039   4.811 -0.0967 -0.4229 -0.4914
 4541SOL    HW125082   0.666   1.131   4.800  0.9566  0.0519  1.0837
 4541SOL    HW225083   0.692   1.042   4.907  1.2581 -3.3344 -0.4091
 4542SOL     OW25084   0.464   3.680   7.220 -0.3689 -0.8941  0.0497
 4542SOL    HW125085   0.474   3.662   7.313 -1.0024 -1.2523  0.0436
 4542SOL    HW225086   0.376   3.713   7.204 -0.7544 -2.1258 -0.4429
 4543SOL     OW25087   1.333   1.456   2.642  0.2643 -0.1423  0.6494
 4543SOL    HW125088   1.379   1.521   2.588  0.3262 -2.4203 -2.0158
 4543SOL    HW225089   1.272   1.511   2.690 -1.0640 -0.2534 -0.9278
 4544SOL     OW25090   2.559   1.682   8.770  0.3801  0.2023 -0.1847
 4544SOL    HW125091   2.470   1.675   8.735  0.5306  0.5402 -0.6259
 4544SOL    HW225092   2.576   1.776   8.761  1.7924 -0.0940 -0.6171
 4545SOL     OW25093   0.912   3.713   3.197  0.2329 -0.1595 -0.7032
 4545SOL    HW125094   0.871   3.665   3.125 -0.3418  1.6038 -1.5620
 4545SOL    HW225095   0.829   3.730   3.241  0.6960  2.3660 -0.7545
 4546SOL     OW25096   2.908   0.225  10.144 -0.4303 -0.0823  0.2760
 4546SOL    HW125097   2.855   0.257  10.218  0.8048  2.1648  0.1938
 4546SOL    HW225098   2.977   0.292  10.137  0.8481 -1.6309 -1.8640
 4547SOL     OW25099   2.332   3.910   2.859 -0.1940 -0.0018  0.1359
 4547SOL    HW125100   2.324   3.814   2.861 -0.6405  0.0340 -0.0887
 4547SOL    HW225101   2.423   3.909   2.889 -0.4283  0.3185  0.8631
 4548SOL     OW25102   3.356   1.762   0.870 -0.0166  0.0707 -0.3393
 4548SOL    HW125103   3.278   1.813   0.891  1.4731  1.5628  1.5194
 4548SOL    HW225104   3.401   1.837   0.833 -1.3905  1.2907  0.4440
 4549SOL     OW25105   2.838   3.476  13.851 -0.3451 -0.0169  0.5368
 4549SOL    HW125106   2.830   3.527  13.931  0.3056 -1.2061  1.3697
 4549SOL    HW225107   2.916   3.423  13.871 -0.8509  0.2995  3.2567
 4550SOL     OW25108   3.604   3.248  15.268  0.3179  0.8579 -0.5064
 4550SOL    HW125109   3.572   3.260  15.357  0.7679  0.5363 -0.3003
 4550SOL    HW225110   3.679   3.307  15.270 -0.6830  2.1032  0.0224
 4551SOL     OW25111   1.012   2.765  16.510 -0.1536 -0.0704  0.8391
 4551SOL    HW125112   0.938   2.824  16.495  1.6445  1.5944 -1.5035
 4551SOL    HW225113   1.040   2.740  16.422 -1.9681 -0.7571  0.4518
 4552SOL     OW25114   2.137   3.091   3.832 -0.5381  0.6912 -0.2097
 4552SOL    HW125115   2.067   3.068   3.772 -1.6107  0.8768  0.9628
 4552SOL    HW225116   2.186   3.009   3.842 -0.9109  0.4367 -0.4695
 4553SOL     OW25117   4.429   3.574  11.376 -0.4496 -0.1970  0.4080
 4553SOL    HW125118   4.423   3.489  11.420 -1.1423 -0.4112 -0.1197
 4553SOL    HW225119   4.481   3.553  11.299  0.5583  2.8678  0.2371
 4554SOL     OW25120   3.904   3.681   4.100 -0.8517 -0.1625 -0.2837
 4554SOL    HW125121   3.869   3.592   4.097 -3.0435  0.7264 -0.8991
 4554SOL    HW225122   3.827   3.732   4.127 -1.4752 -0.5618 -1.2971
 4555SOL     OW25123   4.060   0.861   9.027  0.3327  0.2796  0.2686
 4555SOL    HW125124   4.105   0.785   8.989 -0.0597 -0.3968  1.1684
 4555SOL    HW225125   3.975   0.822   9.046  0.5180 -0.2179  0.0700
 4556SOL     OW25126   1.571   1.552   7.156 -0.1441  0.3467  0.6545
 4556SOL    HW125127   1.612   1.482   7.206 -1.6236 -0.3241  0.9334
 4556SOL    HW225128   1.612   1.626   7.202 -0.2976  2.0350 -1.8734
 4557SOL     OW25129   3.628   0.571   6.694  0.0771  0.8988  0.2753
 4557SOL    HW125130   3.628   0.556   6.788  2.8251 -0.5495  0.0381
 4557SOL    HW225131   3.569   0.646   6.690  0.4367  1.1418 -0.4985
 4558SOL     OW25132   0.657   2.872   7.106 -0.2935 -0.7189 -0.4315
 4558SOL    HW125133   0.572   2.909   7.081  0.5988  0.4977 -1.6477
 4558SOL    HW225134   0.702   2.946   7.148  0.1292 -0.3609 -1.5151
 4559SOL     OW25135   4.506   3.340   0.220  0.1592  0.1369 -0.5608
 4559SOL    HW125136   4.600   3.343   0.200  0.5049  1.2255  1.2607
 4559SOL    HW225137   4.480   3.249   0.209  1.6597 -0.7726  3.5559
 4560SOL     OW25138   3.241   3.989   8.820  0.2012  0.0465 -0.4990
 4560SOL    HW125139   3.215   4.063   8.874  0.2736 -1.0550  1.0451
 4560SOL    HW225140   3.194   3.912   8.853 -0.5942  0.1221 -1.4619
 4561SOL     OW25141   0.404   4.555   7.727  0.2631 -0.0482  0.5514
 4561SOL    HW125142   0.449   4.640   7.725  2.6026 -1.2689  1.5492
 4561SOL    HW225143   0.437   4.514   7.807 -0.4607  0.5354  1.1492
 4562SOL     OW25144   1.555   2.917   5.155  0.2455 -0.1319 -0.2229
 4562SOL    HW125145   1.568   2.959   5.239  3.5697 -1.8993  0.1642
 4562SOL    HW225146   1.505   2.987   5.114 -0.5104  0.8566  2.4105
 4563SOL     OW25147   0.087   2.611   9.822  0.0855 -0.2200  0.3303
 4563SOL    HW125148   0.137   2.529   9.824  2.1647  1.1124  1.7604
 4563SOL    HW225149   0.143   2.676   9.864 -0.3487  0.7284 -0.5647
 4564SOL     OW25150   0.917   3.463   6.971 -0.4349 -0.0783 -0.5523
 4564SOL    HW125151   0.967   3.384   6.989  0.1039  0.3444 -0.1747
 4564SOL    HW225152   0.828   3.429   6.966 -1.4659  2.4778  0.1125
 4565SOL     OW25153   3.951   4.276   0.251 -0.1563 -0.2296  0.1753
 4565SOL    HW125154   4.019   4.230   0.202 -0.3997  1.0000 -1.3205
 4565SOL    HW225155   3.901   4.307   0.175 -0.3151 -1.4782 -0.2385
 4566SOL     OW25156   4.502   4.007   0.376 -0.3906  0.3363  0.7565
 4566SOL    HW125157   4.456   4.057   0.308  1.2877  1.6950  0.6178
 4566SOL    HW225158   4.471   3.917   0.363  0.6771  0.0543  0.0623
 4567SOL     OW25159   4.579   3.008  17.416  0.4254 -0.5732  0.0152
 4567SOL    HW125160   4.649   3.052  17.464  0.4379  0.5802 -1.0649
 4567SOL    HW225161   4.566   2.931  17.470  1.3287 -0.7950 -0.0852
 4568SOL     OW25162   4.063   2.209  14.578 -0.7885 -0.0014  0.1368
 4568SOL    HW125163   4.133   2.265  14.612 -0.1967 -0.6363 -0.0452
 4568SOL    HW225164   4.028   2.175  14.661 -0.1359 -1.6536 -0.2740
 4569SOL     OW25165   0.526   3.350   4.120 -0.6537 -0.2419  0.3951
 4569SOL    HW125166   0.573   3.399   4.052 -1.5577 -0.9214 -0.7256
 4569SOL    HW225167   0.490   3.275   4.072 -1.8070 -1.2761  2.9013
 4570SOL     OW25168   4.002   3.920   9.725  0.1236  0.2160  0.1564
 4570SOL    HW125169   3.993   3.864   9.648  0.3176  0.4423 -0.0273
 4570SOL    HW225170   3.923   3.902   9.777  0.7427  0.7786  1.2970
 4571SOL     OW25171   3.029   3.198   7.366  0.1613  0.3990 -0.1881
 4571SOL    HW125172   2.994   3.139   7.300  2.2271 -1.8134  0.6833
 4571SOL    HW225173   3.026   3.277   7.312 -0.9510  0.6033  0.1713
 4572SOL     OW25174   2.896   1.021   2.069  0.2045 -0.2654 -0.4076
 4572SOL    HW125175   2.915   1.034   2.162 -1.7430  0.0419 -0.0570
 4572SOL    HW225176   2.827   1.085   2.050 -1.0080 -1.1940  0.8719
 4573SOL     OW25177   3.008   3.786   7.837 -0.1032 -0.4033 -0.0099
 4573SOL    HW125178   3.030   3.870   7.877 -0.3832 -0.3487  0.0242
 4573SOL    HW225179   2.916   3.789   7.813 -0.5636  0.4958  1.8549
 4574SOL     OW25180   4.690   1.941  14.443  0.1763  0.1826  0.6711
 4574SOL    HW125181   4.692   2.023  14.492 -2.5078 -0.0051  1.1144
 4574SOL    HW225182   4.700   1.970  14.352  2.9137 -1.2452  0.5379
 4575SOL     OW25183   2.136   2.990   7.854  0.4495  0.3208 -0.1479
 4575SOL    HW125184   2.109   2.917   7.910  1.2451  0.6114  0.6033
 4575SOL    HW225185   2.156   3.054   7.922 -0.6025 -0.5450  0.9987
 4576SOL     OW25186   3.531   3.645   2.966  0.2582  0.5189  0.0860
 4576SOL    HW125187   3.569   3.717   2.915 -0.0901 -0.8392 -2.0983
 4576SOL    HW225188   3.521   3.579   2.898  2.1449 -0.9218  1.2121
 4577SOL     OW25189   4.051   2.274   5.876  0.2094 -0.1994 -0.4316
 4577SOL    HW125190   3.959   2.296   5.883  0.4740  0.6130  0.4724
 4577SOL    HW225191   4.081   2.351   5.925  3.7681 -1.5534 -0.4338
 4578SOL     OW25192   0.357   3.818   9.197 -0.0939  0.0652 -0.0766
 4578SOL    HW125193   0.314   3.903   9.202 -1.1960 -0.3817 -1.9239
 4578SOL    HW225194   0.282   3.760   9.206 -0.3603  0.4125 -0.0614
 4579SOL     OW25195   0.307   4.554  13.540 -0.5979 -0.3176  0.6133
 4579SOL    HW125196   0.370   4.544  13.611 -0.7803  1.0280  0.9738
 4579SOL    HW225197   0.357   4.576  13.461 -0.8350  1.7393  1.0252
 4580SOL     OW25198   1.223   1.399  15.493  0.0547 -0.7099 -0.6421
 4580SOL    HW125199   1.285   1.440  15.553  1.1825 -1.1492 -1.5143
 4580SOL    HW225200   1.265   1.320  15.461 -1.5943 -2.7104  2.1400
 4581SOL     OW25201   1.247   0.613  13.371 -0.9852 -0.2295  0.2337
 4581SOL    HW125202   1.221   0.698  13.334  0.3198 -0.9308 -2.2592
 4581SOL    HW225203   1.249   0.551  13.299 -0.2576 -0.5694  0.5476
 4582SOL     OW25204   1.480   4.211   4.914  0.0853 -0.3405  0.2418
 4582SOL    HW125205   1.395   4.244   4.885  0.4810  1.0659  0.7325
 4582SOL    HW225206   1.528   4.209   4.831 -0.0572 -1.9266  0.1831
 4583SOL     OW25207   3.449   2.446  10.933  0.0458 -0.1179  0.2634
 4583SOL    HW125208   3.514   2.465  11.000 -0.5578  0.2587  0.7424
 4583SOL    HW225209   3.507   2.435  10.857  1.8447 -0.3479  1.6622
 4584SOL     OW25210   2.623   4.239  15.206 -0.0937 -0.4036 -0.1860
 4584SOL    HW125211   2.688   4.213  15.272 -0.0668  0.6428  0.1969
 4584SOL    HW225212   2.649   4.330  15.195 -0.7208 -0.3620 -1.3227
 4585SOL     OW25213   3.975   4.443   7.723  0.0507 -0.3432  0.1427
 4585SOL    HW125214   3.948   4.394   7.801  1.7441 -1.7936 -0.1765
 4585SOL    HW225215   4.046   4.493   7.763 -1.2971  0.1077  1.9935
 4586SOL     OW25216   2.358   2.305   4.033 -0.0641  0.6699 -0.6106
 4586SOL    HW125217   2.439   2.350   4.009  0.2327 -0.7599 -2.2840
 4586SOL    HW225218   2.307   2.382   4.057  1.0076  0.7460  1.3921
 4587SOL     OW25219   0.353   1.027   8.566  0.6906 -0.0278 -0.3237
 4587SOL    HW125220   0.264   1.056   8.546  0.4905 -0.6566 -0.3392
 4587SOL    HW225221   0.326   0.942   8.602 -3.0893  1.5815  0.6344
 4588SOL     OW25222   3.917   0.486   8.047  0.0462  0.0502  0.0643
 4588SOL    HW125223   3.981   0.498   8.117 -2.5417 -0.3462  2.5321
 4588SOL    HW225224   3.833   0.517   8.082 -0.2701  0.7517 -1.3306
 4589SOL     OW25225   1.903   3.021  13.382 -0.3633 -0.3626 -0.1704
 4589SOL    HW125226   1.872   3.109  13.360 -0.9177 -0.3477  0.6615
 4589SOL    HW225227   1.854   2.971  13.316 -1.1629  1.7291 -1.1555
 4590SOL     OW25228   0.947   3.349   5.700 -0.2051  0.0317  0.3194
 4590SOL    HW125229   0.965   3.409   5.627  2.4151 -1.5848 -0.3600
 4590SOL    HW225230   0.925   3.412   5.768 -1.3526  0.0038 -0.0231
 4591SOL     OW25231   2.116   1.647   1.366  0.1636  0.1352  0.0823
 4591SOL    HW125232   2.060   1.714   1.406 -1.8378 -1.1427 -0.5794
 4591SOL    HW225233   2.164   1.619   1.443  1.2175  0.6476 -0.3838
 4592SOL     OW25234   0.178   3.114   4.282  0.3033  0.0525  0.3739
 4592SOL    HW125235   0.211   3.199   4.310 -0.0661  1.2326 -2.7639
 4592SOL    HW225236   0.084   3.131   4.280  0.6596  1.8872 -1.2044
 4593SOL     OW25237   3.562   4.520   3.191 -0.1548  0.7866  0.0825
 4593SOL    HW125238   3.616   4.566   3.128  1.5331 -0.5016  0.5855
 4593SOL    HW225239   3.627   4.455   3.218  0.4482  0.7029 -1.5818
 4594SOL     OW25240   4.115   1.866   6.147  1.1979 -0.3499  0.2166
 4594SOL    HW125241   4.153   1.779   6.136  2.2891  0.2763 -0.9849
 4594SOL    HW225242   4.196   1.916   6.153  1.0352  0.0299 -0.9196
 4595SOL     OW25243   2.755   4.649  15.485 -0.3602  0.0133  0.0852
 4595SOL    HW125244   2.800   4.666  15.402 -0.9966  0.8515 -0.0901
 4595SOL    HW225245   2.667   4.684  15.475  0.2514  1.5689  0.0616
 4596SOL     OW25246   0.190   3.566   4.438 -0.1949 -1.0449  0.0406
 4596SOL    HW125247   0.205   3.598   4.527 -0.3651  0.0288 -0.3150
 4596SOL    HW225248   0.198   3.640   4.376 -0.4024  0.3623  1.7019
 4597SOL     OW25249   2.798   2.024   6.121 -0.2705 -0.2066 -0.1452
 4597SOL    HW125250   2.767   1.946   6.166  0.8170  0.2716  1.4380
 4597SOL    HW225251   2.841   1.984   6.046 -1.0584 -0.3829 -0.5040
 4598SOL     OW25252   3.005   0.322  13.842  0.2876 -0.0275  0.1318
 4598SOL    HW125253   3.063   0.299  13.770  1.7726 -1.1219  1.6856
 4598SOL    HW225254   3.019   0.415  13.857 -2.0033  0.1183  1.3596
 4599SOL     OW25255   1.329   2.004   2.068  0.0623  0.1063 -0.5443
 4599SOL    HW125256   1.413   1.959   2.054 -0.5838 -1.4965  0.7688
 4599SOL    HW225257   1.343   2.082   2.015  1.5500  1.2163  1.4962
 4600SOL     OW25258   1.649   1.734  10.816  0.2780  0.1439 -0.3957
 4600SOL    HW125259   1.588   1.793  10.860  0.5449 -1.1816  1.7989
 4600SOL    HW225260   1.623   1.658  10.868 -1.0013  0.3634 -0.7006
 4601SOL     OW25261   3.298   2.073   9.413  0.2444  0.6716 -0.0940
 4601SOL    HW125262   3.234   2.097   9.346  0.3132  0.6380 -0.1724
 4601SOL    HW225263   3.376   2.060   9.360  0.1960  2.7767 -0.6795
 4602SOL     OW25264   2.779   1.217   4.402 -0.1600  0.6437  0.3076
 4602SOL    HW125265   2.700   1.172   4.373 -0.1872  2.1770 -1.9667
 4602SOL    HW225266   2.765   1.207   4.497 -2.2377  0.9971  0.0431
 4603SOL     OW25267   1.203   1.783   7.556  0.2494 -0.0905 -0.5472
 4603SOL    HW125268   1.282   1.834   7.572 -1.4438  1.9660  1.3265
 4603SOL    HW225269   1.246   1.698   7.550  0.0047 -0.1604 -1.3046
 4604SOL     OW25270   4.034   1.376   4.140 -0.0806 -0.1296 -0.3119
 4604SOL    HW125271   4.091   1.374   4.216 -2.4386 -0.6927  1.4275
 4604SOL    HW225272   3.947   1.355   4.173  0.3348 -0.6686  0.4312
 4605SOL     OW25273   1.522   0.465   1.464 -0.2090 -0.1564 -0.3590
 4605SOL    HW125274   1.478   0.462   1.549 -0.0289  2.4040 -0.1786
 4605SOL    HW225275   1.595   0.403   1.469  1.3587  1.6976  0.1663
 4606SOL     OW25276   1.531   3.533  16.949  0.1884 -0.2052 -0.4067
 4606SOL    HW125277   1.587   3.558  17.023 -2.6203  1.4202  1.1602
 4606SOL    HW225278   1.583   3.571  16.878 -1.6806 -0.8629 -2.1121
 4607SOL     OW25279   0.692   1.552   4.955  0.0731 -0.1870  0.5076
 4607SOL    HW125280   0.705   1.646   4.941 -0.5403 -0.0629  0.8009
 4607SOL    HW225281   0.727   1.548   5.044  1.3010 -0.2460  0.0243
 4608SOL     OW25282   0.506   3.065  14.349 -0.0320 -0.5611 -0.1271
 4608SOL    HW125283   0.576   3.003  14.329  0.0825 -0.6330  0.5017
 4608SOL    HW225284   0.443   3.030  14.285 -0.1289  0.4967 -0.6219
 4609SOL     OW25285   3.031   2.935   3.062  0.0063  0.2152  0.5663
 4609SOL    HW125286   2.977   2.937   2.983 -0.9802 -0.5054  1.2170
 4609SOL    HW225287   2.976   2.892   3.127  0.3014  2.0087  1.9901
 4610SOL     OW25288   3.308   1.414   5.127 -0.4297  0.0187 -0.5813
 4610SOL    HW125289   3.273   1.456   5.205  0.6582  0.7670 -0.4955
 4610SOL    HW225290   3.319   1.322   5.148 -2.2888 -0.2738 -0.9001
 4611SOL     OW25291   0.315   1.132   3.691 -0.0234 -0.0705 -0.1153
 4611SOL    HW125292   0.345   1.042   3.708  0.4988 -0.4539 -3.1939
 4611SOL    HW225293   0.378   1.157   3.624 -2.0312  0.9817 -1.5717
 4612SOL     OW25294   1.702   0.995  12.510 -0.6746 -0.4940  0.3835
 4612SOL    HW125295   1.760   1.066  12.482  0.7451 -2.0673 -0.7030
 4612SOL    HW225296   1.684   1.013  12.602 -1.3595  1.7530 -0.1940
 4613SOL     OW25297   1.693   4.196   5.131  0.1273  0.2375 -0.0852
 4613SOL    HW125298   1.778   4.238   5.133  0.4671 -0.3800 -1.2261
 4613SOL    HW225299   1.653   4.233   5.052 -2.5146  0.9384  1.5690
 4614SOL     OW25300   0.076   0.397   5.406  0.8074  0.0106  0.2570
 4614SOL    HW125301   0.047   0.408   5.497 -0.9668 -1.7152 -0.0913
 4614SOL    HW225302   0.020   0.465   5.369 -0.0573 -0.8585 -0.0294
 4615SOL     OW25303   0.257   1.284   6.521 -0.0275  0.0643 -0.3936
 4615SOL    HW125304   0.167   1.294   6.489 -0.3770  2.7472  1.4149
 4615SOL    HW225305   0.234   1.267   6.613 -1.8570 -0.6192 -0.9642
 4616SOL     OW25306   3.260   1.081  16.394  0.0690 -0.0346  0.2994
 4616SOL    HW125307   3.297   1.146  16.454 -3.7440 -0.8090  3.4381
 4616SOL    HW225308   3.233   1.010  16.452  0.9683 -0.2130  0.5069
 4617SOL     OW25309   2.278   2.224   7.993 -0.1010 -0.2064 -1.0202
 4617SOL    HW125310   2.298   2.305   8.040 -3.7745  0.3814 -0.4021
 4617SOL    HW225311   2.221   2.253   7.921 -0.7363 -1.1551 -0.9050
 4618SOL     OW25312   2.473   0.404  17.015 -0.1637 -0.4140  0.1101
 4618SOL    HW125313   2.493   0.323  17.063 -2.3089 -1.3435 -0.5773
 4618SOL    HW225314   2.519   0.379  16.934 -0.9351 -1.2837 -0.0657
 4619SOL     OW25315   4.521   0.839   1.185 -0.8261 -0.4516 -0.0371
 4619SOL    HW125316   4.539   0.899   1.112  0.8018 -2.0502 -0.9324
 4619SOL    HW225317   4.430   0.866   1.199 -1.8061 -3.4434 -0.7402
 4620SOL     OW25318   3.052   3.514   5.113  0.5905 -0.6658 -0.1301
 4620SOL    HW125319   3.052   3.610   5.109  1.1896 -0.6558 -0.0315
 4620SOL    HW225320   3.124   3.498   5.052 -2.5572 -1.6180 -3.6061
 4621SOL     OW25321   0.476   4.578   9.501 -0.2665  0.6682 -1.1140
 4621SOL    HW125322   0.502   4.491   9.532 -1.1124  0.9350  0.3804
 4621SOL    HW225323   0.552   4.597   9.447 -0.9548  1.8054 -1.6627
 4622SOL     OW25324   2.148   4.688  17.615 -0.2318 -0.2289  0.4828
 4622SOL    HW125325   2.186   4.682  17.527  1.3505 -0.3697  1.1760
 4622SOL    HW225326   2.230   4.684  17.664  0.2579  0.1123 -0.3153
 4623SOL     OW25327   0.317   3.024  14.110 -0.2352  0.2018 -0.5108
 4623SOL    HW125328   0.290   3.087  14.043 -1.6947 -0.1972 -0.3130
 4623SOL    HW225329   0.333   2.947  14.056 -3.4651 -0.3616 -0.6577
 4624SOL     OW25330   4.572   2.468   0.682 -0.4000 -0.1106  0.1760
 4624SOL    HW125331   4.557   2.494   0.772  0.2265  1.5884 -0.2222
 4624SOL    HW225332   4.662   2.435   0.681 -0.0815  0.7584  0.4431
 4625SOL     OW25333   0.951   4.501   4.071  0.2774 -0.6543 -0.3940
 4625SOL    HW125334   0.894   4.578   4.073 -1.5636 -1.9888 -1.5994
 4625SOL    HW225335   1.034   4.533   4.034  0.6853  1.6469  2.5183
 4626SOL     OW25336   0.554   1.564   5.883 -0.3204  0.0045 -0.4116
 4626SOL    HW125337   0.572   1.558   5.977 -1.1562  0.4752 -0.2210
 4626SOL    HW225338   0.633   1.608   5.853 -0.4205  1.4063  1.3497
 4627SOL     OW25339   4.209   0.844   4.719  0.6805  0.0993  0.0552
 4627SOL    HW125340   4.207   0.778   4.789  6.3090 -1.4948 -1.2756
 4627SOL    HW225341   4.245   0.920   4.765  1.1052 -0.0768  0.0159
 4628SOL     OW25342   2.194   4.155   2.861  0.0408 -0.4011  0.2080
 4628SOL    HW125343   2.237   4.073   2.883  2.7954  0.9592 -0.0927
 4628SOL    HW225344   2.272   4.210   2.851  0.0599 -0.4879 -0.1126
 4629SOL     OW25345   0.677   3.777   1.369 -0.5298 -0.1604 -0.3140
 4629SOL    HW125346   0.764   3.786   1.408 -1.0180 -2.8598  1.3701
 4629SOL    HW225347   0.626   3.758   1.447 -1.8030 -1.2546 -1.4049
 4630SOL     OW25348   4.285   1.872   4.352  0.3044  0.4882 -0.1032
 4630SOL    HW125349   4.193   1.885   4.328 -0.2616  0.3610  2.0258
 4630SOL    HW225350   4.294   1.788   4.308 -0.6444  1.0015 -1.2865
 4631SOL     OW25351   3.096   0.676   5.577  0.5246 -0.8620  0.1849
 4631SOL    HW125352   3.012   0.690   5.533  0.0263 -0.7831  1.1571
 4631SOL    HW225353   3.075   0.709   5.665 -0.1538  0.2046 -0.3776
 4632SOL     OW25354   2.457   0.172  10.172  0.2987 -0.4262 -0.0334
 4632SOL    HW125355   2.542   0.134  10.152  0.2169 -0.6904  0.1262
 4632SOL    HW225356   2.468   0.267  10.168 -3.0525 -0.0121  0.4713
 4633SOL     OW25357   3.940   2.644   1.622  0.3050 -0.3780 -0.3343
 4633SOL    HW125358   3.987   2.722   1.592 -4.6762  2.8395  0.3383
 4633SOL    HW225359   4.005   2.587   1.582 -1.2324 -0.6500 -2.4175
 4634SOL     OW25360   4.577   2.691  10.958 -0.3838 -0.2466  0.2458
 4634SOL    HW125361   4.578   2.747  10.880  0.3979  0.5315  0.8169
 4634SOL    HW225362   4.492   2.651  10.944 -0.5250 -0.6296  2.2084
 4635SOL     OW25363   1.590   2.912   3.612 -0.0922 -0.3421  0.1333
 4635SOL    HW125364   1.649   2.836   3.605 -0.6464 -0.6063 -1.8334
 4635SOL    HW225365   1.613   2.931   3.703  1.7719  0.4943 -0.5134
 4636SOL     OW25366   2.896   0.716   0.551 -0.5514  0.7217 -0.9188
 4636SOL    HW125367   2.857   0.758   0.474  1.9853  0.0454 -2.5793
 4636SOL    HW225368   2.834   0.746   0.617  3.0646  1.5084  2.0946
 4637SOL     OW25369   0.602   0.921   1.691 -0.5096 -0.4068  0.1264
 4637SOL    HW125370   0.609   0.827   1.707 -0.0098 -0.1851  1.1763
 4637SOL    HW225371   0.669   0.935   1.624 -1.2818 -1.1025 -0.7884
 4638SOL     OW25372   4.442   3.272   6.241  0.1233  0.2133 -0.0381
 4638SOL    HW125373   4.441   3.176   6.241  1.9903  0.1957  0.4107
 4638SOL    HW225374   4.352   3.287   6.212 -0.2269 -1.3169  0.2339
 4639SOL     OW25375   3.792   0.878   9.412 -0.2380  0.3200 -0.0288
 4639SOL    HW125376   3.728   0.862   9.482  0.1912  0.1805  0.3295
 4639SOL    HW225377   3.738   0.905   9.338  0.3664  1.1147 -0.1698
 4640SOL     OW25378   4.193   0.161   4.551 -0.0175 -0.4996 -0.5970
 4640SOL    HW125379   4.161   0.217   4.480 -0.1974 -0.5431 -0.5499
 4640SOL    HW225380   4.111   0.133   4.593 -1.6773  2.2203 -2.0686
 4641SOL     OW25381   1.179   0.528  13.923 -0.3371  0.1517 -0.5866
 4641SOL    HW125382   1.248   0.464  13.939 -1.4642 -1.0378 -0.4742
 4641SOL    HW225383   1.202   0.545  13.831 -0.9040  0.3561 -0.6940
 4642SOL     OW25384   0.758   2.135   7.247 -0.1057  0.3728 -0.7010
 4642SOL    HW125385   0.746   2.228   7.231 -1.2503  0.0881 -1.4942
 4642SOL    HW225386   0.685   2.090   7.204  0.2338 -1.9209  1.1139
 4643SOL     OW25387   0.020   0.258   8.755 -0.7845  0.3257 -0.1350
 4643SOL    HW125388   4.717   0.167   8.739 -0.8232 -0.1534  2.6105
 4643SOL    HW225389   4.689   0.283   8.830 -1.6226  0.9795 -0.9497
 4644SOL     OW25390   2.716   1.106  16.988 -0.4265 -0.0359 -0.0181
 4644SOL    HW125391   2.779   1.070  17.050  1.2549 -0.8759 -2.1947
 4644SOL    HW225392   2.640   1.110  17.046  0.6782 -0.0333  1.4410
 4645SOL     OW25393   0.745   1.770   6.301  0.6700 -0.2934  0.0371
 4645SOL    HW125394   0.694   1.765   6.220 -0.2254  0.1440  0.5650
 4645SOL    HW225395   0.823   1.730   6.264  0.0509 -1.1948 -0.2861
 4646SOL     OW25396   4.688   2.507   2.259  0.0863 -0.1755  0.4307
 4646SOL    HW125397   4.680   2.532   2.351  1.5787  0.3737  0.4089
 4646SOL    HW225398   0.054   2.533   2.238 -0.8238  1.0055 -1.9655
 4647SOL     OW25399   4.244   0.240   1.319 -0.2887 -0.4956 -0.2838
 4647SOL    HW125400   4.226   0.295   1.395 -1.2498  1.5697 -2.0262
 4647SOL    HW225401   4.232   0.149   1.345 -1.9092 -0.2421 -0.1345
 4648SOL     OW25402   1.041   1.756  11.136  0.2749 -0.2676 -0.2200
 4648SOL    HW125403   1.067   1.743  11.045 -1.5907  1.3343 -0.9982
 4648SOL    HW225404   1.081   1.679  11.176 -0.6612  0.1167  1.4406
 4649SOL     OW25405   0.798   3.594   3.688 -0.2086  0.2981 -0.4340
 4649SOL    HW125406   0.873   3.547   3.652 -0.6861  0.5043 -1.7065
 4649SOL    HW225407   0.832   3.648   3.759  0.1188 -0.2794 -0.1611
 4650SOL     OW25408   0.305   0.251   1.468 -0.7228  0.4310  0.1140
 4650SOL    HW125409   0.285   0.234   1.376 -2.2985 -0.5869  0.6528
 4650SOL    HW225410   0.385   0.304   1.466 -0.1873 -0.3327  1.0267
 4651SOL     OW25411   0.480   2.910   4.414  0.2120 -0.5055  0.5866
 4651SOL    HW125412   0.546   2.872   4.471  1.9872  2.6587  0.6074
 4651SOL    HW225413   0.498   3.004   4.411 -0.3299 -0.4206  0.0645
 4652SOL     OW25414   2.049   2.352   8.988 -0.4419 -0.4345  0.0642
 4652SOL    HW125415   1.997   2.392   9.058  0.5933  1.2285 -0.1239
 4652SOL    HW225416   2.135   2.354   9.029  0.1030  1.6375 -1.1757
 4653SOL     OW25417   3.993   0.503   5.848  0.1086 -0.1086 -0.2103
 4653SOL    HW125418   3.979   0.591   5.884  0.3494 -0.0927 -0.1507
 4653SOL    HW225419   3.933   0.520   5.776 -1.9588  0.4606  1.6717
 4654SOL     OW25420   4.421   1.434   7.903 -0.2966  0.7777 -0.0821
 4654SOL    HW125421   4.415   1.348   7.861 -1.5170  1.9743 -2.3355
 4654SOL    HW225422   4.344   1.438   7.959 -0.0172 -0.0984  0.3769
 4655SOL     OW25423   3.374   2.349   4.626 -0.0808 -0.3194  0.4790
 4655SOL    HW125424   3.435   2.289   4.669  0.4345  1.3047  2.0089
 4655SOL    HW225425   3.357   2.304   4.543  2.5541  2.3589 -1.5220
 4656SOL     OW25426   4.634   2.309   4.912 -0.6805  0.1795 -0.0829
 4656SOL    HW125427   4.710   2.345   4.866 -1.6111 -1.2336 -2.6915
 4656SOL    HW225428   4.564   2.353   4.864 -1.7295 -0.7254  0.6566
 4657SOL     OW25429   2.017   2.832  16.348  0.0185 -0.3060 -0.3177
 4657SOL    HW125430   2.002   2.924  16.372  0.1812 -0.7669  1.5185
 4657SOL    HW225431   1.966   2.825  16.267 -1.2110  0.7858  0.3609
 4658SOL     OW25432   1.052   3.326   0.543 -0.7997 -0.1238 -0.2835
 4658SOL    HW125433   1.102   3.403   0.568 -2.0305  0.2084  1.1056
 4658SOL    HW225434   0.966   3.365   0.555 -0.4637  0.4956  0.1040
 4659SOL     OW25435   4.116   1.021   0.629 -0.1764  0.2035 -0.4463
 4659SOL    HW125436   4.148   1.101   0.587 -0.7641  2.1333  2.8502
 4659SOL    HW225437   4.098   0.965   0.553  0.4971  0.8494 -1.0717
 4660SOL     OW25438   3.868   3.678   2.351 -0.1048  0.1716  0.2286
 4660SOL    HW125439   3.791   3.718   2.311  0.4012 -0.7055 -1.6093
 4660SOL    HW225440   3.906   3.643   2.271 -0.8362  0.7544 -0.3687
 4661SOL     OW25441   4.106   1.311   7.148  0.2813 -0.5052 -0.0094
 4661SOL    HW125442   4.157   1.359   7.213 -2.8723  1.8930  0.6888
 4661SOL    HW225443   4.032   1.301   7.209  1.6624  0.8414  1.8916
 4662SOL     OW25444   3.715   4.093   0.306 -0.9674  0.4853  0.2806
 4662SOL    HW125445   3.735   4.012   0.352 -1.4894  0.3330  0.2407
 4662SOL    HW225446   3.798   4.141   0.312 -1.5095  1.0756  2.9741
 4663SOL     OW25447   2.889   3.128   2.501 -0.2761  0.1898  0.4480
 4663SOL    HW125448   2.951   3.182   2.451 -2.2337  1.0905 -0.9812
 4663SOL    HW225449   2.947   3.052   2.505 -1.9106 -1.0757 -0.1807
 4664SOL     OW25450   1.987   4.010  13.521  0.2597 -0.1882 -0.4294
 4664SOL    HW125451   2.053   4.011  13.452  2.3766 -1.4033  1.5979
 4664SOL    HW225452   1.978   4.104  13.537 -0.3770 -0.3278  0.0158
 4665SOL     OW25453   2.874   3.656   6.225 -0.2019  0.6240  0.0307
 4665SOL    HW125454   2.787   3.666   6.265  0.4106 -0.0044  1.5266
 4665SOL    HW225455   2.908   3.741   6.251 -2.4111  2.0913 -1.8364
 4666SOL     OW25456   0.119   4.634   4.060 -0.4838  0.0910  0.1184
 4666SOL    HW125457   0.188   4.690   4.095 -0.9186  0.7340 -0.0609
 4666SOL    HW225458   0.080   4.592   4.136  1.9227 -0.3892  1.1011
 4667SOL     OW25459   4.033   2.446   8.692 -0.3632 -0.3912 -0.2996
 4667SOL    HW125460   4.075   2.516   8.743 -1.5240  0.6132 -0.7223
 4667SOL    HW225461   3.969   2.414   8.756  0.2793  0.2800  0.6619
 4668SOL     OW25462   2.302   2.563   2.433 -0.5884 -0.5371  0.1056
 4668SOL    HW125463   2.302   2.472   2.405 -2.8440 -0.2646 -0.7519
 4668SOL    HW225464   2.309   2.603   2.346 -2.6824  0.4176  0.3848
 4669SOL     OW25465   1.467   0.759  12.539 -0.3756 -0.2630 -0.0504
 4669SOL    HW125466   1.381   0.749  12.578  1.4851 -1.8741  3.6808
 4669SOL    HW225467   1.518   0.710  12.604 -2.7552 -3.8050 -0.8178
 4670SOL     OW25468   2.900   4.679  10.057  0.0429  0.1606  0.4397
 4670SOL    HW125469   2.920   4.653   9.967  1.6389  0.2399  0.7882
 4670SOL    HW225470   2.937   0.043  10.067 -0.7145  0.7144 -1.5732
 4671SOL     OW25471   1.379   1.475  15.825 -0.1023 -0.6048  0.0726
 4671SOL    HW125472   1.296   1.520  15.832 -0.0514 -0.6587  0.9608
 4671SOL    HW225473   1.428   1.553  15.850 -1.9081  0.5460  0.0150
 4672SOL     OW25474   1.778   4.632   0.098  0.2423 -0.3717 -0.1054
 4672SOL    HW125475   1.703   4.576   0.115  0.3420 -0.5104 -0.1141
 4672SOL    HW225476   1.740   4.718   0.115 -0.5794 -0.6934 -0.3049
 4673SOL     OW25477   2.028   0.494   2.810  0.3626  0.1152  0.1427
 4673SOL    HW125478   2.095   0.428   2.827 -0.0543 -0.0986  0.9348
 4673SOL    HW225479   1.961   0.486   2.878  1.3383  0.8531  1.2004
 4674SOL     OW25480   1.457   2.076   8.168  0.2985  0.6738  0.1975
 4674SOL    HW125481   1.498   1.994   8.139  0.3652  0.7031  0.2104
 4674SOL    HW225482   1.528   2.133   8.198  0.5496 -0.5214  1.8537
 4675SOL     OW25483   2.863   3.488  10.617  0.4108  0.1351 -0.0526
 4675SOL    HW125484   2.890   3.576  10.642  1.0154  0.8624 -3.3991
 4675SOL    HW225485   2.837   3.456  10.704  2.9738 -0.3127  0.5265
 4676SOL     OW25486   0.399   3.919   4.138 -1.0112 -0.2723  0.1204
 4676SOL    HW125487   0.468   3.969   4.094 -1.3490 -0.4984 -0.6631
 4676SOL    HW225488   0.329   3.984   4.137  0.9778  1.8820  0.1561
 4677SOL     OW25489   2.520   1.913   5.042  0.2165  0.5776  0.4560
 4677SOL    HW125490   2.591   1.978   5.047  0.6410 -0.0656  2.9829
 4677SOL    HW225491   2.562   1.831   5.014  0.4708  1.9639 -3.2302
 4678SOL     OW25492   2.807   1.542   2.365  0.4686 -0.0291 -0.7934
 4678SOL    HW125493   2.712   1.528   2.367  0.7563 -1.6665  0.8584
 4678SOL    HW225494   2.808   1.601   2.441 -1.3802 -0.2209 -0.6005
 4679SOL     OW25495   2.740   0.023   4.541 -0.5164  0.2804 -0.1006
 4679SOL    HW125496   2.646   0.008   4.541 -0.2250 -1.4323  2.7664
 4679SOL    HW225497   2.769   0.023   4.450  2.2022 -1.4645  0.7674
 4680SOL     OW25498   0.318   0.591   7.798 -0.2277  0.3653 -0.0501
 4680SOL    HW125499   0.299   0.588   7.892  0.4648  0.0887  0.0869
 4680SOL    HW225500   0.232   0.565   7.767 -0.4175 -0.3405  1.0672
 4681SOL     OW25501   1.447   1.965   6.486  0.3535 -0.2496  0.7359
 4681SOL    HW125502   1.516   2.015   6.530  1.3998 -1.0911  0.0808
 4681SOL    HW225503   1.365   2.013   6.487 -0.1804 -1.0826 -3.4710
 4682SOL     OW25504   4.472   0.276   5.698  0.5153  0.0149  0.4887
 4682SOL    HW125505   4.380   0.272   5.725  1.3088 -0.9338  3.0967
 4682SOL    HW225506   4.500   0.354   5.745  0.7599  0.1170  0.1731
 4683SOL     OW25507   0.061   4.040   3.125 -0.3042 -0.1204 -0.2721
 4683SOL    HW125508   0.106   3.956   3.132  2.3145  1.3007  0.0224
 4683SOL    HW225509   4.694   4.007   3.121 -0.0527 -0.6631 -1.3566
 4684SOL     OW25510   2.653   2.480   6.956  0.1590  0.5885 -0.2642
 4684SOL    HW125511   2.687   2.567   6.976  0.5086  0.8409 -1.9531
 4684SOL    HW225512   2.570   2.507   6.917  0.2645  0.6808 -0.4257
 4685SOL     OW25513   3.129   3.892   4.440  0.5086  0.1779 -0.0011
 4685SOL    HW125514   3.135   3.886   4.345  0.8148  0.2852  0.0135
 4685SOL    HW225515   3.058   3.829   4.456  0.4170 -0.1229 -1.6096
 4686SOL     OW25516   2.841   0.773   6.091  0.3677  0.1136  0.3989
 4686SOL    HW125517   2.898   0.741   6.160 -0.7519 -0.1463  1.2104
 4686SOL    HW225518   2.847   0.867   6.108  1.0276  0.1293  0.0444
 4687SOL     OW25519   1.997   0.345   7.867  0.5169 -0.1623  0.5087
 4687SOL    HW125520   1.966   0.263   7.905 -1.8090  0.1967 -0.6642
 4687SOL    HW225521   2.078   0.310   7.828  0.2481 -1.8876  1.4778
 4688SOL     OW25522   4.435   3.284   8.663 -0.1201 -0.0147  1.1196
 4688SOL    HW125523   4.347   3.319   8.644  0.5277  0.9596 -0.0779
 4688SOL    HW225524   4.412   3.208   8.717 -2.1213  1.5166  2.4368
 4689SOL     OW25525   2.022   0.681   6.357  0.5363  0.7004 -0.3840
 4689SOL    HW125526   1.952   0.667   6.293 -0.1330 -0.0269  0.4961
 4689SOL    HW225527   2.032   0.591   6.388  2.1997  1.6929  1.9542
 4690SOL     OW25528   0.945   0.734   6.494  0.2524 -0.4941 -0.2141
 4690SOL    HW125529   1.005   0.706   6.563 -0.1408 -2.3300 -0.5922
 4690SOL    HW225530   0.910   0.813   6.535  0.7588 -1.7172  2.5983
 4691SOL     OW25531   4.502   1.573  16.909  0.1662 -0.1308 -0.0284
 4691SOL    HW125532   4.473   1.501  16.965 -1.0037 -1.3178 -2.1142
 4691SOL    HW225533   4.486   1.536  16.822  0.6380  0.4103 -0.3393
 4692SOL     OW25534   2.546   3.926   0.912 -0.3116 -0.5096 -0.2283
 4692SOL    HW125535   2.579   3.849   0.958 -1.9495 -3.5103 -4.1088
 4692SOL    HW225536   2.622   3.945   0.857 -2.1179  1.7247 -1.9560
 4693SOL     OW25537   2.731   1.572   1.176 -0.5528 -0.3791 -0.7222
 4693SOL    HW125538   2.786   1.616   1.111  1.0940 -1.5187 -0.1040
 4693SOL    HW225539   2.651   1.621   1.159 -0.2213 -0.0267 -1.2458
 4694SOL     OW25540   1.601   0.508   7.985 -0.0203  0.3395 -0.0277
 4694SOL    HW125541   1.546   0.540   8.056 -2.7930  0.1580 -2.1272
 4694SOL    HW225542   1.552   0.444   7.934  0.1034 -1.7459  2.4823
 4695SOL     OW25543   1.463   1.623  16.809 -0.1276 -0.1297  0.3061
 4695SOL    HW125544   1.520   1.560  16.853 -1.8304 -0.8905  1.4396
 4695SOL    HW225545   1.433   1.571  16.735 -1.2816 -0.0124  0.6919
 4696SOL     OW25546   4.176   0.742  11.893 -0.3189  0.3091 -0.5448
 4696SOL    HW125547   4.240   0.802  11.855  0.6334 -0.9619 -0.9640
 4696SOL    HW225548   4.105   0.770  11.835 -1.1715  0.5990  0.6463
 4697SOL     OW25549   1.737   4.593  12.420  0.0564  0.4748  0.2367
 4697SOL    HW125550   1.796   4.667  12.433 -0.3509  0.7667  0.4168
 4697SOL    HW225551   1.699   4.595  12.332  2.5321  0.7576 -0.8365
 4698SOL     OW25552   4.005   0.563   4.362 -0.0721  0.1734  0.5486
 4698SOL    HW125553   4.095   0.566   4.329 -0.2872  1.9198  0.1243
 4698SOL    HW225554   4.006   0.636   4.423 -3.5237 -0.0432  0.8209
 4699SOL     OW25555   1.785   3.263  13.722  0.0230  0.3913 -0.1039
 4699SOL    HW125556   1.690   3.270  13.718  0.0290  0.9526  0.6725
 4699SOL    HW225557   1.793   3.191  13.784  0.2131 -0.0369 -0.6258
 4700SOL     OW25558   4.182   1.870   3.581 -0.5760 -0.3706 -0.4512
 4700SOL    HW125559   4.199   1.944   3.639 -1.2393 -0.1288 -0.5625
 4700SOL    HW225560   4.199   1.799   3.643 -0.9510  0.6907  0.8449
 4701SOL     OW25561   0.028   1.552  13.967 -0.1150 -1.1413  0.6466
 4701SOL    HW125562   4.656   1.557  13.959 -0.1320 -0.4307  1.2685
 4701SOL    HW225563   0.041   1.460  13.944 -0.0434 -0.9959  0.1050
 4702SOL     OW25564   0.562   2.511  12.183 -0.5568  0.1727  0.3026
 4702SOL    HW125565   0.583   2.432  12.233 -0.4603 -0.9284 -1.4571
 4702SOL    HW225566   0.537   2.570  12.254  0.3177  0.7189  0.1510
 4703SOL     OW25567   4.169   3.084   7.320 -0.1212 -0.1181  0.1215
 4703SOL    HW125568   4.203   3.137   7.392  3.1563 -1.0120 -0.7519
 4703SOL    HW225569   4.244   3.101   7.262  0.5787  0.8599  1.3090
 4704SOL     OW25570   4.412   2.320   6.398 -0.6319 -0.3577  0.4781
 4704SOL    HW125571   4.419   2.390   6.463 -0.2842  0.4425 -0.4232
 4704SOL    HW225572   4.456   2.360   6.323  2.2954 -3.7975  0.3985
 4705SOL     OW25573   4.104   2.076   8.677  0.4032 -0.3472 -0.3854
 4705SOL    HW125574   4.128   1.987   8.704 -1.1909 -1.1264 -1.4445
 4705SOL    HW225575   4.180   2.119   8.715 -1.1685  1.2802  0.8594
 4706SOL     OW25576   2.247   0.727  16.258  0.2995 -0.5065 -0.4921
 4706SOL    HW125577   2.267   0.796  16.321  3.2669 -2.8810  1.1870
 4706SOL    HW225578   2.156   0.700  16.266  0.0348 -0.1380 -2.1481
 4707SOL     OW25579   3.093   1.765   8.524  0.4929  0.5104 -0.0250
 4707SOL    HW125580   3.069   1.682   8.566 -0.4010  0.1671 -1.2277
 4707SOL    HW225581   3.009   1.808   8.514 -1.1624 -2.2532  1.9245
 4708SOL     OW25582   0.767   2.057  16.643  0.0940  0.1795  0.0654
 4708SOL    HW125583   0.838   2.103  16.687 -0.0489  2.1405 -1.7575
 4708SOL    HW225584   0.701   2.041  16.711  1.8342  0.4364  1.8238
 4709SOL     OW25585   1.831   0.072  12.194  0.4049 -0.1804 -0.4854
 4709SOL    HW125586   1.752   0.081  12.248  1.5422 -0.8669  1.2969
 4709SOL    HW225587   1.821   0.144  12.131  3.4763  2.0025  1.5158
 4710SOL     OW25588   1.704   0.519   5.474  0.0942  0.2227  0.6595
 4710SOL    HW125589   1.755   0.598   5.455 -1.1015  1.1945  1.5553
 4710SOL    HW225590   1.775   0.455   5.477 -1.0359 -1.0331  0.6633
 4711SOL     OW25591   4.325   0.532   7.924 -0.0422 -0.0609  0.0583
 4711SOL    HW125592   4.253   0.469   7.923 -0.2633  0.1743  1.3967
 4711SOL    HW225593   4.338   0.542   7.830  0.6261  0.6219  0.2275
 4712SOL     OW25594   3.502   2.131   8.158 -0.3914  0.2055 -0.0186
 4712SOL    HW125595   3.443   2.184   8.105 -0.2591  0.1033 -0.2638
 4712SOL    HW225596   3.449   2.094   8.229 -1.6087  2.0768  0.0339
 4713SOL     OW25597   3.402   3.610   5.875  0.3020  0.5754  0.2352
 4713SOL    HW125598   3.357   3.680   5.829  0.3159  0.2706 -0.2449
 4713SOL    HW225599   3.325   3.554   5.885 -0.1613  0.9303 -1.4758
 4714SOL     OW25600   2.859   0.093  13.669  0.3377  0.3208  0.0524
 4714SOL    HW125601   2.809   0.063  13.593  1.3720 -0.6854 -0.2371
 4714SOL    HW225602   2.949   0.088  13.637 -0.5597 -1.3341 -2.1902
 4715SOL     OW25603   4.088   2.255  11.064  0.4681  0.0741 -0.4216
 4715SOL    HW125604   4.152   2.185  11.051 -0.8816 -1.1272 -0.6140
 4715SOL    HW225605   4.115   2.314  10.994 -1.7313  1.9650  0.3692
 4716SOL     OW25606   1.471   1.322   2.283 -0.2655 -0.5325 -0.5488
 4716SOL    HW125607   1.504   1.236   2.255 -3.3413 -2.1176  0.7662
 4716SOL    HW225608   1.479   1.318   2.378 -2.2559 -0.3128 -0.3692
 4717SOL     OW25609   0.732   4.191   6.812 -0.6557 -0.2842  0.2368
 4717SOL    HW125610   0.683   4.125   6.764 -0.1813 -0.3825 -0.1093
 4717SOL    HW225611   0.685   4.273   6.797 -0.6597  0.0121  1.9304
 4718SOL     OW25612   2.323   3.962   2.596  0.0366 -0.0303  0.0250
 4718SOL    HW125613   2.228   3.951   2.586 -0.2470  0.7525  1.8890
 4718SOL    HW225614   2.326   3.937   2.688 -0.8503 -0.1091  0.0374
 4719SOL     OW25615   1.541   1.672   6.066 -0.1509  0.2123  0.3919
 4719SOL    HW125616   1.573   1.582   6.073 -1.1694 -0.1031  0.9506
 4719SOL    HW225617   1.546   1.675   5.970  1.7272  2.2961  0.5465
 4720SOL     OW25618   2.220   1.864   4.335  0.1877  0.0605 -0.2919
 4720SOL    HW125619   2.150   1.857   4.401 -1.6153  4.5768 -1.7296
 4720SOL    HW225620   2.283   1.917   4.383  0.5733 -0.9110  0.2703
 4721SOL     OW25621   2.540   3.995   8.970 -0.0883 -0.0120  0.0653
 4721SOL    HW125622   2.608   3.974   9.034 -1.1967  0.5093  1.4233
 4721SOL    HW225623   2.469   4.034   9.021 -0.8592  0.2449 -1.2105
 4722SOL     OW25624   3.880   1.756  10.031  0.3699 -0.4721 -0.2648
 4722SOL    HW125625   3.953   1.773  10.089  0.7725  1.7070 -1.3832
 4722SOL    HW225626   3.823   1.718  10.097  1.1572 -0.9782  0.1180
 4723SOL     OW25627   1.563   3.789   6.598 -0.3259  0.3918 -0.1410
 4723SOL    HW125628   1.497   3.762   6.661 -0.0458 -1.0833 -0.4739
 4723SOL    HW225629   1.575   3.882   6.615 -0.0518  0.1603  0.8865
 4724SOL     OW25630   1.695   0.298  15.358  0.4754 -0.0567 -0.0944
 4724SOL    HW125631   1.658   0.225  15.407  1.3693 -0.5778 -0.1926
 4724SOL    HW225632   1.774   0.303  15.412 -0.6746  1.6369  1.4797
 4725SOL     OW25633   3.984   2.959   9.797 -0.0844 -0.2141 -0.2284
 4725SOL    HW125634   3.993   2.881   9.852  1.6104  0.7015  0.8173
 4725SOL    HW225635   4.013   3.031   9.853  1.4096 -1.7492  1.0085
 4726SOL     OW25636   1.451   0.390   3.288  0.0917 -0.5048  0.1871
 4726SOL    HW125637   1.418   0.461   3.343  0.9822  1.2341 -1.5045
 4726SOL    HW225638   1.542   0.419   3.294  0.5595 -1.9820  0.2440
 4727SOL     OW25639   4.546   0.872   4.989  0.3065  0.0543 -0.2461
 4727SOL    HW125640   4.535   0.903   4.899 -2.8580 -2.6157 -0.7963
 4727SOL    HW225641   4.599   0.793   4.976 -1.9464 -1.5631  0.3753
 4728SOL     OW25642   2.335   1.420   5.538 -0.1915 -0.3836  0.1748
 4728SOL    HW125643   2.374   1.459   5.616 -1.0948 -1.1820  1.0135
 4728SOL    HW225644   2.344   1.491   5.474 -0.0442  0.5608  1.2342
 4729SOL     OW25645   2.791   3.291  13.138  0.1023 -0.3912  0.5585
 4729SOL    HW125646   2.723   3.337  13.088  1.0080 -0.2786 -0.5560
 4729SOL    HW225647   2.822   3.224  13.077  0.7784  1.0753 -0.7181
 4730SOL     OW25648   0.675   1.758  15.152  0.1211  0.1147 -0.0511
 4730SOL    HW125649   0.733   1.806  15.093  0.5002  1.0756  1.0973
 4730SOL    HW225650   0.717   1.773  15.236  0.1400  0.8976 -0.1998
 4731SOL     OW25651   4.571   0.868   4.131 -0.2357 -0.4735 -0.6259
 4731SOL    HW125652   4.618   0.800   4.084 -0.9663  0.3326 -2.5164
 4731SOL    HW225653   4.483   0.848   4.100  0.5025 -1.0431 -2.3097
 4732SOL     OW25654   1.895   0.510   3.090  0.1890  0.4319  0.2899
 4732SOL    HW125655   1.973   0.564   3.083 -0.1183  1.0183  1.3466
 4732SOL    HW225656   1.832   0.579   3.110  0.3918  0.5033  0.6734
 4733SOL     OW25657   2.990   2.041   8.053  0.0826  0.1544 -0.3985
 4733SOL    HW125658   2.940   2.078   8.125  1.0463 -0.6731  0.6906
 4733SOL    HW225659   2.992   2.115   7.993  0.3688 -1.7081 -2.6979
 4734SOL     OW25660   0.477   0.592   3.635 -0.4592 -0.4187  0.3360
 4734SOL    HW125661   0.431   0.571   3.554  1.0271  0.6896 -0.7904
 4734SOL    HW225662   0.469   0.685   3.656 -0.6493 -0.5844  1.0014
 4735SOL     OW25663   0.527   3.913   1.632  0.0755 -0.1286  0.0517
 4735SOL    HW125664   0.517   3.819   1.616 -2.2783 -0.0561  1.1492
 4735SOL    HW225665   0.441   3.943   1.662 -0.1082 -1.2367  0.6695
 4736SOL     OW25666   3.142   0.173   9.395  0.0582  0.0011  0.2323
 4736SOL    HW125667   3.093   0.101   9.355  0.1718  0.0695 -0.0349
 4736SOL    HW225668   3.141   0.150   9.488 -2.2891  1.0789  0.4758
 4737SOL     OW25669   2.181   0.983  14.205  0.2179 -0.3488  0.0669
 4737SOL    HW125670   2.120   0.919  14.242  0.4578 -1.2530 -1.0885
 4737SOL    HW225671   2.155   1.062  14.253 -1.0062 -1.4856  1.2748
 4738SOL     OW25672   0.007   3.065  15.211  0.4743 -0.5684 -0.1800
 4738SOL    HW125673   0.045   3.139  15.163 -0.5589 -0.2603 -0.5357
 4738SOL    HW225674   0.033   3.095  15.299  0.5766 -3.5580  0.7889
 4739SOL     OW25675   4.453   4.354   4.202  0.1860 -0.5212 -0.1726
 4739SOL    HW125676   4.504   4.289   4.251  1.7936  1.8902  1.3917
 4739SOL    HW225677   4.522   4.390   4.146  1.4043 -1.0673  0.9679
 4740SOL     OW25678   3.009   2.617   2.759 -0.6207  0.6030 -0.3741
 4740SOL    HW125679   2.937   2.565   2.724  1.2036 -1.9632 -0.3907
 4740SOL    HW225680   3.077   2.556   2.789 -2.9958 -1.9365 -0.1396
 4741SOL     OW25681   0.281   3.091   1.630  0.0110 -0.2912 -0.2463
 4741SOL    HW125682   0.304   3.101   1.723  0.2358 -2.2287 -0.1065
 4741SOL    HW225683   0.216   3.160   1.612  0.8938  0.9494  1.2677
 4742SOL     OW25684   1.275   3.408   8.728  0.3835 -0.2637 -0.3173
 4742SOL    HW125685   1.319   3.438   8.808  1.1052 -0.3852 -0.6731
 4742SOL    HW225686   1.352   3.361   8.695  1.7033  1.2117  0.6651
 4743SOL     OW25687   3.923   0.118   1.250  0.2088 -0.0282 -0.1773
 4743SOL    HW125688   3.989   0.081   1.309  2.4826  0.9712 -2.0748
 4743SOL    HW225689   3.846   0.122   1.307 -0.1362  0.2433 -0.6665
 4744SOL     OW25690   0.622   3.151   8.505 -0.1597 -0.0815 -0.3992
 4744SOL    HW125691   0.607   3.058   8.524  0.8549 -0.3271 -0.7576
 4744SOL    HW225692   0.631   3.184   8.594 -0.9297  1.2763 -0.8285
 4745SOL     OW25693   4.653   0.197   3.834  0.2918  0.0131 -0.7561
 4745SOL    HW125694   0.004   0.200   3.774 -0.0368 -1.2285 -1.2227
 4745SOL    HW225695   4.584   0.206   3.768  0.9509  0.2564 -1.3990
 4746SOL     OW25696   0.258   4.060   0.665  0.3290 -0.1154 -0.3321
 4746SOL    HW125697   0.238   4.085   0.575 -2.5941  1.4484  0.7340
 4746SOL    HW225698   0.343   4.018   0.655 -0.0885 -1.2029  0.7460
 4747SOL     OW25699   0.507   1.579   8.022  0.0888  0.2230 -0.0106
 4747SOL    HW125700   0.557   1.497   8.016  1.2085  0.8548  0.6298
 4747SOL    HW225701   0.574   1.645   8.037 -0.9773  0.7205  2.6214
 4748SOL     OW25702   3.161   1.211  16.138  0.3135  0.3893  0.0755
 4748SOL    HW125703   3.220   1.151  16.091  0.8881 -1.4826  3.1797
 4748SOL    HW225704   3.181   1.189  16.229 -1.0103  0.6227  0.4111
 4749SOL     OW25705   0.078   1.844   3.207 -0.1054  0.0069 -0.0037
 4749SOL    HW125706   0.019   1.914   3.179 -0.7113  0.2237  1.8943
 4749SOL    HW225707   0.012   1.775   3.210  1.0044 -1.0427  0.2431
 4750SOL     OW25708   0.864   1.932   1.516  0.1057 -0.1990 -0.0927
 4750SOL    HW125709   0.796   1.940   1.450 -0.6932  1.0602  0.8933
 4750SOL    HW225710   0.805   1.934   1.591  0.8271  0.2041  0.4674
 4751SOL     OW25711   0.770   0.304   7.490 -0.1572  0.3013 -0.4465
 4751SOL    HW125712   0.793   0.280   7.579  0.1785  0.9311 -0.3644
 4751SOL    HW225713   0.686   0.258   7.489  0.4610 -0.8099 -2.6229
 4752SOL     OW25714   4.084   1.760  10.194  0.3688  0.1364  0.0681
 4752SOL    HW125715   4.142   1.828  10.158 -1.4696  0.8052 -1.6557
 4752SOL    HW225716   4.151   1.713  10.243  1.1040 -1.0202 -2.0439
 4753SOL     OW25717   2.798   2.460   2.625  0.4343  0.2250  0.0175
 4753SOL    HW125718   2.850   2.388   2.590  1.5761  0.3319  1.4582
 4753SOL    HW225719   2.714   2.416   2.635  0.3825 -0.0509 -1.8030
 4754SOL     OW25720   1.667   3.266  17.658 -0.1673 -0.4496 -0.4127
 4754SOL    HW125721   1.727   3.307  17.596 -0.0603  0.0698  0.0398
 4754SOL    HW225722   1.650   3.180  17.620 -1.5469 -0.5391  0.4009
 4755SOL     OW25723   1.451   0.889  16.359  0.1125  0.0199 -0.6721
 4755SOL    HW125724   1.392   0.956  16.323 -0.9785 -1.1846 -1.1273
 4755SOL    HW225725   1.387   0.817  16.357 -1.4779  1.3858  1.3499
 4756SOL     OW25726   3.915   4.136   9.550 -0.5291  0.2839 -0.2317
 4756SOL    HW125727   3.956   4.067   9.603 -0.5871 -0.8292 -1.6278
 4756SOL    HW225728   3.895   4.087   9.470  0.1070  1.2327 -0.9702
 4757SOL     OW25729   0.168   3.362  10.019 -0.1801 -0.0763 -0.2572
 4757SOL    HW125730   0.214   3.444  10.002  0.4667 -0.4301 -0.1962
 4757SOL    HW225731   0.236   3.295  10.009 -0.5699 -0.8109  1.9913
 4758SOL     OW25732   0.218   2.065  17.008  0.5075  0.2404 -0.1915
 4758SOL    HW125733   0.195   2.145  17.055  4.1276 -0.4260  2.7330
 4758SOL    HW225734   0.287   2.026  17.062 -2.2121 -2.6180  1.2290
 4759SOL     OW25735   2.246   4.206   9.737  0.4594  0.1536 -0.3824
 4759SOL    HW125736   2.328   4.235   9.697  1.0390  0.0181  0.7047
 4759SOL    HW225737   2.265   4.157   9.817 -0.6456  1.6805  0.8226
 4760SOL     OW25738   0.313   4.500   3.673  0.5162  0.0188  0.1588
 4760SOL    HW125739   0.384   4.564   3.682  1.1977 -0.6759 -0.3962
 4760SOL    HW225740   0.237   4.557   3.688  0.3749 -0.3796  0.9731
 4761SOL     OW25741   0.619   1.061   1.942  0.1191 -0.1600 -0.5266
 4761SOL    HW125742   0.571   1.018   1.871 -0.5409  0.6271 -0.5633
 4761SOL    HW225743   0.705   1.030   1.914  0.8926  0.2766  1.3633
 4762SOL     OW25744   0.462   1.970   5.013 -0.4329  0.3897 -0.5945
 4762SOL    HW125745   0.424   1.900   4.959  0.4115  0.4639 -1.2907
 4762SOL    HW225746   0.375   1.999   5.041  0.4416  2.6807 -0.2383
 4763SOL     OW25747   2.642   2.398  16.893 -0.6764 -0.3364  0.1982
 4763SOL    HW125748   2.693   2.331  16.847 -2.9850 -0.8303 -1.6129
 4763SOL    HW225749   2.605   2.445  16.818  0.0742  2.5061  1.6325
 4764SOL     OW25750   1.582   2.440   3.477 -0.4910  0.1341 -0.2853
 4764SOL    HW125751   1.498   2.417   3.517 -1.3350 -0.8148 -2.5862
 4764SOL    HW225752   1.636   2.373   3.518 -1.7844 -1.7280 -1.6471
 4765SOL     OW25753   0.882   1.840   4.783  0.3975 -0.7667  0.3120
 4765SOL    HW125754   0.811   1.904   4.776  1.7872  0.9466  1.9149
 4765SOL    HW225755   0.854   1.773   4.845  0.5055 -1.7165 -0.6600
 4766SOL     OW25756   3.305   2.075   3.324 -0.0877 -0.1056  0.1553
 4766SOL    HW125757   3.379   2.018   3.303  0.0493 -0.5520  1.8491
 4766SOL    HW225758   3.317   2.141   3.256 -3.4882 -1.1170 -1.4105
 4767SOL     OW25759   1.377   0.365  15.740 -0.0246  0.4116 -0.3024
 4767SOL    HW125760   1.409   0.436  15.796  0.4816 -0.0445 -0.0117
 4767SOL    HW225761   1.446   0.299  15.737  0.9396  1.3262  1.7664
 4768SOL     OW25762   1.406   3.434  12.266 -0.0284  0.3023 -0.4004
 4768SOL    HW125763   1.405   3.526  12.291 -0.4930  0.5361 -1.2794
 4768SOL    HW225764   1.469   3.439  12.194  0.1841  0.8282 -0.1786
 4769SOL     OW25765   4.179   3.654   6.993 -0.1658 -0.1090 -0.2610
 4769SOL    HW125766   4.110   3.600   7.031 -0.3984  0.2142 -0.2258
 4769SOL    HW225767   4.175   3.651   6.897 -4.0659  1.4170 -0.1351
 4770SOL     OW25768   3.415   3.285   2.476  0.2229  0.4994  0.0289
 4770SOL    HW125769   3.377   3.354   2.421  1.2025  1.2834  0.3261
 4770SOL    HW225770   3.493   3.334   2.504 -0.1337  1.1761 -0.1391
 4771SOL     OW25771   3.873   0.244   2.971  0.1669  0.8153 -0.3155
 4771SOL    HW125772   3.825   0.268   3.050  0.3084 -0.4855  0.1536
 4771SOL    HW225773   3.813   0.275   2.903  0.3678  0.0270 -0.8475
 4772SOL     OW25774   3.065   2.323   7.560 -0.7583 -0.1583  0.6578
 4772SOL    HW125775   3.133   2.371   7.607 -1.8089  1.5887  0.3964
 4772SOL    HW225776   3.004   2.394   7.541 -0.1839  0.3589  0.7300
 4773SOL     OW25777   2.152   3.556  12.703 -0.2125 -0.1380 -0.1588
 4773SOL    HW125778   2.223   3.587  12.759  1.9856  1.6188 -3.9344
 4773SOL    HW225779   2.082   3.596  12.754 -0.0772  1.0835 -0.9094
 4774SOL     OW25780   0.128   3.653   1.907 -0.3279 -0.9737  0.3537
 4774SOL    HW125781   0.051   3.701   1.938 -1.3965 -2.4440 -0.0297
 4774SOL    HW225782   0.186   3.662   1.982  0.1203  1.1489 -0.2487
 4775SOL     OW25783   1.228   2.866  11.617  0.3972 -0.2648 -0.1878
 4775SOL    HW125784   1.319   2.896  11.616  0.2853  0.0892  0.6466
 4775SOL    HW225785   1.227   2.835  11.707  0.5865  1.1336  0.3027
 4776SOL     OW25786   2.384   3.754  13.407 -0.1313 -0.0888 -0.3756
 4776SOL    HW125787   2.474   3.766  13.374  0.3669 -1.2756  0.5699
 4776SOL    HW225788   2.384   3.825  13.472  0.1482  0.6928 -1.2192
 4777SOL     OW25789   0.950   0.278  10.403 -0.1382  0.0353  0.7887
 4777SOL    HW125790   1.027   0.222  10.409 -0.2726 -0.2928 -0.7051
 4777SOL    HW225791   0.970   0.300  10.312  0.8595 -1.2512  0.6990
 4778SOL     OW25792   2.217   1.460   1.902  0.6812 -0.5813  0.0336
 4778SOL    HW125793   2.168   1.494   1.826 -0.1688  2.0102  1.7565
 4778SOL    HW225794   2.147   1.446   1.966  0.3092 -0.8892 -0.4410
 4779SOL     OW25795   4.679   1.636   5.377 -0.0315  0.1274 -0.0689
 4779SOL    HW125796   4.681   1.542   5.395 -1.1759  0.1351  0.1057
 4779SOL    HW225797   0.020   1.662   5.444 -2.0434  2.1870  1.0375
 4780SOL     OW25798   4.670   3.800  15.362  0.5540  0.1174 -0.4488
 4780SOL    HW125799   4.647   3.743  15.289 -0.5099 -0.5043  0.3670
 4780SOL    HW225800   0.040   3.815  15.345  0.0142  2.1884 -1.6032
 4781SOL     OW25801   0.721   1.825   4.005 -0.2857 -0.2100  0.2885
 4781SOL    HW125802   0.785   1.892   4.029  1.6388 -1.8592 -0.1911
 4781SOL    HW225803   0.761   1.797   3.922 -0.9678 -0.7663  0.1546
 4782SOL     OW25804   2.572   4.388   5.695  0.1040 -0.0626  0.1046
 4782SOL    HW125805   2.476   4.390   5.698  0.0524 -0.3527 -1.1337
 4782SOL    HW225806   2.596   4.481   5.704  0.2526 -0.1481  0.5679
 4783SOL     OW25807   1.981   2.176  16.876  0.1629 -0.1545 -0.2612
 4783SOL    HW125808   1.893   2.193  16.843 -0.1183 -2.2033 -0.5934
 4783SOL    HW225809   2.039   2.184  16.800 -0.3230 -2.5660 -0.8895
 4784SOL     OW25810   1.668   0.153   0.145 -0.0659 -0.0909  0.0974
 4784SOL    HW125811   1.583   0.179   0.181 -0.6051  0.5694 -1.6536
 4784SOL    HW225812   1.678   0.210   0.069 -0.0842 -1.0432 -0.6151
 4785SOL     OW25813   3.797   0.962   7.189 -0.3555  0.2755 -0.1474
 4785SOL    HW125814   3.765   1.004   7.269  0.1600 -0.2993  0.3628
 4785SOL    HW225815   3.890   0.951   7.209 -0.5109 -1.1507 -0.1872
 4786SOL     OW25816   2.391   0.275   4.758  1.0903 -0.3143  0.4570
 4786SOL    HW125817   2.473   0.316   4.783  0.8730  0.0801  0.5197
 4786SOL    HW225818   2.326   0.345   4.754  1.3446 -0.1388 -0.5882
 4787SOL     OW25819   4.167   1.515   7.341 -0.1863  0.6327  1.2268
 4787SOL    HW125820   4.253   1.533   7.378  1.0793 -2.6450 -0.1641
 4787SOL    HW225821   4.122   1.597   7.366  0.4172  0.8107  1.7127
 4788SOL     OW25822   3.802   4.684   3.663 -0.0455 -0.2202 -0.1243
 4788SOL    HW125823   3.768   4.712   3.578  0.2312 -0.4799 -0.3206
 4788SOL    HW225824   3.891   4.654   3.641 -0.1010  0.7329 -1.7016
 4789SOL     OW25825   3.851   2.403  16.477  0.2041  0.3816 -0.3380
 4789SOL    HW125826   3.834   2.449  16.395 -1.7332  0.0067 -0.1407
 4789SOL    HW225827   3.914   2.468  16.509 -0.0930  0.4055  0.1987
 4790SOL     OW25828   2.265   2.786   5.871 -0.3531  0.3895  0.1295
 4790SOL    HW125829   2.339   2.797   5.930 -0.7346  0.8784  0.5120
 4790SOL    HW225830   2.281   2.865   5.819  2.5704  1.0489  2.0853
 4791SOL     OW25831   2.371   2.203   5.928 -0.1631 -0.5884  0.0445
 4791SOL    HW125832   2.316   2.274   5.961  2.9973  1.6199  0.5438
 4791SOL    HW225833   2.444   2.204   5.989 -0.7378  0.7957  0.7032
 4792SOL     OW25834   4.333   0.393   6.867 -0.4907  0.3843  0.6315
 4792SOL    HW125835   4.389   0.352   6.933 -0.2395 -2.3011 -1.2810
 4792SOL    HW225836   4.384   0.388   6.786 -1.6274 -1.2342  0.0367
 4793SOL     OW25837   1.871   3.753   6.230 -0.5059 -0.1562  0.1301
 4793SOL    HW125838   1.780   3.779   6.246 -0.1139  1.5354 -0.3728
 4793SOL    HW225839   1.890   3.799   6.148  0.8386  1.9256  1.6016
 4794SOL     OW25840   0.230   2.571   2.257  0.5602 -0.2316 -0.3046
 4794SOL    HW125841   0.287   2.495   2.271  0.2531 -0.4704 -0.3569
 4794SOL    HW225842   0.290   2.642   2.235 -1.8286  2.0143  0.4886
 4795SOL     OW25843   0.078   2.505   1.454  0.5862  0.0377  0.0866
 4795SOL    HW125844   0.000   2.454   1.476  2.5129 -1.6627  3.0033
 4795SOL    HW225845   0.113   2.531   1.539 -0.2956 -0.7920  0.6966
 4796SOL     OW25846   0.664   4.623   5.151 -0.1565  0.1895 -0.1050
 4796SOL    HW125847   0.687   4.675   5.074 -1.5761  2.1644  0.7901
 4796SOL    HW225848   0.569   4.621   5.149 -0.1346  1.3065 -2.2012
 4797SOL     OW25849   1.627   1.800   8.005 -0.0787  0.1673  0.1975
 4797SOL    HW125850   1.601   1.775   8.094  1.3675  3.1567  1.4612
 4797SOL    HW225851   1.709   1.847   8.019  0.6136 -1.1990  0.7781
 4798SOL     OW25852   1.447   4.380   7.626  0.0018  0.3402 -0.1488
 4798SOL    HW125853   1.399   4.298   7.616 -2.2129  1.6543 -0.3277
 4798SOL    HW225854   1.372   4.438   7.640  2.2825  2.9857  1.3631
 4799SOL     OW25855   3.166   2.715   5.850 -0.4660 -0.7348 -0.0433
 4799SOL    HW125856   3.197   2.669   5.772 -0.7043 -0.4146 -0.3295
 4799SOL    HW225857   3.176   2.808   5.830 -0.2920 -0.7003  0.2120
 4800SOL     OW25858   4.698   1.282   6.498  0.1297 -0.1857  0.2855
 4800SOL    HW125859   4.643   1.232   6.437 -0.7790  0.2996  0.6964
 4800SOL    HW225860   4.639   1.281   6.574 -1.1761  0.6340 -0.7056
 4801SOL     OW25861   1.304   4.053   2.560  0.5489 -0.2296 -0.5374
 4801SOL    HW125862   1.356   4.098   2.493  1.7158 -1.1770 -0.2808
 4801SOL    HW225863   1.329   3.961   2.553 -0.4304 -0.4944 -0.6121
 4802SOL     OW25864   3.278   4.557   7.919  0.1302 -0.0672 -0.2542
 4802SOL    HW125865   3.249   4.523   7.834  0.3492  1.1666 -0.8255
 4802SOL    HW225866   3.308   4.646   7.903 -0.7162  0.4235  0.8837
 4803SOL     OW25867   2.606   1.183  15.347 -0.1971  0.2999  0.1631
 4803SOL    HW125868   2.681   1.201  15.404 -0.1414 -1.2304  0.5740
 4803SOL    HW225869   2.605   1.258  15.288  0.4179 -1.5007 -2.1545
 4804SOL     OW25870   1.895   1.027  14.836 -0.5544 -0.5857  0.0888
 4804SOL    HW125871   1.884   1.098  14.772 -1.6831  0.1194  1.0523
 4804SOL    HW225872   1.962   0.976  14.791 -0.2601 -0.7306  0.6867
 4805SOL     OW25873   4.513   0.728   6.535  0.2162 -0.1175 -0.2079
 4805SOL    HW125874   4.456   0.658   6.566  1.9538 -0.4043  2.3324
 4805SOL    HW225875   4.597   0.683   6.523 -0.8568 -3.2965  4.1791
 4806SOL     OW25876   1.107   3.128  15.382 -0.2622  0.0566 -0.2801
 4806SOL    HW125877   1.176   3.141  15.317 -0.5419  2.2567 -0.1427
 4806SOL    HW225878   1.154   3.135  15.465 -0.5207 -0.2968 -0.1080
 4807SOL     OW25879   0.888   3.387  11.480 -0.2237 -0.5611 -0.3234
 4807SOL    HW125880   0.803   3.421  11.511  0.3454  0.4698  0.1024
 4807SOL    HW225881   0.939   3.413  11.556 -1.6670  1.6107 -0.0993
 4808SOL     OW25882   2.883   1.014   1.435 -0.7800 -0.3186 -0.2547
 4808SOL    HW125883   2.897   1.103   1.466 -1.5979  0.0989 -1.0788
 4808SOL    HW225884   2.967   0.968   1.438 -0.7396 -0.2709 -0.6548
 4809SOL     OW25885   0.808   1.041   4.549  0.1891  0.1872  0.2246
 4809SOL    HW125886   0.759   1.040   4.631  0.2203  0.6855  0.2493
 4809SOL    HW225887   0.820   0.948   4.532  0.4222  0.0976  0.8614
 4810SOL     OW25888   2.222   4.624   3.548 -0.1069 -0.5275 -0.8818
 4810SOL    HW125889   2.220   4.687   3.620  1.1665 -1.5463  0.0576
 4810SOL    HW225890   2.212   4.541   3.595  1.8446 -0.7190 -0.7941
 4811SOL     OW25891   4.129   2.445   5.100 -0.3528  0.0789  0.3592
 4811SOL    HW125892   4.111   2.530   5.141 -0.1636  1.1354 -1.7443
 4811SOL    HW225893   4.223   2.434   5.113 -0.3655  1.0408  1.3066
 4812SOL     OW25894   0.012   0.460  16.692 -0.3979  0.7262 -0.6403
 4812SOL    HW125895   4.720   0.366  16.697  0.3641  0.7964  2.4829
 4812SOL    HW225896   4.660   0.492  16.641 -0.0033 -0.9189 -2.2612
 4813SOL     OW25897   3.463   3.367   7.515 -0.1139  0.2712  0.0742
 4813SOL    HW125898   3.417   3.285   7.499  1.0960 -0.7548  1.8373
 4813SOL    HW225899   3.396   3.431   7.490  0.1039 -0.0319 -1.2390
 4814SOL     OW25900   0.598   0.494   9.303 -0.0338  0.1632 -0.8162
 4814SOL    HW125901   0.623   0.408   9.270  0.1783  0.1906 -0.7319
 4814SOL    HW225902   0.574   0.521   9.215 -0.9706 -0.7352 -0.8333
 4815SOL     OW25903   3.909   1.609  12.781 -0.0472  0.0925  0.7351
 4815SOL    HW125904   3.930   1.611  12.687 -0.2186 -0.5024  0.6877
 4815SOL    HW225905   3.990   1.575  12.819 -0.2866  2.0723  3.0444
 4816SOL     OW25906   0.518   2.019   3.713  0.1562 -0.1802  0.1752
 4816SOL    HW125907   0.557   2.068   3.785 -1.7571  2.0545 -0.3151
 4816SOL    HW225908   0.443   2.075   3.694  1.5819  1.3271 -1.0147
 4817SOL     OW25909   3.517   0.863   6.372 -0.1012 -0.0090 -0.0656
 4817SOL    HW125910   3.487   0.846   6.461 -2.2206 -2.0196 -1.1656
 4817SOL    HW225911   3.596   0.914   6.386 -0.1854  0.1136 -0.0362
 4818SOL     OW25912   2.546   2.794  16.553 -0.4825 -0.1184 -0.0710
 4818SOL    HW125913   2.514   2.734  16.486 -0.6030  0.4119 -0.4918
 4818SOL    HW225914   2.480   2.776  16.619 -0.6355  2.8848  0.5919
 4819SOL     OW25915   1.301   3.250   6.812 -0.6895 -0.3620 -0.0443
 4819SOL    HW125916   1.355   3.254   6.890 -0.3979  1.0337 -0.3127
 4819SOL    HW225917   1.217   3.262   6.857 -1.0475 -0.1962 -0.7503
 4820SOL     OW25918   2.644   2.679   7.686 -0.6300 -0.1701 -0.1355
 4820SOL    HW125919   2.628   2.585   7.700  1.2712 -0.4676 -0.0179
 4820SOL    HW225920   2.715   2.695   7.749  0.4519 -0.3321 -1.3232
 4821SOL     OW25921   3.271   0.078  16.054  0.1322 -0.0888  0.7899
 4821SOL    HW125922   3.351   0.049  16.098 -0.6538 -2.5368  0.5994
 4821SOL    HW225923   3.282   0.173  16.051 -1.1690  0.0291 -0.2740
 4822SOL     OW25924   4.205   0.172   7.273 -0.6373  0.3610  0.2094
 4822SOL    HW125925   4.122   0.216   7.291 -1.4907 -1.7854  1.4575
 4822SOL    HW225926   4.174   0.084   7.254 -0.0235 -0.0638  1.1409
 4823SOL     OW25927   3.714   0.198  16.698 -0.5027  0.3391 -0.5372
 4823SOL    HW125928   3.796   0.246  16.715 -0.1217 -0.7817  0.8153
 4823SOL    HW225929   3.654   0.262  16.659 -0.8715  0.6387  0.5227
 4824SOL     OW25930   0.424   4.267   3.075  0.5208  0.1042  0.4319
 4824SOL    HW125931   0.462   4.192   3.121  1.7022  1.3688  1.5648
 4824SOL    HW225932   0.501   4.292   3.023 -0.1603  1.8760  0.2575
 4825SOL     OW25933   0.487   3.164  11.695 -0.2823 -0.0398 -0.1038
 4825SOL    HW125934   0.529   3.108  11.630  1.0978  0.2697  0.5155
 4825SOL    HW225935   0.560   3.212  11.736  0.7314 -0.3544 -1.5473
 4826SOL     OW25936   3.780   2.104   6.917  0.2974 -0.1760  0.1695
 4826SOL    HW125937   3.864   2.124   6.958  0.2380  1.7352 -0.6437
 4826SOL    HW225938   3.737   2.052   6.984  1.6917 -0.2030  1.0328
 4827SOL     OW25939   2.731   0.878  15.745 -0.0908  0.2677 -0.6215
 4827SOL    HW125940   2.810   0.931  15.748 -0.2340  0.4817 -0.5984
 4827SOL    HW225941   2.713   0.872  15.839  2.4349 -1.2134 -0.2231
 4828SOL     OW25942   2.426   1.536  10.866  1.0860 -0.1089 -0.3656
 4828SOL    HW125943   2.472   1.602  10.814 -2.3225  2.5504  0.0366
 4828SOL    HW225944   2.340   1.539  10.826  1.0234  1.1297 -0.1380
 4829SOL     OW25945   4.262   1.202   8.841 -0.2130  0.2686  0.4266
 4829SOL    HW125946   4.354   1.209   8.864 -0.0025  0.7440 -0.5464
 4829SOL    HW225947   4.279   1.256   8.764 -0.3216 -3.3402 -2.1376
 4830SOL     OW25948   0.999   2.964   9.944 -0.0696  0.2924  0.3736
 4830SOL    HW125949   1.052   2.895   9.982  1.3130  1.0741 -0.1174
 4830SOL    HW225950   1.038   3.041   9.986  1.3322 -0.8848  1.2244
 4831SOL     OW25951   3.520   4.521  13.836 -0.1924 -0.2236 -0.3245
 4831SOL    HW125952   3.535   4.616  13.835 -1.3647 -0.0351  0.1237
 4831SOL    HW225953   3.608   4.486  13.823  0.8293  2.3724 -0.5814
 4832SOL     OW25954   1.984   4.108   7.979 -0.1070  0.2723  0.0543
 4832SOL    HW125955   1.971   4.188   8.030 -0.0943  0.4964 -0.2889
 4832SOL    HW225956   2.030   4.148   7.905 -1.1769 -1.3324 -1.4907
 4833SOL     OW25957   1.489   2.498  12.224 -0.0832 -0.1050 -0.2709
 4833SOL    HW125958   1.542   2.458  12.155  0.4460  1.3835 -0.7065
 4833SOL    HW225959   1.411   2.444  12.208 -0.1467 -0.8550  2.5203
 4834SOL     OW25960   3.376   1.647   1.130 -0.2155 -0.6108 -0.5214
 4834SOL    HW125961   3.358   1.686   1.045 -0.2090  0.0039 -0.2393
 4834SOL    HW225962   3.433   1.575   1.103  1.1596 -0.1762  1.2610
 4835SOL     OW25963   4.635   2.070   4.644 -0.7377 -1.2749 -0.1518
 4835SOL    HW125964   4.661   2.025   4.563 -1.3773 -0.2615 -0.9178
 4835SOL    HW225965   4.688   2.022   4.707  0.3944  1.0002  0.6291
 4836SOL     OW25966   4.412   4.280  11.756  0.0630 -0.1961 -0.1207
 4836SOL    HW125967   4.457   4.197  11.774 -0.6536 -0.0935  2.1709
 4836SOL    HW225968   4.427   4.292  11.663  1.4552  0.9785  0.2455
 4837SOL     OW25969   0.695   3.199  12.087 -0.0162  0.1693  0.1051
 4837SOL    HW125970   0.728   3.272  12.033  1.9739 -1.9027 -1.4872
 4837SOL    HW225971   0.678   3.129  12.024 -1.4640 -0.4251  1.1567
 4838SOL     OW25972   0.507   2.037   4.161 -0.2427  0.2907  0.1161
 4838SOL    HW125973   0.497   1.944   4.143  3.0060  0.0367 -0.3359
 4838SOL    HW225974   0.590   2.053   4.117  0.9414 -2.3195  1.4271
 4839SOL     OW25975   4.076   4.183   7.178 -0.0099  0.1335 -0.0553
 4839SOL    HW125976   3.992   4.140   7.163  1.4496 -2.1775 -1.6014
 4839SOL    HW225977   4.092   4.154   7.268  0.9991 -0.0947 -0.3030
 4840SOL     OW25978   4.619   2.398   8.933 -0.4171 -0.1292 -0.2649
 4840SOL    HW125979   4.676   2.363   9.001  2.8282  3.5493 -1.0278
 4840SOL    HW225980   4.540   2.425   8.980 -0.8855 -0.3355 -0.9424
 4841SOL     OW25981   2.582   2.100   8.670  0.2640 -0.2873  0.1652
 4841SOL    HW125982   2.550   2.099   8.761  2.2966  0.0023  0.8928
 4841SOL    HW225983   2.500   2.111   8.622 -1.0259  0.3459  2.4971
 4842SOL     OW25984   1.530   0.743   0.831  0.5145  0.2267  0.1422
 4842SOL    HW125985   1.577   0.824   0.809  2.1070  0.1906  3.4788
 4842SOL    HW225986   1.521   0.698   0.747  1.2275 -1.3669  0.9282
 4843SOL     OW25987   3.064   4.532   9.558  0.2976 -0.0430 -0.1008
 4843SOL    HW125988   3.125   4.461   9.577  1.1446  0.4244 -1.0304
 4843SOL    HW225989   3.045   4.523   9.464 -1.9010 -0.3193  0.3731
 4844SOL     OW25990   4.436   2.072   9.405  0.5124 -0.1845  0.1045
 4844SOL    HW125991   4.494   2.033   9.339  1.3101  0.1813  0.5933
 4844SOL    HW225992   4.495   2.142   9.434 -0.2593  0.3952  0.2663
 4845SOL     OW25993   2.552   0.287  14.851 -0.1350  0.2221  0.2089
 4845SOL    HW125994   2.518   0.356  14.908 -0.1234  0.0802  0.3891
 4845SOL    HW225995   2.481   0.289  14.787  1.0706 -1.8999 -1.2004
 4846SOL     OW25996   4.348   3.089  11.648  0.3252 -0.6074 -0.3165
 4846SOL    HW125997   4.436   3.059  11.670  0.7110  1.2724  0.7109
 4846SOL    HW225998   4.293   3.012  11.663  0.0350 -0.4036 -0.3483
 4847SOL     OW25999   3.682   1.737  13.562  0.3328 -0.3186  0.5728
 4847SOL    HW126000   3.736   1.771  13.490  2.8332 -0.2637  2.4616
 4847SOL    HW226001   3.724   1.651  13.559 -1.8093 -1.3870  0.9368
 4848SOL     OW26002   3.099   2.118   8.709 -0.2563  0.2935 -0.4355
 4848SOL    HW126003   3.175   2.114   8.767 -1.0500 -0.4511  0.5653
 4848SOL    HW226004   3.064   2.204   8.730 -1.3060 -0.3430  0.4617
 4849SOL     OW26005   3.044   0.192   3.491  0.5324 -0.1176  0.2091
 4849SOL    HW126006   2.978   0.148   3.438  0.6535 -1.3218  1.0726
 4849SOL    HW226007   3.031   0.287   3.484  0.4804 -0.1275  0.1751
 4850SOL     OW26008   3.250   3.504   4.951 -0.6299  1.0846 -0.2569
 4850SOL    HW126009   3.293   3.550   4.879  2.2180  1.2754  1.5424
 4850SOL    HW226010   3.322   3.469   5.003 -1.7005  0.0588  0.5313
 4851SOL     OW26011   0.115   3.695   1.317 -0.1662 -0.4205  0.5135
 4851SOL    HW126012   0.207   3.717   1.305  0.0545 -1.4774  0.2589
 4851SOL    HW226013   0.079   3.721   1.232  1.6047 -0.2962 -0.1997
 4852SOL     OW26014   2.043   2.667  15.495  0.1881 -0.5270 -0.2845
 4852SOL    HW126015   2.091   2.589  15.524  0.2812 -0.4767 -0.3047
 4852SOL    HW226016   2.118   2.726  15.488  0.0301 -0.3084 -0.1229
 4853SOL     OW26017   2.667   1.536   1.782 -0.1243  0.2733  0.2437
 4853SOL    HW126018   2.665   1.598   1.855 -1.4882  1.2221 -0.6120
 4853SOL    HW226019   2.589   1.483   1.797  1.0569 -1.0517  1.7324
 4854SOL     OW26020   1.469   3.127   1.697  0.0825 -0.6323  0.4030
 4854SOL    HW126021   1.424   3.199   1.742 -3.4584 -2.9716  0.6493
 4854SOL    HW226022   1.528   3.102   1.768 -0.3473 -1.5135  0.4489
 4855SOL     OW26023   0.463   2.885   4.766 -0.6509 -0.1954 -0.1571
 4855SOL    HW126024   0.428   2.810   4.814 -0.2906 -0.6454 -0.5893
 4855SOL    HW226025   0.545   2.853   4.726 -0.4859  0.1111 -0.0617
 4856SOL     OW26026   4.716   2.166   7.766  0.2907  0.1331 -0.0176
 4856SOL    HW126027   4.722   2.260   7.783 -0.5919 -0.2620  2.5266
 4856SOL    HW226028   0.087   2.148   7.758 -0.1835 -1.4197 -1.9740
 4857SOL     OW26029   1.034   4.584   7.054 -0.0587 -0.2219 -0.2123
 4857SOL    HW126030   0.964   4.640   7.020  0.1928 -0.4395 -1.1063
 4857SOL    HW226031   1.013   4.558   7.143  2.3210  1.2423  0.7920
 4858SOL     OW26032   2.730   4.476  12.052 -0.4706 -0.3222  0.4922
 4858SOL    HW126033   2.642   4.500  12.079 -0.2217 -0.0923  1.1028
 4858SOL    HW226034   2.771   4.563  12.047  0.1315 -0.5977  0.5627
 4859SOL     OW26035   0.723   1.997  12.087 -0.1584 -0.1433  0.2056
 4859SOL    HW126036   0.729   2.049  12.006  0.3209  3.1278  2.3598
 4859SOL    HW226037   0.643   1.949  12.068 -0.6689  1.7116 -2.4646
 4860SOL     OW26038   2.405   4.577   4.359 -0.3940 -0.1387 -0.3272
 4860SOL    HW126039   2.325   4.600   4.312 -1.1245 -1.3003  0.3540
 4860SOL    HW226040   2.453   4.557   4.279 -0.6418 -0.5383 -0.3720
 4861SOL     OW26041   0.171   0.503  16.446 -0.5349  0.1397  0.3153
 4861SOL    HW126042   0.127   0.577  16.487  0.1853  0.3260  0.7536
 4861SOL    HW226043   0.094   0.447  16.440 -0.7983  0.4829  0.5364
 4862SOL     OW26044   1.621   4.217   5.404 -0.1321  0.1611  0.4341
 4862SOL    HW126045   1.535   4.196   5.443  1.0305 -2.9905  1.3034
 4862SOL    HW226046   1.604   4.184   5.316 -0.2592 -1.0569  0.9043
 4863SOL     OW26047   1.771   4.516   2.490 -0.5525  0.1613 -0.2045
 4863SOL    HW126048   1.837   4.584   2.474  1.0933 -1.8258 -1.7035
 4863SOL    HW226049   1.815   4.433   2.478 -1.9606 -0.7066  0.6297
 4864SOL     OW26050   0.101   0.179   4.267 -0.2538 -0.8337 -0.6015
 4864SOL    HW126051   0.117   0.271   4.287  1.1912 -1.2595  0.1544
 4864SOL    HW226052   0.175   0.161   4.209  0.9420 -1.1473  1.0612
 4865SOL     OW26053   1.474   3.726  12.318 -0.2916  0.5578  0.1135
 4865SOL    HW126054   1.466   3.754  12.409 -1.0435 -1.4325  0.6575
 4865SOL    HW226055   1.517   3.802  12.279 -0.0949 -0.2692 -1.2727
 4866SOL     OW26056   3.392   4.315   5.948 -0.2820 -0.2754  0.3954
 4866SOL    HW126057   3.404   4.391   6.004  2.9271  1.3875 -2.5593
 4866SOL    HW226058   3.452   4.332   5.875 -3.4742  0.1911 -2.1284
 4867SOL     OW26059   1.812   1.616   5.414  0.1685 -0.1615 -0.1528
 4867SOL    HW126060   1.868   1.572   5.350 -0.8681  0.0464 -1.1901
 4867SOL    HW226061   1.829   1.708   5.394  3.0101 -0.7679 -0.5547
 4868SOL     OW26062   0.867   3.778   1.578  0.3647 -0.5388 -0.1296
 4868SOL    HW126063   0.891   3.695   1.618 -2.0000 -0.2996  1.8285
 4868SOL    HW226064   0.920   3.780   1.498  0.2622  0.3819 -0.1731
 4869SOL     OW26065   3.221   2.131   2.724 -0.3388  0.1286 -0.5268
 4869SOL    HW126066   3.232   2.106   2.632  2.1002  0.1290 -0.2330
 4869SOL    HW226067   3.133   2.098   2.741  0.2100 -3.2304 -4.4615
 4870SOL     OW26068   1.396   4.130  10.292 -0.4760  0.2040 -0.0919
 4870SOL    HW126069   1.304   4.103  10.285 -1.1764  2.8964 -1.2125
 4870SOL    HW226070   1.435   4.054  10.335  2.2476  1.6182 -0.0643
 4871SOL     OW26071   2.003   1.341  14.077 -0.0619  0.0108  0.4335
 4871SOL    HW126072   1.958   1.410  14.027  0.4679 -0.9461 -1.3476
 4871SOL    HW226073   1.958   1.263  14.046 -1.2243  0.9890 -0.3675
 4872SOL     OW26074   3.719   0.916   7.974 -0.0279 -0.4963  0.2753
 4872SOL    HW126075   3.727   0.911   7.879  1.5099 -2.8854  0.5304
 4872SOL    HW226076   3.687   1.005   7.989  1.1203 -0.1505  0.6029
 4873SOL     OW26077   3.853   4.238   7.445 -0.0301  0.0777 -0.3264
 4873SOL    HW126078   3.920   4.305   7.429  0.8984 -1.1924 -1.6435
 4873SOL    HW226079   3.790   4.285   7.501 -0.0592 -0.0209 -0.2770
 4874SOL     OW26080   0.393   1.932   1.936 -0.0036 -0.0220 -0.3186
 4874SOL    HW126081   0.368   1.882   1.859 -1.9220 -0.7612  0.7985
 4874SOL    HW226082   0.388   2.020   1.897 -0.9505 -0.5091 -1.2871
 4875SOL     OW26083   4.486   2.598  15.921  0.4640  0.3366 -0.4932
 4875SOL    HW126084   4.434   2.620  15.844  0.0500 -0.4086 -0.4254
 4875SOL    HW226085   4.551   2.668  15.914  0.1315  0.7578  0.7092
 4876SOL     OW26086   0.681   0.501   2.910  0.1120 -0.3443 -0.1668
 4876SOL    HW126087   0.774   0.497   2.888 -0.1232 -1.5910 -0.9239
 4876SOL    HW226088   0.638   0.526   2.828 -1.3431  0.3514  0.7992
 4877SOL     OW26089   2.835   2.889   9.563 -0.3815 -0.3712  0.4174
 4877SOL    HW126090   2.816   2.956   9.498 -1.9229 -1.7556 -0.5553
 4877SOL    HW226091   2.805   2.927   9.645 -2.3303  0.8840 -0.8861
 4878SOL     OW26092   1.296   3.001  14.760 -0.3085 -0.2406  0.5949
 4878SOL    HW126093   1.333   2.929  14.707 -1.0172  0.0756 -0.3325
 4878SOL    HW226094   1.280   3.049  14.679  0.3453 -0.0311  0.5979
 4879SOL     OW26095   0.808   1.121   2.886 -0.3285 -0.0792 -0.1088
 4879SOL    HW126096   0.744   1.191   2.876  0.7252  0.9434  0.2400
 4879SOL    HW226097   0.805   1.106   2.792  1.0488 -0.8325 -0.0307
 4880SOL     OW26098   1.162   1.321   0.341  0.5881  0.6326  0.2111
 4880SOL    HW126099   1.237   1.361   0.385 -0.1223  2.0224  0.1580
 4880SOL    HW226100   1.197   1.334   0.253 -0.9840  1.2138 -0.3292
 4881SOL     OW26101   2.931   0.805   4.333  0.5640  0.2300  0.0050
 4881SOL    HW126102   2.939   0.894   4.299  1.2559 -0.7617 -2.3856
 4881SOL    HW226103   2.837   0.819   4.344  0.7496  1.4055  0.1174
 4882SOL     OW26104   0.930   3.419   7.347  0.1978  0.3323 -0.6172
 4882SOL    HW126105   0.922   3.469   7.429  1.6633 -0.6168  0.1127
 4882SOL    HW226106   0.948   3.482   7.277  1.9550  2.2661  1.5363
 4883SOL     OW26107   2.188   0.195   1.533  0.1749 -0.0494  0.0845
 4883SOL    HW126108   2.197   0.260   1.602 -2.3563  1.3393 -0.8774
 4883SOL    HW226109   2.093   0.180   1.529  0.2367 -0.6042  0.6440
 4884SOL     OW26110   1.281   4.325  16.099 -0.5915  0.6991  0.6509
 4884SOL    HW126111   1.193   4.347  16.130 -1.7546  0.3191 -2.4726
 4884SOL    HW226112   1.339   4.368  16.162 -0.8304  1.9840 -0.0073
 4885SOL     OW26113   1.594   3.178   7.408 -0.3314  0.4188  0.7600
 4885SOL    HW126114   1.629   3.139   7.488 -1.3644  0.9249  1.4673
 4885SOL    HW226115   1.626   3.122   7.337  1.5453  0.0831  1.8879
 4886SOL     OW26116   2.047   4.397   5.467 -0.7112  0.2182 -0.1645
 4886SOL    HW126117   2.042   4.473   5.409 -1.0257  0.2703 -0.0721
 4886SOL    HW226118   1.977   4.411   5.531  0.8310 -1.1781  1.8260
 4887SOL     OW26119   3.009   4.715   0.789  0.5600  0.0032  0.3280
 4887SOL    HW126120   3.036   0.055   0.723  0.6977  0.7139  1.0703
 4887SOL    HW226121   3.034   0.051   0.860 -0.7318  0.6394  0.2482
 4888SOL     OW26122   2.842   1.952   7.659  0.2404 -0.3670 -0.1321
 4888SOL    HW126123   2.772   1.994   7.709  0.5947 -0.7028  0.6465
 4888SOL    HW226124   2.923   1.999   7.680  0.5307 -0.6701 -0.6017
 4889SOL     OW26125   0.575   0.644   7.853  0.2467 -0.2145 -0.3789
 4889SOL    HW126126   0.491   0.615   7.816 -0.3792  0.2574  0.6566
 4889SOL    HW226127   0.551   0.729   7.890 -1.2760 -1.5002  1.6063
 4890SOL     OW26128   4.617   3.560   7.207  0.5576 -0.0766  0.2052
 4890SOL    HW126129   4.549   3.540   7.143  1.5713 -1.6085 -0.3859
 4890SOL    HW226130   4.693   3.523   7.162  0.0790 -0.8564  0.0448
 4891SOL     OW26131   3.591   4.325   0.504 -0.2473 -0.1071  0.2101
 4891SOL    HW126132   3.569   4.418   0.506 -0.7102 -0.1692 -1.8564
 4891SOL    HW226133   3.626   4.308   0.591 -0.2346 -3.8835 -0.5359
 4892SOL     OW26134   0.130   2.222  12.520 -0.2487 -0.6474 -0.1768
 4892SOL    HW126135   0.197   2.167  12.480 -1.7747 -1.6861 -1.2696
 4892SOL    HW226136   0.140   2.183  12.607  0.4698  0.2607  0.1529
 4893SOL     OW26137   3.807   2.622   3.444 -0.6263 -0.4735 -0.1699
 4893SOL    HW126138   3.817   2.527   3.434  0.1537 -0.6753  2.6574
 4893SOL    HW226139   3.876   2.656   3.386 -1.1888  1.6743  0.4081
 4894SOL     OW26140   4.219   1.053  13.092  0.0404 -0.1511 -0.0065
 4894SOL    HW126141   4.172   1.136  13.083  2.2271  1.0935  0.3040
 4894SOL    HW226142   4.278   1.058  13.017 -0.4503 -2.3338 -0.5385
 4895SOL     OW26143   3.116   0.443   3.262  0.5501  0.1007 -0.0721
 4895SOL    HW126144   3.070   0.485   3.189 -1.4149 -0.7068  0.7137
 4895SOL    HW226145   3.140   0.359   3.222  1.3619  1.3456 -2.2142
 4896SOL     OW26146   4.671   2.217   5.906 -0.4148 -0.9911 -0.3729
 4896SOL    HW126147   4.701   2.191   5.993  0.0310  1.3254  0.1828
 4896SOL    HW226148   0.031   2.220   5.859  0.0478  0.6077  0.5311
 4897SOL     OW26149   1.890   0.605  10.872 -0.2029  0.1480 -0.0015
 4897SOL    HW126150   1.871   0.644  10.958  0.0703 -0.5652  0.3823
 4897SOL    HW226151   1.809   0.559  10.851  0.3074 -0.8768  0.2909
 4898SOL     OW26152   0.432   1.754   7.046 -0.0120  0.1387  0.4676
 4898SOL    HW126153   0.526   1.737   7.037 -0.5992 -1.6583 -2.0558
 4898SOL    HW226154   0.394   1.687   6.990  0.5651  0.2434 -0.0513
 4899SOL     OW26155   2.970   4.072  12.137 -0.0628 -0.3770  0.1059
 4899SOL    HW126156   2.942   4.007  12.201 -1.5648 -0.2884 -0.4547
 4899SOL    HW226157   3.052   4.031  12.110 -0.3558 -0.8673 -0.0478
 4900SOL     OW26158   4.165   3.851   2.750 -0.5365  0.1470 -0.2529
 4900SOL    HW126159   4.178   3.757   2.762  0.2989  0.4156  0.9870
 4900SOL    HW226160   4.077   3.857   2.713 -1.5211 -1.1767  1.9047
 4901SOL     OW26161   2.383   2.357   7.433 -0.0978 -0.0290  0.4048
 4901SOL    HW126162   2.408   2.343   7.524 -1.8089 -1.2410  0.6949
 4901SOL    HW226163   2.386   2.452   7.423  0.4422  0.2103  3.0100
 4902SOL     OW26164   0.735   4.218   9.278 -0.4913 -0.0464  0.7913
 4902SOL    HW126165   0.797   4.291   9.273 -0.6848  0.0336 -0.4023
 4902SOL    HW226166   0.772   4.175   9.355 -0.8628 -0.0547  0.9697
 4903SOL     OW26167   1.586   0.020   8.382 -0.1812  0.4778  0.3107
 4903SOL    HW126168   1.562   4.652   8.365  2.4372 -0.3714  1.1414
 4903SOL    HW226169   1.505   0.066   8.402 -1.0525 -0.4100 -1.1594
 4904SOL     OW26170   0.114   1.116   8.384  0.2669 -0.3736 -0.0303
 4904SOL    HW126171   0.028   1.140   8.351 -0.5176 -5.2438 -1.6016
 4904SOL    HW226172   0.156   1.201   8.389  1.0647 -0.8336  0.9350
 4905SOL     OW26173   4.493   4.523  13.574 -0.0311 -0.4598  0.5311
 4905SOL    HW126174   4.516   4.577  13.650 -0.5649  0.0586  0.3212
 4905SOL    HW226175   4.414   4.481  13.607  1.3121 -0.2787  3.9734
 4906SOL     OW26176   2.216   3.159  16.635  0.2804  0.0033  0.3484
 4906SOL    HW126177   2.165   3.206  16.569 -0.0205  0.2335  0.7457
 4906SOL    HW226178   2.234   3.234  16.692  3.0023 -1.3198  1.2081
 4907SOL     OW26179   0.079   0.288  14.298  0.5913  0.2455  0.5355
 4907SOL    HW126180   0.056   0.257  14.210  2.7081 -2.1660  0.8339
 4907SOL    HW226181   4.722   0.283  14.351 -0.0157  2.7591 -0.1348
 4908SOL     OW26182   3.978   3.813   6.809 -0.5146 -0.1232 -0.3444
 4908SOL    HW126183   4.058   3.772   6.775  0.9415  0.0014  2.9080
 4908SOL    HW226184   3.908   3.748   6.818  1.9975 -2.7959  0.2780
 4909SOL     OW26185   3.654   2.924  13.448 -0.4882  0.2676 -0.4098
 4909SOL    HW126186   3.580   2.961  13.496  0.4071 -1.2329  2.0974
 4909SOL    HW226187   3.611   2.929  13.362 -1.6139  1.1847  0.1992
 4910SOL     OW26188   3.460   1.945   2.658 -0.2170  0.0555  0.3954
 4910SOL    HW126189   3.528   2.012   2.665 -0.4266  0.5399 -2.1744
 4910SOL    HW226190   3.463   1.924   2.565 -1.7532 -0.2166  0.4051
 4911SOL     OW26191   1.603   0.554  11.470  0.4143  0.0645 -0.0201
 4911SOL    HW126192   1.663   0.540  11.398 -0.2535  0.6889 -0.6945
 4911SOL    HW226193   1.513   0.534  11.445  0.3055  2.3469 -1.4207
 4912SOL     OW26194   0.002   2.957   9.737 -0.1679  0.4597 -0.0872
 4912SOL    HW126195   0.019   3.044   9.774  0.1619  0.2436  0.2609
 4912SOL    HW226196   4.658   2.922   9.797  1.6005 -1.3489  0.8215
 4913SOL     OW26197   3.486   3.395   9.252  0.2847 -0.5509 -0.5525
 4913SOL    HW126198   3.405   3.440   9.277 -0.2041 -0.8027 -1.6368
 4913SOL    HW226199   3.543   3.437   9.316 -1.7932 -0.5517  1.3335
 4914SOL     OW26200   1.863   2.266   2.766 -0.2253  0.1996 -0.7254
 4914SOL    HW126201   1.832   2.215   2.840  0.6185  1.2459  0.3562
 4914SOL    HW226202   1.781   2.304   2.735 -1.8667 -1.1595  2.0146
 4915SOL     OW26203   2.026   0.065  10.515 -0.2017  0.4385 -0.1787
 4915SOL    HW126204   1.989   0.076  10.603 -0.0748 -0.3439 -0.0268
 4915SOL    HW226205   1.993   4.700  10.497  2.0804 -0.7059  1.2992
 4916SOL     OW26206   2.482   0.092   3.846  0.1554 -0.0072  0.1370
 4916SOL    HW126207   2.473   0.135   3.931 -1.1568 -1.5728  0.7871
 4916SOL    HW226208   2.395   0.057   3.829 -0.2056  0.3392  1.3056
 4917SOL     OW26209   2.062   1.017   1.792 -0.1195  0.5817  0.6282
 4917SOL    HW126210   2.058   0.951   1.723 -3.5964  0.3361  1.0501
 4917SOL    HW226211   2.139   1.000   1.846  0.4381 -0.1308 -0.4156
 4918SOL     OW26212   1.950   3.100   7.696 -0.8423 -0.4573  0.4645
 4918SOL    HW126213   2.015   3.045   7.740  0.4523 -0.6454 -1.7261
 4918SOL    HW226214   1.976   3.188   7.722 -1.9120 -0.3517  1.2019
 4919SOL     OW26215   3.050   0.013  10.383 -0.0289 -0.5923  0.3788
 4919SOL    HW126216   3.006   4.662  10.426 -1.1903 -0.0135  0.1841
 4919SOL    HW226217   2.981   0.045  10.325  2.5271  0.5226 -2.0016
 4920SOL     OW26218   2.175   0.691   7.851  0.0081  0.1230  0.1763
 4920SOL    HW126219   2.141   0.662   7.936  0.9154 -0.6701  0.2670
 4920SOL    HW226220   2.215   0.778   7.862 -0.4416  0.5855 -1.8693
 4921SOL     OW26221   0.468   3.727  15.094 -0.6156  0.2633 -0.0931
 4921SOL    HW126222   0.477   3.801  15.154  1.0361 -2.8826  3.5400
 4921SOL    HW226223   0.556   3.726  15.056 -0.5271 -1.8879  0.1846
 4922SOL     OW26224   0.329   2.293   6.530  0.0786  0.1511 -0.0522
 4922SOL    HW126225   0.324   2.378   6.486  0.2808  0.2403  0.0936
 4922SOL    HW226226   0.238   2.265   6.520 -0.3607  1.4941  0.0983
 4923SOL     OW26227   0.303   1.009   2.060 -0.2110 -0.2078  0.0821
 4923SOL    HW126228   0.313   1.047   1.973 -0.4127  0.1468  0.2174
 4923SOL    HW226229   0.208   1.012   2.071  0.0667 -0.4293  2.6370
 4924SOL     OW26230   3.141   1.654  15.034  0.7184  0.0676  0.2322
 4924SOL    HW126231   3.050   1.672  15.059 -0.0152 -1.7110 -1.1502
 4924SOL    HW226232   3.182   1.740  15.026  1.7374 -0.1156  3.4102
 4925SOL     OW26233   4.106   2.157   9.032 -0.1585  0.2028 -0.7032
 4925SOL    HW126234   4.102   2.064   9.056 -0.4543  0.3473 -0.2023
 4925SOL    HW226235   4.112   2.196   9.119  0.6811 -0.1395 -0.6100
 4926SOL     OW26236   0.854   0.224   7.726 -0.0515 -0.6391  0.0423
 4926SOL    HW126237   0.813   0.152   7.774  2.3436 -2.5293 -0.7385
 4926SOL    HW226238   0.856   0.295   7.790 -2.0949 -1.2443  0.7645
 4927SOL     OW26239   3.080   2.537  12.021 -0.0631 -0.1592  0.3164
 4927SOL    HW126240   3.078   2.507  11.930 -2.8521 -0.5341  0.5047
 4927SOL    HW226241   3.045   2.626  12.017 -0.7539 -0.3954  1.2220
 4928SOL     OW26242   4.038   3.926  14.740  0.4455 -0.3255  0.2880
 4928SOL    HW126243   4.086   3.915  14.823  1.1730 -0.5622 -0.1580
 4928SOL    HW226244   4.108   3.887  14.687  1.8200  1.0999  1.0270
 4929SOL     OW26245   0.119   0.306   9.171  0.2886  0.4628 -0.0252
 4929SOL    HW126246   0.148   0.367   9.239 -0.2833 -0.4647  1.0424
 4929SOL    HW226247   0.042   0.357   9.146  0.8503  0.9692 -0.7163
 4930SOL     OW26248   3.353   0.932   3.760 -0.2193 -0.2905  0.1327
 4930SOL    HW126249   3.368   0.864   3.694 -0.7882 -3.1085  2.8934
 4930SOL    HW226250   3.396   0.904   3.841  0.6263 -0.1059 -0.2576
 4931SOL     OW26251   3.083   4.137  13.995  0.1960 -0.1320  0.3786
 4931SOL    HW126252   3.172   4.172  13.989  0.5070 -0.9856 -0.0118
 4931SOL    HW226253   3.071   4.109  13.904 -2.6314  2.1215  0.0648
 4932SOL     OW26254   3.321   3.341  10.622  0.6148  0.0004 -0.2321
 4932SOL    HW126255   3.299   3.249  10.608 -0.5517  0.1569  0.5352
 4932SOL    HW226256   3.390   3.339  10.688 -0.9782  1.2851  1.4671
 4933SOL     OW26257   3.658   2.021  17.334 -0.2414  0.4742 -0.0025
 4933SOL    HW126258   3.662   1.939  17.382  1.6734 -0.6929 -2.1974
 4933SOL    HW226259   3.741   2.009  17.288 -0.1206  0.2361  0.2810
 4934SOL     OW26260   1.294   3.522   5.099 -0.1993 -0.8001  0.1318
 4934SOL    HW126261   1.281   3.614   5.120 -1.6045 -1.5065  2.3912
 4934SOL    HW226262   1.355   3.492   5.167 -0.3262  0.5160  0.8359
 4935SOL     OW26263   3.674   0.396  11.441 -0.5452 -0.2144  0.1835
 4935SOL    HW126264   3.712   0.399  11.353 -3.0761 -0.7797 -0.9074
 4935SOL    HW226265   3.582   0.382  11.421  0.3080 -4.6820 -0.6424
 4936SOL     OW26266   4.100   1.114  16.785 -0.1384 -0.1852  0.9317
 4936SOL    HW126267   4.178   1.069  16.817  0.2315 -0.1183  0.1217
 4936SOL    HW226268   4.133   1.111  16.695 -0.5992 -0.4353  0.7684
 4937SOL     OW26269   1.747   2.838  17.099  0.1311 -0.0669 -0.5385
 4937SOL    HW126270   1.823   2.785  17.075  0.4157 -0.3903  1.1302
 4937SOL    HW226271   1.723   2.859  17.008 -1.7287  0.7815  0.1445
 4938SOL     OW26272   3.073   3.400   8.467 -0.2262  0.4446 -0.3554
 4938SOL    HW126273   2.998   3.388   8.526  0.8387  1.1444  1.1568
 4938SOL    HW226274   3.134   3.340   8.509 -0.0623  1.0548  0.2906
 4939SOL     OW26275   0.741   1.525   3.829 -0.1986  0.2565 -0.3126
 4939SOL    HW126276   0.661   1.509   3.879  1.0128 -0.0276  1.5053
 4939SOL    HW226277   0.712   1.583   3.758 -1.0481  0.1550 -0.0403
 4940SOL     OW26278   0.211   4.179   4.430  0.1795 -0.3372  0.7679
 4940SOL    HW126279   0.304   4.159   4.443  0.8511  1.9757 -0.4419
 4940SOL    HW226280   0.207   4.269   4.461 -2.9153 -0.8357  1.8814
 4941SOL     OW26281   2.007   2.161   5.719  0.1528  0.5525 -0.4378
 4941SOL    HW126282   2.034   2.163   5.811 -0.6849 -0.6061 -0.1638
 4941SOL    HW226283   2.041   2.246   5.690 -1.2129  1.3859  0.4082
 4942SOL     OW26284   1.363   2.350   4.515  0.5233 -0.2275 -0.1181
 4942SOL    HW126285   1.403   2.436   4.532 -1.6158  0.3738  1.9181
 4942SOL    HW226286   1.316   2.335   4.597  3.3958 -0.2275  1.5240
 4943SOL     OW26287   1.766   4.197  15.351 -0.4854  0.0429 -0.2927
 4943SOL    HW126288   1.690   4.179  15.406 -0.9567  0.1127 -0.9252
 4943SOL    HW226289   1.778   4.115  15.304 -0.8832  0.8202 -1.7520
 4944SOL     OW26290   0.244   2.378   3.865  0.0282  0.2553 -0.0810
 4944SOL    HW126291   0.166   2.372   3.920 -0.3085 -3.6780 -0.9833
 4944SOL    HW226292   0.318   2.351   3.919  0.0579 -1.3583 -0.9236
 4945SOL     OW26293   2.431   4.030   4.071  0.9762  0.1160 -0.0945
 4945SOL    HW126294   2.524   4.045   4.090  0.8051 -0.0419  0.8984
 4945SOL    HW226295   2.442   4.044   3.977  1.7040 -2.1530 -0.3371
 4946SOL     OW26296   1.896   1.742   7.615 -0.1685 -0.0682  0.8237
 4946SOL    HW126297   1.966   1.717   7.675  0.3515 -0.8037 -0.0969
 4946SOL    HW226298   1.850   1.659   7.604 -2.7723  1.3343  0.9785
 4947SOL     OW26299   0.786   2.716   0.260 -0.0620 -0.4223  0.0673
 4947SOL    HW126300   0.829   2.762   0.188 -0.8848  1.6877  0.9461
 4947SOL    HW226301   0.838   2.754   0.331  0.3944 -1.1330  0.1194
 4948SOL     OW26302   0.941   1.625   6.209  0.2172  0.0522  0.5575
 4948SOL    HW126303   1.024   1.611   6.254  0.7168 -1.2394 -0.7788
 4948SOL    HW226304   0.974   1.678   6.137 -1.9963  0.2094 -0.3386
 4949SOL     OW26305   3.952   2.089  10.356  0.2119  0.3417  0.0311
 4949SOL    HW126306   3.900   2.076  10.277 -1.2836  0.1906  1.0380
 4949SOL    HW226307   3.890   2.062  10.423 -0.8751  0.4749 -0.9300
 4950SOL     OW26308   3.273   2.754   2.829 -0.0088  0.1100  0.1640
 4950SOL    HW126309   3.180   2.747   2.850  0.5604 -0.7052  2.4023
 4950SOL    HW226310   3.280   2.717   2.741 -1.7363  1.8755 -0.7196
 4951SOL     OW26311   2.155   0.052   6.324  0.4290 -0.1887  0.4649
 4951SOL    HW126312   2.215   0.096   6.263  1.3645 -1.8078  0.2214
 4951SOL    HW226313   2.072   0.061   6.276  0.4103  0.5252  0.6257
 4952SOL     OW26314   3.629   0.679   6.984 -0.0650 -0.5973 -0.5559
 4952SOL    HW126315   3.579   0.760   6.995  2.6956  1.0589 -0.0676
 4952SOL    HW226316   3.587   0.621   7.047  1.0339  0.2954  1.0035
 4953SOL     OW26317   4.134   3.912   4.221  0.1788  0.2956 -0.2251
 4953SOL    HW126318   4.144   3.894   4.315  1.9259 -0.5576 -0.5640
 4953SOL    HW226319   4.183   3.993   4.210 -0.2681  0.4112 -1.3510
 4954SOL     OW26320   2.012   2.552   6.636 -0.0110  0.1585  0.0895
 4954SOL    HW126321   1.994   2.458   6.630  0.2824  0.1723 -0.9638
 4954SOL    HW226322   2.098   2.565   6.675  0.1712  0.9090 -0.5567
 4955SOL     OW26323   0.518   0.912   2.152 -0.3416  0.0976  0.5917
 4955SOL    HW126324   0.431   0.945   2.131 -0.5125  0.0973  1.3123
 4955SOL    HW226325   0.564   0.962   2.085  0.0136  0.6514  1.2491
 4956SOL     OW26326   2.348   3.990   8.090  0.3719  0.8269 -0.0480
 4956SOL    HW126327   2.438   3.995   8.123  0.2052 -0.4366  0.6029
 4956SOL    HW226328   2.353   3.974   7.996  2.1501 -1.2600  0.3846
 4957SOL     OW26329   0.126   4.313   8.241  0.2066 -0.0664  0.1506
 4957SOL    HW126330   0.060   4.330   8.308  0.7260  0.0155  0.6412
 4957SOL    HW226331   0.154   4.225   8.264 -0.4937 -0.3625 -0.1445
 4958SOL     OW26332   4.556   2.299   5.328  0.1702  0.5442  0.0534
 4958SOL    HW126333   4.575   2.222   5.381  0.5063 -0.0411 -0.9128
 4958SOL    HW226334   4.627   2.285   5.265  0.4119 -0.4147  0.5507
 4959SOL     OW26335   0.304   0.528   5.809  0.5991  0.0044 -0.1758
 4959SOL    HW126336   0.378   0.540   5.869  1.8019  0.8927 -1.8400
 4959SOL    HW226337   0.336   0.461   5.749  2.5967 -0.5550  1.5312
 4960SOL     OW26338   2.174   1.016  12.915  0.0471  0.2662 -0.7145
 4960SOL    HW126339   2.095   1.070  12.926 -1.1676 -1.4416 -1.0748
 4960SOL    HW226340   2.170   0.993  12.822 -1.8751  0.0752 -0.5928
 4961SOL     OW26341   0.582   4.053   2.740  0.1965  0.3135  0.2812
 4961SOL    HW126342   0.587   3.987   2.810  0.2654  1.0646  0.9933
 4961SOL    HW226343   0.665   4.098   2.758  1.1473 -1.7089  0.9838
 4962SOL     OW26344   4.017   1.238   9.286  0.7448  0.2074 -0.1111
 4962SOL    HW126345   4.038   1.179   9.359  0.7621 -0.2653 -0.4982
 4962SOL    HW226346   4.047   1.185   9.212 -1.1100 -1.2672  0.2235
 4963SOL     OW26347   3.029   0.522  13.204  0.3315  0.1826  0.2668
 4963SOL    HW126348   3.076   0.551  13.125  0.8480 -0.2851  0.4036
 4963SOL    HW226349   2.952   0.577  13.192  1.9407  1.5087 -3.8941
 4964SOL     OW26350   1.477   4.532  17.099  0.2579 -0.1868  0.4836
 4964SOL    HW126351   1.386   4.554  17.079  0.2477 -0.0872  0.6389
 4964SOL    HW226352   1.515   4.603  17.048  1.0667 -0.4443  0.7274
 4965SOL     OW26353   2.439   2.608   6.833  0.1481 -0.0238  0.0633
 4965SOL    HW126354   2.491   2.688   6.846  0.5403 -0.3929  0.7783
 4965SOL    HW226355   2.385   2.626   6.756  0.6878  1.2736 -0.0117
 4966SOL     OW26356   1.526   3.592   2.001 -0.5595  0.3633  0.4036
 4966SOL    HW126357   1.503   3.514   2.052  0.1149 -0.5621 -0.6887
 4966SOL    HW226358   1.577   3.634   2.070 -2.3174 -0.8826  2.4462
 4967SOL     OW26359   2.052   4.266   7.427 -0.5275  0.2747  0.0662
 4967SOL    HW126360   1.988   4.312   7.374 -0.6595  0.3634  0.3003
 4967SOL    HW226361   2.135   4.279   7.380 -1.3777 -1.3648 -1.8750
 4968SOL     OW26362   0.914   0.530   4.498  0.4120 -0.0828 -0.3599
 4968SOL    HW126363   0.926   0.621   4.471  1.0677 -0.4082 -1.1646
 4968SOL    HW226364   0.959   0.532   4.582 -0.4428 -0.6588  0.1158
 4969SOL     OW26365   2.731   3.543   5.234  0.5136 -0.4823 -0.1722
 4969SOL    HW126366   2.811   3.594   5.242  0.7225 -0.4845 -2.1159
 4969SOL    HW226367   2.707   3.575   5.147 -0.1229  0.4327  0.3350
 4970SOL     OW26368   2.177   1.774   8.938  0.3241  0.0961  0.1652
 4970SOL    HW126369   2.097   1.780   8.990 -1.3298  0.6974 -2.3965
 4970SOL    HW226370   2.245   1.817   8.990 -0.0710  1.2378 -0.2677
 4971SOL     OW26371   3.787   0.266   6.641 -0.2284  0.4742  0.1133
 4971SOL    HW126372   3.816   0.182   6.677  0.0422 -0.4019 -2.1596
 4971SOL    HW226373   3.871   0.309   6.626  0.8020 -1.0096  1.6215
 4972SOL     OW26374   1.196   2.670   3.930  0.3980  0.5950 -0.4807
 4972SOL    HW126375   1.240   2.743   3.975 -0.1675  0.7063 -0.1101
 4972SOL    HW226376   1.230   2.594   3.978 -1.3748  0.5723  0.7357
 4973SOL     OW26377   3.556   3.641   9.939 -0.1941  0.5711 -0.0868
 4973SOL    HW126378   3.534   3.730   9.967  1.2708  0.2295  2.1570
 4973SOL    HW226379   3.525   3.572   9.997 -1.0553  1.4976  0.5653
 4974SOL     OW26380   0.378   3.926   1.249 -0.2738 -0.4265  0.0628
 4974SOL    HW126381   0.348   3.907   1.338 -1.0222 -1.0387 -0.3140
 4974SOL    HW226382   0.363   4.020   1.239 -1.5962 -0.6143  0.3456
 4975SOL     OW26383   3.726   1.209   9.391  0.9804  0.2829  0.3789
 4975SOL    HW126384   3.788   1.217   9.318 -0.9426  0.3138 -1.2399
 4975SOL    HW226385   3.794   1.174   9.449  1.3366  0.0710 -0.1615
 4976SOL     OW26386   3.729   2.160  14.763  0.4336 -0.1512  0.3884
 4976SOL    HW126387   3.731   2.107  14.683 -0.6889  0.1752  0.1563
 4976SOL    HW226388   3.713   2.088  14.824  0.9008  0.2612  1.0012
 4977SOL     OW26389   1.999   1.381  12.484  0.3838  0.2000  0.0778
 4977SOL    HW126390   1.985   1.475  12.473 -1.3233 -0.4269 -3.1629
 4977SOL    HW226391   2.029   1.377  12.575  0.0542 -3.4325  0.0466
 4978SOL     OW26392   3.616   4.433   8.955  0.6148  0.4314  0.5799
 4978SOL    HW126393   3.622   4.418   8.860 -0.6189  0.5008  0.4949
 4978SOL    HW226394   3.598   4.527   8.951 -0.1666  0.2290 -0.9410
 4979SOL     OW26395   1.140   3.703   9.194 -0.4495 -0.3147 -0.3643
 4979SOL    HW126396   1.115   3.754   9.271  1.2169  0.0615 -0.0680
 4979SOL    HW226397   1.061   3.715   9.140 -0.2084 -0.5740 -0.7685
 4980SOL     OW26398   2.956   2.012   6.713 -0.0664  0.7413  0.4164
 4980SOL    HW126399   2.981   1.961   6.636  1.3445  2.4682 -0.2796
 4980SOL    HW226400   2.871   1.977   6.737 -0.8291  2.4291  0.2014
 4981SOL     OW26401   0.414   0.029   2.918 -0.2837  0.1959  0.0906
 4981SOL    HW126402   0.476   4.716   2.855 -1.5433  0.0176 -1.0621
 4981SOL    HW226403   0.449   0.118   2.920 -0.7295  0.2967  2.6483
 4982SOL     OW26404   3.922   3.878   5.323  0.0585  0.1844  0.1029
 4982SOL    HW126405   3.933   3.912   5.412 -3.3851  0.8815  0.2869
 4982SOL    HW226406   3.935   3.785   5.341  0.3876  0.0020 -1.0984
 4983SOL     OW26407   0.369   0.406  13.981 -0.4611  0.1950  0.4343
 4983SOL    HW126408   0.306   0.470  14.013  1.5716  1.6774  1.4450
 4983SOL    HW226409   0.414   0.393  14.065  1.0784 -2.2827 -0.7787
 4984SOL     OW26410   2.620   1.143   4.600 -1.0157  0.0904  0.3652
 4984SOL    HW126411   2.685   1.174   4.664  2.4936 -3.2918 -1.5255
 4984SOL    HW226412   2.545   1.163   4.655 -1.0124 -0.2311  0.4874
 4985SOL     OW26413   1.395   3.216   4.488  0.0471 -0.7896  0.7504
 4985SOL    HW126414   1.449   3.137   4.491 -0.2208 -1.0428 -1.1508
 4985SOL    HW226415   1.352   3.201   4.571 -0.8263 -0.6712  0.3174
 4986SOL     OW26416   4.108   3.349  14.179  0.3659  0.1871 -0.1889
 4986SOL    HW126417   4.039   3.405  14.143 -1.0128 -0.7733  0.9527
 4986SOL    HW226418   4.182   3.387  14.133  1.5911 -2.1340 -0.1390
 4987SOL     OW26419   4.442   0.987   0.963  0.5452  0.9213  0.2374
 4987SOL    HW126420   4.456   1.077   0.933  0.9216  0.6219 -0.4856
 4987SOL    HW226421   4.368   0.959   0.910 -0.4330  0.8692  1.6164
 4988SOL     OW26422   3.412   3.886   9.954  0.2525  0.2273  0.0426
 4988SOL    HW126423   3.468   3.936  10.013  0.0384 -1.6891  1.8473
 4988SOL    HW226424   3.343   3.860  10.014  1.3916 -1.6218  0.5249
 4989SOL     OW26425   1.313   2.889   2.685 -0.4594  0.0317  0.5752
 4989SOL    HW126426   1.263   2.954   2.735  0.1491 -0.4370  1.8005
 4989SOL    HW226427   1.367   2.864   2.760  1.3868 -1.2714 -1.1921
 4990SOL     OW26428   2.563   2.377  16.293 -0.3029  0.6112 -0.6861
 4990SOL    HW126429   2.640   2.432  16.283  0.0178  0.6237  1.9068
 4990SOL    HW226430   2.508   2.393  16.216 -1.4174  2.8693  0.5747
 4991SOL     OW26431   0.702   2.325   0.074 -0.1249 -0.3881  0.0408
 4991SOL    HW126432   0.767   2.332   0.144  2.1117  0.6471 -2.1034
 4991SOL    HW226433   0.629   2.282   0.117 -1.3734  1.9837  0.3032
 4992SOL     OW26434   1.108   3.479  13.961  0.0767  0.1653  0.0482
 4992SOL    HW126435   1.162   3.557  13.948  0.7075 -0.8974 -3.7380
 4992SOL    HW226436   1.021   3.519  13.961  0.2310  0.4986  0.2327
 4993SOL     OW26437   0.792   0.762  12.857  0.0451  0.5791  0.1290
 4993SOL    HW126438   0.746   0.678  12.860  0.3815  0.4602  1.9500
 4993SOL    HW226439   0.874   0.732  12.817  1.5894  2.9932  1.4715
 4994SOL     OW26440   2.925   2.239   7.005  0.3201 -0.4984 -0.5651
 4994SOL    HW126441   2.993   2.173   6.999 -0.8799 -1.7268 -0.6102
 4994SOL    HW226442   2.918   2.260   7.098 -0.6927 -0.7680 -0.5733
 4995SOL     OW26443   0.809   0.742   1.349 -0.5619  0.3913  0.3463
 4995SOL    HW126444   0.726   0.782   1.376 -1.4106 -2.1182  1.4303
 4995SOL    HW226445   0.858   0.740   1.431  0.8259 -0.9231 -0.5146
 4996SOL     OW26446   0.463   4.107  12.768  0.3011 -0.1955  0.1819
 4996SOL    HW126447   0.442   4.200  12.781  2.0369  0.0798  1.0958
 4996SOL    HW226448   0.471   4.077  12.858  1.1424  0.2999  0.2724
 4997SOL     OW26449   0.070   2.625   5.332 -0.1921 -0.0198  0.0157
 4997SOL    HW126450   0.064   2.716   5.361  1.4656 -0.7146  2.5263
 4997SOL    HW226451   0.001   2.595   5.392 -1.4669 -0.2561 -1.5668
 4998SOL     OW26452   0.437   0.346   3.967 -0.3446  0.5202 -0.0102
 4998SOL    HW126453   0.425   0.429   4.014  0.5212  1.0778 -0.7735
 4998SOL    HW226454   0.532   0.342   3.954 -0.0324  3.6491  1.1557
 4999SOL     OW26455   3.151   2.571   6.249  0.3517 -0.1830 -0.1450
 4999SOL    HW126456   3.137   2.485   6.289 -0.3616  0.2581  0.5371
 4999SOL    HW226457   3.204   2.616   6.314  1.3353  1.3136 -1.9972
 5000SOL     OW26458   2.166   2.984   7.155  0.1039 -0.1095  0.6817
 5000SOL    HW126459   2.094   3.025   7.107  0.5004  1.3539  1.3360
 5000SOL    HW226460   2.199   3.056   7.208 -1.9441  0.0349  1.7798
 5001SOL     OW26461   1.561   4.327   7.186  0.2026 -0.3149  0.3828
 5001SOL    HW126462   1.524   4.246   7.221  0.4001 -1.3559 -1.8118
 5001SOL    HW226463   1.552   4.304   7.093  1.2722 -0.5827  0.3443
 5002SOL     OW26464   3.533   2.856   7.205  0.4889  0.6350 -0.2318
 5002SOL    HW126465   3.469   2.922   7.178  0.6171  0.8547  0.0019
 5002SOL    HW226466   3.577   2.909   7.271  0.8690 -1.0641  0.8900
 5003SOL     OW26467   4.207   1.351   6.416 -0.3613 -0.1680 -0.9219
 5003SOL    HW126468   4.122   1.394   6.429  0.0560  0.9649 -1.9619
 5003SOL    HW226469   4.262   1.428   6.431  0.3334 -1.1451  1.4713
 5004SOL     OW26470   1.108   0.052   5.179  0.2073  0.2668  0.2990
 5004SOL    HW126471   1.097   0.008   5.094  0.1178 -1.9313  1.4307
 5004SOL    HW226472   1.106   4.696   5.233  1.6250  0.6140  0.8654
 5005SOL     OW26473   0.135   3.746  17.683 -0.3645 -0.3041 -0.3694
 5005SOL    HW126474   0.192   3.669  17.677  0.6521  0.1673  3.5282
 5005SOL    HW226475   0.051   3.704  17.669 -0.7558 -0.4722  2.6647
 5006SOL     OW26476   0.803   0.775   6.223 -0.5161  0.4824  0.1958
 5006SOL    HW126477   0.807   0.852   6.167  2.2488  0.5163  0.4775
 5006SOL    HW226478   0.874   0.795   6.284 -1.9342  0.7373  1.7961
 5007SOL     OW26479   4.223   4.425   3.447 -0.2822 -0.7100  0.0593
 5007SOL    HW126480   4.237   4.331   3.439  0.3517 -0.8068  2.3140
 5007SOL    HW226481   4.214   4.438   3.352  2.0063  2.8750  0.3327
 5008SOL     OW26482   4.506   2.528   8.342 -0.2501  0.1496 -0.3293
 5008SOL    HW126483   4.579   2.494   8.290 -0.3827  2.1800 -1.8503
 5008SOL    HW226484   4.488   2.611   8.298 -2.6583 -0.0731  0.2481
 5009SOL     OW26485   2.406   3.024   6.952  0.2833  0.1910 -0.5395
 5009SOL    HW126486   2.341   3.006   6.884 -1.3983  0.9362  0.8756
 5009SOL    HW226487   2.405   2.937   6.991 -0.3179  0.4368 -0.0141
 5010SOL     OW26488   4.283   4.530   5.151  0.2576 -0.8752 -0.0217
 5010SOL    HW126489   4.201   4.554   5.108 -0.1919 -0.1203  1.2900
 5010SOL    HW226490   4.317   4.618   5.166 -0.2932 -1.2548  3.3684
 5011SOL     OW26491   3.977   0.015   7.538  0.1296  0.0448  0.1302
 5011SOL    HW126492   3.942   0.067   7.465  0.2555 -0.8173 -0.5564
 5011SOL    HW226493   3.906   0.014   7.601 -0.6540  1.1123 -0.7357
 5012SOL     OW26494   4.001   1.500  14.543  0.0190  0.1551 -0.5189
 5012SOL    HW126495   3.929   1.525  14.601  0.8743 -1.5503  1.2952
 5012SOL    HW226496   4.075   1.553  14.573 -0.7357  0.8126  0.1724
 5013SOL     OW26497   2.629   3.685   5.610  0.2593  0.0047  0.1815
 5013SOL    HW126498   2.606   3.680   5.702  0.1192 -1.8048  0.0364
 5013SOL    HW226499   2.715   3.727   5.620 -0.8704  1.9930  1.4295
 5014SOL     OW26500   4.546   1.064   0.408  0.8592 -0.7412  0.1808
 5014SOL    HW126501   4.513   1.023   0.328  0.3822  2.5760 -1.3516
 5014SOL    HW226502   4.493   1.023   0.476 -0.8761  0.2430 -0.5597
 5015SOL     OW26503   0.529   3.598   4.519 -0.8069 -0.5395  0.4793
 5015SOL    HW126504   0.475   3.548   4.580 -1.9239  0.6236  0.4324
 5015SOL    HW226505   0.578   3.526   4.480  0.0414  0.2504  0.0870
 5016SOL     OW26506   1.982   4.310   2.517 -0.0741  0.3998 -0.6746
 5016SOL    HW126507   1.947   4.233   2.473 -0.3743  0.3825 -0.4082
 5016SOL    HW226508   2.053   4.270   2.568  0.3927  0.7073 -1.0905
 5017SOL     OW26509   3.766   2.415   6.476  0.3800  0.0071  0.0674
 5017SOL    HW126510   3.831   2.452   6.536  2.1508 -0.7620 -1.3836
 5017SOL    HW226511   3.784   2.321   6.471 -4.6308 -0.9507 -0.5401
 5018SOL     OW26512   2.961   3.688   2.712  0.0078  0.0617  0.5994
 5018SOL    HW126513   2.997   3.604   2.683 -0.9598  0.5050 -1.8914
 5018SOL    HW226514   2.914   3.709   2.631 -0.0411  0.6415  0.7818
 5019SOL     OW26515   2.209   4.412   9.005  0.2027  0.2863  0.8419
 5019SOL    HW126516   2.275   4.482   9.008  0.2122  0.2353  1.7862
 5019SOL    HW226517   2.150   4.453   9.069 -1.8101 -1.9465  0.4088
 5020SOL     OW26518   0.508   3.555   5.001  0.3494 -0.2924 -0.3366
 5020SOL    HW126519   0.534   3.463   5.002 -2.9933 -1.2358 -0.2789
 5020SOL    HW226520   0.524   3.583   4.910 -1.9594  0.9190 -0.3996
 5021SOL     OW26521   1.167   2.930   6.413 -0.0455 -0.3388  0.2389
 5021SOL    HW126522   1.234   2.980   6.459 -0.4157 -1.0425  1.5511
 5021SOL    HW226523   1.097   2.995   6.399  0.2632 -0.2180 -0.7305
 5022SOL     OW26524   1.872   3.256   4.905 -0.0248  0.3415 -0.4640
 5022SOL    HW126525   1.864   3.222   4.994 -0.9964  0.1772 -0.6143
 5022SOL    HW226526   1.801   3.320   4.907 -0.4622 -0.1437 -0.2370
 5023SOL     OW26527   2.899   4.612   2.491  0.5465  0.2781 -0.0504
 5023SOL    HW126528   2.882   4.621   2.585  0.5678 -1.4554  0.1151
 5023SOL    HW226529   2.913   4.518   2.500 -0.1064  0.1175 -0.7867
 5024SOL     OW26530   3.769   2.712   8.579  0.1887 -0.4997 -0.0222
 5024SOL    HW126531   3.688   2.688   8.535 -1.2000  5.2583 -0.5633
 5024SOL    HW226532   3.767   2.647   8.649  2.8212  1.5844  2.0061
 5025SOL     OW26533   3.957   3.712   4.481 -0.0123 -0.6478 -0.0170
 5025SOL    HW126534   3.886   3.687   4.422  0.1182  0.5390 -0.6717
 5025SOL    HW226535   3.920   3.787   4.526 -2.5811 -1.2174 -1.1782
 5026SOL     OW26536   1.837   4.314   3.731  0.0143  0.3292 -0.2836
 5026SOL    HW126537   1.801   4.387   3.680 -1.1975  0.4128  0.7014
 5026SOL    HW226538   1.781   4.305   3.808  0.3138  1.9643  0.1256
 5027SOL     OW26539   4.133   1.468  12.818  0.6301 -0.1555  0.2464
 5027SOL    HW126540   4.199   1.453  12.751 -0.5607 -2.0386 -0.4888
 5027SOL    HW226541   4.108   1.381  12.848  0.8514 -0.6243 -0.9426
 5028SOL     OW26542   1.437   0.788  11.507  0.7015  0.2938  0.9577
 5028SOL    HW126543   1.498   0.738  11.560 -1.3592 -0.6861  2.4139
 5028SOL    HW226544   1.493   0.842  11.452 -3.1237  1.4763 -1.7525
 5029SOL     OW26545   1.582   2.088   8.459  0.1757 -0.5326  0.0304
 5029SOL    HW126546   1.548   2.165   8.505 -1.2686 -1.4336  0.4661
 5029SOL    HW226547   1.506   2.031   8.454 -1.0581  1.1322 -0.1456
 5030SOL     OW26548   3.713   2.332   5.474  0.0581 -0.3323  0.0154
 5030SOL    HW126549   3.771   2.278   5.527  0.1293  0.8559  1.1545
 5030SOL    HW226550   3.771   2.409   5.475 -0.3029 -0.0688  0.7278
 5031SOL     OW26551   0.435   4.026   9.804 -0.2342 -0.1044 -0.4178
 5031SOL    HW126552   0.497   3.990   9.867  1.6420  0.3747 -1.9507
 5031SOL    HW226553   0.484   4.091   9.752  0.5314  0.2262  0.7216
 5032SOL     OW26554   3.164   1.115   3.210 -0.3321 -0.0463 -0.6597
 5032SOL    HW126555   3.229   1.161   3.157 -0.7221  1.5739  0.2797
 5032SOL    HW226556   3.148   1.033   3.162 -0.4969 -0.5446  0.2341
 5033SOL     OW26557   1.750   0.810   5.963 -0.7173 -0.3280  0.3553
 5033SOL    HW126558   1.671   0.859   5.986  0.3677  1.6236 -0.1114
 5033SOL    HW226559   1.718   0.786   5.876  0.0853 -1.5808  0.4015
 5034SOL     OW26560   2.180   2.383  16.265 -0.1819 -0.0603  0.0094
 5034SOL    HW126561   2.198   2.374  16.359  0.1345  0.2018 -0.0236
 5034SOL    HW226562   2.085   2.390  16.261 -0.2730 -2.7862 -2.4711
 5035SOL     OW26563   3.717   3.306   9.859  0.5650 -0.3284  0.2317
 5035SOL    HW126564   3.655   3.379   9.862 -1.2556 -1.9001  2.0379
 5035SOL    HW226565   3.756   3.322   9.773 -1.9133  0.0789 -0.8171
 5036SOL     OW26566   2.278   3.630   8.989 -0.7178 -0.0538  0.0209
 5036SOL    HW126567   2.362   3.662   8.957 -2.3261  1.3962 -2.7076
 5036SOL    HW226568   2.215   3.693   8.954  1.0196  2.6022  1.6720
 5037SOL     OW26569   3.702   3.883  13.778 -0.4752  0.5407  0.4116
 5037SOL    HW126570   3.766   3.822  13.741  0.8960  1.7342  0.8597
 5037SOL    HW226571   3.647   3.915  13.707 -0.3377 -1.1858 -0.4827
 5038SOL     OW26572   0.458   2.994   3.524  0.2739 -0.5328  0.3817
 5038SOL    HW126573   0.428   3.072   3.477  1.7402  0.1253  0.5302
 5038SOL    HW226574   0.379   2.964   3.569 -1.0436  0.3522 -1.3064
 5039SOL     OW26575   2.872   3.111   4.321 -0.4071  0.4832  0.1984
 5039SOL    HW126576   2.920   3.043   4.368 -2.9523 -0.7793  0.9879
 5039SOL    HW226577   2.803   3.065   4.274 -0.3833 -0.4872  1.1104
 5040SOL     OW26578   4.026   2.169   4.571  0.5293  0.3397 -0.6025
 5040SOL    HW126579   4.044   2.257   4.602  1.3035  0.8330 -2.4822
 5040SOL    HW226580   4.087   2.125   4.632  3.0544  1.9172 -1.9903
 5041SOL     OW26581   0.623   0.690   8.535  0.3751  0.0431  0.3689
 5041SOL    HW126582   0.614   0.655   8.624  1.0931 -1.2094 -0.0646
 5041SOL    HW226583   0.555   0.642   8.487  0.4389  1.4274 -1.1023
 5042SOL     OW26584   0.970   1.646   5.904 -0.5187 -0.0154  0.2934
 5042SOL    HW126585   0.926   1.580   5.850 -1.0490  0.2470  0.4019
 5042SOL    HW226586   0.924   1.723   5.872  1.9541  0.5116 -1.9725
 5043SOL     OW26587   4.438   0.307  11.944  0.8569  0.5887 -0.4508
 5043SOL    HW126588   4.426   0.351  11.859 -1.0045  0.3357 -0.3350
 5043SOL    HW226589   4.466   0.219  11.919 -1.5034 -0.4633  0.5289
 5044SOL     OW26590   2.470   0.676   1.502 -0.1363 -0.3245 -0.0793
 5044SOL    HW126591   2.551   0.647   1.544 -0.2216 -0.2410  0.1465
 5044SOL    HW226592   2.460   0.760   1.547 -0.0379  1.1929 -2.8706
 5045SOL     OW26593   3.728   2.976   7.341 -0.2851  0.4830 -0.1082
 5045SOL    HW126594   3.796   3.024   7.293 -0.1937 -0.3910 -0.8504
 5045SOL    HW226595   3.742   3.010   7.429 -0.2678 -0.7653  0.3681
 5046SOL     OW26596   1.649   2.862   0.742  0.6565  0.4494  0.0679
 5046SOL    HW126597   1.657   2.770   0.765 -1.5758  0.1124 -0.5284
 5046SOL    HW226598   1.554   2.864   0.742  0.6575  0.5153  0.0564
 5047SOL     OW26599   2.134   1.116  11.238  0.1754  0.4471  0.3074
 5047SOL    HW126600   2.214   1.065  11.228  0.0181  0.2295  0.1470
 5047SOL    HW226601   2.172   1.197  11.270  0.8126  0.7605 -1.2711
 5048SOL     OW26602   2.588   2.018   4.374  0.0557 -0.1576 -0.3968
 5048SOL    HW126603   2.680   2.032   4.398  0.6280 -0.5359 -2.3113
 5048SOL    HW226604   2.583   2.046   4.282 -0.1904  1.7035  0.1791
 5049SOL     OW26605   3.011   3.193   3.188 -0.3414 -0.4333  0.0948
 5049SOL    HW126606   3.101   3.225   3.196 -0.8503  1.1094 -0.3302
 5049SOL    HW226607   3.028   3.127   3.120 -2.1962  0.2027 -1.0091
 5050SOL     OW26608   1.906   1.839   3.333  0.2802  0.1145  0.0241
 5050SOL    HW126609   1.970   1.775   3.303 -0.3042 -0.0278 -0.9183
 5050SOL    HW226610   1.893   1.888   3.251 -2.3597 -0.1840  0.2791
 5051SOL     OW26611   0.364   3.152   3.300  0.6324 -0.3708 -0.2640
 5051SOL    HW126612   0.331   3.067   3.271  0.9926 -0.1305 -1.3899
 5051SOL    HW226613   0.404   3.191   3.222  1.7031  0.2615  0.6067
 5052SOL     OW26614   1.365   2.331   1.667  0.0302 -0.2369 -0.1661
 5052SOL    HW126615   1.397   2.418   1.691  0.7498 -0.9821  1.5951
 5052SOL    HW226616   1.416   2.266   1.717 -0.3660  0.1861  0.7873
 5053SOL     OW26617   2.592   2.606   1.713  0.2108 -0.0653 -0.5092
 5053SOL    HW126618   2.649   2.547   1.763 -1.0736  0.3714  1.4898
 5053SOL    HW226619   2.514   2.602   1.769  0.3211 -3.0204 -0.5436
 5054SOL     OW26620   1.160   3.740  11.205 -0.3785  0.1048  0.2409
 5054SOL    HW126621   1.249   3.707  11.193 -0.6057 -0.3003 -0.3053
 5054SOL    HW226622   1.117   3.664  11.244 -0.3118 -0.6460 -1.1440
 5055SOL     OW26623   4.087   4.698   2.861 -0.1333  0.0111  0.0590
 5055SOL    HW126624   4.138   4.617   2.856 -1.0409 -0.5842  0.5672
 5055SOL    HW226625   4.042   4.682   2.778  1.4412 -0.3053 -0.7467
 5056SOL     OW26626   1.412   0.874   6.487  0.4485 -0.0394  0.2660
 5056SOL    HW126627   1.346   0.937   6.457  1.4552  0.4055 -1.0263
 5056SOL    HW226628   1.483   0.930   6.519  0.8960 -1.1082  1.1463
 5057SOL     OW26629   0.820   1.035   3.396 -0.8823  0.5879 -0.8281
 5057SOL    HW126630   0.842   0.980   3.321  0.0244 -0.5795  0.2864
 5057SOL    HW226631   0.799   0.966   3.460 -0.7447 -2.1896 -3.7591
 5058SOL     OW26632   4.695   2.068  13.049  0.3331  0.5489  0.4249
 5058SOL    HW126633   4.682   2.016  13.128 -0.0740  1.5600  1.0299
 5058SOL    HW226634   0.031   2.137  13.082  1.9466 -0.9110  0.5921
 5059SOL     OW26635   2.616   1.721   2.022 -0.1264  0.6485  0.3863
 5059SOL    HW126636   2.600   1.745   2.113 -0.0859  0.5124  0.4282
 5059SOL    HW226637   2.527   1.720   1.987  0.6403  0.2387 -1.5698
 5060SOL     OW26638   3.710   4.559  10.309  0.1935  0.2039 -0.0916
 5060SOL    HW126639   3.787   4.523  10.266  1.7276  1.5370  1.5438
 5060SOL    HW226640   3.643   4.522  10.251 -1.5994 -0.4791  2.4345
 5061SOL     OW26641   1.813   0.242  16.134 -0.1430 -0.1695 -0.0177
 5061SOL    HW126642   1.878   0.300  16.175 -1.2140  1.3705 -0.5264
 5061SOL    HW226643   1.808   0.298  16.057 -0.4760  0.1075  0.2049
 5062SOL     OW26644   2.497   0.231   2.004 -0.1971  0.3931  0.4879
 5062SOL    HW126645   2.502   0.275   2.089 -2.0337  5.1567 -1.8610
 5062SOL    HW226646   2.538   0.304   1.957  0.6246  0.0284  0.6252
 5063SOL     OW26647   1.996   4.634  17.204 -0.3477 -0.1587  0.5030
 5063SOL    HW126648   1.902   4.645  17.217 -0.6832  0.7863 -2.8275
 5063SOL    HW226649   1.999   4.571  17.133  0.7484 -2.7172  2.8118
 5064SOL     OW26650   1.214   0.712   8.452  0.4274 -0.4519  0.4982
 5064SOL    HW126651   1.120   0.728   8.459  0.2213 -0.7992 -1.3898
 5064SOL    HW226652   1.233   0.732   8.544  0.7402 -0.9345  0.5408
 5065SOL     OW26653   2.342   0.739   2.646  0.0707 -0.3121  0.6520
 5065SOL    HW126654   2.359   0.646   2.636 -0.0445 -0.3319  0.6498
 5065SOL    HW226655   2.380   0.773   2.565 -0.1568  0.2424  0.7785
 5066SOL     OW26656   1.602   1.496   2.827  0.3077  0.4616 -0.3207
 5066SOL    HW126657   1.608   1.442   2.906  0.3505 -0.2406 -0.8043
 5066SOL    HW226658   1.515   1.470   2.795  0.5974  0.7154 -1.3208
 5067SOL     OW26659   3.181   0.621   6.670 -0.1527  0.2385 -0.3880
 5067SOL    HW126660   3.218   0.619   6.759  0.3158  0.1195 -0.5862
 5067SOL    HW226661   3.125   0.699   6.671  1.6741  1.6087 -4.4543
 5068SOL     OW26662   2.616   1.287   2.848  0.0870 -0.7306 -0.2596
 5068SOL    HW126663   2.540   1.333   2.811  0.1355  1.0439  1.8713
 5068SOL    HW226664   2.615   1.303   2.942  0.5383 -0.5536 -0.2864
 5069SOL     OW26665   4.221   1.399   4.397  0.2197 -0.4506 -0.5584
 5069SOL    HW126666   4.238   1.361   4.483  1.9443  2.2698  0.3299
 5069SOL    HW226667   4.296   1.353   4.358  0.4745 -2.1796  1.9871
 5070SOL     OW26668   2.903   2.245   2.449 -0.0052 -0.2585 -0.5210
 5070SOL    HW126669   2.901   2.167   2.505  3.2658 -1.6743 -2.3485
 5070SOL    HW226670   2.996   2.266   2.442 -0.4122  1.8994  0.6503
 5071SOL     OW26671   3.755   4.545   1.544  0.0731 -0.1574 -0.3540
 5071SOL    HW126672   3.761   4.564   1.638 -0.1497 -0.6564 -0.2382
 5071SOL    HW226673   3.732   4.452   1.544 -1.5144  0.2335 -1.6531
 5072SOL     OW26674   2.928   0.071   4.230 -0.1820  0.5197  0.5128
 5072SOL    HW126675   2.877   0.152   4.237  0.5792  0.9779  0.7727
 5072SOL    HW226676   2.947   0.033   4.315 -0.1890 -1.6143 -0.4380
 5073SOL     OW26677   2.220   2.029  17.029  0.0985  0.3620  0.5907
 5073SOL    HW126678   2.172   2.108  17.056  0.0337  0.9752 -1.2847
 5073SOL    HW226679   2.295   2.041  17.088  0.8050  1.3724 -0.5067
 5074SOL     OW26680   1.174   4.122  13.973  0.2695  0.1849  0.6885
 5074SOL    HW126681   1.257   4.076  13.963  0.0738 -0.4523  1.9480
 5074SOL    HW226682   1.137   4.070  14.044 -1.9460  0.5154 -0.1912
 5075SOL     OW26683   0.218   3.642   7.496  0.1407 -0.6639  0.0943
 5075SOL    HW126684   0.208   3.686   7.411 -1.0108 -1.5224 -0.2061
 5075SOL    HW226685   0.279   3.577   7.462  0.4192  0.5648 -1.7624
 5076SOL     OW26686   1.953   4.595   5.310  0.0466 -0.1023 -0.9428
 5076SOL    HW126687   1.948   4.687   5.285 -0.0325  0.5594  1.5201
 5076SOL    HW226688   1.867   4.583   5.351  0.6603  3.1613  1.2727
 5077SOL     OW26689   1.269   0.571   1.618 -0.3386 -0.5026  0.0181
 5077SOL    HW126690   1.228   0.637   1.674  0.5224 -0.9367  1.1542
 5077SOL    HW226691   1.292   0.506   1.684  3.3278  0.8757  0.1035
 5078SOL     OW26692   1.014   0.230   8.036 -0.7030 -0.0084  0.7758
 5078SOL    HW126693   1.046   0.320   8.036 -0.0140 -0.2515 -0.2415
 5078SOL    HW226694   1.100   0.188   8.050 -0.1291  0.5887 -0.9571
 5079SOL     OW26695   1.006   4.283   3.461 -0.4183 -0.0869  0.1015
 5079SOL    HW126696   1.070   4.298   3.530 -0.6109 -3.8886  1.0939
 5079SOL    HW226697   0.936   4.249   3.517  0.2193 -1.9386 -0.2354
 5080SOL     OW26698   0.514   3.151   8.989  0.3694 -0.3836  0.1892
 5080SOL    HW126699   0.556   3.080   9.037  2.0229  2.2105  2.6024
 5080SOL    HW226700   0.433   3.114   8.956  0.1120  2.5343 -2.4670
 5081SOL     OW26701   1.206   0.986   2.680 -1.1190 -0.7942 -0.2460
 5081SOL    HW126702   1.219   0.954   2.770  1.7751  0.2479 -0.3090
 5081SOL    HW226703   1.168   1.072   2.695  3.3608  1.3252 -1.2131
 5082SOL     OW26704   2.242   2.094  16.105 -0.0611 -0.5076 -0.0798
 5082SOL    HW126705   2.221   2.162  16.168 -0.4362 -0.1745 -0.5634
 5082SOL    HW226706   2.228   2.146  16.026  0.0114  0.6594  0.6716
 5083SOL     OW26707   1.420   2.787  11.090  0.0667 -0.5631 -0.2526
 5083SOL    HW126708   1.338   2.777  11.043 -0.8194 -3.0367  1.8052
 5083SOL    HW226709   1.423   2.718  11.157  0.3044  0.7069  1.0507
 5084SOL     OW26710   2.430   4.507   3.327 -0.0203 -0.1685 -0.3310
 5084SOL    HW126711   2.433   4.590   3.375 -1.8141  0.4992 -1.3847
 5084SOL    HW226712   2.368   4.525   3.257 -0.4337  1.6805  0.5002
 5085SOL     OW26713   4.328   0.018   8.343 -0.5878  0.0591  0.3211
 5085SOL    HW126714   4.294   0.044   8.429 -2.1886 -1.1671  0.0422
 5085SOL    HW226715   4.319   4.648   8.359  1.0077 -0.1615 -0.0499
 5086SOL     OW26716   0.662   4.596   5.671 -0.0669  0.3624 -0.0936
 5086SOL    HW126717   0.590   4.560   5.619 -0.5908  0.3674  0.6173
 5086SOL    HW226718   0.734   4.592   5.608 -0.8178 -1.2730 -0.8518
 5087SOL     OW26719   3.249   1.119   7.422 -0.4109  0.1101  0.6213
 5087SOL    HW126720   3.322   1.097   7.480  0.1769  0.4044  0.0036
 5087SOL    HW226721   3.174   1.076   7.463 -1.5782  0.9598 -0.6201
 5088SOL     OW26722   2.771   4.017   2.644 -0.7036  0.0976  0.0180
 5088SOL    HW126723   2.688   4.053   2.613  0.2016  1.0939 -1.2696
 5088SOL    HW226724   2.813   4.015   2.558 -2.8928 -2.5759 -0.9834
 5089SOL     OW26725   3.766   0.231  17.635 -0.5445 -0.3197  0.3413
 5089SOL    HW126726   3.702   0.298  17.615  0.9403  0.4638 -1.7607
 5089SOL    HW226727   3.780   0.253   0.033  2.8463  0.8984 -0.4395
 5090SOL     OW26728   3.173   3.847   4.167 -0.0189  0.1010 -0.5026
 5090SOL    HW126729   3.124   3.802   4.099  0.0179 -0.1506 -0.3617
 5090SOL    HW226730   3.251   3.791   4.168  0.3704  0.6599  1.3159
 5091SOL     OW26731   0.033   4.088  13.256  0.1659 -0.5477  0.2953
 5091SOL    HW126732   4.720   4.038  13.329 -0.8098 -0.6133 -0.2343
 5091SOL    HW226733   4.700   4.058  13.185  0.6842  0.7213 -0.6434
 5092SOL     OW26734   1.473   3.921   5.215 -0.3789 -0.2725 -0.0895
 5092SOL    HW126735   1.402   3.872   5.174 -0.0192 -1.3195  0.5341
 5092SOL    HW226736   1.437   3.979   5.281 -1.2013  1.0488 -1.6849
 5093SOL     OW26737   3.047   1.986   3.316 -0.1290 -0.0236  0.0574
 5093SOL    HW126738   3.054   1.894   3.338 -1.8363 -0.9667 -3.3001
 5093SOL    HW226739   3.135   2.020   3.336 -1.3333  2.1421  1.6798
 5094SOL     OW26740   4.527   2.911  13.252 -0.2742  0.4170 -0.4076
 5094SOL    HW126741   4.509   2.892  13.160 -1.5293  2.2362 -0.5248
 5094SOL    HW226742   4.452   2.874  13.298  0.1785  1.0747  0.8349
 5095SOL     OW26743   2.700   2.396  10.373 -0.3245 -0.0326  0.7996
 5095SOL    HW126744   2.663   2.345  10.445  0.0252 -0.9317  0.3548
 5095SOL    HW226745   2.725   2.315  10.329  0.7697  1.8860 -2.0952
 5096SOL     OW26746   1.148   2.398   3.477 -0.1489 -0.1659 -0.2403
 5096SOL    HW126747   1.191   2.475   3.441  0.9330  0.1090  1.6688
 5096SOL    HW226748   1.107   2.434   3.555 -0.6161 -1.3963  0.0938
 5097SOL     OW26749   1.853   1.844   4.461  0.3588  0.4535 -0.4379
 5097SOL    HW126750   1.804   1.842   4.543  1.8881  2.1637  0.5190
 5097SOL    HW226751   1.944   1.840   4.491  1.1827  2.3375 -2.6330
 5098SOL     OW26752   1.849   4.541  13.518  0.0258  0.0628  0.4417
 5098SOL    HW126753   1.754   4.545  13.534  0.1760 -0.6211  1.4340
 5098SOL    HW226754   1.887   4.573  13.600  1.8940  1.8375 -1.1042
 5099SOL     OW26755   0.096   4.679   3.733 -0.3095  0.3405 -0.0541
 5099SOL    HW126756   0.078   4.695   3.641 -0.4879  1.6174  0.2025
 5099SOL    HW226757   0.016   4.631   3.754  1.3745 -2.6027 -0.4166
 5100SOL     OW26758   3.675   1.275   5.865  0.0996  0.0993 -0.7726
 5100SOL    HW126759   3.664   1.342   5.797  1.9955 -0.1367 -1.3054
 5100SOL    HW226760   3.585   1.247   5.876  0.5611 -0.9913  0.2062
 5101SOL     OW26761   3.316   2.122   5.411  0.1281  0.4848  0.6736
 5101SOL    HW126762   3.338   2.029   5.421  0.9450  0.2722 -3.1584
 5101SOL    HW226763   3.379   2.148   5.344  1.9538  1.1242  2.6619
 5102SOL     OW26764   2.938   3.372  17.142  0.0450  0.0160  0.2954
 5102SOL    HW126765   2.962   3.437  17.075 -0.1963  0.0889  0.2802
 5102SOL    HW226766   2.996   3.300  17.118 -1.6679 -1.4637  0.5679
 5103SOL     OW26767   0.313   0.085   9.804 -0.5230 -0.1472 -0.3211
 5103SOL    HW126768   0.263   0.111   9.881  1.0841  1.3668  0.2279
 5103SOL    HW226769   0.275   4.722   9.784 -0.4304 -0.2957  0.1593
 5104SOL     OW26770   4.511   1.219  15.810  0.0115 -0.3666 -0.3967
 5104SOL    HW126771   4.451   1.240  15.737 -0.4322 -0.8129 -0.1622
 5104SOL    HW226772   4.560   1.301  15.803 -1.8405  0.4917 -3.5007
 5105SOL     OW26773   1.355   1.691   6.556  0.1741 -0.2273 -0.4840
 5105SOL    HW126774   1.420   1.702   6.487 -0.6175  0.9897 -1.0338
 5105SOL    HW226775   1.386   1.761   6.613 -1.2839  0.0141  0.0297
 5106SOL     OW26776   0.122   0.124   1.798 -0.1935 -0.0474  0.2730
 5106SOL    HW126777   0.214   0.117   1.771 -0.0821  1.8201  0.1346
 5106SOL    HW226778   0.107   0.052   1.858 -0.9002 -1.4402 -1.5936
 5107SOL     OW26779   0.859   1.242   4.333 -0.3678 -0.2480 -0.2534
 5107SOL    HW126780   0.865   1.328   4.373  0.8873 -2.2099  3.7899
 5107SOL    HW226781   0.766   1.219   4.328 -0.5691  0.3644  0.9436
 5108SOL     OW26782   1.781   2.046  11.279 -0.1538 -0.6841 -0.0926
 5108SOL    HW126783   1.822   2.106  11.217  0.2047 -1.4569 -0.5901
 5108SOL    HW226784   1.768   1.967  11.227 -0.8894 -0.2977 -0.5060
 5109SOL     OW26785   1.911   2.125   8.350 -0.0696  0.0836  0.3970
 5109SOL    HW126786   1.853   2.193   8.386 -1.3492 -0.7955 -0.0077
 5109SOL    HW226787   1.872   2.113   8.263 -1.5883 -0.2872  1.1187
 5110SOL     OW26788   0.887   0.833   5.855 -0.5887 -0.1738 -0.1360
 5110SOL    HW126789   0.931   0.764   5.804  0.5335 -0.5239  1.3079
 5110SOL    HW226790   0.964   0.858   5.906 -0.5022 -0.3545 -0.1771
 5111SOL     OW26791   4.145   1.627   6.407  0.2939 -0.5767  0.4501
 5111SOL    HW126792   4.210   1.623   6.336 -0.1234 -1.2727  0.1074
 5111SOL    HW226793   4.198   1.648   6.484 -3.5781 -0.3816  3.0608
 5112SOL     OW26794   1.130   2.541  12.908  0.4381  0.2109  0.2005
 5112SOL    HW126795   1.129   2.636  12.921 -1.0012  0.1167  0.9059
 5112SOL    HW226796   1.119   2.507  12.997  1.5806 -0.6954 -0.0060
 5113SOL     OW26797   4.163   3.115  15.988  0.3620  0.2029 -0.4634
 5113SOL    HW126798   4.203   3.042  15.940  0.8358  0.0773  0.1203
 5113SOL    HW226799   4.129   3.056  16.056 -0.2579  0.8084 -0.2515
 5114SOL     OW26800   0.594   3.733   2.344 -0.2827 -0.1899 -0.6311
 5114SOL    HW126801   0.651   3.664   2.379 -1.2957 -1.9786 -2.4768
 5114SOL    HW226802   0.636   3.809   2.384  1.0519 -1.1377 -0.2441
 5115SOL     OW26803   3.841   0.820  15.324 -0.6340 -0.2256 -0.2825
 5115SOL    HW126804   3.839   0.770  15.242 -1.7106 -2.5768  1.1886
 5115SOL    HW226805   3.851   0.912  15.299 -1.8543 -0.0531 -0.1405
 5116SOL     OW26806   4.333   2.302   7.793  0.4629  0.6019 -0.2995
 5116SOL    HW126807   4.307   2.303   7.885  1.3203 -2.0411 -0.0242
 5116SOL    HW226808   4.313   2.209   7.778  1.2505  0.1820  1.2399
 5117SOL     OW26809   2.023   4.067   3.722  0.2491  0.0305 -0.1896
 5117SOL    HW126810   1.962   4.141   3.721 -1.2526 -1.2119 -1.2813
 5117SOL    HW226811   2.024   4.033   3.811  5.1936 -1.5633 -0.8384
 5118SOL     OW26812   1.687   1.784  11.827 -0.0006  0.1961 -0.6690
 5118SOL    HW126813   1.667   1.692  11.812  1.5928 -0.1722 -0.5283
 5118SOL    HW226814   1.642   1.820  11.751 -0.3582  0.8414 -0.1530
 5119SOL     OW26815   4.306   3.062   9.689 -0.0145  0.5892 -0.1327
 5119SOL    HW126816   4.350   2.991   9.736  2.4982  3.2838  1.5677
 5119SOL    HW226817   4.235   3.020   9.640  1.7911 -0.9313 -1.4340
 5120SOL     OW26818   4.492   0.609  15.699  0.2150 -0.1075  0.8861
 5120SOL    HW126819   4.519   0.601  15.607  3.0921  2.5973  1.4957
 5120SOL    HW226820   4.399   0.631  15.693 -0.0220 -2.0510 -2.6764
 5121SOL     OW26821   0.101   1.776   4.195 -0.0703  0.1396  0.7037
 5121SOL    HW126822   0.174   1.800   4.253  2.4928 -1.1382 -1.9781
 5121SOL    HW226823   0.120   1.833   4.120 -1.6167  0.8590  0.8611
 5122SOL     OW26824   0.838   3.764  10.160  0.2674  0.0977  0.0797
 5122SOL    HW126825   0.769   3.770  10.226  0.6278 -0.2898  0.4945
 5122SOL    HW226826   0.921   3.743  10.203 -0.7126 -0.4795  1.6653
 5123SOL     OW26827   1.754   2.978  15.253  0.0056 -0.2764 -0.1626
 5123SOL    HW126828   1.849   2.969  15.251  0.0344  0.4393 -1.7231
 5123SOL    HW226829   1.744   2.912  15.321 -2.6673  1.5417  1.2547
 5124SOL     OW26830   3.000   3.564   6.961 -0.6456  0.0041 -0.1807
 5124SOL    HW126831   2.966   3.572   6.871  1.2169  2.5365 -0.6742
 5124SOL    HW226832   2.940   3.618   7.012 -0.4879  0.4824 -0.5021
 5125SOL     OW26833   2.955   3.762   7.214 -0.3011 -0.2446  0.3494
 5125SOL    HW126834   2.993   3.738   7.299  0.0876 -1.7666 -0.2484
 5125SOL    HW226835   2.969   3.857   7.219  0.1817 -0.1521 -2.9335
 5126SOL     OW26836   2.433   1.427   8.348  0.0051 -0.1252  0.0954
 5126SOL    HW126837   2.351   1.391   8.314 -0.0303  0.5095 -0.4861
 5126SOL    HW226838   2.444   1.501   8.288 -1.3499  0.2765  0.3418
 5127SOL     OW26839   4.435   0.201   3.672 -0.6946  0.3402  0.4333
 5127SOL    HW126840   4.357   0.159   3.709 -2.2941  2.5412 -0.4270
 5127SOL    HW226841   4.388   0.270   3.625 -0.3996  0.7072  0.6696
 5128SOL     OW26842   2.261   3.900   3.202  0.4232 -0.2078 -0.7473
 5128SOL    HW126843   2.217   3.951   3.271  3.0204 -0.7449  1.3066
 5128SOL    HW226844   2.195   3.831   3.205  0.0901  0.1812  1.5755
 5129SOL     OW26845   1.612   3.198   0.225  0.4182 -0.2168 -0.3591
 5129SOL    HW126846   1.610   3.239   0.139  1.1072 -1.7001 -1.0804
 5129SOL    HW226847   1.684   3.134   0.220  0.3472 -0.1934 -1.5310
 5130SOL     OW26848   0.238   2.551  16.095 -0.2924  0.0541 -0.7178
 5130SOL    HW126849   0.231   2.578  16.187 -4.9862 -0.5665 -0.8754
 5130SOL    HW226850   0.287   2.620  16.051 -2.5729  0.7682 -2.1222
 5131SOL     OW26851   1.604   3.838   7.927  0.4232 -0.2905 -0.0100
 5131SOL    HW126852   1.554   3.807   7.851  0.9174  0.0174 -0.4646
 5131SOL    HW226853   1.594   3.760   7.981  0.9563 -1.3493 -1.4361
 5132SOL     OW26854   3.562   3.123  13.657 -0.2314  0.0444 -0.0861
 5132SOL    HW126855   3.586   3.083  13.740  0.2966  1.9905  0.7040
 5132SOL    HW226856   3.642   3.128  13.605  0.9517 -1.0873  1.6203
 5133SOL     OW26857   1.007   3.824   4.765  0.3520  0.6441  0.2207
 5133SOL    HW126858   1.098   3.809   4.789  0.7768  0.2393 -1.5957
 5133SOL    HW226859   1.004   3.919   4.761 -0.0480  0.6262  0.0299
 5134SOL     OW26860   4.192   0.102   3.755  0.0122  0.0680 -0.0765
 5134SOL    HW126861   4.174   0.011   3.730  1.4188  0.0880 -1.1618
 5134SOL    HW226862   4.129   0.114   3.826 -1.1582  1.4530 -1.3464
 5135SOL     OW26863   2.096   4.528  12.583  0.4785  0.6231 -0.2605
 5135SOL    HW126864   2.147   4.461  12.628  0.3493 -0.7285 -2.1613
 5135SOL    HW226865   2.024   4.537  12.646 -0.1782 -1.2073 -0.7753
 5136SOL     OW26866   4.504   2.277   4.422  0.0285  0.0818  0.6113
 5136SOL    HW126867   4.577   2.214   4.424  0.0191  0.0822  0.9423
 5136SOL    HW226868   4.433   2.218   4.397 -0.5408  0.9072  0.3206
 5137SOL     OW26869   2.602   1.407   7.693  0.2044  0.5586  0.3187
 5137SOL    HW126870   2.599   1.502   7.682  0.3220  0.7740  2.0825
 5137SOL    HW226871   2.672   1.385   7.632 -1.8756 -0.1246 -1.7894
 5138SOL     OW26872   2.764   3.317   3.355  0.3529 -0.0744 -0.8928
 5138SOL    HW126873   2.827   3.341   3.286  2.3255 -1.7064  0.3606
 5138SOL    HW226874   2.709   3.396   3.361  0.0925 -0.4117  0.9988
 5139SOL     OW26875   2.210   3.672  17.488 -0.2119 -0.2602 -0.1923
 5139SOL    HW126876   2.141   3.623  17.533 -0.6337  0.9856  0.5117
 5139SOL    HW226877   2.242   3.734  17.554  0.4190 -0.9098  0.1099
 5140SOL     OW26878   2.349   2.385   1.815 -0.0937 -0.3101  0.3319
 5140SOL    HW126879   2.262   2.374   1.775 -0.0493  2.1003 -0.4068
 5140SOL    HW226880   2.352   2.480   1.827  0.3175 -0.1582 -0.9815
 5141SOL     OW26881   1.890   1.196   2.605  0.0528 -0.9317 -0.1169
 5141SOL    HW126882   1.925   1.273   2.561  0.4717 -0.7290  0.5592
 5141SOL    HW226883   1.962   1.133   2.598  0.6334 -0.2609 -0.2053
 5142SOL     OW26884   4.709   0.229   8.408 -0.0706  0.6904  0.6134
 5142SOL    HW126885   0.080   0.212   8.417 -0.1987 -1.2849 -1.7213
 5142SOL    HW226886   4.681   0.226   8.500  0.5631 -1.9099  0.7377
 5143SOL     OW26887   2.748   2.145  16.791 -0.3226 -0.9612 -0.5361
 5143SOL    HW126888   2.827   2.157  16.843 -0.5212  2.5371 -1.0481
 5143SOL    HW226889   2.749   2.051  16.777  1.7922 -0.6276 -2.6138
 5144SOL     OW26890   1.194   0.427   3.518  0.2380  0.2459  0.5895
 5144SOL    HW126891   1.212   0.347   3.467 -0.2602  1.3853 -1.3917
 5144SOL    HW226892   1.279   0.471   3.510  1.1617 -1.5686  0.4074
 5145SOL     OW26893   2.980   0.497  10.804 -0.7134  0.1991  0.0844
 5145SOL    HW126894   3.014   0.485  10.715  1.1498 -0.9674  0.9511
 5145SOL    HW226895   3.036   0.570  10.830  2.2151 -1.6174 -1.0742
 5146SOL     OW26896   3.008   1.738   2.622 -0.2756  0.1308  0.3281
 5146SOL    HW126897   3.066   1.662   2.623  0.0684  0.3656 -1.7466
 5146SOL    HW226898   3.032   1.791   2.698 -1.2377  0.1815  0.6004
 5147SOL     OW26899   4.194   3.175   4.059  0.1947 -0.2347  0.3727
 5147SOL    HW126900   4.279   3.218   4.064  1.8286 -3.3932 -0.2903
 5147SOL    HW226901   4.198   3.135   4.146 -0.5791 -2.2817 -0.5372
 5148SOL     OW26902   1.570   1.932  10.519 -1.0112  0.4781 -0.5949
 5148SOL    HW126903   1.585   1.892  10.433  0.0269  0.0709 -0.2162
 5148SOL    HW226904   1.500   1.872  10.547  0.3471  0.4855  2.7797
 5149SOL     OW26905   2.448   1.269  14.970  0.7536  0.1919 -0.0748
 5149SOL    HW126906   2.488   1.315  15.044  0.2383 -0.9007  0.8882
 5149SOL    HW226907   2.453   1.180  15.006 -0.4224  0.6148  1.1308
 5150SOL     OW26908   3.593   1.303   7.507  0.1518 -0.7264  0.5446
 5150SOL    HW126909   3.587   1.395   7.482  3.2752 -0.2820  1.4745
 5150SOL    HW226910   3.594   1.304   7.603  2.4393 -0.1945  0.5042
 5151SOL     OW26911   2.345   0.311  15.158  0.5878 -0.6897  0.0328
 5151SOL    HW126912   2.382   0.386  15.112  0.0215 -1.6465 -1.9695
 5151SOL    HW226913   2.410   0.243  15.140  0.1525 -1.1609  0.2441
 5152SOL     OW26914   0.261   0.291   7.649 -0.3834 -0.3253  0.0651
 5152SOL    HW126915   0.215   0.344   7.714 -0.5705 -1.7009  1.0517
 5152SOL    HW226916   0.197   0.224   7.625  0.6305 -1.3421  0.1530
 5153SOL     OW26917   0.342   1.179   4.842 -0.0192 -0.1681 -0.7458
 5153SOL    HW126918   0.428   1.217   4.823 -0.1903  0.0074 -1.1584
 5153SOL    HW226919   0.354   1.188   4.937 -1.3491 -0.3812 -0.5530
 5154SOL     OW26920   0.881   1.287   5.972 -0.2152  0.2939 -0.5256
 5154SOL    HW126921   0.870   1.314   5.881 -0.6659 -2.7827 -1.4092
 5154SOL    HW226922   0.976   1.276   5.971  0.0159  2.2452  2.2059
 5155SOL     OW26923   3.164   4.681  11.317  0.4222  0.1160  0.0016
 5155SOL    HW126924   3.085   0.010  11.304 -0.3487 -1.3919 -1.2683
 5155SOL    HW226925   3.193   0.008  11.393 -1.8477 -0.0647  0.9876
 5156SOL     OW26926   2.416   0.957   5.306 -0.0979 -0.2970 -0.0710
 5156SOL    HW126927   2.446   0.995   5.224 -0.2726  2.1802  1.0360
 5156SOL    HW226928   2.434   1.025   5.371  0.6546  0.0040 -0.5960
 5157SOL     OW26929   2.182   1.960  10.102  0.5478  0.4572  0.1883
 5157SOL    HW126930   2.192   1.927  10.191 -1.9263 -0.9411 -0.0580
 5157SOL    HW226931   2.087   1.959  10.095  0.8437 -0.9087 -3.3425
 5158SOL     OW26932   1.383   0.924   5.836  0.4529  0.1392 -0.2395
 5158SOL    HW126933   1.450   0.874   5.790  0.2301  0.5251 -0.9813
 5158SOL    HW226934   1.432   0.975   5.901 -0.0250  0.0762  0.1740
 5159SOL     OW26935   3.814   3.655   6.048  0.1172  0.5061  0.0542
 5159SOL    HW126936   3.861   3.681   5.969  1.3484  3.1302  1.6446
 5159SOL    HW226937   3.733   3.701   6.027 -0.7112 -1.0347 -0.1423
 5160SOL     OW26938   0.385   0.790   6.899  0.4339 -0.2554  0.4304
 5160SOL    HW126939   0.441   0.727   6.854  1.9159  1.4174 -0.0758
 5160SOL    HW226940   0.453   0.838   6.946  1.4575  0.2785 -1.6124
 5161SOL     OW26941   0.071   3.215   2.267  0.5398  0.4369  0.1548
 5161SOL    HW126942   0.093   3.283   2.204  0.3520 -0.2482 -0.6590
 5161SOL    HW226943   4.715   3.169   2.238  1.1916 -0.4586 -0.2236
 5162SOL     OW26944   3.483   2.926   8.671  0.2408  0.0983 -0.0277
 5162SOL    HW126945   3.439   2.984   8.735  0.4894  0.6681 -0.3717
 5162SOL    HW226946   3.468   2.837   8.703  2.5425 -1.3957 -3.1177
 5163SOL     OW26947   4.098   0.752  16.775  0.2325 -0.0633 -0.1669
 5163SOL    HW126948   4.123   0.801  16.696 -0.7205  1.5838  0.5490
 5163SOL    HW226949   4.144   0.674  16.745  0.1597  0.3986 -1.4638
 5164SOL     OW26950   2.503   1.699  13.279 -0.1131  0.5028  0.6897
 5164SOL    HW126951   2.469   1.750  13.352 -0.2954  3.0028 -1.1487
 5164SOL    HW226952   2.571   1.645  13.320 -0.3315 -1.8383 -2.0469
 5165SOL     OW26953   0.565   3.012  17.254  0.1490 -0.3188 -0.1080
 5165SOL    HW126954   0.578   3.106  17.267  0.3472 -0.5725  1.5936
 5165SOL    HW226955   0.621   2.984  17.326 -0.4435 -2.0563 -0.3056
 5166SOL     OW26956   2.459   0.290   4.454 -0.3345  0.5361 -0.0152
 5166SOL    HW126957   2.414   0.214   4.419  1.9378 -1.2357  0.9537
 5166SOL    HW226958   2.450   0.277   4.549  2.7762  0.2314  0.2414
 5167SOL     OW26959   3.805   0.255   9.275  0.3529 -0.6118  0.1945
 5167SOL    HW126960   3.810   0.228   9.367 -2.0919  0.6179  0.6658
 5167SOL    HW226961   3.863   0.331   9.278  0.1106 -0.3955 -0.7122
 5168SOL     OW26962   4.385   0.582  11.033 -0.5430  0.1764 -0.3793
 5168SOL    HW126963   4.439   0.613  11.106  0.2103 -0.2237 -0.7603
 5168SOL    HW226964   4.372   0.666  10.989  0.8182 -0.3876 -1.8454
 5169SOL     OW26965   1.660   2.954   7.926  0.0990 -0.4075 -0.4074
 5169SOL    HW126966   1.655   3.046   7.950 -0.1873 -0.2392 -1.1358
 5169SOL    HW226967   1.648   2.919   8.015 -0.7129  2.2283  0.5214
 5170SOL     OW26968   2.092   2.406   5.610 -1.0653  0.0694 -0.2840
 5170SOL    HW126969   2.143   2.450   5.542 -0.4590  1.7199  1.2278
 5170SOL    HW226970   2.148   2.436   5.682 -2.3609 -0.0288  0.7675
 5171SOL     OW26971   0.504   0.138   8.994  0.1105 -0.2758 -0.1723
 5171SOL    HW126972   0.530   0.067   8.936  0.2057 -0.7937  0.5128
 5171SOL    HW226973   0.414   0.114   9.015 -0.4538  0.6335 -1.5357
 5172SOL     OW26974   1.531   1.613   1.890  0.0874 -0.4757 -0.1740
 5172SOL    HW126975   1.569   1.532   1.923  0.2632  0.8880  2.9635
 5172SOL    HW226976   1.553   1.608   1.797  1.9531 -0.8818  0.2940
 5173SOL     OW26977   3.855   2.165   6.403 -0.0497  0.0583 -0.5506
 5173SOL    HW126978   3.890   2.139   6.489 -2.1469 -0.2077  0.2375
 5173SOL    HW226979   3.807   2.084   6.385 -0.1547  0.2125 -0.9506
 5174SOL     OW26980   4.640   3.097   4.052  0.1078 -0.1305  0.2471
 5174SOL    HW126981   4.686   3.181   4.054 -0.6623  0.2698  1.6746
 5174SOL    HW226982   4.610   3.090   4.143 -2.4668  0.1696 -0.5721
 5175SOL     OW26983   3.616   2.165  12.457  0.6952  0.0077 -0.2272
 5175SOL    HW126984   3.561   2.205  12.525 -0.2419  1.1629 -1.6771
 5175SOL    HW226985   3.557   2.151  12.384  1.1964  0.0111 -0.6337
 5176SOL     OW26986   4.570   0.614  16.506 -0.2961  0.0706 -0.0289
 5176SOL    HW126987   4.557   0.591  16.414  1.9428 -2.1884  0.2224
 5176SOL    HW226988   4.559   0.709  16.498 -2.4665  0.0267  2.3585
 5177SOL     OW26989   0.585   1.474   7.609  0.3531 -0.2363  0.4216
 5177SOL    HW126990   0.490   1.481   7.623  0.1719  1.0189 -1.4947
 5177SOL    HW226991   0.617   1.554   7.649  2.4056 -0.9604  0.2169
 5178SOL     OW26992   0.916   3.653   7.555 -0.0652 -1.0725 -0.0957
 5178SOL    HW126993   0.852   3.598   7.599 -1.2199  1.2070  1.0936
 5178SOL    HW226994   0.873   3.668   7.471  0.2533 -1.5470 -0.3395
 5179SOL     OW26995   1.344   4.482   4.572 -0.1266 -0.0346  0.0447
 5179SOL    HW126996   1.403   4.542   4.617  1.6236  0.4490 -2.8772
 5179SOL    HW226997   1.305   4.435   4.645 -1.4112 -0.4440 -0.8958
 5180SOL     OW26998   4.639   4.083   0.975 -0.1437  0.1502 -0.2974
 5180SOL    HW126999   4.608   4.139   1.045 -0.4363 -0.8459  0.3742
 5180SOL    HW227000   4.568   4.021   0.960 -1.1644  0.5636  2.8332
 5181SOL     OW27001   2.596   3.898   8.176 -0.6275  0.1036 -0.1216
 5181SOL    HW127002   2.639   3.814   8.189  2.0483  1.1360 -2.1131
 5181SOL    HW227003   2.612   3.941   8.260  0.9097  0.6027 -0.6690
 5182SOL     OW27004   2.136   2.753   6.944  0.0165 -0.3812  0.1320
 5182SOL    HW127005   2.130   2.793   6.857 -1.8664 -1.6716 -0.3324
 5182SOL    HW227006   2.053   2.708   6.959 -0.4854  0.0979 -1.1605
 5183SOL     OW27007   0.929   3.239   9.185 -0.7749  0.1239 -0.2706
 5183SOL    HW127008   0.890   3.187   9.115 -0.2640  0.3302 -0.7060
 5183SOL    HW227009   1.004   3.256   9.129  0.2957 -1.0734  0.7943
 5184SOL     OW27010   0.132   3.854   0.842  0.5415  0.3687  0.1997
 5184SOL    HW127011   0.164   3.823   0.757 -1.2360  1.9296 -1.0444
 5184SOL    HW227012   0.198   3.829   0.906  1.1514  2.0965  0.2585
 5185SOL     OW27013   3.563   3.235   6.953  0.2998  0.6205  0.4265
 5185SOL    HW127014   3.576   3.174   6.881  1.4801  0.3092  0.9048
 5185SOL    HW227015   3.628   3.300   6.927  1.2281 -0.6221 -0.3521
 5186SOL     OW27016   3.880   1.219  11.898 -0.4566 -0.2264 -0.1565
 5186SOL    HW127017   3.880   1.188  11.807  0.6688 -0.5297 -0.0618
 5186SOL    HW227018   3.841   1.150  11.951  0.9243  1.1506  2.6164
 5187SOL     OW27019   0.943   0.630   0.864  0.1536 -0.6050  0.1669
 5187SOL    HW127020   0.955   0.661   0.954  0.5151  0.6176 -0.2957
 5187SOL    HW227021   1.014   0.566   0.865 -0.3409 -1.2378 -3.3454
 5188SOL     OW27022   1.046   3.958  13.803  0.5072  0.0527  0.4234
 5188SOL    HW127023   1.092   4.020  13.861  2.2250  0.3985 -1.3078
 5188SOL    HW227024   1.020   3.885  13.859 -1.1413  0.1957 -0.1583
 5189SOL     OW27025   1.732   1.929   9.150  0.5714 -0.2991 -0.1474
 5189SOL    HW127026   1.795   1.859   9.133  0.9673 -0.0161  0.1474
 5189SOL    HW227027   1.780   2.002   9.111 -0.5063  1.8672  2.5342
 5190SOL     OW27028   1.562   1.449   1.313  0.5198 -0.5306  0.0191
 5190SOL    HW127029   1.642   1.400   1.334  0.5548  0.3947  2.0416
 5190SOL    HW227030   1.558   1.442   1.217 -2.2281  3.9360 -0.1543
 5191SOL     OW27031   1.819   4.708   8.527  0.0126  0.1115 -0.1659
 5191SOL    HW127032   1.736   0.001   8.483 -0.6386 -0.8040  0.7310
 5191SOL    HW227033   1.853   0.072   8.548 -0.7270  0.3543  0.0026
 5192SOL     OW27034   1.598   4.623   4.414  0.3026 -0.1410  0.3115
 5192SOL    HW127035   1.577   4.676   4.337 -0.0863  0.3788  0.7758
 5192SOL    HW227036   1.597   4.691   4.481  1.8393 -1.3734  1.5789
 5193SOL     OW27037   0.907   1.353   6.785 -0.0118  0.3454 -0.1470
 5193SOL    HW127038   0.989   1.363   6.834 -0.6008  0.8952  0.7368
 5193SOL    HW227039   0.878   1.263   6.800  1.3781  0.2204  1.8792
 5194SOL     OW27040   1.505   4.119   6.351 -0.1525 -0.2019 -0.2030
 5194SOL    HW127041   1.518   4.068   6.431  0.7013 -0.5619 -0.5679
 5194SOL    HW227042   1.592   4.112   6.311  0.0952  1.8340 -0.0426
 5195SOL     OW27043   4.514   3.551  11.691 -0.2567 -0.6930  0.7839
 5195SOL    HW127044   4.561   3.552  11.774 -0.1840 -0.2667  0.7395
 5195SOL    HW227045   4.537   3.468  11.649 -1.7595  0.0855 -1.5603
 5196SOL     OW27046   0.659   3.195   0.481 -0.4525  1.2784  0.2173
 5196SOL    HW127047   0.656   3.272   0.538 -1.0972  0.8259  0.7931
 5196SOL    HW227048   0.577   3.215   0.435 -0.3204 -0.1520 -0.6392
 5197SOL     OW27049   2.379   1.517   5.198 -0.1344  0.1679 -0.1131
 5197SOL    HW127050   2.305   1.572   5.223 -1.5093 -1.9811  0.5152
 5197SOL    HW227051   2.369   1.505   5.103 -0.4145  0.7650 -0.1557
 5198SOL     OW27052   0.047   3.363  11.391 -0.6762 -0.2135 -0.0625
 5198SOL    HW127053   0.090   3.290  11.345 -0.7973  0.1468 -0.7508
 5198SOL    HW227054   0.104   3.437  11.369 -0.3289 -0.2522  0.7196
 5199SOL     OW27055   2.100   1.105   5.766  0.2476 -0.7269  0.8201
 5199SOL    HW127056   2.139   1.020   5.744  0.2718 -0.5868  0.3079
 5199SOL    HW227057   2.048   1.090   5.845  0.6589 -0.0529  1.2161
 5200SOL     OW27058   1.783   0.816   8.316  0.1038 -0.6352  0.5521
 5200SOL    HW127059   1.815   0.859   8.395 -0.4184  2.5853 -0.9993
 5200SOL    HW227060   1.706   0.780   8.360 -0.1864 -0.4766  0.1729
 5201SOL     OW27061   2.895   1.077   7.270  0.0237 -0.7794  0.0372
 5201SOL    HW127062   2.967   1.130   7.236  0.1471 -1.1673 -0.3148
 5201SOL    HW227063   2.942   1.024   7.335 -1.6823 -1.6584  0.5392
 5202SOL     OW27064   4.128   0.007  14.984  0.9974  0.0736 -0.0201
 5202SOL    HW127065   4.178   0.058  15.049  1.8068 -1.3839  0.4932
 5202SOL    HW227066   4.074   4.674  15.039  0.9134 -0.9066 -1.0911
 5203SOL     OW27067   4.050   1.095   4.507 -0.1254  0.0680  0.4995
 5203SOL    HW127068   4.087   1.081   4.420 -0.4483 -0.1026  0.3929
 5203SOL    HW227069   3.981   1.030   4.509  1.0406 -1.2340 -1.5114
 5204SOL     OW27070   3.268   4.508   5.688  0.6954 -0.2482  0.2977
 5204SOL    HW127071   3.177   4.513   5.718  0.2257  2.6984 -1.6716
 5204SOL    HW227072   3.298   4.430   5.735 -1.0919 -1.1506 -0.0505
 5205SOL     OW27073   3.468   0.868  16.684 -0.7337  0.5894  0.3046
 5205SOL    HW127074   3.373   0.873  16.673 -0.7113  1.0550  0.3368
 5205SOL    HW227075   3.482   0.926  16.758 -0.3379  0.4322  0.3565
 5206SOL     OW27076   4.200   2.977   4.663  0.2727  0.0303 -0.0811
 5206SOL    HW127077   4.241   2.903   4.617 -1.1628  0.0004 -1.3231
 5206SOL    HW227078   4.182   3.039   4.592  0.6248 -0.0158 -0.2132
 5207SOL     OW27079   2.357   0.632  14.818  0.1140  0.5665  0.4423
 5207SOL    HW127080   2.286   0.643  14.881  0.4178  2.1388  0.4879
 5207SOL    HW227081   2.415   0.581  14.874  0.4297 -0.5769 -0.9285
 5208SOL     OW27082   3.986   3.071  12.278  0.0192  0.4832 -0.8437
 5208SOL    HW127083   3.896   3.046  12.258 -0.0525 -1.3662  1.7958
 5208SOL    HW227084   4.035   3.054  12.197  0.1432 -0.2554 -0.6108
 5209SOL     OW27085   0.500   4.193  15.570 -0.2099  0.0373 -0.1115
 5209SOL    HW127086   0.539   4.201  15.483 -0.8644 -0.0452 -0.4184
 5209SOL    HW227087   0.565   4.140  15.617  1.7829  2.7468  0.1796
 5210SOL     OW27088   3.333   1.739   8.651 -0.5706  0.1879  0.1102
 5210SOL    HW127089   3.254   1.752   8.597 -0.1037  1.9404 -0.1736
 5210SOL    HW227090   3.352   1.646   8.641  0.5256  0.1912  2.3116
 5211SOL     OW27091   3.589   2.390   4.374  0.0102  0.5703 -0.2529
 5211SOL    HW127092   3.660   2.363   4.316 -1.8409 -0.8179 -1.8767
 5211SOL    HW227093   3.549   2.305   4.394  0.7863  0.0166 -1.0841
 5212SOL     OW27094   0.208   1.937   8.554 -0.1405 -0.0774 -0.1279
 5212SOL    HW127095   0.140   1.920   8.619  0.7300 -1.1263  0.4858
 5212SOL    HW227096   0.244   2.019   8.588  1.2703 -1.2703  1.2437
 5213SOL     OW27097   2.819   3.795   2.004  0.1426  0.2422  0.0628
 5213SOL    HW127098   2.731   3.833   2.006  0.1672  0.2043  2.5579
 5213SOL    HW227099   2.793   3.712   2.044  1.4020  0.6998  1.8159
 5214SOL     OW27100   0.850   3.481   8.274  0.2059  0.1388  0.4989
 5214SOL    HW127101   0.915   3.524   8.219 -0.5046  0.3347 -0.1750
 5214SOL    HW227102   0.806   3.422   8.213  1.9745  0.3286 -0.9590
 5215SOL     OW27103   1.161   1.872   8.568 -0.2303  0.2825  0.2288
 5215SOL    HW127104   1.160   1.839   8.478 -0.8264 -0.5207  0.5347
 5215SOL    HW227105   1.134   1.795   8.618 -2.2903 -1.0500 -2.9599
 5216SOL     OW27106   0.307   4.303   5.152 -0.1393  0.1593  0.4181
 5216SOL    HW127107   0.337   4.393   5.165  1.5956 -0.4695  0.7435
 5216SOL    HW227108   0.279   4.267   5.237  0.7884 -1.4468  0.0477
 5217SOL     OW27109   2.652   1.234   6.854 -0.0321  0.4263  0.5989
 5217SOL    HW127110   2.673   1.262   6.943  3.6791  1.8618 -0.7344
 5217SOL    HW227111   2.713   1.276   6.794 -1.2630 -0.4789 -1.2937
 5218SOL     OW27112   2.240   3.587   2.429  0.0047  0.3044  0.1321
 5218SOL    HW127113   2.228   3.506   2.479  0.8346  1.0631  1.5796
 5218SOL    HW227114   2.300   3.554   2.361 -2.0330 -0.0711 -1.4632
 5219SOL     OW27115   3.501   0.029   7.793  0.5501 -0.3841 -0.1215
 5219SOL    HW127116   3.469   0.004   7.706 -0.6719  0.7029  0.0230
 5219SOL    HW227117   3.596   0.024   7.781  0.4391  0.1996 -1.3172
 5220SOL     OW27118   2.894   3.562  11.910 -0.3289 -0.4492  0.4320
 5220SOL    HW127119   2.943   3.522  11.982 -1.3193  1.4396  2.1441
 5220SOL    HW227120   2.853   3.635  11.956  0.1104 -0.4323  0.7862
 5221SOL     OW27121   4.444   4.341   5.049  0.5653  0.0404 -0.2634
 5221SOL    HW127122   4.397   4.412   5.092 -1.6407 -0.0920 -2.4387
 5221SOL    HW227123   4.439   4.274   5.117  0.5254  2.0491  1.6969
 5222SOL     OW27124   1.890   2.382   1.536 -0.4932  0.3770  1.0120
 5222SOL    HW127125   1.943   2.462   1.531  0.2226 -0.2720 -2.2884
 5222SOL    HW227126   1.803   2.421   1.547 -0.2874  1.4871 -1.1851
 5223SOL     OW27127   0.526   4.312  16.825  0.1999  0.0841  0.6529
 5223SOL    HW127128   0.446   4.352  16.790  0.8680 -0.3105 -1.2932
 5223SOL    HW227129   0.514   4.330  16.919 -1.5694  1.7444  0.1014
 5224SOL     OW27130   2.219   0.646   7.227 -0.1265  0.0059 -0.3787
 5224SOL    HW127131   2.198   0.694   7.307  0.9328  1.0847 -0.7545
 5224SOL    HW227132   2.264   0.714   7.177 -0.1827 -0.4637 -1.0733
 5225SOL     OW27133   4.646   4.210   3.377  0.1906 -0.3686 -0.3090
 5225SOL    HW127134   4.587   4.285   3.384 -1.0761 -1.3751 -0.0176
 5225SOL    HW227135   4.584   4.138   3.394 -0.1437  0.4334  1.8562
 5226SOL     OW27136   3.633   2.363   8.418  0.3814  0.1349 -0.1911
 5226SOL    HW127137   3.705   2.330   8.365 -0.9980 -2.7809 -0.2002
 5226SOL    HW227138   3.579   2.285   8.432  1.5244 -1.1923 -3.3014
 5227SOL     OW27139   2.651   0.495   0.553  0.3747  0.5201  0.3452
 5227SOL    HW127140   2.675   0.452   0.635  1.8884  1.8281  0.5844
 5227SOL    HW227141   2.717   0.460   0.494  0.8241  1.1656  0.4692
 5228SOL     OW27142   0.986   4.383   9.589  0.0099 -0.3090 -0.8855
 5228SOL    HW127143   0.911   4.395   9.647  1.7711  0.4584  1.2327
 5228SOL    HW227144   1.001   4.293   9.616  1.6548 -0.6135 -2.8297
 5229SOL     OW27145   1.154   1.658   6.806  0.1960 -0.0659 -0.1659
 5229SOL    HW127146   1.210   1.723   6.763  0.4063  0.7230  1.3255
 5229SOL    HW227147   1.222   1.610   6.853 -0.2264  0.6017  1.1174
 5230SOL     OW27148   2.668   0.070   2.403  0.1185 -0.2762  0.0429
 5230SOL    HW127149   2.756   0.082   2.368  0.0640 -0.9527 -0.3322
 5230SOL    HW227150   2.616   0.131   2.350  0.4893 -0.1295 -0.1483
 5231SOL     OW27151   3.179   1.854   7.635  0.3381  0.3401  0.2984
 5231SOL    HW127152   3.172   1.803   7.715 -1.8300 -0.2491 -0.2563
 5231SOL    HW227153   3.117   1.927   7.644  3.1995  3.3083 -3.5816
 5232SOL     OW27154   1.485   1.317   7.464  0.0409  0.9472  0.0892
 5232SOL    HW127155   1.561   1.341   7.411  0.3188 -0.1546 -0.0178
 5232SOL    HW227156   1.523   1.327   7.551 -1.5294 -2.3463  1.1450
 5233SOL     OW27157   0.789   0.733   5.120 -0.5758 -0.1272 -0.2654
 5233SOL    HW127158   0.812   0.676   5.047 -1.9285 -0.2992 -0.5551
 5233SOL    HW227159   0.731   0.665   5.155  0.0264 -0.0887  0.8234
 5234SOL     OW27160   4.529   1.478   5.055  0.1208  0.0517  0.0303
 5234SOL    HW127161   4.559   1.569   5.057  1.1993 -0.2420 -2.8245
 5234SOL    HW227162   4.441   1.500   5.085 -0.0173 -1.1939  0.5444
 5235SOL     OW27163   1.337   1.639   0.907 -0.6506 -0.3367  0.2466
 5235SOL    HW127164   1.243   1.621   0.900 -0.6564 -0.4817  0.7093
 5235SOL    HW227165   1.337   1.699   0.832  0.9347  3.1359  3.0253
 5236SOL     OW27166   1.999   3.544   2.834 -0.1796  0.0402  0.1179
 5236SOL    HW127167   2.033   3.458   2.810  0.3891  0.1720  0.4388
 5236SOL    HW227168   2.005   3.585   2.748 -0.0946  2.2474  1.1907
 5237SOL     OW27169   1.877   3.919   8.901 -0.1438  0.0742  0.0931
 5237SOL    HW127170   1.795   3.958   8.870 -1.0357 -0.4430  1.8041
 5237SOL    HW227171   1.845   3.829   8.905 -0.2106  0.1649  1.3916
 5238SOL     OW27172   0.609   1.662   6.781 -0.3240 -0.1095  0.5438
 5238SOL    HW127173   0.646   1.590   6.730  1.8789  1.8031 -0.5608
 5238SOL    HW227174   0.686   1.719   6.785 -0.5616  0.1279  1.8227
 5239SOL     OW27175   0.766   3.457   3.333 -0.7014  0.1976  0.2797
 5239SOL    HW127176   0.763   3.438   3.239  0.7136  1.8723 -0.0925
 5239SOL    HW227177   0.855   3.436   3.359 -0.9887 -0.4954  0.7052
 5240SOL     OW27178   4.035   1.449   3.161  0.9655  0.3477 -0.0254
 5240SOL    HW127179   3.988   1.500   3.094  0.2226 -0.7500 -0.3409
 5240SOL    HW227180   3.964   1.415   3.215 -1.3126  0.1016 -3.1237
 5241SOL     OW27181   3.941   2.917   8.690  0.2200  0.0578  0.1783
 5241SOL    HW127182   3.875   2.861   8.650  2.4111 -0.3643 -2.7800
 5241SOL    HW227183   3.878   2.964   8.745 -0.7852 -0.4915 -0.5005
 5242SOL     OW27184   0.729   1.817   0.316 -0.4807  0.0120 -0.3522
 5242SOL    HW127185   0.825   1.817   0.318 -0.4336 -1.7144 -2.4282
 5242SOL    HW227186   0.706   1.734   0.359  0.7659  0.9311  2.0265
 5243SOL     OW27187   3.910   2.329   8.925 -0.2152  0.0688 -0.2520
 5243SOL    HW127188   3.840   2.306   8.986  0.6668 -0.8263  0.4169
 5243SOL    HW227189   3.978   2.265   8.949  0.1477  1.1776  1.6114
 5244SOL     OW27190   1.026   3.127   2.434 -0.1750  0.1218 -0.5245
 5244SOL    HW127191   0.948   3.177   2.454  0.4163  0.9536 -0.2875
 5244SOL    HW227192   1.017   3.059   2.501  0.1950  0.6716  0.0851
 5245SOL     OW27193   3.365   0.238  14.471  0.4385 -0.3903 -0.2131
 5245SOL    HW127194   3.457   0.252  14.493  0.5783 -0.5559 -0.6935
 5245SOL    HW227195   3.363   0.259  14.378  1.7027  1.2392  0.1352
 5246SOL     OW27196   0.168   4.713   0.143  0.1126  0.0736 -0.4186
 5246SOL    HW127197   0.145   4.657   0.217 -3.2822  0.3825 -1.2310
 5246SOL    HW227198   0.231   4.658   0.097 -1.9398  0.7303 -4.0330
 5247SOL     OW27199   4.650   3.371   0.509 -0.1240 -0.1135  0.4227
 5247SOL    HW127200   4.660   3.465   0.495  0.4931 -0.2460 -0.0565
 5247SOL    HW227201   4.559   3.361   0.479 -0.4582  0.0904  1.3912
 5248SOL     OW27202   2.056   1.007   6.708 -0.9207 -0.3418  0.0348
 5248SOL    HW127203   2.101   1.028   6.626  0.0928  2.5646  1.3396
 5248SOL    HW227204   2.108   1.061   6.767 -1.6446 -0.9696  1.2659
 5249SOL     OW27205   2.179   3.132   5.024  0.2104 -0.3849  0.0084
 5249SOL    HW127206   2.274   3.132   5.035  0.1928 -0.1821  0.1630
 5249SOL    HW227207   2.166   3.145   4.930  0.4728 -0.0691  0.0182
 5250SOL     OW27208   0.987   0.089   5.656  0.0186 -0.0097 -0.0229
 5250SOL    HW127209   1.052   0.129   5.713  0.7401 -1.5484  0.2482
 5250SOL    HW227210   0.984   0.147   5.581  1.0479  2.4898  1.8848
 5251SOL     OW27211   1.987   0.661   1.968  0.2240 -0.2247 -0.0600
 5251SOL    HW127212   1.922   0.702   2.025  0.7682  0.9883 -0.3337
 5251SOL    HW227213   2.044   0.736   1.952  3.6632 -2.7772  0.3040
 5252SOL     OW27214   0.982   3.008  15.907 -0.0256  0.3581  0.4395
 5252SOL    HW127215   0.992   2.939  15.973  0.1300  1.0099  1.0839
 5252SOL    HW227216   0.886   3.014  15.903 -0.0233  0.4340  0.4977
 5253SOL     OW27217   4.638   2.170   2.534  0.1220 -0.0290  0.1872
 5253SOL    HW127218   4.614   2.110   2.464  3.6797 -1.6817  0.4062
 5253SOL    HW227219   4.601   2.251   2.496  1.4405  0.7819  0.6248
 5254SOL     OW27220   3.945   3.638   7.661 -0.7967 -0.6087  0.8877
 5254SOL    HW127221   3.893   3.558   7.658 -1.7708  0.0925 -2.0066
 5254SOL    HW227222   3.883   3.706   7.632 -1.4388 -0.6103  2.2527
 5255SOL     OW27223   0.798   3.724  16.030  0.1837  0.0303 -0.0338
 5255SOL    HW127224   0.882   3.712  16.073 -0.2632 -0.2224  0.7608
 5255SOL    HW227225   0.752   3.642  16.044  1.3558 -0.1369  2.7418
 5256SOL     OW27226   0.154   0.055   0.721 -0.2879  0.3156 -0.6397
 5256SOL    HW127227   0.193   0.142   0.732 -3.5555  1.9910 -2.1139
 5256SOL    HW227228   0.224   0.007   0.677  1.7323 -1.3463  4.4637
 5257SOL     OW27229   1.316   2.529  12.528  0.2543 -0.2121 -0.2742
 5257SOL    HW127230   1.410   2.513  12.530  0.6244  1.9164 -1.1237
 5257SOL    HW227231   1.312   2.600  12.592 -2.2165 -0.5787 -0.0075
 5258SOL     OW27232   4.358   2.342   0.986  0.2549 -0.2053 -0.0262
 5258SOL    HW127233   4.359   2.261   1.036 -0.1913  1.0510  1.9895
 5258SOL    HW227234   4.275   2.333   0.940 -0.4526 -2.6525  1.7360
 5259SOL     OW27235   2.860   2.419  15.242 -0.1492  0.7748  0.7576
 5259SOL    HW127236   2.851   2.396  15.335  0.3654 -2.4068  0.0235
 5259SOL    HW227237   2.771   2.400  15.212  0.8596 -0.5872 -1.3946
 5260SOL     OW27238   3.326   2.208   6.019 -0.3856 -0.6580  0.1047
 5260SOL    HW127239   3.241   2.165   6.006  0.1323 -1.0953 -1.8392
 5260SOL    HW227240   3.314   2.300   5.999 -1.5278 -0.9199 -0.4146
 5261SOL     OW27241   4.438   0.126   2.938 -0.0940  0.1350 -0.2926
 5261SOL    HW127242   4.383   0.151   3.013 -0.6409  1.8350 -1.2826
 5261SOL    HW227243   4.371   0.079   2.888 -0.9543  1.4279 -0.3717
 5262SOL     OW27244   1.429   3.221  17.240  0.6854 -0.2744  0.4304
 5262SOL    HW127245   1.334   3.208  17.244  0.3134  2.3725  0.1830
 5262SOL    HW227246   1.449   3.131  17.214  0.9124 -0.5742  1.6147
 5263SOL     OW27247   1.073   2.319   7.316 -0.1309  0.2763 -0.6371
 5263SOL    HW127248   1.039   2.260   7.248  0.6572  0.5016 -1.2212
 5263SOL    HW227249   1.108   2.258   7.380  0.5152 -0.4926 -1.7121
 5264SOL     OW27250   2.703   0.858  14.201  0.1544 -0.1998 -0.0277
 5264SOL    HW127251   2.767   0.870  14.272  0.6212  2.9008 -0.9588
 5264SOL    HW227252   2.624   0.825  14.243 -0.9433 -0.3416 -2.2068
 5265SOL     OW27253   1.773   4.036   4.659 -0.2737  0.4934  0.9179
 5265SOL    HW127254   1.751   3.964   4.717  0.7679 -0.4601  0.1297
 5265SOL    HW227255   1.835   4.010   4.591  0.2245  0.6580  1.3160
 5266SOL     OW27256   2.004   4.694   8.047 -0.1611 -0.5644  0.0634
 5266SOL    HW127257   2.089   4.652   8.036  0.4812  0.8185 -0.2580
 5266SOL    HW227258   2.034   0.062   8.048  0.7248 -0.8641  0.6093
 5267SOL     OW27259   3.092   4.535   2.270 -0.1517 -0.1577 -0.7760
 5267SOL    HW127260   3.031   4.509   2.340  0.0473  2.0314  0.2135
 5267SOL    HW227261   3.032   4.553   2.197 -1.4501  2.7577  0.9959
 5268SOL     OW27262   2.677   3.873   3.289  0.2856 -0.2194  0.5592
 5268SOL    HW127263   2.766   3.889   3.320  0.1014 -1.3242  1.6763
 5268SOL    HW227264   2.629   3.926   3.352  0.3639 -0.1289  0.5434
 5269SOL     OW27265   3.474   0.401  16.309 -0.2650  0.1677 -0.1142
 5269SOL    HW127266   3.511   0.476  16.261 -1.5353  0.3935 -0.7547
 5269SOL    HW227267   3.475   0.326  16.250  1.0608  0.0207  0.0768
 5270SOL     OW27268   3.302   4.611   0.808  0.1123  0.0044  0.0027
 5270SOL    HW127269   3.393   4.598   0.832 -0.2328  0.1459  1.3541
 5270SOL    HW227270   3.309   4.665   0.729  1.4365 -1.3686 -0.7975
 5271SOL     OW27271   2.998   2.743   1.782  0.1893  0.1702 -0.1469
 5271SOL    HW127272   3.059   2.714   1.715 -0.0864  0.8154 -0.6743
 5271SOL    HW227273   3.010   2.838   1.773 -1.5341  0.6658  2.7872
 5272SOL     OW27274   3.618   1.128   7.035 -0.1014 -0.3799 -0.0181
 5272SOL    HW127275   3.581   1.191   7.095  0.0088  0.7621 -1.1497
 5272SOL    HW227276   3.664   1.071   7.097 -1.2890 -0.0642  1.1221
 5273SOL     OW27277   3.603   3.497  13.667 -0.4852 -0.0426 -0.3123
 5273SOL    HW127278   3.611   3.548  13.748 -0.0656  1.1249 -1.0972
 5273SOL    HW227279   3.686   3.449  13.671 -0.7909 -0.4823  0.9603
 5274SOL     OW27280   3.241   2.591   5.172 -0.7547 -0.7363 -0.4098
 5274SOL    HW127281   3.212   2.629   5.089  1.1164 -0.0106 -0.7475
 5274SOL    HW227282   3.173   2.525   5.181 -1.9365  0.6317  0.7487
 5275SOL     OW27283   2.125   4.610  12.294 -0.1203 -0.5643 -0.0549
 5275SOL    HW127284   2.155   4.519  12.298  2.0052  0.1431 -0.0184
 5275SOL    HW227285   2.066   4.593  12.221  0.8838  2.2473 -1.4819
 5276SOL     OW27286   1.953   2.444  10.515  0.3061  0.3688  0.4681
 5276SOL    HW127287   1.903   2.401  10.584 -0.8781  2.4496  0.9268
 5276SOL    HW227288   1.934   2.537  10.524  0.6746  0.2268  2.6876
 5277SOL     OW27289   4.692   0.934   9.589 -0.4573  0.0222 -0.2072
 5277SOL    HW127290   0.053   0.937   9.635  0.6166  1.1465 -2.2842
 5277SOL    HW227291   4.706   0.877   9.514 -1.9635 -0.3667 -0.2021
 5278SOL     OW27292   1.483   4.473   8.358 -0.2344 -0.3082 -0.2705
 5278SOL    HW127293   1.561   4.462   8.412 -0.6745 -0.9419  0.2442
 5278SOL    HW227294   1.447   4.384   8.354  0.6373 -0.5534 -2.3468
 5279SOL     OW27295   1.706   4.476   5.381  0.0514 -0.2164 -0.4143
 5279SOL    HW127296   1.672   4.478   5.292 -1.7194 -0.2581  0.2489
 5279SOL    HW227297   1.668   4.392   5.409 -1.9774  0.9272  0.2784
 5280SOL     OW27298   2.328   2.381   2.834  0.0644 -0.3148  0.2407
 5280SOL    HW127299   2.306   2.386   2.927 -2.1655 -0.3782 -0.3006
 5280SOL    HW227300   2.280   2.302   2.813 -2.1203  1.1502 -0.2898
 5281SOL     OW27301   2.835   3.072   3.878 -0.1081 -0.1320  0.4520
 5281SOL    HW127302   2.744   3.042   3.871 -0.0924 -0.5673  2.1387
 5281SOL    HW227303   2.855   3.078   3.784  0.5719  1.6798  0.7080
 5282SOL     OW27304   3.566   3.653  13.865  0.3025 -0.0366  0.0571
 5282SOL    HW127305   3.620   3.728  13.842  0.1131  0.5930  1.7413
 5282SOL    HW227306   3.483   3.698  13.853  1.4050  1.2120 -2.8581
 5283SOL     OW27307   3.679   4.258   1.515 -0.2223  0.0344  0.3059
 5283SOL    HW127308   3.614   4.190   1.497  0.9215 -0.8761 -0.3561
 5283SOL    HW227309   3.702   4.242   1.606  0.9197 -1.1791 -0.1934
 5284SOL     OW27310   1.532   3.936  15.209  0.1886 -0.8433 -0.6054
 5284SOL    HW127311   1.628   3.942  15.202  0.2348  0.7222  1.3233
 5284SOL    HW227312   1.537   3.893  15.295  0.5038 -1.9249 -1.1646
 5285SOL     OW27313   3.636   3.205   6.206 -0.2866  0.4354 -0.0296
 5285SOL    HW127314   3.557   3.208   6.260 -0.3514  0.7810 -0.1400
 5285SOL    HW227315   3.613   3.134   6.146  0.3424 -0.5936  0.9595
 5286SOL     OW27316   1.914   0.785   0.784  0.0696 -0.2457  0.6201
 5286SOL    HW127317   1.962   0.771   0.866 -2.5744 -0.6068  2.0927
 5286SOL    HW227318   1.867   0.702   0.779  0.1531 -0.2651  0.1555
 5287SOL     OW27319   1.582   2.777  14.933 -0.3726 -0.6033 -0.4559
 5287SOL    HW127320   1.516   2.753  14.869  0.5363 -0.0951 -1.5800
 5287SOL    HW227321   1.668   2.781  14.892 -1.4775  1.8848 -2.5078
 5288SOL     OW27322   3.874   4.477   9.089  0.3067 -0.0891  0.0383
 5288SOL    HW127323   3.812   4.451   9.021 -0.3654  1.5600  0.0263
 5288SOL    HW227324   3.816   4.486   9.164  0.8380  3.9457 -0.0369
 5289SOL     OW27325   4.648   4.532   4.835  0.2219  0.2128 -0.3259
 5289SOL    HW127326   4.672   4.448   4.796  1.8325  1.3461 -1.7885
 5289SOL    HW227327   0.010   4.563   4.868 -0.7895  0.6763  1.8259
 5290SOL     OW27328   4.061   2.345  10.404  0.0895  0.1749 -0.0592
 5290SOL    HW127329   4.026   2.370  10.319 -1.1963 -0.1973  0.3534
 5290SOL    HW227330   4.009   2.265  10.417 -0.0224  0.3669  0.6596
 5291SOL     OW27331   2.847   0.723  16.456  0.4764 -0.1520 -0.2391
 5291SOL    HW127332   2.768   0.709  16.508 -1.2550  0.3507 -2.7595
 5291SOL    HW227333   2.866   0.632  16.436 -0.3428 -0.3986  0.0992
 5292SOL     OW27334   3.021   0.978   7.022  0.0761 -0.3345 -0.4212
 5292SOL    HW127335   2.945   0.991   7.079  1.0175 -2.4416  1.3333
 5292SOL    HW227336   3.094   0.995   7.082 -1.1949 -0.4347  1.1633
 5293SOL     OW27337   1.078   2.707   6.542 -0.6233 -0.1100 -0.4067
 5293SOL    HW127338   1.114   2.787   6.505 -1.5264  0.6398  0.3260
 5293SOL    HW227339   1.088   2.642   6.473 -0.6414 -0.2769 -0.2512
 5294SOL     OW27340   4.477   1.923  10.816 -0.3630  0.0771  0.5329
 5294SOL    HW127341   4.459   1.937  10.909  2.7315  2.9984  0.7414
 5294SOL    HW227342   4.453   2.009  10.782 -3.5964 -0.7010  0.8953
 5295SOL     OW27343   3.114   0.299   9.131  0.1649 -0.1331  0.2810
 5295SOL    HW127344   3.027   0.321   9.165  0.8956  2.6206  0.3494
 5295SOL    HW227345   3.153   0.384   9.110 -0.2459 -0.0881 -0.3123
 5296SOL     OW27346   2.046   2.005   4.030  0.2546  0.3735 -0.6302
 5296SOL    HW127347   2.105   1.935   4.057  1.6256  0.5358 -3.1557
 5296SOL    HW227348   2.047   2.070   4.101 -0.3555  2.1958 -2.2695
 5297SOL     OW27349   2.512   1.988   6.220 -0.7838 -0.1282  0.0825
 5297SOL    HW127350   2.482   1.927   6.152 -0.8064 -0.8011  0.6861
 5297SOL    HW227351   2.442   1.990   6.285  0.2942 -2.8903  1.3355
 5298SOL     OW27352   3.170   4.589   6.431  0.2206  0.4109 -0.6351
 5298SOL    HW127353   3.102   4.599   6.497  1.2780  0.4827  0.4372
 5298SOL    HW227354   3.213   4.511   6.466  2.7715  2.0111 -0.2177
 5299SOL     OW27355   4.419   1.949   2.399 -0.5961 -0.0598  0.0167
 5299SOL    HW127356   4.389   1.858   2.391  0.7352 -0.5046  0.0504
 5299SOL    HW227357   4.497   1.945   2.343 -0.1177 -0.0951  0.6914
 5300SOL     OW27358   4.288   3.777  11.185  0.3884 -0.1627  0.3322
 5300SOL    HW127359   4.269   3.698  11.234 -1.9452 -1.4553 -2.6318
 5300SOL    HW227360   4.322   3.745  11.102 -0.1844  0.8446 -0.2990
 5301SOL     OW27361   3.715   4.478   8.051 -0.6224 -0.5175  0.5586
 5301SOL    HW127362   3.768   4.555   8.029  0.6169 -1.3162  0.7757
 5301SOL    HW227363   3.686   4.504   8.139 -0.6870  2.1216 -0.2480
 5302SOL     OW27364   1.856   0.081   0.342 -0.2314 -0.1693  0.1299
 5302SOL    HW127365   1.793   0.118   0.280 -0.7819 -0.1718  0.6954
 5302SOL    HW227366   1.932   0.123   0.302  0.4185  0.6041  2.1710
 5303SOL     OW27367   3.975   3.477   6.187  0.3402  0.1763  0.3433
 5303SOL    HW127368   3.927   3.544   6.138  1.1503 -0.8241 -1.8078
 5303SOL    HW227369   3.936   3.459   6.273  0.6279 -0.7376  0.2872
 5304SOL     OW27370   0.014   0.988  16.849 -0.0771  0.1578 -0.6365
 5304SOL    HW127371   0.014   0.893  16.836  0.9055  0.4845 -2.9809
 5304SOL    HW227372   0.107   1.007  16.860  0.1461  0.2684 -2.6055
 5305SOL     OW27373   4.321   3.312  16.088  0.1007  0.6327 -0.1037
 5305SOL    HW127374   4.264   3.240  16.061  0.6497  0.6679 -1.3284
 5305SOL    HW227375   4.326   3.365  16.009 -1.3183  0.3121 -0.4173
 5306SOL     OW27376   0.690   1.360   5.559  0.5603 -0.0162 -0.4163
 5306SOL    HW127377   0.699   1.291   5.493  1.0373 -0.4955  0.1574
 5306SOL    HW227378   0.596   1.356   5.576  0.8496  1.5753  1.5590
 5307SOL     OW27379   3.243   1.627   5.439  0.3968  0.2420  0.5934
 5307SOL    HW127380   3.305   1.667   5.378 -0.6495  2.6222  1.0812
 5307SOL    HW227381   3.163   1.652   5.392  0.1611 -0.1412  0.7922
 5308SOL     OW27382   4.150   3.138   2.567  0.2656 -0.0216  0.1708
 5308SOL    HW127383   4.241   3.127   2.596 -0.9831 -1.5334  3.4406
 5308SOL    HW227384   4.138   3.081   2.491  1.5854 -0.4386  0.2704
 5309SOL     OW27385   1.627   4.195   1.897 -0.5541 -1.1092  0.4868
 5309SOL    HW127386   1.582   4.232   1.820  0.2836  0.6927  0.8578
 5309SOL    HW227387   1.651   4.110   1.860 -0.6076  0.0355 -2.2163
 5310SOL     OW27388   0.781   3.000   3.325 -1.0073 -0.4622 -0.0827
 5310SOL    HW127389   0.725   3.077   3.309  1.6347  1.0475 -1.9681
 5310SOL    HW227390   0.730   2.949   3.388 -0.5557  0.1151  0.7529
 5311SOL     OW27391   4.652   3.961   5.992 -0.2541  0.3725  0.2302
 5311SOL    HW127392   4.696   4.039   6.026 -0.7149  0.9367 -0.4503
 5311SOL    HW227393   4.638   3.910   6.072  0.7600 -1.7197 -0.9226
 5312SOL     OW27394   4.581   1.265   2.982  0.0958  0.3315  0.2141
 5312SOL    HW127395   4.620   1.185   3.016 -0.8460 -0.1139  0.2493
 5312SOL    HW227396   4.566   1.233   2.894  0.4685  0.7784 -0.0145
 5313SOL     OW27397   0.210   3.453  15.436  0.2553 -0.2032 -0.1267
 5313SOL    HW127398   0.187   3.538  15.398  0.3546 -0.2560 -0.3060
 5313SOL    HW227399   0.299   3.453  15.399  0.0583 -1.4626 -0.6098
 5314SOL     OW27400   3.473   2.556   5.307  0.2233  0.2178  0.1887
 5314SOL    HW127401   3.499   2.644   5.333  1.2771  0.8711 -3.1664
 5314SOL    HW227402   3.408   2.576   5.240  1.0998 -0.0691 -0.7340
 5315SOL     OW27403   4.323   2.194   8.846  0.2839 -0.1699  0.1246
 5315SOL    HW127404   4.343   2.137   8.920  0.1441  0.0792  0.3536
 5315SOL    HW227405   4.274   2.263   8.890 -0.8847 -1.0957  0.2672
 5316SOL     OW27406   2.772   0.282   5.131  0.3372  0.6305  1.0931
 5316SOL    HW127407   2.762   0.223   5.206 -1.2597 -4.0362 -2.8387
 5316SOL    HW227408   2.783   0.213   5.066  1.8934  0.8568  1.1092
 5317SOL     OW27409   3.227   3.189   7.539 -0.0140 -0.4054 -0.6639
 5317SOL    HW127410   3.157   3.206   7.476 -1.1145 -0.2217  0.6144
 5317SOL    HW227411   3.205   3.097   7.555  0.3053 -0.3706 -0.0065
 5318SOL     OW27412   2.774   2.540  16.249 -0.2138 -0.2272 -0.3817
 5318SOL    HW127413   2.770   2.630  16.217  0.8153  0.3877  1.2308
 5318SOL    HW227414   2.801   2.557  16.340  0.2615 -1.7637 -0.2354
 5319SOL     OW27415   4.343   3.059   7.716  0.2449 -0.1268 -0.4231
 5319SOL    HW127416   4.342   2.971   7.679 -0.8987 -0.7939  1.2173
 5319SOL    HW227417   4.434   3.078   7.739 -0.0639  0.4103  0.3348
 5320SOL     OW27418   0.124   4.466   8.958  0.5636  0.5812  0.1307
 5320SOL    HW127419   0.208   4.420   8.949  0.6211 -0.0588  3.9900
 5320SOL    HW227420   0.128   4.499   9.048 -2.8441 -0.6277  0.7093
 5321SOL     OW27421   3.968   4.413   0.501 -0.1111 -0.4345 -0.3712
 5321SOL    HW127422   3.922   4.386   0.422  0.0260 -1.4460 -0.0980
 5321SOL    HW227423   3.896   4.451   0.552  0.4830  0.9912 -0.5895
 5322SOL     OW27424   0.859   3.902   6.144  0.0748 -0.2048  0.2398
 5322SOL    HW127425   0.860   3.945   6.230 -3.4690  2.2681 -0.9098
 5322SOL    HW227426   0.822   3.969   6.087 -0.1377 -1.3418 -0.9430
 5323SOL     OW27427   4.290   4.051  11.238  0.0453 -0.4461  0.0452
 5323SOL    HW127428   4.290   4.077  11.146 -0.7881  1.9445  0.7112
 5323SOL    HW227429   4.297   3.956  11.237  3.5950 -0.1850 -0.5890
 5324SOL     OW27430   0.739   3.557   2.457  0.1878 -0.3268  0.0365
 5324SOL    HW127431   0.684   3.479   2.464  0.8409 -0.8474 -0.6079
 5324SOL    HW227432   0.813   3.538   2.514  0.9752  0.9704 -0.5624
 5325SOL     OW27433   3.080   1.218   6.653 -0.0122 -0.2118  0.2552
 5325SOL    HW127434   3.025   1.263   6.588  1.9095  0.9696 -0.5809
 5325SOL    HW227435   3.021   1.150   6.684 -0.6594  0.7507  1.1298
 5326SOL     OW27436   0.831   0.384   6.178 -0.2031  0.0714 -0.5742
 5326SOL    HW127437   0.896   0.441   6.220  0.3787 -0.5721 -0.6089
 5326SOL    HW227438   0.896   0.346   6.119  0.3016 -0.9247  0.5956
 5327SOL     OW27439   0.244   2.961   3.664  0.3860 -0.4939  0.3552
 5327SOL    HW127440   0.162   2.952   3.616  1.4462  0.4805 -1.6714
 5327SOL    HW227441   0.211   2.987   3.750  0.1597  0.9715 -0.1763
 5328SOL     OW27442   3.241   2.435   4.038 -0.0808  0.1243 -0.1274
 5328SOL    HW127443   3.321   2.399   3.999 -0.2579 -1.0610  0.6073
 5328SOL    HW227444   3.265   2.526   4.053 -1.8695  0.1264  2.6925
 5329SOL     OW27445   1.180   2.121   3.246 -0.2806  0.1102  0.3595
 5329SOL    HW127446   1.264   2.074   3.245 -0.1877  0.2530  1.0208
 5329SOL    HW227447   1.133   2.049   3.205 -2.5326  2.0348 -0.3887
 5330SOL     OW27448   1.394   3.537   8.921 -0.1609  0.6640  0.4522
 5330SOL    HW127449   1.390   3.603   8.990  0.2617 -0.4124  1.4888
 5330SOL    HW227450   1.455   3.475   8.959 -1.1184  0.3822  1.5153
 5331SOL     OW27451   3.936   2.763   2.351  0.1978  0.8097  0.5573
 5331SOL    HW127452   3.997   2.834   2.370  0.9012 -0.3598  2.6273
 5331SOL    HW227453   3.902   2.755   2.440 -1.9711 -3.1131 -0.6091
 5332SOL     OW27454   4.668   1.253   8.206 -0.3868 -0.1739  0.2498
 5332SOL    HW127455   4.638   1.179   8.153  1.1221  0.0448 -0.8932
 5332SOL    HW227456   4.652   1.323   8.143  0.1931  1.4413  1.8702
 5333SOL     OW27457   2.095   2.604   4.390  0.0769 -0.4413 -0.2885
 5333SOL    HW127458   2.046   2.618   4.309 -1.2519 -2.2060  0.2116
 5333SOL    HW227459   2.185   2.621   4.360 -0.2197  0.0229 -0.9042
 5334SOL     OW27460   1.932   3.038  14.876 -0.3493 -0.5604 -0.0441
 5334SOL    HW127461   1.893   3.104  14.819 -0.9292  0.3483  1.3887
 5334SOL    HW227462   1.903   3.059  14.965 -0.4121  0.2702 -0.2645
 5335SOL     OW27463   2.132   0.262   4.163 -0.1733 -0.1814 -0.0885
 5335SOL    HW127464   2.143   0.248   4.257  1.3018  0.4589 -0.1714
 5335SOL    HW227465   2.039   0.287   4.160  0.0318  0.2430 -3.0730
 5336SOL     OW27466   4.721   0.647   3.952  0.3687  0.5183  0.1548
 5336SOL    HW127467   4.643   0.608   3.912  1.6156 -0.7736 -1.0261
 5336SOL    HW227468   0.055   0.666   3.878 -0.7872 -1.8858 -1.3322
 5337SOL     OW27469   1.717   3.141  15.037 -0.0346  0.2593  0.2297
 5337SOL    HW127470   1.694   3.082  15.108 -1.2020  0.4381 -0.0075
 5337SOL    HW227471   1.645   3.131  14.974 -0.0899  0.1955  0.3038
 5338SOL     OW27472   3.889   0.010  13.927 -0.5532  0.0143 -0.4073
 5338SOL    HW127473   3.978   0.032  13.951 -0.4453 -1.0196  0.1620
 5338SOL    HW227474   3.844   0.093  13.911  0.1030  0.1290 -1.6767
 5339SOL     OW27475   1.408   0.059   6.133  0.3926 -0.5284  0.2910
 5339SOL    HW127476   1.395   0.142   6.178  1.0696 -0.1472 -0.2017
 5339SOL    HW227477   1.371   0.002   6.200 -0.8774 -1.0103 -0.8088
 5340SOL     OW27478   4.580   3.808  10.985  0.1662  0.1723 -0.5634
 5340SOL    HW127479   4.495   3.765  10.985 -0.0455  0.5519  0.9212
 5340SOL    HW227480   4.627   3.734  10.949  0.1994 -0.5418  0.9276
 5341SOL     OW27481   0.847   2.834   5.093  0.5057 -0.4322 -0.1675
 5341SOL    HW127482   0.863   2.758   5.150  1.7969 -1.0663 -1.3917
 5341SOL    HW227483   0.902   2.900   5.135 -0.8774 -0.3513  1.5237
 5342SOL     OW27484   1.038   3.696   3.440 -0.2378  0.1725  0.7678
 5342SOL    HW127485   0.992   3.686   3.357  1.0456 -1.1672  0.2091
 5342SOL    HW227486   1.069   3.607   3.455 -0.1123 -0.2739 -1.9972
 5343SOL     OW27487   2.584   3.975   7.910 -0.1656 -0.3949  0.0764
 5343SOL    HW127488   2.652   3.923   7.868  0.5978  1.2603 -0.7317
 5343SOL    HW227489   2.608   3.944   7.998 -1.4828  0.8622  0.8847
 5344SOL     OW27490   1.753   0.216   7.534 -0.2001  0.1504  0.5615
 5344SOL    HW127491   1.774   0.139   7.481 -1.2301  0.4435 -0.2818
 5344SOL    HW227492   1.836   0.262   7.540  1.0734 -1.7370 -2.1680
 5345SOL     OW27493   0.703   4.443   7.712  0.2902 -0.0682  0.5128
 5345SOL    HW127494   0.662   4.423   7.628  0.4094  0.9441  0.2243
 5345SOL    HW227495   0.794   4.423   7.690 -0.0764 -0.9848 -0.1757
 5346SOL     OW27496   1.152   0.410   3.211 -0.5675  0.1499  0.8355
 5346SOL    HW127497   1.141   0.318   3.188 -0.0790  0.7368 -1.8206
 5346SOL    HW227498   1.238   0.437   3.177 -0.4288 -0.5975  0.6097
 5347SOL     OW27499   4.018   1.661  17.149  0.0696 -0.4782 -0.4244
 5347SOL    HW127500   4.090   1.666  17.212 -0.9181  2.7563  0.4716
 5347SOL    HW227501   3.941   1.672  17.205  0.5913 -0.7387  0.3406
 5348SOL     OW27502   1.769   0.004   7.359 -1.1748  0.3269  0.2101
 5348SOL    HW127503   1.704   4.683   7.414 -1.8401  0.1494 -0.7229
 5348SOL    HW227504   1.718   0.030   7.282 -2.4972 -1.2910  0.5328
 5349SOL     OW27505   2.853   1.063  10.635  0.0589  0.3263  1.0380
 5349SOL    HW127506   2.906   1.084  10.557  1.3936  0.1118  1.8929
 5349SOL    HW227507   2.861   0.969  10.652  0.3678  0.2505  0.4863
 5350SOL     OW27508   3.473   4.295  10.727  0.2385  0.4211  0.7347
 5350SOL    HW127509   3.551   4.339  10.761  1.3753 -0.8152 -0.2810
 5350SOL    HW227510   3.429   4.360  10.672 -2.3712 -0.7778  1.3835
 5351SOL     OW27511   4.205   0.128   9.046  0.1754  0.6014 -0.4964
 5351SOL    HW127512   4.144   0.142   9.119  0.6315 -3.2288  0.6822
 5351SOL    HW227513   4.273   0.191   9.071 -0.0329  0.9554 -0.8424
 5352SOL     OW27514   1.373   0.913   4.554  0.5478 -0.3546 -0.1987
 5352SOL    HW127515   1.352   0.844   4.616  0.1048  0.0135  0.0590
 5352SOL    HW227516   1.342   0.978   4.616 -0.9340 -1.3555  0.0926
 5353SOL     OW27517   0.547   1.799  17.517  0.1428  0.4539 -0.2697
 5353SOL    HW127518   0.560   1.725  17.576 -0.6046  2.4493  2.3813
 5353SOL    HW227519   0.482   1.768  17.453 -1.0425 -2.0885  2.1493
 5354SOL     OW27520   4.444   1.510   4.647  0.4402  0.6123 -0.0888
 5354SOL    HW127521   4.360   1.510   4.693  0.3092 -2.2660 -0.2960
 5354SOL    HW227522   4.486   1.433   4.686 -0.6075  0.6524  1.0941
 5355SOL     OW27523   1.882   1.958  10.440  0.8903 -0.0450  0.0231
 5355SOL    HW127524   1.923   2.017  10.503  1.2534 -0.3726  0.0948
 5355SOL    HW227525   1.831   1.899  10.496  0.4387  0.1526 -0.1770
 5356SOL     OW27526   4.584   0.091   5.890 -0.0715  0.3622  0.3141
 5356SOL    HW127527   4.574   0.133   5.804  0.0546 -1.2310 -0.4722
 5356SOL    HW227528   4.647   0.025   5.862 -2.7411 -1.6655 -0.8988
 5357SOL     OW27529   2.041   0.419   6.533  0.2192  0.9232  0.1225
 5357SOL    HW127530   1.983   0.469   6.590  0.2297  0.5731  0.4414
 5357SOL    HW227531   1.975   0.369   6.487  0.7740 -1.3965  1.8676
 5358SOL     OW27532   0.996   1.593   5.084  0.2453 -0.2007  0.0492
 5358SOL    HW127533   1.019   1.627   4.998 -0.2941  0.2996  0.0998
 5358SOL    HW227534   1.074   1.538   5.087  0.8644  0.6045 -1.3548
 5359SOL     OW27535   2.235   0.483   0.318  0.4405  0.4808 -0.1507
 5359SOL    HW127536   2.150   0.484   0.273 -0.0770  1.8522  0.8833
 5359SOL    HW227537   2.213   0.557   0.374 -0.5128 -0.4084  0.6561
 5360SOL     OW27538   2.085   2.206  10.966  0.6166 -0.2492  0.0834
 5360SOL    HW127539   2.016   2.143  10.950 -0.0759  0.5497 -0.0958
 5360SOL    HW227540   2.088   2.192  11.060  0.6780  0.6967  0.2229
 5361SOL     OW27541   0.716   2.569   4.866 -0.2689  0.6947 -0.6682
 5361SOL    HW127542   0.655   2.610   4.926 -1.8574 -1.1518 -1.0274
 5361SOL    HW227543   0.665   2.535   4.792  0.6069  1.0021 -1.4119
 5362SOL     OW27544   1.153   1.457   1.499 -0.0856 -0.5862 -0.0406
 5362SOL    HW127545   1.065   1.495   1.493 -0.0015 -0.2661  0.7400
 5362SOL    HW227546   1.149   1.411   1.583  1.0829 -0.6350 -0.0201
 5363SOL     OW27547   2.582   0.864   2.388 -0.2453  0.3112  0.3249
 5363SOL    HW127548   2.669   0.823   2.388 -0.5292 -0.2854  0.4208
 5363SOL    HW227549   2.536   0.781   2.380  0.0135  0.0169  1.8350
 5364SOL     OW27550   4.379   1.305   3.192  0.1056 -0.1190 -0.2611
 5364SOL    HW127551   4.460   1.315   3.141  0.0600 -1.1693 -0.5419
 5364SOL    HW227552   4.330   1.373   3.145 -0.6737 -0.4226  0.1058
 5365SOL     OW27553   4.199   3.284   3.562  0.0791 -0.3226 -0.4107
 5365SOL    HW127554   4.239   3.370   3.574  0.2586 -0.6741  1.4962
 5365SOL    HW227555   4.189   3.289   3.467  0.0541 -0.4698 -0.4166
 5366SOL     OW27556   4.628   2.370   9.220  0.2047 -0.0341 -0.1072
 5366SOL    HW127557   4.671   2.448   9.254  0.2049  0.1134 -0.4523
 5366SOL    HW227558   4.634   2.307   9.292 -0.5175  0.9450  0.8113
 5367SOL     OW27559   4.098   3.599   3.415  0.5818  0.4694  0.0627
 5367SOL    HW127560   4.090   3.516   3.368 -2.6459  0.3827  0.7657
 5367SOL    HW227561   4.192   3.610   3.400  0.3268 -0.2063 -1.9742
 5368SOL     OW27562   1.840   2.461  14.264 -0.0114 -0.0770  0.3794
 5368SOL    HW127563   1.827   2.545  14.219 -2.2073 -1.5699 -1.7667
 5368SOL    HW227564   1.868   2.415  14.185  0.3883 -1.3542  1.2768
 5369SOL     OW27565   2.094   1.184  14.354  0.3513  0.4875  0.3371
 5369SOL    HW127566   2.165   1.249  14.350 -0.4447  1.1828 -2.7312
 5369SOL    HW227567   2.083   1.182  14.449  1.0745 -1.2903  0.3697
 5370SOL     OW27568   2.375   3.350   7.124 -0.3109  0.3557  0.0999
 5370SOL    HW127569   2.316   3.343   7.199  1.0594  0.9879  1.2385
 5370SOL    HW227570   2.448   3.300   7.160 -1.3553 -0.5730  0.9433
 5371SOL     OW27571   2.625   3.399   5.880  0.4198  0.6187  0.0797
 5371SOL    HW127572   2.666   3.379   5.796 -0.3131 -2.2583  0.3863
 5371SOL    HW227573   2.670   3.482   5.892  0.9747  0.2499  0.5727
 5372SOL     OW27574   0.456   3.394   6.910  0.1634 -0.2685 -0.0071
 5372SOL    HW127575   0.430   3.325   6.848  2.3999  0.1210 -1.3722
 5372SOL    HW227576   0.549   3.409   6.897 -0.2208 -0.0184 -2.5127
 5373SOL     OW27577   4.308   3.905   7.021  0.0797 -0.0681  0.4526
 5373SOL    HW127578   4.263   3.824   6.999 -0.8225 -0.1884  2.7673
 5373SOL    HW227579   4.357   3.878   7.099 -0.4467 -2.5706 -0.0982
 5374SOL     OW27580   4.418   2.137   8.451 -0.2987 -0.0938 -0.1469
 5374SOL    HW127581   4.380   2.123   8.365  0.3518 -1.9272 -0.1215
 5374SOL    HW227582   4.386   2.225   8.475 -0.6525 -0.9517  2.5454
 5375SOL     OW27583   3.121   0.777   4.081  0.7340 -0.6162  0.1017
 5375SOL    HW127584   3.119   0.682   4.080 -1.1720 -0.5745  1.4561
 5375SOL    HW227585   3.071   0.783   4.162  1.3612  0.8633  0.3901
 5376SOL     OW27586   2.800   4.237   6.308 -0.6752  0.0378  0.1923
 5376SOL    HW127587   2.753   4.154   6.309 -0.3565 -0.1437  0.5972
 5376SOL    HW227588   2.774   4.284   6.388  2.6776 -0.5813  1.6495
 5377SOL     OW27589   4.184   2.494   6.192  0.2459 -0.4312 -0.5681
 5377SOL    HW127590   4.156   2.519   6.104  1.0355  1.7776 -0.1798
 5377SOL    HW227591   4.137   2.413   6.214 -5.3654  2.7535 -0.7265
 5378SOL     OW27592   2.977   1.065  12.053  0.0564  0.1527 -0.2534
 5378SOL    HW127593   2.897   1.097  12.012 -1.4194  0.1667  2.6491
 5378SOL    HW227594   3.044   1.110  12.001  0.3573  0.6271  0.5491
 5379SOL     OW27595   1.473   1.157   8.716 -0.3796  0.0118  0.3849
 5379SOL    HW127596   1.496   1.067   8.696 -1.0484  0.6844 -3.3738
 5379SOL    HW227597   1.524   1.210   8.655 -1.4909  0.7451  0.1040
 5380SOL     OW27598   2.984   2.458   5.210 -0.6061  0.4929 -0.0556
 5380SOL    HW127599   2.978   2.529   5.146 -0.2355  0.1801 -0.4313
 5380SOL    HW227600   2.949   2.504   5.287 -0.1024  0.0297  0.4527
 5381SOL     OW27601   4.089   0.073  10.888 -0.1880  0.3186 -0.1050
 5381SOL    HW127602   4.066   0.009  10.820 -0.8430 -0.6278  1.0153
 5381SOL    HW227603   4.103   0.023  10.968  1.7855  1.7081  0.4247
 5382SOL     OW27604   1.301   0.904   1.891  0.0215  0.5555  0.2903
 5382SOL    HW127605   1.331   0.914   1.982 -1.6263 -4.5219  1.3860
 5382SOL    HW227606   1.307   0.997   1.870 -1.5639  0.3097 -1.2027
 5383SOL     OW27607   1.824   0.422  14.516 -0.6185 -0.1727 -0.8297
 5383SOL    HW127608   1.779   0.505  14.532 -1.1282 -1.0110  2.0511
 5383SOL    HW227609   1.752   0.363  14.538  0.2743 -0.6014  0.9734
 5384SOL     OW27610   4.447   2.722   8.599  0.2275 -0.1598 -0.4273
 5384SOL    HW127611   4.480   2.670   8.672  3.3133 -0.1136 -1.8129
 5384SOL    HW227612   4.475   2.665   8.528 -1.5499 -1.4999 -0.0688
 5385SOL     OW27613   1.503   2.936  11.575  0.5069  0.4932 -0.3758
 5385SOL    HW127614   1.532   2.984  11.653  3.7980 -2.9322  0.5151
 5385SOL    HW227615   1.495   3.005  11.509  1.6980 -0.0431 -1.0781
 5386SOL     OW27616   0.694   1.437   6.630  0.1397  0.6313  0.2109
 5386SOL    HW127617   0.744   1.472   6.556 -1.1455  0.8312 -0.5600
 5386SOL    HW227618   0.759   1.381   6.673  0.2994  1.0601  0.5213
 5387SOL     OW27619   0.563   3.713   4.790 -0.3386 -0.2260 -0.3394
 5387SOL    HW127620   0.579   3.655   4.716  1.7133  0.5363 -0.4823
 5387SOL    HW227621   0.609   3.793   4.768  0.8317 -0.9894 -0.6554
 5388SOL     OW27622   2.027   0.007   3.401 -0.7999 -0.1452  0.7217
 5388SOL    HW127623   1.963   4.719   3.471  0.4721 -0.6858  1.8017
 5388SOL    HW227624   2.105   4.698   3.446  0.6739  1.3206 -0.7508
 5389SOL     OW27625   3.348   2.971   7.905 -0.4298 -0.0461  0.5396
 5389SOL    HW127626   3.379   3.007   7.988 -0.7869  0.0973  0.6094
 5389SOL    HW227627   3.378   3.044   7.849 -0.5538 -1.5792 -1.5245
 5390SOL     OW27628   2.940   0.449   7.041 -0.4096 -0.4795  0.0809
 5390SOL    HW127629   2.847   0.461   7.059 -0.3172  1.6340 -0.9188
 5390SOL    HW227630   2.985   0.483   7.118 -2.3588  1.2220  0.4697
 5391SOL     OW27631   2.715   1.472   3.441 -0.3511 -0.0123 -0.4003
 5391SOL    HW127632   2.733   1.540   3.376 -0.3252  1.7129  1.4085
 5391SOL    HW227633   2.657   1.416   3.390  0.2348 -0.7636 -0.2493
 5392SOL     OW27634   3.338   0.104   7.495  0.1539 -0.2491 -0.4046
 5392SOL    HW127635   3.244   0.094   7.508 -0.0738  2.1286 -0.2135
 5392SOL    HW227636   3.378   0.022   7.526  1.8462  1.4810  1.9587
 5393SOL     OW27637   0.485   0.372   8.244 -0.2860  0.3024 -0.0593
 5393SOL    HW127638   0.461   0.397   8.333  0.9224  2.3572 -0.3237
 5393SOL    HW227639   0.405   0.394   8.197 -0.3038  1.8379  0.7193
 5394SOL     OW27640   4.622   0.113   1.285 -0.0579  0.0894 -0.1420
 5394SOL    HW127641   4.656   0.177   1.348 -2.5382 -0.9421  2.2282
 5394SOL    HW227642   4.531   0.140   1.282 -0.1127  0.0758  1.4279
 5395SOL     OW27643   3.384   3.818   3.456  0.3384 -0.4940 -0.2152
 5395SOL    HW127644   3.343   3.905   3.455 -1.1837 -1.2577 -1.8896
 5395SOL    HW227645   3.414   3.815   3.547 -2.6021  2.7540  0.8671
 5396SOL     OW27646   2.956   3.904   6.289  0.3898  0.2060  0.3601
 5396SOL    HW127647   2.913   3.989   6.284  1.0437  0.4429 -1.1168
 5396SOL    HW227648   3.013   3.918   6.365 -0.1339  1.8283  0.4494
 5397SOL     OW27649   4.475   0.783   2.673 -0.3053 -0.0427  0.0500
 5397SOL    HW127650   4.466   0.808   2.765  1.5171  2.6828 -0.5118
 5397SOL    HW227651   4.543   0.717   2.677  0.1759  0.3279 -2.0048
 5398SOL     OW27652   1.246   0.917   7.088 -0.7482 -0.1066 -0.2117
 5398SOL    HW127653   1.235   0.843   7.147  1.3543 -1.3157 -1.3403
 5398SOL    HW227654   1.208   0.882   7.007  0.5813 -3.3132  0.5560
 5399SOL     OW27655   2.626   0.958   3.066 -0.2852  0.5644 -0.0941
 5399SOL    HW127656   2.542   0.940   3.107 -0.0308  1.2419  0.7108
 5399SOL    HW227657   2.599   0.969   2.974  0.0973  0.4585 -0.2188
 5400SOL     OW27658   3.014   2.708   5.099 -0.3345 -0.7037  0.0620
 5400SOL    HW127659   2.966   2.752   5.029  2.6779 -1.4323 -2.4514
 5400SOL    HW227660   3.016   2.780   5.162  0.0973 -1.8549  1.3720
 5401SOL     OW27661   0.192   1.252  15.017 -0.0349  0.1265 -0.8098
 5401SOL    HW127662   0.189   1.157  15.029 -1.3775  0.0563 -1.7219
 5401SOL    HW227663   0.287   1.268  15.019 -0.0048 -0.0402 -0.9167
 5402SOL     OW27664   1.753   0.159   0.862 -0.2115 -0.2438  1.0368
 5402SOL    HW127665   1.730   0.067   0.872 -0.3200 -0.0492  2.5870
 5402SOL    HW227666   1.687   0.192   0.802  0.5292 -2.0918 -0.7595
 5403SOL     OW27667   0.535   1.878   2.788  0.0462 -0.1144  0.1297
 5403SOL    HW127668   0.628   1.899   2.793 -0.3413  1.6479 -0.1710
 5403SOL    HW227669   0.501   1.945   2.847  0.7197  1.4424 -1.2568
 5404SOL     OW27670   0.915   0.669   1.589 -0.0132 -0.0212 -0.2097
 5404SOL    HW127671   0.899   0.684   1.682 -1.0325  1.3960 -0.6277
 5404SOL    HW227672   1.001   0.708   1.574  0.5713 -0.4490  1.9369
 5405SOL     OW27673   1.872   1.169  12.397 -0.4821 -0.3784 -0.3606
 5405SOL    HW127674   1.898   1.256  12.428  1.6930 -1.0547 -0.2964
 5405SOL    HW227675   1.949   1.144  12.345  0.9691  0.2933  1.4632
 5406SOL     OW27676   3.646   2.630   9.440 -0.4001  0.3296  0.2872
 5406SOL    HW127677   3.554   2.639   9.415 -0.6035  0.0291  0.9311
 5406SOL    HW227678   3.660   2.694   9.509  0.6803  0.9932 -0.5520
 5407SOL     OW27679   0.998   3.005   5.227 -0.5939  0.6064 -0.0204
 5407SOL    HW127680   1.010   2.942   5.298  0.1754 -1.5292 -2.0337
 5407SOL    HW227681   1.067   3.067   5.252 -0.9621  0.6734  0.8146
 5408SOL     OW27682   2.139   0.853   5.715 -0.3220  0.3665 -0.2349
 5408SOL    HW127683   2.195   0.826   5.788  1.2520  0.4219 -1.4106
 5408SOL    HW227684   2.136   0.775   5.660  0.8146  0.3524 -0.2717
 5409SOL     OW27685   3.995   3.796   8.344  0.2900  0.1394  0.9549
 5409SOL    HW127686   3.990   3.814   8.250 -2.2560 -0.1051  1.0324
 5409SOL    HW227687   3.997   3.700   8.336  1.6518  0.1707  0.8836
 5410SOL     OW27688   1.766   2.959   8.912 -0.1473  0.4003  0.0866
 5410SOL    HW127689   1.860   2.975   8.913 -0.0465  0.1368 -2.8249
 5410SOL    HW227690   1.737   3.007   8.989 -0.1748 -0.7365  0.7867
 5411SOL     OW27691   1.250   2.428   6.963 -0.1402 -0.1825  0.2378
 5411SOL    HW127692   1.273   2.357   7.022 -1.2649 -0.0351  0.8608
 5411SOL    HW227693   1.340   2.444   6.934 -0.0469 -1.6656 -0.2822
 5412SOL     OW27694   0.630   2.975  11.938  0.2042 -0.7451  0.1888
 5412SOL    HW127695   0.579   2.906  11.980 -1.3073 -0.8003 -1.7491
 5412SOL    HW227696   0.630   2.941  11.849  0.3760 -1.0167  0.2933
 5413SOL     OW27697   0.411   4.025   7.175  0.1460 -0.3783  0.1970
 5413SOL    HW127698   0.410   4.111   7.218 -1.0784 -0.1950 -0.2072
 5413SOL    HW227699   0.374   3.974   7.247 -1.2964  1.1204  0.5331
 5414SOL     OW27700   0.485   4.090  16.310  0.3586  0.2621  0.3604
 5414SOL    HW127701   0.575   4.119  16.297  0.7514 -1.0773  0.0148
 5414SOL    HW227702   0.492   4.005  16.354  1.7551  0.7602  1.0971
 5415SOL     OW27703   2.983   1.769   7.909  0.3015  0.2998  0.0994
 5415SOL    HW127704   2.995   1.861   7.889 -1.6258  0.1954 -1.5850
 5415SOL    HW227705   2.936   1.766   7.992  0.6643  2.0033  0.3637
 5416SOL     OW27706   1.520   1.896   2.478  0.3102 -0.5753  0.0929
 5416SOL    HW127707   1.543   1.979   2.518  1.2527 -0.9976  0.4299
 5416SOL    HW227708   1.432   1.913   2.446 -0.4365 -1.5757  1.6021
 5417SOL     OW27709   3.405   3.245   2.913 -0.7267  0.4691  0.1268
 5417SOL    HW127710   3.324   3.249   2.863  0.6828 -0.5291 -2.2364
 5417SOL    HW227711   3.370   3.261   3.001  0.4927 -1.5586  0.9886
 5418SOL     OW27712   3.759   3.379  16.488  0.5323  0.2285 -0.3464
 5418SOL    HW127713   3.730   3.325  16.414  1.5787 -0.2605 -0.3953
 5418SOL    HW227714   3.676   3.418  16.514 -0.1337 -1.4478  0.0569
 5419SOL     OW27715   0.025   0.828   3.100  0.4527  0.0437 -0.8860
 5419SOL    HW127716   0.052   0.764   3.034  0.6831  0.0781 -0.8266
 5419SOL    HW227717   0.064   0.785   3.176 -1.9625  2.6724  1.8829
 5420SOL     OW27718   2.502   1.420   4.452  0.1777  0.1516 -0.5163
 5420SOL    HW127719   2.546   1.427   4.367 -4.0420  1.2307 -2.6092
 5420SOL    HW227720   2.492   1.326   4.444  0.5315  0.2316 -1.9607
 5421SOL     OW27721   1.064   4.532   6.397  0.0681 -0.0183  0.2322
 5421SOL    HW127722   0.978   4.492   6.403 -0.0344  0.4107  1.7785
 5421SOL    HW227723   1.041   4.619   6.430 -2.1703 -0.0389 -1.3583
 5422SOL     OW27724   1.142   4.396  11.563  0.3065 -0.0545  0.0719
 5422SOL    HW127725   1.144   4.448  11.642  2.1116  1.1260 -0.7512
 5422SOL    HW227726   1.166   4.464  11.500  0.0591  1.0366  1.1533
 5423SOL     OW27727   3.915   1.212   5.851  0.4631 -0.3363  0.1277
 5423SOL    HW127728   3.958   1.263   5.782  0.4928 -1.5968 -0.7690
 5423SOL    HW227729   3.825   1.243   5.854  0.9778  1.3683 -1.9259
 5424SOL     OW27730   0.682   3.309   4.985  0.3271  0.0062 -0.3423
 5424SOL    HW127731   0.657   3.222   5.017 -1.7883 -0.2022 -2.5536
 5424SOL    HW227732   0.770   3.304   5.022  0.0917  1.7258  0.4486
 5425SOL     OW27733   4.428   0.288  16.491 -0.3677  0.0941 -0.3290
 5425SOL    HW127734   4.358   0.331  16.443  0.9387  2.4053 -0.1536
 5425SOL    HW227735   4.401   0.308  16.580  0.7442 -0.4362  0.1174
 5426SOL     OW27736   4.252   0.985   2.804  0.2835  0.3612 -0.1315
 5426SOL    HW127737   4.331   1.006   2.853 -0.6339  3.0314  0.1818
 5426SOL    HW227738   4.192   1.049   2.840 -0.1672 -0.1985  0.1227
 5427SOL     OW27739   0.187   2.669   5.683  0.3090 -0.4536 -0.2799
 5427SOL    HW127740   0.242   2.690   5.758 -1.7006  1.0744  0.7531
 5427SOL    HW227741   0.209   2.747   5.632 -0.8076 -1.1403 -1.8341
 5428SOL     OW27742   0.905   3.576   8.538  0.1855 -0.3494 -0.4449
 5428SOL    HW127743   0.901   3.550   8.446  1.6847  2.8378 -1.4099
 5428SOL    HW227744   0.926   3.669   8.528  0.2281 -0.2845  0.2561
 5429SOL     OW27745   1.249   3.395  11.087  0.0953  0.4570  0.2236
 5429SOL    HW127746   1.324   3.437  11.045  0.5429  1.2310  1.7952
 5429SOL    HW227747   1.211   3.448  11.157  0.8414 -0.3877  1.2631
 5430SOL     OW27748   3.348   2.557   1.018 -0.0377  0.2586 -0.3507
 5430SOL    HW127749   3.282   2.490   1.037  0.2021  1.0670  3.3230
 5430SOL    HW227750   3.305   2.639   1.044  0.7035  0.7232 -0.5727
 5431SOL     OW27751   1.309   0.463   8.313  0.1682  0.2889 -0.0364
 5431SOL    HW127752   1.294   0.431   8.402  1.1173  1.8293  0.6733
 5431SOL    HW227753   1.262   0.545   8.328 -1.4315 -0.3982 -1.2774
 5432SOL     OW27754   3.563   1.123   0.424 -0.0904 -0.4091 -0.1733
 5432SOL    HW127755   3.482   1.171   0.412  0.3293  0.1537 -0.7744
 5432SOL    HW227756   3.619   1.181   0.475 -2.2252  0.6854  0.9172
 5433SOL     OW27757   1.963   3.839  10.601  0.3081  0.2103  0.7436
 5433SOL    HW127758   2.008   3.907  10.652 -2.2253  2.5714 -0.2065
 5433SOL    HW227759   1.996   3.768  10.657 -0.2427 -1.0216 -0.5269
 5434SOL     OW27760   1.350   2.631   1.220  0.1797  0.0413 -0.3302
 5434SOL    HW127761   1.421   2.693   1.199 -0.3750  1.5148  2.1204
 5434SOL    HW227762   1.316   2.649   1.308  0.7855  1.2513 -0.3304
 5435SOL     OW27763   3.468   0.084  16.262  0.4130 -0.2140  0.3600
 5435SOL    HW127764   3.448   0.114  16.351 -0.7500  0.8632 -0.2637
 5435SOL    HW227765   3.560   0.061  16.270  0.0195 -2.9010 -2.9323
 5436SOL     OW27766   2.371   3.450   4.098  0.1961  0.2244  0.1623
 5436SOL    HW127767   2.291   3.409   4.131 -0.2722  1.4267  0.5419
 5436SOL    HW227768   2.388   3.390   4.026  0.2681  0.9345 -0.4063
 5437SOL     OW27769   4.105   0.851   3.690  0.1392  0.1946 -0.3071
 5437SOL    HW127770   4.071   0.790   3.624  2.0021 -0.3311 -0.7878
 5437SOL    HW227771   4.028   0.881   3.738 -0.1385 -1.7474  0.4498
 5438SOL     OW27772   3.846   4.518   2.106  0.0799 -0.3600  0.2099
 5438SOL    HW127773   3.901   4.480   2.037 -1.5020  1.4691 -2.0833
 5438SOL    HW227774   3.902   4.506   2.183  0.1879 -0.4349  0.1215
 5439SOL     OW27775   3.317   3.062  15.745 -0.0132  0.1918 -0.5416
 5439SOL    HW127776   3.239   3.034  15.697 -0.1968 -0.4651  0.1301
 5439SOL    HW227777   3.280   3.142  15.783 -0.0432  0.7901 -1.8217
 5440SOL     OW27778   3.683   3.373   3.105 -0.5993  0.1767  0.1534
 5440SOL    HW127779   3.695   3.323   3.024 -0.1604  0.5684 -0.0202
 5440SOL    HW227780   3.736   3.334   3.173 -0.5698  1.4382  0.8409
 5441SOL     OW27781   2.454   1.429   0.048  0.2370  0.0851 -0.1993
 5441SOL    HW127782   2.540   1.396   0.021  1.4175  1.2500  2.2112
 5441SOL    HW227783   2.421   1.347   0.084  1.2760 -0.1415  0.2375
 5442SOL     OW27784   4.085   1.717  16.235 -0.0006 -0.4924  0.2998
 5442SOL    HW127785   4.110   1.755  16.151  1.6073 -0.9058  0.5758
 5442SOL    HW227786   4.058   1.794  16.286  1.0364  0.7354 -1.0098
 5443SOL     OW27787   1.979   1.478  14.558  0.1055 -0.2967  0.7379
 5443SOL    HW127788   2.050   1.521  14.510 -1.6042  0.9972 -0.6384
 5443SOL    HW227789   1.904   1.537  14.551  0.9910  0.6227 -0.9739
 5444SOL     OW27790   1.346   0.828   5.352  0.0025 -0.0857 -0.3285
 5444SOL    HW127791   1.416   0.891   5.337 -0.3720  0.0784 -1.3904
 5444SOL    HW227792   1.283   0.876   5.298  0.8733  0.5390 -0.7990
 5445SOL     OW27793   1.917   4.695   9.045 -0.2733 -0.3960  0.0755
 5445SOL    HW127794   1.980   4.714   8.976  0.5794 -1.8876  0.4587
 5445SOL    HW227795   1.843   0.030   9.025  0.4637 -0.2528 -2.2667
 5446SOL     OW27796   1.006   3.545   5.495 -0.4474 -0.1877 -0.1004
 5446SOL    HW127797   0.958   3.615   5.451  1.3751  0.3976 -1.1537
 5446SOL    HW227798   1.097   3.563   5.469 -0.7119  1.7382  0.3065
 5447SOL     OW27799   2.457   1.750   9.083  0.0691  0.0162 -0.0647
 5447SOL    HW127800   2.517   1.762   9.008  1.1648 -2.7520  0.3495
 5447SOL    HW227801   2.426   1.839   9.099 -0.3340  0.0682 -1.1051
 5448SOL     OW27802   1.004   0.730  13.953  0.4601  0.5883 -0.1561
 5448SOL    HW127803   0.930   0.675  13.977 -0.8658  2.5577  0.2258
 5448SOL    HW227804   1.077   0.674  13.979  1.7604  2.0943 -0.5091
 5449SOL     OW27805   2.031   0.160   8.606 -0.4975  0.4881  0.4937
 5449SOL    HW127806   2.091   0.120   8.544 -1.3531  1.7386 -1.1555
 5449SOL    HW227807   2.037   0.114   8.690  1.1365  1.6091  1.0004
 5450SOL     OW27808   4.547   4.479   3.027  0.2673 -0.4846  0.3115
 5450SOL    HW127809   4.619   4.470   2.964 -0.7805 -0.7158 -0.8588
 5450SOL    HW227810   4.509   4.391   3.022  0.3278 -0.3063 -3.2964
 5451SOL     OW27811   4.192   2.674   4.205  0.3140  0.1452 -0.3774
 5451SOL    HW127812   4.258   2.701   4.141  1.0414 -1.3584 -0.2745
 5451SOL    HW227813   4.239   2.601   4.247  1.4381  0.0304 -1.8009
 5452SOL     OW27814   3.509   1.483  15.823 -0.4777  0.2180  0.5221
 5452SOL    HW127815   3.560   1.484  15.904  0.4320 -1.8479 -0.0182
 5452SOL    HW227816   3.424   1.467  15.865  0.2976  0.0126  2.0151
 5453SOL     OW27817   4.011   3.543   8.041  0.3907  0.3832 -0.4396
 5453SOL    HW127818   3.976   3.498   8.118 -1.3708 -0.6917 -1.8702
 5453SOL    HW227819   4.104   3.533   8.059  0.4303  2.9139  0.6491
 5454SOL     OW27820   0.730   4.011   4.287 -0.2692  0.0026 -0.0963
 5454SOL    HW127821   0.662   4.071   4.255  0.2627  0.1457 -0.9410
 5454SOL    HW227822   0.677   3.935   4.312 -0.2174  0.6980  2.0818
 5455SOL     OW27823   0.388   0.377   2.357 -0.3579  0.1766  0.3973
 5455SOL    HW127824   0.419   0.465   2.378 -2.6658  1.0586  0.0476
 5455SOL    HW227825   0.438   0.358   2.277 -2.0412 -0.3741 -0.5264
 5456SOL     OW27826   4.330   4.467   7.232  0.1653  0.3737  0.2108
 5456SOL    HW127827   4.361   4.402   7.169  0.6008 -0.6649  1.5001
 5456SOL    HW227828   4.382   4.547   7.220  0.7003  0.2776  1.9022
 5457SOL     OW27829   0.466   2.576   6.909  0.1087 -0.5411  0.0365
 5457SOL    HW127830   0.462   2.542   6.998  0.9880  0.7838  0.5820
 5457SOL    HW227831   0.476   2.495   6.858  0.3675 -0.2554 -0.3603
 5458SOL     OW27832   3.825   2.812  17.416  0.6245 -0.2906  0.0823
 5458SOL    HW127833   3.748   2.862  17.387  1.8939  0.2534 -2.3056
 5458SOL    HW227834   3.785   2.729  17.442  0.1388 -0.4161 -1.0594
 5459SOL     OW27835   1.503   2.866   9.819  0.9306 -0.0433  0.0604
 5459SOL    HW127836   1.444   2.823   9.881  1.0355 -0.5590 -0.1970
 5459SOL    HW227837   1.436   2.878   9.752  0.1965 -3.5042  0.1807
 5460SOL     OW27838   1.340   2.371   7.221 -0.2284 -0.4932  0.4312
 5460SOL    HW127839   1.259   2.380   7.271  0.1945  2.3936  0.5866
 5460SOL    HW227840   1.322   2.279   7.198  0.4679 -0.8028  1.1199
 5461SOL     OW27841   3.283   1.930   7.240  0.8493  0.4842  0.3670
 5461SOL    HW127842   3.358   1.920   7.298 -0.5877 -0.1469  2.1156
 5461SOL    HW227843   3.286   2.026   7.235  0.7493  0.5436  1.4145
 5462SOL     OW27844   2.787   4.571   4.090  0.5684  0.1608  0.1560
 5462SOL    HW127845   2.871   4.616   4.102  0.6358 -0.0139  0.3359
 5462SOL    HW227846   2.754   4.600   4.005  0.7275  1.1861  0.4477
 5463SOL     OW27847   2.216   1.749   6.117 -0.2867  0.4649 -0.3867
 5463SOL    HW127848   2.165   1.828   6.099 -0.7405  0.3987  0.6029
 5463SOL    HW227849   2.301   1.781   6.086  0.4693 -1.0940  0.0441
 5464SOL     OW27850   2.671   4.027   6.430  0.1758 -0.5574 -0.8908
 5464SOL    HW127851   2.591   4.011   6.481  1.0132 -1.9689  0.0049
 5464SOL    HW227852   2.738   4.024   6.499 -0.8328 -2.0264  0.0454
 5465SOL     OW27853   3.794   2.314   5.871 -0.5671  0.0393 -0.6791
 5465SOL    HW127854   3.769   2.375   5.941 -0.2596  1.6304 -1.9674
 5465SOL    HW227855   3.719   2.254   5.867 -0.0570 -0.5422 -1.5017
 5466SOL     OW27856   3.084   0.580   4.852  0.4886  0.4968  0.1111
 5466SOL    HW127857   3.077   0.547   4.941 -0.3015 -0.7076 -0.3933
 5466SOL    HW227858   3.144   0.652   4.872  1.0497 -0.1423  0.7299
 5467SOL     OW27859   2.098   2.670   2.620  0.0342 -0.5244 -0.2762
 5467SOL    HW127860   2.123   2.760   2.598  1.6213 -1.0666 -0.7283
 5467SOL    HW227861   2.146   2.616   2.557 -0.7052 -2.1487  0.5369
 5468SOL     OW27862   3.053   1.883   3.964 -0.4473 -0.0262  0.0728
 5468SOL    HW127863   3.012   1.801   3.993 -2.5561  0.6012 -1.1759
 5468SOL    HW227864   3.145   1.860   3.977 -0.9785 -2.7807 -0.9738
 5469SOL     OW27865   2.784   2.324   6.766 -0.4424  0.2010 -0.3750
 5469SOL    HW127866   2.735   2.386   6.820 -0.0276 -1.0498  1.4788
 5469SOL    HW227867   2.832   2.281   6.837 -1.7237  0.3546  0.5962
 5470SOL     OW27868   4.496   1.150   1.859  0.0863  0.0723  0.4043
 5470SOL    HW127869   4.415   1.143   1.909  0.4906  2.3751  1.4110
 5470SOL    HW227870   4.505   1.063   1.820 -2.9680  0.5556 -1.3704
 5471SOL     OW27871   2.575   1.015   3.976  0.2183  0.4027  0.1557
 5471SOL    HW127872   2.641   1.031   3.908 -1.2977  0.5365 -1.2977
 5471SOL    HW227873   2.607   0.937   4.021  2.3203  0.4453 -1.2696
 5472SOL     OW27874   3.212   0.673  12.636 -0.3718  0.1512  0.0411
 5472SOL    HW127875   3.167   0.713  12.711  0.9031 -0.7583  1.3047
 5472SOL    HW227876   3.197   0.739  12.568 -0.4358 -0.6468 -0.7191
 5473SOL     OW27877   0.632   3.580   3.971 -0.3695 -0.5040 -1.0582
 5473SOL    HW127878   0.713   3.630   3.981 -0.0988 -1.5686  2.0979
 5473SOL    HW227879   0.608   3.620   3.888 -1.6035  1.0539  0.0202
 5474SOL     OW27880   0.648   2.822   3.486 -0.1766  0.7097  0.4822
 5474SOL    HW127881   0.589   2.892   3.515  2.1067  2.4651  0.8421
 5474SOL    HW227882   0.683   2.792   3.570 -0.4083 -2.0731 -0.4394
 5475SOL     OW27883   2.751   3.652   8.183  0.2472 -0.1043 -0.2021
 5475SOL    HW127884   2.779   3.633   8.273  0.5433 -1.3636 -0.5500
 5475SOL    HW227885   2.827   3.619   8.134 -1.2468 -1.0685 -1.8684
 5476SOL     OW27886   0.909   3.958  15.876  0.1489  0.2031  0.1638
 5476SOL    HW127887   0.833   3.994  15.830 -0.4855 -0.3154  0.7979
 5476SOL    HW227888   0.864   3.887  15.921 -1.1352 -0.3418 -1.9778
 5477SOL     OW27889   3.643   1.427  16.421 -0.8711  0.0059 -0.0217
 5477SOL    HW127890   3.672   1.354  16.475 -2.8380 -0.1198  0.8756
 5477SOL    HW227891   3.559   1.445  16.464 -0.0122 -1.3415  2.2062
 5478SOL     OW27892   2.708   0.806   3.624 -1.0519  0.2349  0.0332
 5478SOL    HW127893   2.669   0.740   3.682  0.9078 -0.5257  0.4652
 5478SOL    HW227894   2.661   0.800   3.540 -1.0918  0.6346  0.0277
 5479SOL     OW27895   4.429   3.984   6.785  0.5206 -0.0900  0.9208
 5479SOL    HW127896   4.371   3.961   6.712 -1.0928  1.9220  1.5949
 5479SOL    HW227897   4.369   3.994   6.859  0.3141 -2.2836  1.0597
 5480SOL     OW27898   1.171   2.122   9.434 -0.0911 -0.2220  0.8109
 5480SOL    HW127899   1.210   2.041   9.401  2.4663  1.5969 -0.6359
 5480SOL    HW227900   1.100   2.140   9.372 -0.2520 -1.7336  0.5713
 5481SOL     OW27901   2.897   2.027   0.056 -0.9694 -0.1599  0.8874
 5481SOL    HW127902   2.911   1.965  17.678  1.6076 -1.7184  2.7317
 5481SOL    HW227903   2.814   2.001   0.094 -1.6090  1.3231  0.5156
 5482SOL     OW27904   3.898   2.164   2.893  0.0806 -0.0376 -0.8745
 5482SOL    HW127905   3.804   2.151   2.906  0.4810 -3.0713 -1.0333
 5482SOL    HW227906   3.937   2.113   2.964  0.8508  3.6234  1.2936
 5483SOL     OW27907   0.086   0.261   0.106 -0.1118 -0.3762  0.0137
 5483SOL    HW127908   0.112   0.169   0.099 -0.7280 -0.4906 -0.8630
 5483SOL    HW227909   0.112   0.283   0.195 -1.5100  0.5861  0.1796
 5484SOL     OW27910   0.279   1.560   0.910  0.4814 -0.1145 -0.1298
 5484SOL    HW127911   0.346   1.622   0.880  1.2042 -0.9187 -0.1897
 5484SOL    HW227912   0.324   1.527   0.988 -1.2486  0.0657  0.9321
 5485SOL     OW27913   2.185   4.036   6.011  0.6452  0.0290  0.0947
 5485SOL    HW127914   2.277   4.031   6.036  0.3770 -2.0070  0.6411
 5485SOL    HW227915   2.182   4.093   5.935 -2.1419 -2.3972 -1.6015
 5486SOL     OW27916   2.055   1.594   9.573 -0.1183 -0.4884  0.3294
 5486SOL    HW127917   2.095   1.601   9.486 -1.6723 -0.9021 -0.4219
 5486SOL    HW227918   2.004   1.514   9.560 -0.4278 -0.2210 -0.1102
 5487SOL     OW27919   4.077   1.406   6.095  0.7907  1.0156 -0.6630
 5487SOL    HW127920   4.057   1.495   6.122  0.3102  0.8454 -0.4637
 5487SOL    HW227921   4.020   1.390   6.020 -0.2932  1.3917  0.0860
 5488SOL     OW27922   1.753   3.144   6.101 -0.0920 -0.0796 -0.0263
 5488SOL    HW127923   1.818   3.077   6.119  0.3641 -0.0854 -1.6982
 5488SOL    HW227924   1.769   3.159   6.008  0.8238 -0.6983  0.0313
 5489SOL     OW27925   2.014   1.120   8.459  0.3387  0.5578  0.1034
 5489SOL    HW127926   2.055   1.073   8.386 -0.1741  2.2522 -1.2859
 5489SOL    HW227927   2.070   1.197   8.471  0.8541  0.1509  0.3243
 5490SOL     OW27928   2.402   4.129  15.093  0.3413 -0.2365  0.7666
 5490SOL    HW127929   2.422   4.042  15.127  1.9433 -0.0408  0.3146
 5490SOL    HW227930   2.477   4.183  15.118 -0.3322  1.8291 -1.6917
 5491SOL     OW27931   0.021   2.498   6.717 -0.6687 -0.2692 -0.5453
 5491SOL    HW127932   0.015   2.519   6.810 -2.0770 -2.6778 -0.1035
 5491SOL    HW227933   0.039   2.405   6.727  0.6166  0.1794  1.3064
 5492SOL     OW27934   0.467   4.406  12.380 -0.1723 -0.0300  0.2401
 5492SOL    HW127935   0.556   4.379  12.401  0.2748  1.2314 -0.0088
 5492SOL    HW227936   0.452   4.362  12.297 -3.0300  0.7433  0.3303
 5493SOL     OW27937   2.720   1.710  15.744  0.2610 -0.2864  0.1756
 5493SOL    HW127938   2.670   1.734  15.822  1.5672  1.2608  0.5263
 5493SOL    HW227939   2.711   1.792  15.695 -0.3940  1.6221  3.5058
 5494SOL     OW27940   2.082   0.709   3.115 -0.9332 -0.5095 -0.0768
 5494SOL    HW127941   2.078   0.774   3.185 -0.2869 -0.3062 -0.2291
 5494SOL    HW227942   2.108   0.766   3.043 -1.5190  0.4853  0.4962
 5495SOL     OW27943   4.446   0.845   7.061  0.0102 -0.3437 -0.3506
 5495SOL    HW127944   4.422   0.885   6.977 -0.4886  1.3677  0.5934
 5495SOL    HW227945   4.388   0.770   7.074 -0.9574 -0.1718 -3.6081
 5496SOL     OW27946   2.872   0.933   5.254  0.3063  0.2854  0.1670
 5496SOL    HW127947   2.876   0.981   5.171 -0.3958  1.1216  0.6230
 5496SOL    HW227948   2.810   0.862   5.238 -1.3081  2.0883 -1.4480
 5497SOL     OW27949   0.569   1.592   1.904  0.1759 -0.1052  0.0642
 5497SOL    HW127950   0.635   1.603   1.973  0.0569 -0.5173  0.2388
 5497SOL    HW227951   0.609   1.533   1.841 -0.3900 -1.1510  0.6931
 5498SOL     OW27952   3.030   2.718   3.290  0.1940 -0.1498  0.8808
 5498SOL    HW127953   3.015   2.669   3.209 -0.8938  1.2820  0.2152
 5498SOL    HW227954   2.960   2.692   3.349  1.2599 -1.2916  1.6415
 5499SOL     OW27955   4.466   2.642   5.987  0.1502  0.0888  0.3137
 5499SOL    HW127956   4.394   2.701   5.965  0.4764  1.5247  3.1049
 5499SOL    HW227957   4.541   2.692   5.955  0.2368 -0.3692 -0.1868
 5500SOL     OW27958   0.265   0.604   4.800  0.1856 -0.4596 -0.6013
 5500SOL    HW127959   0.296   0.671   4.739 -0.1250  0.7057  0.5341
 5500SOL    HW227960   0.346   0.563   4.831  0.0062 -0.2151  0.1851
 5501SOL     OW27961   0.543   2.469  14.265  0.4560 -0.0027  0.0754
 5501SOL    HW127962   0.518   2.423  14.346  0.8308 -1.1110 -0.4342
 5501SOL    HW227963   0.635   2.444  14.259  0.5815  0.5429 -0.2528
 5502SOL     OW27964   4.449   2.917   1.934 -0.1235 -0.6647  0.7479
 5502SOL    HW127965   4.508   2.969   1.880 -1.0910 -0.6120 -0.2493
 5502SOL    HW227966   4.391   2.881   1.867  0.7048  1.7442 -1.2484
 5503SOL     OW27967   3.480   4.225   7.328 -0.3434  0.4309 -0.0921
 5503SOL    HW127968   3.487   4.320   7.329  2.0783  0.2771 -1.1805
 5503SOL    HW227969   3.551   4.193   7.272 -0.3335 -2.3962  1.5082
 5504SOL     OW27970   4.664   2.567   5.582 -0.4848 -0.1895  0.0747
 5504SOL    HW127971   4.631   2.503   5.645 -1.8308 -0.7817 -1.2358
 5504SOL    HW227972   0.009   2.615   5.629 -0.1071  0.2578 -0.9239
 5505SOL     OW27973   3.130   4.133  12.783  0.2241  0.2053 -0.8291
 5505SOL    HW127974   3.127   4.174  12.696  0.6726  0.2497 -0.8273
 5505SOL    HW227975   3.144   4.041  12.763 -2.7452 -1.0445  3.0587
 5506SOL     OW27976   4.183   2.177   1.779 -0.5874 -0.3362  0.1742
 5506SOL    HW127977   4.088   2.171   1.788 -0.5216 -1.5282  0.1938
 5506SOL    HW227978   4.213   2.098   1.824  0.8298 -0.8430 -1.6558
 5507SOL     OW27979   2.626   2.626   8.450 -0.1413 -0.5240  0.3258
 5507SOL    HW127980   2.607   2.544   8.496 -0.6176 -1.2515 -1.1661
 5507SOL    HW227981   2.579   2.696   8.495 -1.1668 -0.2905 -1.1019
 5508SOL     OW27982   3.963   3.859   6.207  0.4881 -0.5968 -0.5334
 5508SOL    HW127983   3.940   3.785   6.151  0.9194 -2.3463  1.5864
 5508SOL    HW227984   3.987   3.919   6.136 -0.3616  0.9112  0.4539
 5509SOL     OW27985   4.330   0.961  11.822 -0.4322  0.1935 -0.9849
 5509SOL    HW127986   4.271   0.993  11.890 -0.2732  0.9291 -1.1935
 5509SOL    HW227987   4.396   1.030  11.828 -3.4010  2.9638 -0.0976
 5510SOL     OW27988   3.864   0.951   5.726  0.3447 -0.0249 -0.0088
 5510SOL    HW127989   3.956   0.926   5.734  0.5071  1.1339  1.7272
 5510SOL    HW227990   3.872   1.043   5.748  1.4856 -0.7731  2.6855
 5511SOL     OW27991   1.311   0.224   4.602 -0.7356  0.3463 -0.1216
 5511SOL    HW127992   1.295   0.202   4.511 -3.2202 -1.2679  0.7089
 5511SOL    HW227993   1.232   0.191   4.645  0.8072 -1.0893  1.5725
 5512SOL     OW27994   1.559   2.041   6.106 -0.1891  0.2198  0.1586
 5512SOL    HW127995   1.607   2.012   6.184 -2.3886 -0.2194  1.3750
 5512SOL    HW227996   1.602   1.990   6.038  1.1355  2.3041 -0.5799
 5513SOL     OW27997   1.378   1.577   6.973 -0.0268 -0.1027 -0.1348
 5513SOL    HW127998   1.359   1.640   7.043 -1.0036  0.2303 -0.6980
 5513SOL    HW227999   1.458   1.542   7.011  0.5118  1.5973  0.3134
 5514SOL     OW28000   1.365   3.187  13.468  0.1453  0.5544 -0.1423
 5514SOL    HW128001   1.425   3.233  13.527 -1.1798 -0.1529  1.7347
 5514SOL    HW228002   1.287   3.240  13.481 -1.1658 -1.5364  0.4234
 5515SOL     OW28003   2.100   1.421   5.885 -0.2891 -0.0418 -0.4396
 5515SOL    HW128004   2.107   1.337   5.931 -0.9731 -0.0658 -0.3657
 5515SOL    HW228005   2.062   1.392   5.802  0.3774  1.3460 -1.2245
 5516SOL     OW28006   3.967   2.566   6.625 -0.0121 -0.2939 -0.0917
 5516SOL    HW128007   3.950   2.583   6.717 -1.1236  2.5389 -0.8169
 5516SOL    HW228008   3.912   2.634   6.586 -0.6434 -1.6537 -1.6085
 5517SOL     OW28009   0.376   0.777   7.587 -0.3609  0.0147  0.3964
 5517SOL    HW128010   0.392   0.738   7.672 -1.2101 -4.1817 -1.3460
 5517SOL    HW228011   0.400   0.869   7.600  0.4420  0.0614 -1.3307
 5518SOL     OW28012   4.025   2.875   1.498 -0.6464 -0.1545 -0.1020
 5518SOL    HW128013   4.011   2.860   1.404  0.1898  0.5230 -0.3360
 5518SOL    HW228014   4.089   2.946   1.494 -1.0440  0.2669  0.9797
 5519SOL     OW28015   2.624   4.327   9.096 -0.0654  0.0296  0.0175
 5519SOL    HW128016   2.550   4.352   9.041  0.6743  1.3212 -0.3783
 5519SOL    HW228017   2.689   4.341   9.027  0.9406 -0.5625  0.8465
 5520SOL     OW28018   3.711   2.062   8.594 -0.1811  0.6223  0.9572
 5520SOL    HW128019   3.764   2.135   8.560 -1.1721  1.4481  1.1922
 5520SOL    HW228020   3.627   2.090   8.559 -0.5413  0.9797  2.1337
 5521SOL     OW28021   4.457   2.545  17.337  0.2831 -0.3444  0.5184
 5521SOL    HW128022   4.415   2.528  17.422 -1.3559  0.7360 -0.0886
 5521SOL    HW228023   4.376   2.546  17.286 -0.6822  0.8929  2.0669
 5522SOL     OW28024   2.924   1.058  12.325 -0.4151  0.1678  0.2967
 5522SOL    HW128025   2.965   1.056  12.239 -1.2225  0.1046 -0.0883
 5522SOL    HW228026   2.829   1.065  12.316 -0.1127  2.9677 -0.5949
 5523SOL     OW28027   2.239   3.792   4.729  0.1977 -0.4377 -0.0310
 5523SOL    HW128028   2.208   3.846   4.801  0.3220 -0.1541 -0.1872
 5523SOL    HW228029   2.232   3.863   4.665 -0.6097 -1.6483 -1.2919
 5524SOL     OW28030   2.915   0.717   5.841  0.4388  0.3312  0.7868
 5524SOL    HW128031   2.974   0.788   5.865  2.0508 -0.5378 -0.6263
 5524SOL    HW228032   2.883   0.698   5.930 -1.9126  1.5302  0.1920
 5525SOL     OW28033   3.916   3.400   0.092  0.2567  0.0368  0.2108
 5525SOL    HW128034   3.912   3.459   0.017 -1.4014  0.3004  0.5192
 5525SOL    HW228035   3.856   3.329   0.071 -2.3334  1.0136  4.3151
 5526SOL     OW28036   2.130   3.758   6.434  0.2965  0.3748  0.0848
 5526SOL    HW128037   2.129   3.762   6.339  1.1924  0.9077  0.0935
 5526SOL    HW228038   2.223   3.761   6.458  0.2555  1.7799  0.0618
 5527SOL     OW28039   0.979   0.515   7.004  0.3096  0.2156 -0.3162
 5527SOL    HW128040   1.013   0.602   7.026  1.3214 -0.0337 -0.8827
 5527SOL    HW228041   0.907   0.507   7.066  1.8543 -0.0521  1.4415
 5528SOL     OW28042   1.919   0.282   5.466  0.2611 -0.8334  0.0996
 5528SOL    HW128043   1.975   0.205   5.472  1.4647  0.0707  0.4330
 5528SOL    HW228044   1.873   0.273   5.383  0.8573 -2.5616 -0.0337
 5529SOL     OW28045   1.984   1.927   7.012 -0.0205  0.1575  0.8257
 5529SOL    HW128046   1.985   2.019   6.985 -0.2276 -0.0741  0.0141
 5529SOL    HW228047   2.079   1.915   7.009 -0.4130 -2.8388  0.9806
 5530SOL     OW28048   4.499   4.687   1.091 -0.2682  0.7791  0.3639
 5530SOL    HW128049   4.469   0.015   1.016 -3.1302 -0.9515  0.3213
 5530SOL    HW228050   4.565   0.024   1.125  0.1977 -0.4463  1.6288
 5531SOL     OW28051   2.669   4.299   9.713  0.0435  0.0197 -0.0600
 5531SOL    HW128052   2.739   4.257   9.763  0.8409 -1.3512 -2.2917
 5531SOL    HW228053   2.664   4.381   9.763  0.4561 -0.5885  0.9876
 5532SOL     OW28054   1.383   3.693   7.772 -0.4275  0.2116 -0.2427
 5532SOL    HW128055   1.321   3.683   7.845  2.2926 -3.5525  1.4876
 5532SOL    HW228056   1.331   3.749   7.713 -0.5795 -1.9298 -2.1257
 5533SOL     OW28057   0.293   0.288  11.843  0.0358  0.2983 -0.3437
 5533SOL    HW128058   0.302   0.307  11.936  0.8146 -2.4264  0.1218
 5533SOL    HW228059   0.378   0.246  11.838 -1.0294 -1.7126 -1.4878
 5534SOL     OW28060   2.507   0.404   5.271  0.5500  0.0282 -0.7423
 5534SOL    HW128061   2.564   0.416   5.195  0.8521 -3.1938 -1.0033
 5534SOL    HW228062   2.535   0.474   5.330 -1.9329 -1.7884  2.5817
 5535SOL     OW28063   2.122   0.901   3.279  0.6384  0.0865 -0.4117
 5535SOL    HW128064   2.154   0.991   3.284 -1.1639  0.6729  0.7966
 5535SOL    HW228065   2.159   0.866   3.360 -2.4372 -1.3363  0.4007
 5536SOL     OW28066   1.842   3.360   0.361  0.3181  0.4532  0.0131
 5536SOL    HW128067   1.907   3.325   0.423 -0.5426  0.0686  0.7008
 5536SOL    HW228068   1.843   3.286   0.300  1.6448 -1.3109  2.1298
 5537SOL     OW28069   3.018   1.645   1.091 -0.1901 -0.0076  0.8118
 5537SOL    HW128070   3.111   1.670   1.086 -0.9007  2.4424 -0.2950
 5537SOL    HW228071   3.009   1.563   1.043 -0.4503 -0.9047  2.4033
 5538SOL     OW28072   2.003   2.779  16.965 -0.1170  0.4081 -0.7448
 5538SOL    HW128073   2.000   2.822  16.879 -0.1151  1.3248 -0.2749
 5538SOL    HW228074   2.095   2.784  16.991  0.0093  1.4159 -1.4063
 5539SOL     OW28075   1.642   1.726   6.801 -0.3096  0.2339 -0.7015
 5539SOL    HW128076   1.657   1.680   6.719  1.5546  0.2779 -0.3828
 5539SOL    HW228077   1.714   1.694   6.856 -0.4659 -1.0519 -1.2489
 5540SOL     OW28078   2.797   2.708   8.263 -1.1226 -0.0612 -0.2136
 5540SOL    HW128079   2.868   2.768   8.288 -1.5453  0.0055  0.8594
 5540SOL    HW228080   2.741   2.686   8.338 -1.6953 -1.7502 -1.1526
 5541SOL     OW28081   4.218   2.250  10.027  0.2088  0.0719 -0.3647
 5541SOL    HW128082   4.209   2.231   9.933 -1.1727  2.0803 -0.6338
 5541SOL    HW228083   4.309   2.279  10.034  0.4507  0.1543 -3.8437
 5542SOL     OW28084   2.946   2.350   4.900  0.9369  0.1779 -0.2790
 5542SOL    HW128085   2.952   2.352   4.804  1.2114 -0.1858 -0.2727
 5542SOL    HW228086   3.036   2.380   4.917  1.0770  0.5775 -1.7168
 5543SOL     OW28087   2.850   3.138  13.361  0.0259 -0.4392  0.2232
 5543SOL    HW128088   2.841   3.208  13.297  1.0520 -1.0397 -0.5690
 5543SOL    HW228089   2.799   3.075  13.311 -0.1014 -0.1042 -0.0720
 5544SOL     OW28090   2.862   2.776  17.291  0.6858 -0.0058 -0.1448
 5544SOL    HW128091   2.914   2.741  17.364  1.1260  0.5857 -0.1793
 5544SOL    HW228092   2.823   2.697  17.255  0.5164  0.9639 -2.0855
 5545SOL     OW28093   0.892   3.627  13.978 -0.1540  0.1727 -0.0987
 5545SOL    HW128094   0.832   3.669  14.040 -1.7048  0.0137 -1.5073
 5545SOL    HW228095   0.850   3.645  13.894 -0.7148 -2.5872 -0.4049
 5546SOL     OW28096   3.783   0.431   8.679 -0.2354 -0.1177 -0.4901
 5546SOL    HW128097   3.762   0.377   8.602  1.0682 -2.0745  0.5243
 5546SOL    HW228098   3.710   0.406   8.736 -0.8278  1.8986 -0.3659
 5547SOL     OW28099   0.002   2.613   4.750  0.0281 -0.0468 -0.7564
 5547SOL    HW128100   0.015   2.633   4.843 -1.9441 -0.4845 -0.3716
 5547SOL    HW228101   0.063   2.542   4.734  0.3301 -0.2661  1.3323
 5548SOL     OW28102   4.266   3.434  15.833 -0.2583  0.0208 -0.2340
 5548SOL    HW128103   4.276   3.528  15.822 -0.4689  0.3406  2.1753
 5548SOL    HW228104   4.289   3.402  15.746 -3.3042  0.3884 -1.1906
 5549SOL     OW28105   0.206   2.317  14.542  0.5137 -0.2954  0.3614
 5549SOL    HW128106   0.181   2.237  14.590  0.3990 -0.5748 -0.1664
 5549SOL    HW228107   0.131   2.331  14.484  0.2981 -0.4750  0.5955
 5550SOL     OW28108   3.142   0.060  11.574 -0.1724 -0.3821 -0.1749
 5550SOL    HW128109   3.142   0.154  11.559  0.1377 -0.7049 -2.2170
 5550SOL    HW228110   3.047   0.051  11.586 -0.0934 -0.3983  0.4492
 5551SOL     OW28111   4.612   1.699  14.210  0.1251  0.3955  0.1412
 5551SOL    HW128112   4.604   1.607  14.236  1.4250  0.4984  0.8879
 5551SOL    HW228113   4.701   1.698  14.176  0.4023  0.2402  0.8731
 5552SOL     OW28114   0.597   2.872   8.536 -0.2162  0.7322  0.4630
 5552SOL    HW128115   0.537   2.848   8.607 -0.4800  0.7267  0.2388
 5552SOL    HW228116   0.565   2.808   8.472 -3.0567  1.2357  1.3730
 5553SOL     OW28117   1.929   0.016   5.881 -0.1598 -0.2911 -0.1090
 5553SOL    HW128118   1.855   0.040   5.825 -0.3212 -2.7706 -0.9742
 5553SOL    HW228119   1.991   0.044   5.814 -2.7039  0.8729 -1.9696
 5554SOL     OW28120   0.698   0.482   5.215  0.2033  0.1109 -0.1549
 5554SOL    HW128121   0.770   0.480   5.279  0.6640  1.3283 -0.6295
 5554SOL    HW228122   0.632   0.458   5.279 -0.1646  1.0044 -0.1996
 5555SOL     OW28123   2.890   1.042  16.194 -0.1401  0.2244 -0.2695
 5555SOL    HW128124   2.814   1.100  16.203 -1.0843 -1.0204 -0.1373
 5555SOL    HW228125   2.929   1.040  16.281 -0.2654  0.6421 -0.2052
 5556SOL     OW28126   4.340   4.577   1.965 -0.2393 -0.0486 -0.1478
 5556SOL    HW128127   4.337   4.583   1.869  2.0203  2.1537 -0.0930
 5556SOL    HW228128   4.327   4.483   1.979  1.3998 -0.3116 -0.3112
 5557SOL     OW28129   1.625   2.261   5.361  0.2476  0.4072  0.1245
 5557SOL    HW128130   1.622   2.194   5.430 -0.8587 -0.5134 -0.8244
 5557SOL    HW228131   1.714   2.295   5.373 -0.6004  2.3375  0.9443
 5558SOL     OW28132   3.957   0.780   0.997 -0.1250 -0.4734  0.0797
 5558SOL    HW128133   3.877   0.831   1.014  0.9942  0.9610  1.0977
 5558SOL    HW228134   3.971   0.722   1.072 -0.3133  0.2215  0.6542
 5559SOL     OW28135   1.226   1.076   6.108  0.6377  0.0099 -0.2121
 5559SOL    HW128136   1.212   1.160   6.065 -0.0999 -0.0725 -0.1345
 5559SOL    HW228137   1.271   1.095   6.190 -0.1027 -3.5783  1.0416
 5560SOL     OW28138   3.137   0.339   0.431  0.4017  0.9121 -0.1923
 5560SOL    HW128139   3.152   0.382   0.347 -2.3358  0.6779 -0.7911
 5560SOL    HW228140   3.084   0.411   0.464  0.1089  0.6588 -0.1077
 5561SOL     OW28141   2.806   0.278  12.134 -0.0701 -0.7016 -0.0088
 5561SOL    HW128142   2.847   0.232  12.208  1.4364  2.3218  1.0425
 5561SOL    HW228143   2.728   0.322  12.167  0.1578 -0.1531 -0.2117
 5562SOL     OW28144   4.490   2.128   0.729 -0.1153 -0.0818  0.1034
 5562SOL    HW128145   4.540   2.182   0.790 -1.5045  0.9793  0.2967
 5562SOL    HW228146   4.536   2.123   0.645  0.8372  0.9691  0.5637
 5563SOL     OW28147   3.777   3.680  12.109  0.2660  0.1885 -0.0846
 5563SOL    HW128148   3.866   3.705  12.134  0.7044 -0.5779 -0.8577
 5563SOL    HW228149   3.728   3.735  12.171 -0.2838 -0.7666  0.3199
 5564SOL     OW28150   4.085   0.298   4.322 -0.5269  0.5463 -0.0449
 5564SOL    HW128151   4.142   0.298   4.245  0.2054  2.3301  0.4924
 5564SOL    HW228152   4.070   0.391   4.337 -1.6415  0.4376 -0.5603
 5565SOL     OW28153   3.693   2.574   1.686  0.3356 -0.1243 -0.1530
 5565SOL    HW128154   3.779   2.595   1.649  0.8747 -2.1874 -0.1084
 5565SOL    HW228155   3.639   2.591   1.609  1.2432 -0.4767 -0.8682
 5566SOL     OW28156   4.282   2.501   4.459 -0.0746 -0.0437  0.1840
 5566SOL    HW128157   4.340   2.425   4.450  2.0924  1.4573  1.5534
 5566SOL    HW228158   4.221   2.477   4.529  0.4923  1.3612  1.1413
 5567SOL     OW28159   4.673   2.986   8.260 -0.1740 -0.0521 -0.3269
 5567SOL    HW128160   0.042   3.013   8.266 -0.7814  1.8020  0.5582
 5567SOL    HW228161   4.639   3.074   8.248 -0.9769 -0.1546  1.2373
 5568SOL     OW28162   2.335   0.460   6.546  0.3541 -0.1709 -0.4245
 5568SOL    HW128163   2.243   0.441   6.565  0.2331 -1.6598 -2.5376
 5568SOL    HW228164   2.362   0.373   6.517  0.8794  0.3085 -1.4089
 5569SOL     OW28165   2.814   2.158   8.235  0.0804  0.3555  0.2803
 5569SOL    HW128166   2.800   2.243   8.194 -0.0651  0.4260  0.4805
 5569SOL    HW228167   2.820   2.175   8.329 -2.2392  0.2851  0.4220
 5570SOL     OW28168   0.957   1.634   8.358  0.2169  0.0452 -0.4291
 5570SOL    HW128169   1.019   1.566   8.385 -0.7984  0.2261  2.3613
 5570SOL    HW228170   0.929   1.674   8.441 -0.6943  1.6299 -1.5149
 5571SOL     OW28171   0.483   1.413   6.393  0.2164  0.1155  0.2788
 5571SOL    HW128172   0.409   1.368   6.432  1.3820 -0.2177  2.1467
 5571SOL    HW228173   0.544   1.411   6.467 -0.1310  1.2030  0.6082
 5572SOL     OW28174   4.444   3.285   5.483 -0.6441  0.1052  0.7954
 5572SOL    HW128175   4.415   3.347   5.416 -1.9540 -1.9240 -0.5038
 5572SOL    HW228176   4.470   3.351   5.548  0.6902 -0.5770  0.9521
 5573SOL     OW28177   2.071   3.595  14.240 -0.0673  0.5844  0.0236
 5573SOL    HW128178   2.163   3.600  14.264  0.1886  1.6584 -1.1398
 5573SOL    HW228179   2.048   3.684  14.212  0.0216  0.2386 -1.1573
 5574SOL     OW28180   4.407   2.183  10.296 -0.0040 -0.1841  0.1960
 5574SOL    HW128181   4.342   2.128  10.339 -1.5003  0.5912 -1.1111
 5574SOL    HW228182   4.390   2.268  10.336  2.4268  1.0205 -1.3142
 5575SOL     OW28183   3.463   2.304   6.811  0.0928  0.4369  0.1039
 5575SOL    HW128184   3.531   2.357   6.852  0.9395 -0.2349 -0.4094
 5575SOL    HW228185   3.520   2.232   6.783 -1.1355 -0.0995 -1.0519
 5576SOL     OW28186   2.046   0.357  10.513  0.1213  0.3041 -0.3834
 5576SOL    HW128187   2.016   0.299  10.583  0.6370  0.1619 -0.2764
 5576SOL    HW228188   2.104   0.300  10.462  1.2678  0.0991  1.1442
 5577SOL     OW28189   0.431   2.929   8.183 -0.2401 -0.2570 -0.2426
 5577SOL    HW128190   0.378   2.931   8.262  0.0617  0.2850 -0.0552
 5577SOL    HW228191   0.413   2.840   8.152 -0.9436 -0.8694  1.9613
 5578SOL     OW28192   0.322   2.583   4.503 -0.1770 -0.1261 -0.3230
 5578SOL    HW128193   0.341   2.541   4.419  1.0292  1.0947 -0.6748
 5578SOL    HW228194   0.312   2.675   4.478 -0.3271 -0.6138 -2.0862
 5579SOL     OW28195   1.605   3.351   5.136 -0.1641 -0.4098 -0.1590
 5579SOL    HW128196   1.616   3.389   5.224  0.5696 -1.6741  0.2923
 5579SOL    HW228197   1.650   3.417   5.083 -0.8911  1.2070  1.2418
 5580SOL     OW28198   2.348   4.474   8.330 -0.0167  0.0779 -0.2562
 5580SOL    HW128199   2.265   4.428   8.332  1.3819 -2.3425  2.3510
 5580SOL    HW228200   2.346   4.517   8.245  1.8265 -1.3018 -0.9828
 5581SOL     OW28201   1.995   2.053  13.640 -0.2436 -0.6063 -0.3125
 5581SOL    HW128202   2.030   2.143  13.645  1.1356 -1.1877  0.6155
 5581SOL    HW228203   1.941   2.066  13.562 -2.5022  0.4654  1.4152
 5582SOL     OW28204   0.849   2.990   7.268  0.1042  0.3174  0.4951
 5582SOL    HW128205   0.903   2.998   7.347 -0.1175  0.7383  0.6034
 5582SOL    HW228206   0.805   3.075   7.272 -0.3038  0.1278 -0.0211
 5583SOL     OW28207   0.940   2.402   3.903 -0.3345  0.2900 -0.4403
 5583SOL    HW128208   0.846   2.400   3.885 -0.3106  0.3636 -0.5749
 5583SOL    HW228209   0.937   2.391   3.998 -0.1290  0.5209 -0.4080
 5584SOL     OW28210   2.154   3.797   8.208 -0.2770 -0.0549 -0.1326
 5584SOL    HW128211   2.222   3.862   8.188 -0.0543 -0.0962  0.4919
 5584SOL    HW228212   2.205   3.722   8.239 -1.3377 -1.7868 -2.6049
 5585SOL     OW28213   2.615   3.908   2.863  0.3410 -0.0747 -0.0650
 5585SOL    HW128214   2.668   3.844   2.912  0.3704 -0.8725 -1.1411
 5585SOL    HW228215   2.675   3.979   2.840 -1.4440  1.6011  0.5234
 5586SOL     OW28216   2.992   0.988  15.796  0.4002 -0.0105 -0.0002
 5586SOL    HW128217   2.999   1.000  15.701 -1.7219 -0.2579 -0.1912
 5586SOL    HW228218   3.073   1.019  15.835  0.4732  0.2800 -0.3792
 5587SOL     OW28219   2.100   2.946   3.027 -0.4301 -0.1886 -0.4105
 5587SOL    HW128220   2.053   2.867   3.054  0.1259  0.4316  2.3015
 5587SOL    HW228221   2.191   2.924   3.045 -0.4002 -1.2412 -1.7966
 5588SOL     OW28222   1.227   0.186   9.879  0.3254 -0.6626  0.0019
 5588SOL    HW128223   1.260   0.269   9.913  0.7446 -0.6101 -0.5285
 5588SOL    HW228224   1.161   0.204   9.812  1.3267  1.2974 -0.4518
 5589SOL     OW28225   2.404   4.603   9.008  0.2283 -0.1247 -0.6895
 5589SOL    HW128226   2.426   4.642   8.924 -0.5423 -0.0505 -0.8608
 5589SOL    HW228227   2.482   4.614   9.063  1.3004  1.3693 -2.5049
 5590SOL     OW28228   2.771   1.877  16.408  0.0869  0.1627  0.3821
 5590SOL    HW128229   2.825   1.944  16.366 -0.1708  1.5554  2.2693
 5590SOL    HW228230   2.706   1.876  16.338  0.4589  0.5464  0.0322
 5591SOL     OW28231   4.717   2.450   7.805 -0.0025 -0.5376  0.2679
 5591SOL    HW128232   4.679   2.448   7.892  2.1160  0.7544  1.2226
 5591SOL    HW228233   0.077   2.494   7.824 -0.4395 -1.4859  4.2444
 5592SOL     OW28234   4.564   3.535  13.098  0.1772 -0.5472 -0.1841
 5592SOL    HW128235   4.651   3.575  13.104  0.6195 -1.4257 -0.7578
 5592SOL    HW228236   4.589   3.455  13.143  1.1606 -0.0231  0.2005
 5593SOL     OW28237   4.154   1.961  16.942 -0.1618  0.6241 -0.4557
 5593SOL    HW128238   4.097   1.954  17.019  0.5802  2.3721  0.2553
 5593SOL    HW228239   4.172   2.055  16.949  0.8355  0.3289  0.8027
 5594SOL     OW28240   4.223   1.784  12.780 -0.5912  0.3934  0.3380
 5594SOL    HW128241   4.305   1.832  12.792 -0.8026  0.4102  1.7071
 5594SOL    HW228242   4.247   1.693  12.793  2.1045  1.1485  0.5901
 5595SOL     OW28243   4.640   1.150   9.779 -0.2937  0.1018 -0.6061
 5595SOL    HW128244   4.638   1.065   9.736  0.8678  0.3927 -1.2385
 5595SOL    HW228245   4.723   1.147   9.826 -1.2012 -1.1068  0.9001
 5596SOL     OW28246   1.384   2.787  11.854 -0.0175 -0.3260 -0.0186
 5596SOL    HW128247   1.328   2.719  11.816 -2.2389  1.1439  0.6173
 5596SOL    HW228248   1.347   2.784  11.942  1.0513 -2.4170  0.3516
 5597SOL     OW28249   3.968   3.234  14.378  0.3025  0.3794  0.4694
 5597SOL    HW128250   4.022   3.270  14.307 -1.4691  0.6476 -0.7433
 5597SOL    HW228251   3.903   3.304  14.377  0.6637  0.6991 -1.1204
 5598SOL     OW28252   4.560   0.904   4.723 -0.0135  0.0492 -0.2602
 5598SOL    HW128253   4.628   0.963   4.690  2.0518 -1.2255  1.7393
 5598SOL    HW228254   4.497   0.911   4.650 -0.6555 -2.2554  0.0964
 5599SOL     OW28255   3.266   0.162  10.373 -0.2847 -0.1916  0.0764
 5599SOL    HW128256   3.197   0.098  10.386  0.9966 -1.6393 -0.2908
 5599SOL    HW228257   3.221   0.243  10.397 -0.9023  0.2216 -2.5117
 5600SOL     OW28258   1.982   2.844   6.680 -0.1962  0.6225 -0.3062
 5600SOL    HW128259   1.939   2.763   6.710 -0.4254  0.0130 -2.2456
 5600SOL    HW228260   1.944   2.834   6.592  0.4973  0.1380 -0.5505
 5601SOL     OW28261   4.460   1.120   7.464 -0.0605 -0.0167 -0.4344
 5601SOL    HW128262   4.533   1.059   7.456 -0.9632 -1.1415 -0.0207
 5601SOL    HW228263   4.405   1.080   7.397 -1.8386  1.8316 -0.0771
 5602SOL     OW28264   0.391   2.241   9.337  0.0697 -0.4453  0.2895
 5602SOL    HW128265   0.461   2.280   9.388 -0.8473  0.5166  0.7984
 5602SOL    HW228266   0.376   2.290   9.256 -1.6951  1.5757  1.8395
 5603SOL     OW28267   1.871   4.326  15.578 -0.5019 -0.6869  0.5959
 5603SOL    HW128268   1.962   4.323  15.550 -0.6467 -1.3307  0.2113
 5603SOL    HW228269   1.838   4.260  15.518  0.0296 -0.2638 -0.1633
 5604SOL     OW28270   4.451   2.432   4.113 -0.8322  0.4781  0.2017
 5604SOL    HW128271   4.450   2.525   4.095  0.8435  0.2254 -1.1918
 5604SOL    HW228272   4.457   2.427   4.209 -2.3569 -0.8026  0.2314
 5605SOL     OW28273   4.407   2.532   7.682  0.5632 -0.2319  0.2741
 5605SOL    HW128274   4.421   2.488   7.598 -1.3450 -3.1907  1.5236
 5605SOL    HW228275   4.392   2.458   7.740  0.1140 -1.7917 -1.8160
 5606SOL     OW28276   2.227   1.533   1.578  0.5773 -0.0828  0.4597
 5606SOL    HW128277   2.296   1.478   1.540 -0.5782 -2.9565  2.4457
 5606SOL    HW228278   2.173   1.463   1.614 -1.4528  1.3637  0.1728
 5607SOL     OW28279   0.681   4.035   0.530 -0.7028  0.2198 -0.4812
 5607SOL    HW128280   0.719   4.119   0.555 -1.4921  1.0846 -2.1594
 5607SOL    HW228281   0.614   4.013   0.594  0.1605  0.5609  0.5464
 5608SOL     OW28282   4.289   3.488   9.032 -0.2124 -0.4133 -0.1654
 5608SOL    HW128283   4.239   3.557   8.987  2.3777  0.0867 -2.2627
 5608SOL    HW228284   4.230   3.475   9.107 -0.5342  0.8572 -0.1959
 5609SOL     OW28285   2.087   3.759   8.841  0.1609  0.3515  0.3262
 5609SOL    HW128286   2.122   3.789   8.758  0.6011 -2.3205 -0.4529
 5609SOL    HW228287   2.022   3.827   8.860 -0.1576 -0.2086  1.2687
 5610SOL     OW28288   1.996   3.868  14.236 -0.6851 -0.0224 -0.2302
 5610SOL    HW128289   2.055   3.907  14.300  2.6920 -0.8998 -2.8034
 5610SOL    HW228290   2.016   3.926  14.162 -0.3458  0.3234  0.1351
 5611SOL     OW28291   0.736   2.423   2.164 -0.1091  0.2007 -0.0759
 5611SOL    HW128292   0.831   2.414   2.157 -0.2304 -0.0802 -1.5130
 5611SOL    HW228293   0.718   2.470   2.082  0.5004  1.2085  0.3686
 5612SOL     OW28294   4.455   3.842   4.111 -0.1417  0.4009  0.2277
 5612SOL    HW128295   4.398   3.918   4.124  0.1449  0.4846  1.0346
 5612SOL    HW228296   4.527   3.883   4.063 -0.2350 -0.5145 -0.6893
 5613SOL     OW28297   3.072   2.089   5.927  0.0122  0.8581 -0.0491
 5613SOL    HW128298   3.058   2.006   5.882  0.4337  1.0382 -0.5121
 5613SOL    HW228299   2.998   2.141   5.895  0.2207  0.4859 -1.1464
 5614SOL     OW28300   3.303   2.854   2.384 -0.1912 -0.7871  0.3601
 5614SOL    HW128301   3.302   2.831   2.291 -2.3409  0.0374  0.1930
 5614SOL    HW228302   3.209   2.856   2.399 -0.0820  1.1935  0.7608
 5615SOL     OW28303   2.783   0.064   3.073  0.4388  0.2640  0.2400
 5615SOL    HW128304   2.732   0.005   3.129  0.5923  1.2071  1.3788
 5615SOL    HW228305   2.868   0.019   3.071  0.1573 -0.3286  1.9435
 5616SOL     OW28306   1.503   3.234   8.662  0.1950  0.1380  0.6692
 5616SOL    HW128307   1.506   3.256   8.569 -0.8303  2.1316  1.0962
 5616SOL    HW228308   1.588   3.270   8.690  0.5952 -0.7383  0.5750
 5617SOL     OW28309   0.575   2.018   3.300  0.6635 -0.1542  0.2318
 5617SOL    HW128310   0.499   1.972   3.336 -0.4225  2.2458  1.0132
 5617SOL    HW228311   0.523   2.069   3.237  1.1382  0.1438  0.0815
 5618SOL     OW28312   0.257   1.175  11.275 -0.3772 -0.0430 -0.3359
 5618SOL    HW128313   0.300   1.099  11.235  2.9723  1.5462  0.2322
 5618SOL    HW228314   0.335   1.228  11.292  0.4368 -1.3526  0.0176
 5619SOL     OW28315   0.718   4.117   7.603  0.1816 -0.0993 -0.2802
 5619SOL    HW128316   0.687   4.031   7.574 -1.1884 -0.0324  0.9574
 5619SOL    HW228317   0.806   4.114   7.566 -0.0608 -1.8065 -0.7013
 5620SOL     OW28318   3.027   0.902   8.838 -0.0903  0.3844  0.0488
 5620SOL    HW128319   3.055   0.815   8.809  0.1562  0.1829  0.8962
 5620SOL    HW228320   3.063   0.905   8.926  0.1188  0.4634 -0.0396
 5621SOL     OW28321   0.108   0.123  11.715  0.2408 -0.1080  0.0777
 5621SOL    HW128322   0.081   0.195  11.657 -1.3185 -1.0755 -0.4149
 5621SOL    HW228323   0.171   0.171  11.768  0.4036  1.4614 -1.5177
 5622SOL     OW28324   3.161   4.501  12.092  0.1785 -0.3634  0.0068
 5622SOL    HW128325   3.173   4.475  12.183  0.2315  1.4281  0.5161
 5622SOL    HW228326   3.112   4.584  12.102  0.6736  0.1332 -1.6695
 5623SOL     OW28327   4.106   1.777   3.037 -0.5129  0.0071  0.0670
 5623SOL    HW128328   4.197   1.786   3.008  0.2837 -2.6677  1.7106
 5623SOL    HW228329   4.125   1.778   3.131 -0.0106 -0.4962 -0.0259
 5624SOL     OW28330   3.302   3.891   1.519 -0.0934 -0.7417  0.2501
 5624SOL    HW128331   3.216   3.893   1.562  0.1590  1.4441  0.6284
 5624SOL    HW228332   3.346   3.814   1.556 -0.3896 -1.3101 -0.5794
 5625SOL     OW28333   4.527   4.504  11.499  0.1558 -0.0220 -0.3743
 5625SOL    HW128334   4.507   4.592  11.469  0.9999  0.4290  0.3672
 5625SOL    HW228335   4.460   4.462  11.446 -0.2728  2.5938 -1.8974
 5626SOL     OW28336   1.373   3.363  16.795  0.1682  1.0858  0.1548
 5626SOL    HW128337   1.299   3.318  16.835 -0.3113  1.7119 -0.0448
 5626SOL    HW228338   1.413   3.420  16.861  0.7995  2.3222 -1.2932
 5627SOL     OW28339   4.530   2.812   9.063  0.9045  0.1190 -0.2601
 5627SOL    HW128340   4.474   2.887   9.046 -0.3258 -0.6004  0.5530
 5627SOL    HW228341   4.529   2.812   9.159 -0.1294  1.5753 -0.2703
 5628SOL     OW28342   0.391   3.580   9.890  0.2521 -0.2486  0.1548
 5628SOL    HW128343   0.452   3.629   9.835  0.6337 -0.0135  0.7801
 5628SOL    HW228344   0.332   3.555   9.819 -0.0576 -0.3513  0.4474
 5629SOL     OW28345   0.495   1.610   2.824  0.6397 -0.4370  0.4885
 5629SOL    HW128346   0.524   1.698   2.798  0.7461 -0.9516 -1.1346
 5629SOL    HW228347   0.403   1.616   2.798  1.1263  1.0667 -0.9077
 5630SOL     OW28348   1.653   2.720   9.170 -0.0638 -0.2325 -0.0447
 5630SOL    HW128349   1.667   2.815   9.175 -2.5903  0.1481 -0.1650
 5630SOL    HW228350   1.606   2.716   9.086 -0.3915  0.0947  0.1232
 5631SOL     OW28351   1.888   3.650   8.612 -0.6194  0.0292 -0.2282
 5631SOL    HW128352   1.874   3.691   8.698  0.2795 -1.2242  0.5232
 5631SOL    HW228353   1.907   3.724   8.555 -2.2433 -0.3065 -1.1792
 5632SOL     OW28354   2.525   0.574   4.132  0.0394  0.4090 -0.1656
 5632SOL    HW128355   2.430   0.580   4.148 -0.4395 -0.2965 -2.6611
 5632SOL    HW228356   2.555   0.544   4.217  0.1720 -1.4169 -0.8617
 5633SOL     OW28357   3.971   0.728   5.356 -0.3508  0.0821  0.1963
 5633SOL    HW128358   3.891   0.717   5.408  1.2319  0.2283  2.6705
 5633SOL    HW228359   3.940   0.713   5.267  0.3166 -3.8204  0.5828
 5634SOL     OW28360   2.000   4.627  13.069  0.1136 -0.4231  0.0295
 5634SOL    HW128361   1.990   4.647  13.162  1.5734  2.3844 -0.4094
 5634SOL    HW228362   1.952   4.705  13.041  0.8576  0.2641  0.6500
 5635SOL     OW28363   0.585   3.639   8.511 -1.2513 -0.0951  0.6598
 5635SOL    HW128364   0.523   3.603   8.574 -0.4748  0.6485  1.8342
 5635SOL    HW228365   0.664   3.619   8.560 -1.8279 -1.4772  1.0130
 5636SOL     OW28366   3.638   3.690   3.377 -0.2140  0.3484 -0.0264
 5636SOL    HW128367   3.557   3.721   3.418 -0.7765 -0.4476 -0.5306
 5636SOL    HW228368   3.650   3.605   3.419 -0.3657  0.6217  0.5700
 5637SOL     OW28369   0.156   3.934   1.445  0.3380  0.5047 -0.3039
 5637SOL    HW128370   0.145   4.023   1.411 -0.2006  0.0800 -1.2259
 5637SOL    HW228371   0.075   3.892   1.414  1.1253 -0.6586 -0.7769
 5638SOL     OW28372   3.149   2.557   2.001 -0.3445 -0.1066 -0.0108
 5638SOL    HW128373   3.057   2.582   2.015  0.4538  3.3761 -0.8712
 5638SOL    HW228374   3.148   2.545   1.906 -0.3869  2.3361 -0.3329
 5639SOL     OW28375   4.695   1.255   5.066 -0.1897  0.0227 -0.0990
 5639SOL    HW128376   4.627   1.319   5.087 -1.5066 -1.4134  0.0015
 5639SOL    HW228377   0.047   1.313   5.051 -0.1732  0.0664  0.1531
 5640SOL     OW28378   3.325   3.970   6.978 -0.0089  0.0674  0.1233
 5640SOL    HW128379   3.325   3.920   7.060  0.3109  0.9324  0.6562
 5640SOL    HW228380   3.343   4.060   7.005  0.2178 -0.0022  0.2132
 5641SOL     OW28381   1.972   3.968   4.477 -0.1363  0.3932  0.4189
 5641SOL    HW128382   2.008   4.052   4.448  1.1026 -0.0980  0.5320
 5641SOL    HW228383   2.047   3.915   4.451 -0.4725  0.5493 -0.8487
 5642SOL     OW28384   3.117   4.529   1.068 -0.5698  0.2027 -0.3348
 5642SOL    HW128385   3.076   4.610   1.099 -0.7860  0.1564 -0.4928
 5642SOL    HW228386   3.208   4.555   1.080  0.0531 -1.7583 -0.8327
 5643SOL     OW28387   3.645   1.304   1.222  0.0825 -0.0978  0.1879
 5643SOL    HW128388   3.641   1.354   1.140 -0.2185 -1.5566 -0.6801
 5643SOL    HW228389   3.581   1.237   1.199 -0.1678  0.2430 -0.1092
 5644SOL     OW28390   4.444   4.236   2.996  0.5034  0.3987  0.6868
 5644SOL    HW128391   4.368   4.186   2.970 -0.0607  0.9910  1.1919
 5644SOL    HW228392   4.512   4.171   2.977 -1.9761 -2.2282  0.8739
 5645SOL     OW28393   1.492   1.589   2.412  0.4359  0.0598  0.6029
 5645SOL    HW128394   1.464   1.602   2.321  1.6696 -1.0665  0.0379
 5645SOL    HW228395   1.468   1.676   2.441  1.3125  0.6722 -0.4928
 5646SOL     OW28396   2.324   0.473   3.277  0.8088 -0.1141 -0.3907
 5646SOL    HW128397   2.311   0.381   3.254  0.4710 -0.3306  0.6626
 5646SOL    HW228398   2.329   0.510   3.189  0.4613  2.2081  0.5619
 5647SOL     OW28399   0.770   2.204   2.974 -0.0370  0.3118 -0.3327
 5647SOL    HW128400   0.737   2.272   3.033 -0.6241  1.2158 -1.6966
 5647SOL    HW228401   0.807   2.258   2.904  1.2969  1.1401  1.0202
 5648SOL     OW28402   4.416   0.391   6.356  0.2270  0.3238 -0.8108
 5648SOL    HW128403   4.443   0.447   6.284  0.3664 -0.4344 -1.3447
 5648SOL    HW228404   4.333   0.350   6.330 -0.3125  0.9677 -0.1379
 5649SOL     OW28405   0.537   2.804  10.023  0.6102  0.1205  0.3793
 5649SOL    HW128406   0.584   2.879  10.060 -0.5283  0.0915  1.8895
 5649SOL    HW228407   0.607   2.738  10.033  1.1684  0.6439 -0.1045
 5650SOL     OW28408   2.440   2.513   1.508 -0.2846  0.4108 -0.3630
 5650SOL    HW128409   2.497   2.535   1.582 -2.0569  0.4927  0.9912
 5650SOL    HW228410   2.424   2.603   1.477  2.3276  0.2100 -2.2429
 5651SOL     OW28411   4.395   0.813  17.107  0.4659 -0.5732  0.2705
 5651SOL    HW128412   4.304   0.809  17.078  0.2184  3.1771  0.4586
 5651SOL    HW228413   4.384   0.830  17.201 -0.2754  1.5110 -0.2009
 5652SOL     OW28414   4.483   2.229  17.164 -0.0610 -0.1853 -0.2324
 5652SOL    HW128415   4.520   2.309  17.201 -2.0416  0.3745  0.5445
 5652SOL    HW228416   4.394   2.235  17.199  0.3938 -0.5927  0.9917
 5653SOL     OW28417   0.607   1.171   2.392 -0.1903  0.4612  0.1284
 5653SOL    HW128418   0.623   1.109   2.463 -0.7546 -0.7438 -0.8076
 5653SOL    HW228419   0.512   1.187   2.399 -0.4134 -0.9695  0.4661
 5654SOL     OW28420   3.164   0.414   0.983  1.0679 -0.1337  0.5483
 5654SOL    HW128421   3.236   0.435   0.924 -0.4872 -1.9801 -1.9954
 5654SOL    HW228422   3.218   0.408   1.062  2.7136  1.7456 -0.4455
 5655SOL     OW28423   1.076   4.324   7.762  0.0457  0.0473  0.3860
 5655SOL    HW128424   1.080   4.403   7.709  2.3476 -0.1353  0.2997
 5655SOL    HW228425   1.137   4.269   7.712 -1.1796  0.1642 -1.2465
 5656SOL     OW28426   3.589   0.092   4.112  0.1963 -0.3221 -0.1641
 5656SOL    HW128427   3.660   0.088   4.176  1.4423 -2.1084 -1.6353
 5656SOL    HW228428   3.625   0.028   4.051  3.5337 -2.5026  4.1252
 5657SOL     OW28429   3.507   0.261   4.663  0.0539  0.0544  0.3421
 5657SOL    HW128430   3.429   0.309   4.689  0.8673  0.4992  1.9139
 5657SOL    HW228431   3.532   0.308   4.583  0.3187  1.3620  1.2082
 5658SOL     OW28432   2.356   2.454   7.120 -0.1166 -0.1038  0.0745
 5658SOL    HW128433   2.337   2.545   7.143 -0.5452 -0.3270  0.6022
 5658SOL    HW228434   2.365   2.409   7.204  0.7617  1.7781  0.9844
 5659SOL     OW28435   1.122   0.688   6.686  0.0393  0.1075  0.2762
 5659SOL    HW128436   1.194   0.685   6.748  0.7842  4.6010 -0.4170
 5659SOL    HW228437   1.133   0.781   6.668 -0.2556  0.1239  0.1720
 5660SOL     OW28438   0.710   0.791   4.575 -0.1019 -0.0788 -0.5451
 5660SOL    HW128439   0.643   0.841   4.623 -0.2457 -1.7067  0.9101
 5660SOL    HW228440   0.673   0.785   4.486 -0.3178 -1.5062 -0.3575
 5661SOL     OW28441   4.370   4.037  11.557 -0.3401  0.0989 -0.1640
 5661SOL    HW128442   4.397   3.946  11.543  0.1134  0.1220  0.5852
 5661SOL    HW228443   4.455   4.075  11.538 -0.4083  0.8651  1.0885
 5662SOL     OW28444   1.324   4.344  10.636 -0.0070  0.0469 -0.1635
 5662SOL    HW128445   1.325   4.410  10.706 -1.2912 -1.3890  1.2204
 5662SOL    HW228446   1.288   4.399  10.567  2.1300 -0.3459 -1.5760
 5663SOL     OW28447   0.261   0.827   4.644  0.7146 -0.0473  0.2492
 5663SOL    HW128448   0.199   0.880   4.694 -0.1151 -0.0700 -0.7600
 5663SOL    HW228449   0.205   0.839   4.568  1.6734  1.9391 -0.1370
 5664SOL     OW28450   4.548   3.825   7.630 -0.1346 -0.3993 -0.2588
 5664SOL    HW128451   4.524   3.767   7.558 -0.0527 -1.2568  0.4002
 5664SOL    HW228452   4.569   3.759   7.696 -0.0019 -0.5309 -0.4312
 5665SOL     OW28453   0.759   2.694   2.865 -0.4146  0.3945 -0.6330
 5665SOL    HW128454   0.717   2.673   2.948  2.3360 -0.6044  0.5143
 5665SOL    HW228455   0.716   2.630   2.808  0.9135  0.6490 -1.9347
 5666SOL     OW28456   1.833   3.611  10.977  0.1843 -0.3989  0.2516
 5666SOL    HW128457   1.927   3.592  10.984  0.0426 -1.3112 -0.2750
 5666SOL    HW228458   1.811   3.537  10.920  0.5750  0.2942 -0.8185
 5667SOL     OW28459   1.857   0.615   6.149  0.0926  0.2497  0.8578
 5667SOL    HW128460   1.870   0.527   6.113  0.5393  0.6750 -0.0126
 5667SOL    HW228461   1.785   0.654   6.099  0.9029 -0.6258 -1.0407
 5668SOL     OW28462   1.765   2.445   6.384  0.2212 -0.5427  0.1293
 5668SOL    HW128463   1.710   2.368   6.366 -1.3069  0.8081 -0.9624
 5668SOL    HW228464   1.689   2.503   6.392  0.2295 -0.3172 -1.5799
 5669SOL     OW28465   1.648   0.301  16.975  0.1545  0.0134  0.0017
 5669SOL    HW128466   1.697   0.245  16.915  0.6799  1.1339 -0.6320
 5669SOL    HW228467   1.657   0.382  16.924  1.6627 -0.9321 -1.2450
 5670SOL     OW28468   0.069   3.027   9.289  0.0713  0.2059 -0.3068
 5670SOL    HW128469   0.146   3.040   9.234  0.6563 -1.0644  0.2328
 5670SOL    HW228470   0.080   2.934   9.308 -1.6703  0.3914  1.6159
 5671SOL     OW28471   1.623   3.662   2.507 -0.0442  0.6708  0.4904
 5671SOL    HW128472   1.691   3.626   2.450  0.0889  1.1149  0.3651
 5671SOL    HW228473   1.671   3.683   2.587  1.1801 -1.5232  0.3215
 5672SOL     OW28474   4.222   2.891   2.376  0.1421  0.7481 -0.6135
 5672SOL    HW128475   4.301   2.854   2.417 -0.1655  0.4813 -0.2623
 5672SOL    HW228476   4.244   2.915   2.286  1.4510 -0.3889 -0.6016
 5673SOL     OW28477   1.441   2.615  11.290  0.1046 -0.9388 -0.3636
 5673SOL    HW128478   1.472   2.525  11.286 -0.5506 -1.1341 -1.0026
 5673SOL    HW228479   1.409   2.619  11.380  2.0403 -2.2717  0.3680
 5674SOL     OW28480   0.553   0.596   4.819 -0.4565 -0.0135  0.1961
 5674SOL    HW128481   0.603   0.562   4.893 -0.6222  1.7234  1.1071
 5674SOL    HW228482   0.598   0.555   4.745 -0.2424 -2.5834  1.7566
 5675SOL     OW28483   3.857   1.310  16.182 -0.2694 -0.5376 -0.5135
 5675SOL    HW128484   3.788   1.253  16.216  0.0487 -0.2707  0.5846
 5675SOL    HW228485   3.934   1.257  16.202 -1.5572 -1.7572  1.2149
 5676SOL     OW28486   3.548   0.754   3.316 -0.1132  0.0012 -0.2513
 5676SOL    HW128487   3.502   0.769   3.399  1.7013  0.4249  0.6833
 5676SOL    HW228488   3.497   0.683   3.277 -0.9604  0.8596 -0.7177
 5677SOL     OW28489   1.764   4.268   4.269  0.2421  0.6001 -0.1539
 5677SOL    HW128490   1.692   4.331   4.265 -0.8452 -0.6887 -0.9273
 5677SOL    HW228491   1.805   4.290   4.353  0.0907 -0.4582  0.2039
 5678SOL     OW28492   1.026   1.793  10.796 -0.5865  0.4086 -0.0670
 5678SOL    HW128493   0.948   1.787  10.851 -0.7242  0.8488 -0.2140
 5678SOL    HW228494   1.056   1.882  10.817  1.0508 -0.5436  1.5684
 5679SOL     OW28495   1.412   1.704   3.559 -0.3183  0.0212 -0.0941
 5679SOL    HW128496   1.493   1.754   3.558 -1.0028  1.1411  0.1355
 5679SOL    HW228497   1.361   1.737   3.485 -0.3535  0.0501 -0.0570
 5680SOL     OW28498   3.221   4.068   3.468 -0.1767  0.3830 -0.3704
 5680SOL    HW128499   3.224   4.071   3.564 -1.4054  0.1759 -0.3213
 5680SOL    HW228500   3.128   4.060   3.446 -0.2433 -0.1292  0.0878
 5681SOL     OW28501   2.270   4.015  11.075 -0.6520 -0.0401  0.2977
 5681SOL    HW128502   2.197   3.961  11.045 -0.2234  0.3378 -1.4128
 5681SOL    HW228503   2.340   3.951  11.088 -1.1371 -0.4233  1.0371
 5682SOL     OW28504   3.291   0.009   4.547  0.2341  0.2410  0.0647
 5682SOL    HW128505   3.209   4.711   4.503 -1.2131  2.7512  1.5571
 5682SOL    HW228506   3.355   4.688   4.491 -0.0820  0.3272 -0.3729
 5683SOL     OW28507   2.469   1.939   0.848 -0.3385 -0.5459 -0.2207
 5683SOL    HW128508   2.385   1.902   0.873 -0.6860  0.8688  0.7331
 5683SOL    HW228509   2.499   1.965   0.936  0.3931 -1.6127 -0.1577
 5684SOL     OW28510   0.521   2.384   6.250  0.2582 -0.0291 -0.0554
 5684SOL    HW128511   0.464   2.441   6.301 -0.3293 -0.4924 -0.1933
 5684SOL    HW228512   0.504   2.410   6.159  0.5658 -0.0592 -0.1228
 5685SOL     OW28513   1.786   1.269  14.689 -0.4094 -0.2067 -0.0858
 5685SOL    HW128514   1.757   1.273  14.598 -1.5959 -0.7315  0.2735
 5685SOL    HW228515   1.880   1.269  14.673  0.1363  2.4269  3.2494
 5686SOL     OW28516   0.543   2.797   6.423 -0.3209  0.3945 -0.0524
 5686SOL    HW128517   0.504   2.881   6.402 -0.2285  0.4968  0.1796
 5686SOL    HW228518   0.489   2.764   6.495  0.1065 -0.5659 -0.1686
 5687SOL     OW28519   0.087   2.072   3.454 -0.4332 -0.2292  0.0169
 5687SOL    HW128520   0.122   2.105   3.537 -0.6456  1.5116 -0.5917
 5687SOL    HW228521   0.009   2.127   3.449  0.0195  0.5158  1.2262
 5688SOL     OW28522   2.726   0.092  15.751 -0.2222  0.3916 -0.0697
 5688SOL    HW128523   2.685   0.027  15.694 -0.6129 -0.5669  1.2792
 5688SOL    HW228524   2.653   0.153  15.765 -1.3870 -0.8605 -0.6307
 5689SOL     OW28525   0.722   2.309   9.961  0.3490  0.2993  0.2099
 5689SOL    HW128526   0.747   2.279  10.048 -1.9588 -2.5723 -0.0991
 5689SOL    HW228527   0.726   2.226   9.914  0.9891  0.4440  0.0154
 5690SOL     OW28528   0.026   0.609   3.362  0.2823 -0.5519  0.2500
 5690SOL    HW128529   4.673   0.662   3.341 -0.3959 -1.7946 -0.4143
 5690SOL    HW228530   0.013   0.565   3.447  2.2481  0.8141  1.2585
 5691SOL     OW28531   1.808   4.368  15.134 -0.2142 -0.3265  0.0945
 5691SOL    HW128532   1.797   4.306  15.206 -0.3121  2.2528  2.3000
 5691SOL    HW228533   1.878   4.323  15.087  0.4865 -2.4506  3.1624
 5692SOL     OW28534   1.779   4.422  14.790  0.3276 -0.4051 -0.4904
 5692SOL    HW128535   1.867   4.443  14.759  0.4621  0.9791  0.8161
 5692SOL    HW228536   1.783   4.327  14.791 -1.3027 -0.4737  0.2518
 5693SOL     OW28537   1.648   3.267   7.909 -0.1180 -0.0304 -0.0789
 5693SOL    HW128538   1.699   3.331   7.958  0.6380  0.4596 -1.5063
 5693SOL    HW228539   1.577   3.327   7.886  1.6775  1.7636 -0.8752
 5694SOL     OW28540   4.557   3.955   3.405 -0.3062 -0.4765 -0.4398
 5694SOL    HW128541   4.465   3.944   3.379  0.0675 -1.8511 -1.1800
 5694SOL    HW228542   4.594   3.897   3.339  2.4660  0.5343  0.2622
 5695SOL     OW28543   4.595   2.971   9.484 -0.1729  0.2424 -0.2486
 5695SOL    HW128544   4.645   3.021   9.420  0.8012 -0.6188 -0.1521
 5695SOL    HW228545   4.651   2.948   9.558  1.3168 -0.2819 -1.5242
 5696SOL     OW28546   1.969   3.066   7.431 -0.1228  0.9276  0.2410
 5696SOL    HW128547   2.062   3.046   7.436  0.3736  2.7250 -1.5761
 5696SOL    HW228548   1.947   3.068   7.524 -0.8299 -1.1831  0.1127
 5697SOL     OW28549   3.463   3.812  15.238 -0.4674 -0.8026 -0.1038
 5697SOL    HW128550   3.486   3.863  15.315 -0.4770 -1.0058  0.0334
 5697SOL    HW228551   3.428   3.732  15.277 -1.9053  0.6515  1.5956
 5698SOL     OW28552   1.792   2.523  14.770 -0.2071  0.6725  0.3880
 5698SOL    HW128553   1.822   2.610  14.796  1.7126  0.3788 -0.8565
 5698SOL    HW228554   1.788   2.528  14.674 -2.1488 -0.1587  0.4077
 5699SOL     OW28555   4.679   0.769   7.159 -0.4438  0.4897 -0.3738
 5699SOL    HW128556   0.041   0.745   7.122 -0.6567 -1.7977  0.5916
 5699SOL    HW228557   4.618   0.763   7.086 -0.6937  1.2439 -0.2216
 5700SOL     OW28558   1.970   3.119  17.628  0.0339 -0.1678  0.3032
 5700SOL    HW128559   2.029   3.175  17.577 -0.5098  1.0547  1.0148
 5700SOL    HW228560   1.903   3.084  17.569 -1.9859  0.8974  1.9758
 5701SOL     OW28561   1.837   1.289   7.040 -0.4686 -0.8433 -0.0964
 5701SOL    HW128562   1.902   1.277   6.971  0.1699 -0.0551  0.3722
 5701SOL    HW228563   1.758   1.274   6.989 -1.6327  0.8317  1.2147
 5702SOL     OW28564   0.233   2.851   2.943 -0.1598 -0.2052 -0.2639
 5702SOL    HW128565   0.151   2.866   2.896 -1.2301 -0.2108  1.6305
 5702SOL    HW228566   0.283   2.800   2.879  0.2516  1.7925 -1.5318
 5703SOL     OW28567   2.044   2.428   0.609  0.3510 -0.0394 -0.0537
 5703SOL    HW128568   2.043   2.333   0.624 -0.8702  0.1683  1.1738
 5703SOL    HW228569   2.027   2.440   0.515  0.2626  1.6823  0.1977
 5704SOL     OW28570   4.711   3.921  12.329 -0.6170  0.1976  0.0992
 5704SOL    HW128571   0.079   3.923  12.357 -0.3278  1.8042 -0.9469
 5704SOL    HW228572   4.706   3.832  12.294  1.7897  1.0060 -2.2841
 5705SOL     OW28573   0.510   0.094   8.257  0.0859 -0.0970 -0.8231
 5705SOL    HW128574   0.483   0.185   8.265  1.5252  0.3996 -1.6415
 5705SOL    HW228575   0.576   0.098   8.188 -0.3037  0.6540 -1.1551
 5706SOL     OW28576   3.007   1.615   4.962  0.4606  0.3774 -0.2968
 5706SOL    HW128577   3.077   1.557   4.932 -0.1639  0.2548 -1.5022
 5706SOL    HW228578   3.041   1.703   4.946  0.7690  0.1753 -0.7620
 5707SOL     OW28579   0.621   4.635  10.805  0.1719 -0.2581 -0.2870
 5707SOL    HW128580   0.695   4.690  10.828  1.1310 -1.1739 -1.1826
 5707SOL    HW228581   0.549   4.666  10.859  1.1996  0.4938  0.6463
 5708SOL     OW28582   4.022   0.838   3.039  0.0507 -0.4373  0.3413
 5708SOL    HW128583   4.107   0.837   3.083 -0.6050 -1.7076  1.5841
 5708SOL    HW228584   3.985   0.751   3.051 -2.1870  0.5437  0.5261
 5709SOL     OW28585   1.795   3.429   6.133 -0.3041  0.4006 -0.0874
 5709SOL    HW128586   1.738   3.353   6.144  0.8275 -0.1621  1.9374
 5709SOL    HW228587   1.815   3.453   6.223  0.9421 -0.0426 -0.2454
 5710SOL     OW28588   1.808   0.622   7.626  0.6001  0.1427  0.4434
 5710SOL    HW128589   1.743   0.692   7.624 -0.3830 -0.7706  0.6511
 5710SOL    HW228590   1.823   0.613   7.720  0.1098  2.2873  0.7357
 5711SOL     OW28591   1.276   0.749   8.713 -0.2251 -0.1464 -0.2386
 5711SOL    HW128592   1.278   0.656   8.735 -2.5026 -0.3228 -0.7591
 5711SOL    HW228593   1.223   0.773   8.789  3.4118 -0.4435  2.4079
 5712SOL     OW28594   0.045   3.423   3.794 -0.5780  0.0465 -0.0418
 5712SOL    HW128595   0.104   3.390   3.727  1.9825  0.7826  1.8448
 5712SOL    HW228596   0.109   3.457   3.857 -1.0526 -0.8476  0.9198
 5713SOL     OW28597   2.585   0.277   7.142 -0.4245  0.1770 -0.1148
 5713SOL    HW128598   2.495   0.311   7.145 -0.5704 -0.0731 -1.7036
 5713SOL    HW228599   2.591   0.258   7.049 -0.2912  0.1354 -0.0979
 5714SOL     OW28600   4.592   0.121   6.627 -0.1003  0.1634  0.7647
 5714SOL    HW128601   4.686   0.104   6.637  0.0286  1.5606  1.9285
 5714SOL    HW228602   4.552   0.073   6.699 -2.5156  0.3082 -0.4859
 5715SOL     OW28603   0.910   4.682  10.551  0.0104 -0.4110 -0.7212
 5715SOL    HW128604   0.913   4.656  10.643  1.2890 -3.1060 -1.5165
 5715SOL    HW228605   0.918   4.594  10.515 -0.8036 -0.4512 -0.7826
 5716SOL     OW28606   4.199   2.076  10.465  0.5596  0.1237 -0.5834
 5716SOL    HW128607   4.162   2.051  10.550  0.2863 -1.1349 -1.0621
 5716SOL    HW228608   4.114   2.094  10.424  0.0316 -0.2541  0.3370
 5717SOL     OW28609   2.383   2.045   9.883 -0.0777  0.6778  0.1691
 5717SOL    HW128610   2.446   1.974   9.894 -1.8919 -1.0831 -0.6511
 5717SOL    HW228611   2.315   2.016   9.943 -0.4991 -1.8250 -1.5077
 5718SOL     OW28612   1.749   2.873   2.737 -0.0283  0.4643  0.6350
 5718SOL    HW128613   1.722   2.953   2.781  0.5524  1.2348 -0.4226
 5718SOL    HW228614   1.834   2.864   2.780 -0.2037 -0.6514  0.7505
 5719SOL     OW28615   4.463   4.677   2.197 -0.2681 -0.3178 -0.4453
 5719SOL    HW128616   4.393   0.018   2.186 -0.1345 -0.2475 -0.9099
 5719SOL    HW228617   4.436   4.612   2.131  1.7188 -3.1397  1.5056
 5720SOL     OW28618   0.491   1.455  10.532  0.2740 -0.6476  0.0050
 5720SOL    HW128619   0.551   1.476  10.460  1.3290 -5.1501 -0.4409
 5720SOL    HW228620   0.538   1.501  10.601  1.0028 -0.1565 -0.8111
 5721SOL     OW28621   0.376   0.565   7.174  0.4465 -0.1615 -0.2858
 5721SOL    HW128622   0.432   0.490   7.155 -2.0416 -1.6205 -1.9999
 5721SOL    HW228623   0.328   0.532   7.250 -0.7980 -0.9544 -1.4008
 5722SOL     OW28624   0.694   4.288  12.471 -0.2475 -0.4788 -0.3056
 5722SOL    HW128625   0.778   4.242  12.478 -0.0600 -0.0378  0.3247
 5722SOL    HW228626   0.690   4.327  12.559  2.9063  0.9880 -0.8172
 5723SOL     OW28627   1.658   0.311  17.614 -0.5821 -0.1799 -0.0988
 5723SOL    HW128628   1.585   0.340  17.560  0.3966  0.8255 -0.8814
 5723SOL    HW228629   1.732   0.345  17.563 -0.2534 -0.1625  0.3845
 5724SOL     OW28630   3.800   3.627   6.848 -0.3664  0.2432  0.8274
 5724SOL    HW128631   3.743   3.630   6.925 -1.3134 -0.4315  0.1456
 5724SOL    HW228632   3.819   3.534   6.836  0.8667  0.3374  2.0487
 5725SOL     OW28633   3.968   3.718   5.782  0.4308  0.3589 -0.3457
 5725SOL    HW128634   3.950   3.808   5.754 -0.2645 -0.2876 -1.9981
 5725SOL    HW228635   3.927   3.669   5.710 -1.2121  0.3318  0.6048
 5726SOL     OW28636   2.728   3.425  10.406 -0.3458 -0.2298 -0.3607
 5726SOL    HW128637   2.760   3.434  10.495  1.7567 -0.9366 -1.0488
 5726SOL    HW228638   2.811   3.455  10.370  0.2483 -2.0708 -0.5465
 5727SOL     OW28639   1.875   2.408  15.759  0.0946 -0.0848 -0.0359
 5727SOL    HW128640   1.798   2.371  15.802 -0.1089  0.2008 -0.1539
 5727SOL    HW228641   1.843   2.438  15.674 -0.2399 -0.4658 -0.0431
 5728SOL     OW28642   0.701   2.335  15.713 -0.6359 -0.3966 -0.1863
 5728SOL    HW128643   0.764   2.311  15.645  0.3613 -0.5531  0.7984
 5728SOL    HW228644   0.743   2.318  15.797 -1.7207  2.5421  0.9711
 5729SOL     OW28645   1.723   1.470   4.443  0.0957 -0.0530  0.1751
 5729SOL    HW128646   1.732   1.385   4.400  1.5877  0.0247  0.3293
 5729SOL    HW228647   1.812   1.484   4.475  0.7439 -0.8622 -1.2972
 5730SOL     OW28648   4.027   4.686   3.249  0.3374  0.3185  0.1363
 5730SOL    HW128649   3.959   4.673   3.183 -0.9266 -2.6634  1.9862
 5730SOL    HW228650   4.070   4.601   3.239  0.1334  0.0948  1.1642
 5731SOL     OW28651   3.529   2.642   3.593 -0.0587 -0.1003  0.1658
 5731SOL    HW128652   3.535   2.547   3.586 -3.0603 -0.4828  2.7265
 5731SOL    HW228653   3.517   2.668   3.501 -0.5388 -0.3662  0.1518
 5732SOL     OW28654   2.502   4.254   2.841  0.2687  0.1291 -0.7038
 5732SOL    HW128655   2.530   4.345   2.853 -0.1496 -0.0732  1.6901
 5732SOL    HW228656   2.531   4.211   2.921  1.9041  1.7457 -0.4382
 5733SOL     OW28657   1.352   4.029  12.288  0.2434 -0.1205  0.0793
 5733SOL    HW128658   1.419   4.041  12.355  0.4489  0.7089 -0.2743
 5733SOL    HW228659   1.415   4.003  12.220 -0.4325  0.4392 -0.7656
 5734SOL     OW28660   4.126   2.958   5.194 -0.1619 -0.4052 -0.2883
 5734SOL    HW128661   4.118   2.923   5.105  1.2302  0.0903 -0.6212
 5734SOL    HW228662   4.035   2.968   5.220  0.1055  0.1254  0.4255
 5735SOL     OW28663   3.905   3.000  15.720 -0.0385  0.4676 -0.1739
 5735SOL    HW128664   3.973   3.057  15.683 -1.3597  1.2739 -1.3597
 5735SOL    HW228665   3.890   2.942  15.645 -1.0149  0.5669 -0.0520
 5736SOL     OW28666   0.893   1.564   1.571  0.1637  0.6150  0.4992
 5736SOL    HW128667   0.821   1.593   1.515 -0.7962 -1.1858  0.8104
 5736SOL    HW228668   0.852   1.530   1.650  0.4356  2.6995  1.5476
 5737SOL     OW28669   4.437   2.894   7.972 -0.9202 -0.3005 -0.2830
 5737SOL    HW128670   4.370   2.870   7.908 -0.5620  0.3392 -0.8989
 5737SOL    HW228671   4.510   2.855   7.924 -1.0197  1.1599 -1.6095
 5738SOL     OW28672   2.164   3.288   2.826 -0.0602  0.3099 -0.1808
 5738SOL    HW128673   2.108   3.211   2.827  0.4546 -0.0468  1.3761
 5738SOL    HW228674   2.249   3.248   2.844 -0.5037 -0.1010  0.9661
 5739SOL     OW28675   1.940   3.774   3.794  0.6526 -0.2981  0.5919
 5739SOL    HW128676   1.870   3.828   3.829 -1.1406 -2.1551 -0.1042
 5739SOL    HW228677   1.940   3.694   3.846  0.6972 -0.7599 -0.1170
 5740SOL     OW28678   1.096   4.639  13.772  0.2958  0.0853  0.2455
 5740SOL    HW128679   1.175   4.664  13.821 -0.0958  0.9405  0.4360
 5740SOL    HW228680   1.066   4.577  13.838 -0.4136  1.1195  0.9067
 5741SOL     OW28681   4.347   0.710  15.240 -0.5049 -0.2694 -1.0214
 5741SOL    HW128682   4.391   0.682  15.159 -2.5002 -0.7431 -1.9534
 5741SOL    HW228683   4.304   0.627  15.260  0.6425  0.2191  3.3805
 5742SOL     OW28684   4.339   0.965   5.748 -0.3847  0.2246 -0.0884
 5742SOL    HW128685   4.384   0.980   5.832  1.3195  1.4485 -1.2181
 5742SOL    HW228686   4.354   1.050   5.707 -1.0027  0.3767  0.0072
 5743SOL     OW28687   1.656   1.352   8.135 -0.5426 -0.6561  0.7193
 5743SOL    HW128688   1.653   1.279   8.198 -0.3665 -2.1066 -0.9598
 5743SOL    HW228689   1.577   1.405   8.145 -0.5073 -0.6162  0.7864
 5744SOL     OW28690   3.645   0.894   2.980 -0.2040 -0.0039  0.1998
 5744SOL    HW128691   3.618   0.957   3.048  0.8119 -0.0824  0.6754
 5744SOL    HW228692   3.632   0.803   3.006  2.7320 -0.7933 -1.0922
 5745SOL     OW28693   3.190   1.203  15.800 -0.0406  0.1167 -0.1096
 5745SOL    HW128694   3.285   1.197  15.789 -0.1623 -1.1266 -0.4065
 5745SOL    HW228695   3.154   1.197  15.712  0.4435  0.8065 -0.3500
 5746SOL     OW28696   4.254   1.160   6.769  0.4136 -0.2325 -0.8648
 5746SOL    HW128697   4.198   1.229   6.732  1.9699  1.4781 -0.0246
 5746SOL    HW228698   4.325   1.168   6.706  1.2832 -2.4873 -0.1731
 5747SOL     OW28699   2.190   0.802   3.528 -0.0344  0.0100  0.6325
 5747SOL    HW128700   2.270   0.769   3.569 -1.5117 -2.7440  1.2388
 5747SOL    HW228701   2.181   0.875   3.590  2.3182  2.2593 -1.6707
 5748SOL     OW28702   2.419   0.203   8.474 -0.0364  0.1683 -0.1803
 5748SOL    HW128703   2.429   0.290   8.512 -1.5434 -0.0316  0.6581
 5748SOL    HW228704   2.493   0.195   8.413  0.0040 -1.0212  0.0138
 5749SOL     OW28705   1.843   0.258   2.999 -0.3190 -0.2690 -0.2997
 5749SOL    HW128706   1.892   0.257   3.081  0.8355 -1.5220 -1.0004
 5749SOL    HW228707   1.805   0.345   3.005  1.5988  0.5121  0.3985
 5750SOL     OW28708   2.079   3.047   3.372  0.0724  0.1465 -0.6486
 5750SOL    HW128709   2.163   3.015   3.339 -1.2828 -2.8582 -1.2241
 5750SOL    HW228710   2.110   3.091   3.451  1.6050 -0.5099 -0.8961
 5751SOL     OW28711   2.315   4.014   4.340 -0.3482 -0.6132  0.2069
 5751SOL    HW128712   2.394   4.066   4.352 -0.7638  0.4399 -1.6803
 5751SOL    HW228713   2.310   4.008   4.245 -2.8306  2.6289  0.1553
 5752SOL     OW28714   3.187   3.050   5.766 -0.2908 -0.6188 -0.0304
 5752SOL    HW128715   3.138   3.120   5.722  1.4109  0.6666  0.1097
 5752SOL    HW228716   3.131   3.030   5.841 -0.0336  1.1035  0.6122
 5753SOL     OW28717   3.671   2.887   5.645 -0.4108  0.3506  0.8927
 5753SOL    HW128718   3.746   2.869   5.701 -0.9258  0.8266  1.7312
 5753SOL    HW228719   3.603   2.828   5.678  1.5033 -2.8224 -0.8253
 5754SOL     OW28720   1.623   3.526   4.212 -0.2901  0.1499  0.3899
 5754SOL    HW128721   1.708   3.544   4.173 -0.4126 -0.6934 -0.2743
 5754SOL    HW228722   1.564   3.529   4.137 -0.1580 -1.6643  0.2013
 5755SOL     OW28723   2.433   3.381  16.361  0.4306 -0.3149  0.1072
 5755SOL    HW128724   2.364   3.437  16.325 -0.5189  0.1197  2.6449
 5755SOL    HW228725   2.494   3.444  16.400  1.0106 -0.0613 -1.2187
 5756SOL     OW28726   0.217   1.615  16.432 -0.0498  0.3536 -0.3487
 5756SOL    HW128727   0.271   1.660  16.497  0.2691 -2.6102  1.4332
 5756SOL    HW228728   0.279   1.547  16.408  1.7192  1.6319  0.6333
 5757SOL     OW28729   1.596   4.528   6.827  0.1815  0.3361 -0.2159
 5757SOL    HW128730   1.638   4.593   6.771 -0.9582 -0.7770 -2.3992
 5757SOL    HW228731   1.583   4.571   6.911 -0.7756 -0.6388  0.1426
 5758SOL     OW28732   2.646   4.376  14.181 -0.3087 -0.1974  0.2593
 5758SOL    HW128733   2.560   4.349  14.214 -1.5660  2.1854 -1.0247
 5758SOL    HW228734   2.700   4.299  14.196 -1.1844 -0.6032  1.3212
 5759SOL     OW28735   1.514   2.844   4.877 -0.6949 -0.2381 -0.4062
 5759SOL    HW128736   1.534   2.875   4.965 -1.0828 -0.2508 -0.3106
 5759SOL    HW228737   1.508   2.749   4.887  1.6325 -0.5798 -2.4758
 5760SOL     OW28738   3.010   3.420   4.192  0.4753 -0.5907 -0.1518
 5760SOL    HW128739   2.992   3.335   4.154  0.9485  0.6801 -3.1821
 5760SOL    HW228740   3.105   3.421   4.203  0.3253  1.5386  1.0662
 5761SOL     OW28741   2.754   1.585   2.675  0.0666  0.5759 -0.6332
 5761SOL    HW128742   2.797   1.500   2.663 -0.2861  0.5910 -2.0004
 5761SOL    HW228743   2.831   1.641   2.688  1.2066 -1.1397  0.0376
 5762SOL     OW28744   4.548   3.244   3.737 -0.2528  0.0364  0.0659
 5762SOL    HW128745   4.629   3.285   3.769 -0.2376  1.4507 -1.7194
 5762SOL    HW228746   4.484   3.314   3.723 -0.3859 -0.4585 -1.9143
 5763SOL     OW28747   3.825   4.324  16.195 -0.2109  0.0286  0.0039
 5763SOL    HW128748   3.804   4.238  16.233 -0.0143  0.0491  0.1544
 5763SOL    HW228749   3.889   4.306  16.126 -1.9148  2.4437 -2.2169
 5764SOL     OW28750   0.300   1.837   8.851  0.8669 -0.3831 -0.0609
 5764SOL    HW128751   0.332   1.780   8.922 -0.9219 -1.2593  0.0362
 5764SOL    HW228752   0.206   1.825   8.861  0.6018  1.4246 -0.4583
 5765SOL     OW28753   2.926   0.001   3.338  0.2939 -0.5740 -0.0926
 5765SOL    HW128754   2.867   4.662   3.295  1.3789 -1.5017 -0.2357
 5765SOL    HW228755   3.002   4.708   3.283  0.5592 -0.0526  0.1235
 5766SOL     OW28756   0.447   3.404   8.904  0.0756 -0.4964  0.0977
 5766SOL    HW128757   0.472   3.313   8.917  0.3505 -0.2674  1.1489
 5766SOL    HW228758   0.484   3.447   8.981 -0.0631  2.0046 -1.2185
 5767SOL     OW28759   4.507   2.644   9.404 -0.9639 -0.2678  0.0334
 5767SOL    HW128760   4.492   2.635   9.498  3.7595 -0.5475  0.7823
 5767SOL    HW228761   4.601   2.627   9.412 -0.5171  1.7815 -0.8327
 5768SOL     OW28762   0.809   1.342   7.549 -0.1222 -1.0924 -0.6061
 5768SOL    HW128763   0.889   1.392   7.536 -1.5138  1.1227 -0.6144
 5768SOL    HW228764   0.753   1.413   7.580  4.3998  1.9451  0.5144
 5769SOL     OW28765   0.988   4.118   2.080  0.4206 -0.1011 -0.0261
 5769SOL    HW128766   1.012   4.166   2.159 -0.1887  0.8799 -0.4476
 5769SOL    HW228767   0.904   4.082   2.111  1.2012 -1.8416  0.0956
 5770SOL     OW28768   0.551   4.020   5.099  0.7466 -0.2493 -0.0676
 5770SOL    HW128769   0.465   4.043   5.132  0.0702 -3.7533  0.5829
 5770SOL    HW228770   0.588   3.946   5.148 -0.2554 -0.7868 -0.1367
 5771SOL     OW28771   4.679   4.561   4.306 -0.1225  0.0975  0.8913
 5771SOL    HW128772   4.591   4.595   4.295 -0.7231 -1.2433  1.5244
 5771SOL    HW228773   4.659   4.487   4.363 -0.1198 -0.9466 -0.4811
 5772SOL     OW28774   2.732   1.834   9.129  0.2868  0.2666  0.0629
 5772SOL    HW128775   2.669   1.806   9.196  1.1586 -1.0962  0.3161
 5772SOL    HW228776   2.779   1.753   9.110  3.1844  1.2514  2.8936
 5773SOL     OW28777   0.487   1.854   6.402 -0.3634 -1.0074  0.4854
 5773SOL    HW128778   0.564   1.822   6.356 -1.0337 -0.5812 -0.9081
 5773SOL    HW228779   0.481   1.943   6.368 -1.5843 -1.5613 -0.7157
 5774SOL     OW28780   1.799   1.089  11.687 -0.0472 -0.8016  0.1615
 5774SOL    HW128781   1.803   1.074  11.781  0.5498  0.2116  0.2978
 5774SOL    HW228782   1.741   1.165  11.687 -0.8124 -1.3975 -1.1480
 5775SOL     OW28783   4.508   4.605   3.265  0.8110 -0.0164  0.2171
 5775SOL    HW128784   4.525   4.697   3.244 -0.9403  0.0535 -0.8777
 5775SOL    HW228785   4.506   4.567   3.177  1.0161  1.0858 -0.2573
 5776SOL     OW28786   3.404   1.314   8.029 -0.0994  0.4594 -0.4321
 5776SOL    HW128787   3.399   1.400   7.987 -2.2445  1.0513  1.0598
 5776SOL    HW228788   3.355   1.335   8.108  1.5459  1.4823  0.3265
 5777SOL     OW28789   3.677   3.498   7.664 -0.3861 -0.4941 -0.5271
 5777SOL    HW128790   3.602   3.460   7.618 -1.3988  0.1005  0.6407
 5777SOL    HW228791   3.633   3.553   7.729 -1.8305 -1.6686 -0.5137
 5778SOL     OW28792   0.120   4.582   2.488  0.6273 -0.1927  0.2615
 5778SOL    HW128793   0.076   4.563   2.405 -1.8295 -0.0791  1.5313
 5778SOL    HW228794   0.124   4.492   2.521 -3.8979 -0.5090 -0.1023
 5779SOL     OW28795   0.929   0.552   3.173 -0.3970 -0.2399 -0.1979
 5779SOL    HW128796   0.988   0.601   3.116  1.0576 -0.3742  1.1743
 5779SOL    HW228797   0.999   0.503   3.216 -0.7816 -0.3206  0.3383
 5780SOL     OW28798   2.459   1.368   6.746 -0.3004  0.1408 -0.3231
 5780SOL    HW128799   2.427   1.412   6.825 -1.4301 -0.1672 -0.6049
 5780SOL    HW228800   2.526   1.308   6.778 -0.6479 -0.1665 -0.1639
 5781SOL     OW28801   3.575   0.309   5.204 -0.1992  0.7508 -0.1775
 5781SOL    HW128802   3.544   0.374   5.267  1.0987  1.0595  0.1301
 5781SOL    HW228803   3.591   0.363   5.127  0.5775 -0.4540 -0.8607
 5782SOL     OW28804   0.554   1.739   4.417  0.3850 -0.2227  0.4386
 5782SOL    HW128805   0.546   1.645   4.400  0.9906  0.2514 -2.4327
 5782SOL    HW228806   0.649   1.749   4.412  0.2629  1.5256  1.6866
 5783SOL     OW28807   4.514   0.750   5.779 -0.5385  0.3026 -0.4870
 5783SOL    HW128808   4.453   0.775   5.709  0.5191  1.0833 -1.1279
 5783SOL    HW228809   4.581   0.816   5.798 -1.5356  1.2944 -0.3554
 5784SOL     OW28810   4.335   0.726   3.549  0.0659 -0.0648  1.0320
 5784SOL    HW128811   4.248   0.748   3.583 -0.5798 -0.1720 -0.5454
 5784SOL    HW228812   4.380   0.809   3.563  1.1903 -0.6381  0.8040
 5785SOL     OW28813   1.839   2.071   5.022  0.5511  0.2839 -0.3901
 5785SOL    HW128814   1.916   2.119   5.052 -1.7795  1.2011  4.2690
 5785SOL    HW228815   1.771   2.139   5.034  0.1994 -0.1622  0.1809
 5786SOL     OW28816   4.397   3.066  13.678  0.2406 -0.4581  0.2787
 5786SOL    HW128817   4.444   3.108  13.750  0.3353  0.6231 -0.4160
 5786SOL    HW228818   4.468   3.053  13.615  0.3380  1.4282  0.0225
 5787SOL     OW28819   3.157   3.076   3.508  0.1899 -0.1567 -0.3676
 5787SOL    HW128820   3.187   3.012   3.443  0.0136 -0.2420 -0.3655
 5787SOL    HW228821   3.081   3.108   3.460  0.0652 -0.6360 -0.4915
 5788SOL     OW28822   3.102   3.252   2.332  0.0993 -0.4779  0.3081
 5788SOL    HW128823   3.147   3.175   2.297 -1.2930 -1.9609  1.7569
 5788SOL    HW228824   3.171   3.316   2.315  1.4464 -1.8865  0.4140
 5789SOL     OW28825   0.613   4.640   4.259  0.2085 -0.5393  0.2755
 5789SOL    HW128826   0.704   4.664   4.244  0.7061 -1.0735  2.3989
 5789SOL    HW228827   0.589   4.635   4.167 -0.4129 -1.9920  0.5152
 5790SOL     OW28828   0.665   2.349  12.381  0.0959 -0.0331  0.0449
 5790SOL    HW128829   0.703   2.360  12.468 -0.4333 -0.1485  0.2961
 5790SOL    HW228830   0.743   2.302  12.351 -0.5398 -0.9566 -0.1840
 5791SOL     OW28831   4.158   4.276   9.643  0.1577  0.8816  0.2545
 5791SOL    HW128832   4.212   4.308   9.715  1.2146 -0.5358  0.0901
 5791SOL    HW228833   4.190   4.186   9.632 -1.0427  0.2931  1.6116
 5792SOL     OW28834   3.924   2.006   5.388  0.4635 -0.1799 -0.1073
 5792SOL    HW128835   3.983   1.966   5.451  0.4528 -0.8434 -0.5086
 5792SOL    HW228836   3.978   2.070   5.342 -0.7003 -0.1521 -1.4552
 5793SOL     OW28837   0.407   3.163   4.902 -0.0218  0.2382 -0.2907
 5793SOL    HW128838   0.314   3.161   4.884 -0.0435  1.0711 -0.2691
 5793SOL    HW228839   0.420   3.075   4.866  0.3979  0.5405 -0.8855
 5794SOL     OW28840   4.102   0.855   5.774 -0.0819  0.3168 -0.2279
 5794SOL    HW128841   4.120   0.801   5.851 -0.4745  0.4892 -0.0140
 5794SOL    HW228842   4.184   0.900   5.755 -0.1376  0.7418  0.5539
 5795SOL     OW28843   1.774   1.477  14.192 -0.1023  0.0421 -0.2841
 5795SOL    HW128844   1.861   1.501  14.224 -0.4299  2.3680 -1.0978
 5795SOL    HW228845   1.785   1.457  14.099  0.7652 -0.9921  0.0419
 5796SOL     OW28846   3.322   4.549   3.323  0.0023 -0.7136  0.0959
 5796SOL    HW128847   3.403   4.554   3.271  0.2084 -1.0852  0.3779
 5796SOL    HW228848   3.351   4.472   3.372 -2.1773 -1.7425 -0.2398
 5797SOL     OW28849   1.889   2.956   5.545  0.0067 -0.3594 -0.0150
 5797SOL    HW128850   1.916   2.894   5.478  2.3896 -1.2300  1.7668
 5797SOL    HW228851   1.932   2.925   5.624  0.9893  2.0919  0.4091
 5798SOL     OW28852   4.171   3.799   6.403 -0.4749  0.0106  0.2064
 5798SOL    HW128853   4.241   3.750   6.360  0.2283  0.3495  0.9734
 5798SOL    HW228854   4.115   3.818   6.328 -1.6148  1.1926  1.3658
 5799SOL     OW28855   4.331   3.270   5.930 -0.1984  0.6482  0.4457
 5799SOL    HW128856   4.313   3.280   6.024  2.5914 -3.5425  1.4126
 5799SOL    HW228857   4.249   3.307   5.896 -0.6431  0.9546  1.8621
 5800SOL     OW28858   2.021   3.646   2.588 -0.0414  0.3965  0.1513
 5800SOL    HW128859   2.114   3.667   2.580  0.1922 -0.9780 -0.7556
 5800SOL    HW228860   2.011   3.597   2.506 -0.0880 -2.7396  2.0327
 5801SOL     OW28861   0.039   1.649   4.824  0.0873 -0.5328 -0.3128
 5801SOL    HW128862   4.706   1.687   4.891  0.0990  1.0230 -1.1921
 5801SOL    HW228863   0.071   1.572   4.871 -0.9601 -0.1715  0.9774
 5802SOL     OW28864   3.370   4.427   4.208 -0.0969 -0.2228  0.5987
 5802SOL    HW128865   3.417   4.459   4.130 -1.7012  1.3327  0.2683
 5802SOL    HW228866   3.385   4.333   4.206  0.9075 -0.0497 -0.5056
 5803SOL     OW28867   0.937   4.309  15.135  0.0416  0.6876  0.1795
 5803SOL    HW128868   0.909   4.217  15.138  0.9359  0.3801 -1.0547
 5803SOL    HW228869   1.011   4.288  15.078  0.4590 -0.5315  1.1794
 5804SOL     OW28870   4.054   1.332   5.673  0.2250 -0.1720 -0.4124
 5804SOL    HW128871   4.065   1.416   5.629 -0.8639  0.6701  0.8956
 5804SOL    HW228872   4.147   1.314   5.681  0.5887  2.1375  0.6352
 5805SOL     OW28873   3.150   1.174   2.656 -0.1675 -0.2787 -0.3700
 5805SOL    HW128874   3.130   1.236   2.727  0.4671 -0.2265 -0.2387
 5805SOL    HW228875   3.091   1.209   2.590 -0.7395 -2.1285 -0.8424
 5806SOL     OW28876   0.005   0.769  13.070 -0.1879  0.2983  0.8851
 5806SOL    HW128877   4.692   0.735  13.151 -0.1660  0.6197  1.0299
 5806SOL    HW228878   0.095   0.782  13.101  0.0830  1.0309 -0.2057
 5807SOL     OW28879   1.216   3.043   5.002  0.6410 -0.3824  0.2787
 5807SOL    HW128880   1.288   3.104   4.988  1.4228 -1.2130  0.6624
 5807SOL    HW228881   1.195   3.074   5.090  0.1012 -0.1736  0.0692
 5808SOL     OW28882   0.675   0.937   7.369  0.3754 -0.3109 -0.4456
 5808SOL    HW128883   0.665   0.972   7.458 -1.0288 -3.3002  0.6043
 5808SOL    HW228884   0.595   0.888   7.348  0.4944  0.2938 -2.3087
 5809SOL     OW28885   1.777   2.641  17.345 -0.2842 -0.5134  0.0191
 5809SOL    HW128886   1.753   2.685  17.263  0.2738  1.7825  1.1181
 5809SOL    HW228887   1.839   2.709  17.372  0.8891 -1.7883  0.5255
 5810SOL     OW28888   2.765   2.596  17.532 -0.2400  0.2989  0.4971
 5810SOL    HW128889   2.738   2.573  17.621 -1.8643 -0.5767 -0.2017
 5810SOL    HW228890   2.835   2.658  17.548  1.4055 -1.7714  1.3041
 5811SOL     OW28891   4.050   3.982  13.866  0.1769 -0.2887  0.4791
 5811SOL    HW128892   4.053   3.887  13.877  1.6696 -0.6604 -3.1505
 5811SOL    HW228893   4.132   4.007  13.909 -0.1035  0.2629  0.6996
 5812SOL     OW28894   2.709   4.381   4.251  1.0737 -0.0479  0.0096
 5812SOL    HW128895   2.741   4.452   4.195 -0.4735  0.2047 -0.5676
 5812SOL    HW228896   2.792   4.346   4.282  0.5814  0.5279  1.9839
 5813SOL     OW28897   2.509   0.445   7.722  0.5533 -0.7812 -0.4721
 5813SOL    HW128898   2.442   0.483   7.665  2.7831  0.4261 -2.3326
 5813SOL    HW228899   2.488   0.354   7.701  1.3046 -1.1022  0.1372
 5814SOL     OW28900   1.938   0.781   9.379  0.4406  0.2509 -0.2050
 5814SOL    HW128901   2.025   0.754   9.406 -0.3681 -1.0874  1.0783
 5814SOL    HW228902   1.922   0.721   9.307 -1.3923  1.1337 -0.5294
 5815SOL     OW28903   2.298   0.870   2.988  0.0308 -0.3617  0.1282
 5815SOL    HW128904   2.352   0.889   3.065 -0.6810  2.5202 -0.1031
 5815SOL    HW228905   2.288   0.776   3.002 -0.3127 -0.1491  1.2690
 5816SOL     OW28906   0.450   3.341   3.828  0.1625  0.1962  0.0200
 5816SOL    HW128907   0.429   3.249   3.842  0.5278  0.2172  0.7042
 5816SOL    HW228908   0.546   3.338   3.830  0.2232  2.8973  1.5924
 5817SOL     OW28909   1.893   0.012   3.629 -0.0353 -0.6189  0.3518
 5817SOL    HW128910   1.930   4.705   3.713 -1.2408  0.1936  1.1615
 5817SOL    HW228911   1.917   0.104   3.628 -0.7302 -0.4404  0.2331
 5818SOL     OW28912   1.927   1.588   8.555 -0.3254 -0.3576  0.6822
 5818SOL    HW128913   1.999   1.640   8.591 -0.2507  0.4599 -0.6708
 5818SOL    HW228914   1.866   1.599   8.628 -0.6912 -3.1944  0.7738
 5819SOL     OW28915   0.229   3.602   6.548 -0.3721  0.0155 -0.3890
 5819SOL    HW128916   0.264   3.691   6.542 -2.9279  1.0501  0.1643
 5819SOL    HW228917   0.179   3.614   6.629 -0.3756 -2.3764 -0.0454
 5820SOL     OW28918   3.792   0.632   4.179 -0.1818 -0.3433 -0.1961
 5820SOL    HW128919   3.738   0.697   4.224 -0.7581 -2.4635  2.1801
 5820SOL    HW228920   3.854   0.615   4.250  0.2882  0.8592 -0.3226
 5821SOL     OW28921   2.694   3.874   0.209 -0.1742 -0.3376  0.0078
 5821SOL    HW128922   2.668   3.782   0.209  1.6907 -0.8759  1.1238
 5821SOL    HW228923   2.660   3.916   0.130 -0.1490  0.2517  0.3100
 5822SOL     OW28924   2.215   1.304   6.235  0.7115 -0.6031  0.3892
 5822SOL    HW128925   2.136   1.279   6.186  0.1039 -0.2995  1.2234
 5822SOL    HW228926   2.243   1.215   6.260 -2.9608 -0.7973  3.8091
 5823SOL     OW28927   4.467   2.360   9.817 -0.2559 -0.0614  0.2905
 5823SOL    HW128928   4.484   2.339   9.909  0.4783  0.3613  0.2569
 5823SOL    HW228929   4.409   2.288   9.795 -1.9340  0.9022  1.6014
 5824SOL     OW28930   4.193   1.996  10.102 -0.3821  0.3132  0.1537
 5824SOL    HW128931   4.129   2.034  10.162 -1.1005 -2.5088  1.1828
 5824SOL    HW228932   4.233   2.081  10.083  0.5786 -0.0002  0.7703
 5825SOL     OW28933   1.968   0.887   5.241 -0.0302 -0.0428 -0.5477
 5825SOL    HW128934   2.034   0.898   5.173 -0.6123 -1.3562 -1.3113
 5825SOL    HW228935   2.029   0.896   5.314  0.6192 -0.1326 -1.0865
 5826SOL     OW28936   0.569   2.542   4.642  0.2299 -0.1532 -0.3941
 5826SOL    HW128937   0.487   2.551   4.593 -1.1029 -1.7611  1.5474
 5826SOL    HW228938   0.627   2.594   4.586  2.1653 -1.7777  0.1138
 5827SOL     OW28939   4.647   2.278   1.258  0.8403  0.0938 -0.3407
 5827SOL    HW128940   4.644   2.367   1.223  1.2311 -0.3816 -1.5532
 5827SOL    HW228941   4.571   2.278   1.318  1.4223 -1.1891  0.4020
 5828SOL     OW28942   4.701   2.489   6.447  0.4801  0.7159  0.0454
 5828SOL    HW128943   0.001   2.546   6.374  0.3280 -1.6480 -1.8588
 5828SOL    HW228944   4.716   2.553   6.517  0.9161 -0.4469  1.0236
 5829SOL     OW28945   4.328   0.428   2.850  0.0351  0.5650 -0.3243
 5829SOL    HW128946   4.291   0.340   2.848 -0.2723  0.6783  0.5895
 5829SOL    HW228947   4.279   0.478   2.784 -2.2949  0.4002  1.2644
 5830SOL     OW28948   0.373   2.325   3.419  0.0186 -0.2767  0.0737
 5830SOL    HW128949   0.390   2.410   3.460  1.5787 -0.9077  0.7263
 5830SOL    HW228950   0.279   2.325   3.433  0.0474 -1.4359  0.2303
 5831SOL     OW28951   0.689   0.161   2.176  0.4116 -0.4466 -0.1221
 5831SOL    HW128952   0.782   0.182   2.169  0.2002  1.1322  1.8971
 5831SOL    HW228953   0.704   0.130   2.265 -0.8051 -1.0077 -0.1016
 5832SOL     OW28954   1.630   0.245   2.308 -0.4286  0.0987 -0.0888
 5832SOL    HW128955   1.662   0.170   2.258 -0.8294 -1.3718  1.8595
 5832SOL    HW228956   1.658   0.217   2.395 -1.8404 -2.2888 -0.4089
 5833SOL     OW28957   2.683   1.066  12.565  0.5374  0.1906  0.3956
 5833SOL    HW128958   2.759   1.124  12.578  1.8553 -1.1407 -1.3841
 5833SOL    HW228959   2.693   1.020  12.648  1.5066 -0.8688 -0.3177
 5834SOL     OW28960   3.896   0.919  16.335  0.0214 -0.0200  0.2268
 5834SOL    HW128961   3.853   0.854  16.390 -0.0721  1.7214  2.2303
 5834SOL    HW228962   3.816   0.965  16.308 -0.0594 -0.1006  0.3321
 5835SOL     OW28963   4.386   4.223   2.293  0.0471  0.2322  0.2232
 5835SOL    HW128964   4.428   4.137   2.303 -1.4481 -0.4074  1.0940
 5835SOL    HW228965   4.299   4.192   2.266  1.5735 -1.4377 -2.7796
 5836SOL     OW28966   1.459   3.908   8.304  0.1464  0.1902  0.9219
 5836SOL    HW128967   1.464   3.960   8.224  0.1888 -0.2784  0.6216
 5836SOL    HW228968   1.455   3.820   8.266  2.0792  1.1830 -1.5323
 5837SOL     OW28969   3.824   1.707  12.234  0.2227 -0.0826 -0.2411
 5837SOL    HW128970   3.800   1.615  12.229  0.0840 -0.0899  0.6560
 5837SOL    HW228971   3.740   1.753  12.229 -0.2468 -0.8645  0.6401
 5838SOL     OW28972   0.465   0.420   3.301 -0.3552  0.0987 -0.1044
 5838SOL    HW128973   0.540   0.459   3.255 -0.2980  1.3567  1.0395
 5838SOL    HW228974   0.416   0.501   3.315  1.2916  1.1494 -0.3953
 5839SOL     OW28975   1.838   4.406   6.179  0.7356 -0.7382  0.0308
 5839SOL    HW128976   1.841   4.355   6.260 -0.2154  0.3197  0.7266
 5839SOL    HW228977   1.917   4.461   6.176 -0.7815  1.2897 -2.7357
 5840SOL     OW28978   0.066   2.754   8.498 -0.1596  0.0593  0.3889
 5840SOL    HW128979   0.040   2.713   8.581  0.1235  1.8056  1.3582
 5840SOL    HW228980   0.082   2.669   8.459 -1.7817  0.6503 -1.5204
 5841SOL     OW28981   1.301   0.913   3.349  0.2276  0.4601  0.4573
 5841SOL    HW128982   1.219   0.895   3.394 -0.7956 -1.5469 -2.1661
 5841SOL    HW228983   1.283   1.005   3.328 -4.2529 -0.7365 -1.1104
 5842SOL     OW28984   2.545   4.191   4.380  0.6273  0.4312 -0.3832
 5842SOL    HW128985   2.618   4.132   4.362  1.3079  0.8740  0.8985
 5842SOL    HW228986   2.573   4.268   4.329  2.7786 -0.5808 -0.7222
 5843SOL     OW28987   4.681   2.223   9.436 -0.3250  0.3383  0.4135
 5843SOL    HW128988   0.039   2.175   9.448  0.6681  2.0015  0.4024
 5843SOL    HW228989   4.665   2.256   9.524 -2.2618 -0.2668  0.2803
 5844SOL     OW28990   0.296   1.518   0.119 -0.4114 -0.1591 -0.5025
 5844SOL    HW128991   0.203   1.527   0.142 -0.1190  1.2530  0.1333
 5844SOL    HW228992   0.338   1.592   0.161 -0.2803 -0.2942 -0.3951
 5845SOL     OW28993   1.347   4.695  16.751 -0.5757  0.2897  0.5859
 5845SOL    HW128994   1.405   0.048  16.749  0.2217 -0.3261  0.3969
 5845SOL    HW228995   1.338   4.674  16.658 -2.5889 -0.3856  0.9304
 5846SOL     OW28996   4.211   4.539   6.077 -0.2641 -0.1267 -0.4430
 5846SOL    HW128997   4.253   4.581   6.152  1.5201 -1.0885 -0.8981
 5846SOL    HW228998   4.274   4.565   6.010 -1.4957 -0.8850 -1.9017
 5847SOL     OW28999   4.117   2.704   2.051  0.3812 -0.0561  0.9031
 5847SOL    HW129000   4.119   2.630   1.989 -0.1996  1.1627 -0.5770
 5847SOL    HW229001   4.052   2.671   2.113  0.3754 -0.3961  0.7209
 5848SOL     OW29002   3.710   2.833   7.661  0.3277 -0.6198  0.1396
 5848SOL    HW129003   3.667   2.915   7.639 -0.9150 -0.4644  3.2750
 5848SOL    HW229004   3.673   2.783   7.587  1.2944 -0.2446 -0.6016
 5849SOL     OW29005   3.055   1.489   8.582 -0.4082 -0.2644  0.6601
 5849SOL    HW129006   3.003   1.409   8.585  2.0876 -1.9205  0.1843
 5849SOL    HW229007   3.134   1.459   8.627  1.4490  1.2921 -1.5496
 5850SOL     OW29008   4.254   4.022   8.991  0.3569  0.1184 -0.1908
 5850SOL    HW129009   4.271   3.943   9.042 -2.8393  0.4081  1.3265
 5850SOL    HW229010   4.341   4.049   8.964  0.9830 -1.9054 -0.1763
 5851SOL     OW29011   0.597   4.361   4.330 -0.2728  0.1417 -0.5006
 5851SOL    HW129012   0.524   4.349   4.269 -2.5580 -0.1858  2.2962
 5851SOL    HW229013   0.606   4.456   4.331  1.5798 -0.0432  0.6402
 5852SOL     OW29014   2.307   1.416   4.652  0.4062 -0.3594 -0.1899
 5852SOL    HW129015   2.267   1.485   4.599  0.2039 -0.5162 -0.2434
 5852SOL    HW229016   2.381   1.409   4.591  1.4128  0.2136  0.9569
 5853SOL     OW29017   4.493   1.067   5.982 -0.1241  0.5100 -0.0150
 5853SOL    HW129018   4.431   1.128   6.023  1.2723  0.7939  1.6700
 5853SOL    HW229019   4.566   1.128   5.970 -0.0228  0.4461  0.2806
 5854SOL     OW29020   2.059   4.693   7.324  0.4054 -0.0252  0.2757
 5854SOL    HW129021   2.063   4.719   7.232  0.2251 -1.6633 -0.1864
 5854SOL    HW229022   1.967   4.690   7.351 -0.0518 -0.1197 -1.3490
 5855SOL     OW29023   3.075   2.967   4.435 -0.0129  0.9310  0.8744
 5855SOL    HW129024   3.117   2.895   4.388 -1.8920 -1.1429  2.3703
 5855SOL    HW229025   3.150   2.998   4.486  0.3298  0.0148  0.9327
 5856SOL     OW29026   3.388   0.700   4.744 -0.0941  0.0422  0.5954
 5856SOL    HW129027   3.384   0.698   4.839  3.1538  0.0138  0.7204
 5856SOL    HW229028   3.367   0.792   4.727 -1.2810  0.1700  2.8398
 5857SOL     OW29029   1.699   0.292   4.447  0.1884  0.3262  0.0336
 5857SOL    HW129030   1.724   0.255   4.531  0.2703  0.0882 -0.0954
 5857SOL    HW229031   1.628   0.352   4.470  0.3793  0.2075  0.9322
 5858SOL     OW29032   4.190   3.228   7.562 -0.2228  0.2466  0.8747
 5858SOL    HW129033   4.203   3.301   7.623 -1.8320 -0.5436  2.1608
 5858SOL    HW229034   4.239   3.160   7.609 -2.2032 -1.8888 -0.1729
 5859SOL     OW29035   0.303   3.147   2.399  0.0947 -0.6570  0.4837
 5859SOL    HW129036   0.223   3.184   2.361 -0.4594 -2.7048 -0.3212
 5859SOL    HW229037   0.375   3.187   2.351  0.4272  0.9389  2.3064
 5860SOL     OW29038   0.469   0.192   6.706  0.3370  0.3119  0.1470
 5860SOL    HW129039   0.438   0.280   6.728 -3.1336 -1.1756  1.3152
 5860SOL    HW229040   0.508   0.176   6.792 -1.8915  1.8038  1.4274
 5861SOL     OW29041   0.602   0.626  12.351 -0.3231 -0.1267  0.1297
 5861SOL    HW129042   0.616   0.716  12.380  1.2987 -0.9238  1.7794
 5861SOL    HW229043   0.684   0.578  12.347  0.5972  1.1822  3.7912
 5862SOL     OW29044   2.973   4.330   3.049 -0.3829 -0.0611  0.0533
 5862SOL    HW129045   2.969   4.244   3.009  0.2941 -0.9535  1.8894
 5862SOL    HW229046   2.913   4.322   3.123 -0.6189  3.9738  0.3214
 5863SOL     OW29047   1.253   3.077  14.479 -0.3204 -0.0017  0.0110
 5863SOL    HW129048   1.185   3.145  14.478  1.0843  1.4007 -1.5250
 5863SOL    HW229049   1.329   3.126  14.448 -0.2653  1.1163  1.9549
 5864SOL     OW29050   4.393   1.368  13.329  0.0395  0.0002 -0.0384
 5864SOL    HW129051   4.409   1.337  13.240  2.4919 -2.0729  1.1355
 5864SOL    HW229052   4.325   1.435  13.324 -1.8003 -1.7841  0.8790
 5865SOL     OW29053   1.112   1.945   5.572 -0.2375 -0.5689  0.2487
 5865SOL    HW129054   1.092   1.936   5.479 -0.2534 -1.1888  0.3106
 5865SOL    HW229055   1.154   2.031   5.566 -0.3597 -0.3923  1.9346
 5866SOL     OW29056   4.430   2.946   5.706 -0.4826  0.6102 -0.4458
 5866SOL    HW129057   4.424   3.010   5.635 -1.7584  1.2588  0.2486
 5866SOL    HW229058   4.399   2.869   5.658  1.1996 -0.2781 -0.1257
 5867SOL     OW29059   0.825   0.530  10.905  0.5314  0.0546  0.8469
 5867SOL    HW129060   0.853   0.621  10.910  0.6775  0.0751 -0.2000
 5867SOL    HW229061   0.884   0.484  10.844  0.0042  0.3800  0.0915
 5868SOL     OW29062   0.190   3.097   5.277 -0.6072 -0.1365  0.1887
 5868SOL    HW129063   0.220   3.143   5.198  0.6165 -2.3043 -0.6079
 5868SOL    HW229064   0.130   3.163   5.312  0.2821  0.3257  0.8662
 5869SOL     OW29065   0.130   1.635   2.829 -0.2250  0.5938 -0.4196
 5869SOL    HW129066   0.150   1.728   2.844  3.2371 -0.7278  3.0089
 5869SOL    HW229067   0.072   1.642   2.753 -0.1425  1.3036 -0.4153
 5870SOL     OW29068   2.787   0.028   6.734  0.2817  0.0404 -0.5060
 5870SOL    HW129069   2.695   0.010   6.712 -0.0317  1.6983 -0.5304
 5870SOL    HW229070   2.789   0.108   6.683 -0.2567 -0.2081 -0.9260
 5871SOL     OW29071   1.749   2.038   1.543 -0.2687 -0.6192 -0.2164
 5871SOL    HW129072   1.699   1.982   1.485  2.6762 -1.2472 -2.1487
 5871SOL    HW229073   1.707   2.122   1.524  0.7328  0.0827  0.6147
 5872SOL     OW29074   3.177   2.080   4.764 -0.3136 -0.4612 -0.5737
 5872SOL    HW129075   3.184   2.175   4.772 -2.7327 -0.5044  2.2909
 5872SOL    HW229076   3.176   2.078   4.669 -0.3969 -2.7988 -0.5268
 5873SOL     OW29077   3.840   0.538   4.767 -0.0981  0.2358 -0.0410
 5873SOL    HW129078   3.763   0.576   4.724 -0.7098 -0.2386  0.6423
 5873SOL    HW229079   3.902   0.554   4.696  2.0824 -1.7352  1.4254
 5874SOL     OW29080   3.911   3.256  13.483 -0.2315  0.2298 -0.2221
 5874SOL    HW129081   3.991   3.297  13.451  0.7859 -0.8912  0.8885
 5874SOL    HW229082   3.929   3.162  13.480  2.2675  0.6843  0.2087
 5875SOL     OW29083   2.200   2.924   0.172  0.2569 -0.2494  0.5708
 5875SOL    HW129084   2.150   2.848   0.201  1.6542 -0.8102  1.4981
 5875SOL    HW229085   2.175   2.947   0.082  1.4721 -0.3761  0.2120
 5876SOL     OW29086   2.343   3.603   1.753 -0.2961 -0.0488  0.3646
 5876SOL    HW129087   2.341   3.517   1.795  0.6699  0.0425  0.6069
 5876SOL    HW229088   2.347   3.588   1.659  1.4352  0.2652  0.3788
 5877SOL     OW29089   4.499   3.755   8.104 -0.4990  0.2750  0.0389
 5877SOL    HW129090   4.513   3.682   8.164 -2.3557  1.4090  1.8428
 5877SOL    HW229091   4.535   3.827   8.156 -0.6967  2.1585 -2.4134
 5878SOL     OW29092   2.472   1.634   3.753 -0.3656 -0.6510 -0.0935
 5878SOL    HW129093   2.456   1.728   3.768  2.7109 -0.1665  0.0327
 5878SOL    HW229094   2.454   1.638   3.659  2.3098  1.0476 -0.5444
 5879SOL     OW29095   0.154   4.599   6.247  0.5913 -0.2357 -0.7437
 5879SOL    HW129096   0.247   4.612   6.232  0.6676 -1.1487 -1.0043
 5879SOL    HW229097   0.126   4.678   6.295 -0.8940 -1.2537  0.0811
 5880SOL     OW29098   4.182   1.255   0.506 -0.4592  0.2906  0.3706
 5880SOL    HW129099   4.266   1.261   0.460  0.0282 -0.3383  1.1783
 5880SOL    HW229100   4.115   1.257   0.437 -0.0187  1.4303 -0.0282
 5881SOL     OW29101   3.065   3.691  14.111 -0.2636  0.6019 -0.5655
 5881SOL    HW129102   3.161   3.688  14.107 -0.3086 -0.8668 -0.6410
 5881SOL    HW229103   3.054   3.620  14.174  1.1128  0.2319 -0.7349
 5882SOL     OW29104   2.035   3.536   8.011 -0.3316  0.1219 -0.0139
 5882SOL    HW129105   2.092   3.519   8.087  0.9798  1.7942 -0.6037
 5882SOL    HW229106   1.988   3.613   8.043 -0.8490  0.4971 -1.7007
 5883SOL     OW29107   4.634   2.872   7.801  0.6516  0.0422  0.6480
 5883SOL    HW129108   4.656   2.846   7.711  0.6114  0.7493  0.4402
 5883SOL    HW229109   4.692   2.947   7.811  2.6381 -1.3401 -0.3604
 5884SOL     OW29110   4.098   4.297   5.291  0.1741 -0.2454 -0.0065
 5884SOL    HW129111   4.146   4.239   5.232 -1.4249  1.5150 -3.0561
 5884SOL    HW229112   4.115   4.384   5.254 -0.5844 -0.0250  0.1511
 5885SOL     OW29113   2.509   3.445  13.573 -0.4101  0.5206  0.1478
 5885SOL    HW129114   2.464   3.522  13.539 -1.6583 -0.8920 -1.3886
 5885SOL    HW229115   2.446   3.376  13.550 -0.1315 -0.0016  0.9397
 5886SOL     OW29116   0.585   0.927  10.199  0.5795 -0.0951  0.3724
 5886SOL    HW129117   0.649   0.970  10.256  0.1221 -0.6241  1.2873
 5886SOL    HW229118   0.597   0.838  10.231 -0.8649 -0.4505 -0.0834
 5887SOL     OW29119   1.871   3.850   7.773 -0.5797 -0.1815 -0.0011
 5887SOL    HW129120   1.943   3.787   7.760  0.0413  1.1379 -2.8897
 5887SOL    HW229121   1.863   3.884   7.684 -3.7900 -2.5798 -0.6317
 5888SOL     OW29122   2.280   1.671   1.144  0.2332 -0.1714 -0.6998
 5888SOL    HW129123   2.226   1.684   1.222  1.3550 -0.9896  0.2213
 5888SOL    HW229124   2.298   1.577   1.153  1.9467  0.2204  0.0756
 5889SOL     OW29125   3.478   0.393  11.949 -0.2890  0.5426  0.2709
 5889SOL    HW129126   3.487   0.488  11.938 -0.5255  0.5632  0.2629
 5889SOL    HW229127   3.496   0.368  11.858  2.4738 -0.9148  1.2152
 5890SOL     OW29128   1.944   0.272   3.259  0.6870  0.0713  0.1212
 5890SOL    HW129129   1.974   0.186   3.288  0.5405  0.7739  2.3810
 5890SOL    HW229130   1.998   0.331   3.312  0.2317  1.8881 -1.4167
 5891SOL     OW29131   3.286   0.827   6.260  0.7334 -0.5242  0.9629
 5891SOL    HW129132   3.258   0.913   6.228  0.9439 -1.1454 -0.8695
 5891SOL    HW229133   3.376   0.845   6.288  0.3585  0.8834  1.2626
 5892SOL     OW29134   3.061   2.644   3.647  0.1867 -0.0514 -0.1569
 5892SOL    HW129135   2.981   2.647   3.594  0.8306 -1.8074 -1.2517
 5892SOL    HW229136   3.132   2.638   3.582 -1.5742 -2.1973 -1.8859
 5893SOL     OW29137   1.873   0.533  11.708 -0.1065 -0.4410  0.1355
 5893SOL    HW129138   1.921   0.454  11.682  0.0869  0.4082 -2.0934
 5893SOL    HW229139   1.891   0.584  11.629 -2.7832  2.3159  1.3435
 5894SOL     OW29140   1.269   3.974   8.883  0.0591 -0.4871 -0.5151
 5894SOL    HW129141   1.327   3.905   8.916 -0.3611  0.5152  2.3621
 5894SOL    HW229142   1.330   4.022   8.827 -0.1567  1.6725  1.0522
 5895SOL     OW29143   2.403   0.413   2.483 -0.2015  0.1119  0.5201
 5895SOL    HW129144   2.445   0.392   2.567  2.2324 -0.0547 -0.7389
 5895SOL    HW229145   2.336   0.344   2.484  0.8880 -0.9475  0.6976
 5896SOL     OW29146   0.381   2.211   7.283 -0.0330 -0.4684  0.1864
 5896SOL    HW129147   0.431   2.177   7.357  1.3525  0.8588 -0.1191
 5896SOL    HW229148   0.297   2.190   7.322  0.8673 -0.3930  2.1776
 5897SOL     OW29149   1.492   1.605   4.469  0.3893  0.3711  0.3450
 5897SOL    HW129150   1.564   1.544   4.486  0.5232  0.5850  0.5651
 5897SOL    HW229151   1.530   1.645   4.391  1.4943 -1.0015  0.1787
 5898SOL     OW29152   0.025   0.599   6.438 -0.5837 -0.1318  0.5627
 5898SOL    HW129153   0.012   0.624   6.346  1.5024  1.9647  0.8296
 5898SOL    HW229154   0.023   0.504   6.432  2.9438 -0.2602  1.5050
 5899SOL     OW29155   3.495   2.663   1.492  0.6645  0.2766 -0.4053
 5899SOL    HW129156   3.541   2.717   1.427  2.5728 -2.1608 -1.0934
 5899SOL    HW229157   3.406   2.693   1.474  0.2877 -0.9738 -0.5947
 5900SOL     OW29158   3.010   2.144   3.020  0.0911  0.0113  0.1804
 5900SOL    HW129159   2.939   2.198   2.986 -0.4483 -2.6522 -2.8892
 5900SOL    HW229160   2.982   2.156   3.111  0.3912  2.5237 -0.0525
 5901SOL     OW29161   3.796   4.457  12.741  0.7129 -1.3601 -0.7136
 5901SOL    HW129162   3.778   4.432  12.832  0.4514  0.3498 -0.2885
 5901SOL    HW229163   3.776   4.390  12.676 -2.6264 -0.8383 -0.2137
 5902SOL     OW29164   3.564   0.373   6.543 -0.4193 -0.1844 -0.1728
 5902SOL    HW129165   3.584   0.448   6.599  1.8183 -1.9187  1.3892
 5902SOL    HW229166   3.645   0.322   6.541  0.0073  0.4145  1.3965
 5903SOL     OW29167   1.791   3.621   3.045  0.1776  0.0522  1.0135
 5903SOL    HW129168   1.866   3.593   2.992 -0.7155 -1.8950  0.7832
 5903SOL    HW229169   1.811   3.581   3.129 -0.4000 -0.7866  0.7490
 5904SOL     OW29170   2.944   2.249   9.017  0.1483  0.3522  0.2450
 5904SOL    HW129171   2.947   2.160   9.052  3.4879  0.1800 -0.5185
 5904SOL    HW229172   3.035   2.277   9.015  0.9241 -2.3022 -0.5307
 5905SOL     OW29173   4.098   0.238  15.438  0.4292 -0.1357  0.3331
 5905SOL    HW129174   4.179   0.289  15.435  0.3373  0.1056  2.0219
 5905SOL    HW229175   4.035   0.308  15.420  1.4060  0.4192 -0.8724
 5906SOL     OW29176   2.429   1.848   7.696  0.0795  0.2297 -0.2725
 5906SOL    HW129177   2.425   1.754   7.714  0.7517 -0.1392 -2.0640
 5906SOL    HW229178   2.361   1.887   7.752  0.0829 -0.7494  0.4087
 5907SOL     OW29179   3.309   0.608  10.744 -0.1300  0.5124 -0.3292
 5907SOL    HW129180   3.363   0.683  10.770  1.1325  0.3564 -2.5393
 5907SOL    HW229181   3.233   0.636  10.796 -0.0177  0.3757 -0.0945
 5908SOL     OW29182   3.887   3.412   2.802  0.7234 -0.1165 -0.0950
 5908SOL    HW129183   3.845   3.486   2.759 -0.2892 -0.2963  0.5880
 5908SOL    HW229184   3.827   3.343   2.776 -0.5400 -0.0138  2.5491
 5909SOL     OW29185   3.386   4.294   5.425  0.2939  0.4705  0.1378
 5909SOL    HW129186   3.386   4.223   5.361  3.8659 -0.2255  0.9106
 5909SOL    HW229187   3.374   4.239   5.503  0.5506  1.3225  0.7790
 5910SOL     OW29188   2.056   2.828   8.301  0.1109  0.2159 -0.1901
 5910SOL    HW129189   2.148   2.811   8.323 -0.1786  0.8345  1.5238
 5910SOL    HW229190   2.017   2.750   8.340 -0.6329  0.3261 -0.7240
 5911SOL     OW29191   2.737   4.681   3.850 -0.4061 -0.4077 -0.0288
 5911SOL    HW129192   2.652   4.697   3.809  0.1454 -0.3925 -1.1686
 5911SOL    HW229193   2.792   4.719   3.781 -0.4066  1.8946  1.2527
 5912SOL     OW29194   4.719   1.260  10.830 -0.2122 -0.6736 -0.3814
 5912SOL    HW129195   0.027   1.253  10.920 -0.1106  1.0083 -0.2839
 5912SOL    HW229196   4.715   1.169  10.803  0.0329 -0.9560  0.5436
 5913SOL     OW29197   1.132   0.365  11.401 -0.2419 -0.7925 -0.4370
 5913SOL    HW129198   1.196   0.422  11.360  0.5701  0.2936  2.3511
 5913SOL    HW229199   1.054   0.411  11.370  0.0445  0.9488  1.4591
 5914SOL     OW29200   1.045   1.713   8.761  0.0677  0.7339  0.0012
 5914SOL    HW129201   0.988   1.638   8.779  0.3771  0.9823  1.9993
 5914SOL    HW229202   1.081   1.735   8.847 -2.4364  0.1512  1.1701
 5915SOL     OW29203   1.641   0.334   3.637 -0.3779  0.3737  0.7380
 5915SOL    HW129204   1.710   0.272   3.613 -2.6456 -1.7884 -0.1866
 5915SOL    HW229205   1.689   0.389   3.698  0.8170 -0.6330  0.6904
 5916SOL     OW29206   0.245   0.517   8.082 -0.2546  0.0891  0.0439
 5916SOL    HW129207   0.180   0.548   8.145  1.0231  1.7625  0.5463
 5916SOL    HW229208   0.240   0.421   8.087 -0.7358  0.3217  3.4282
 5917SOL     OW29209   1.274   2.406   2.015 -0.2580  0.1167  0.0518
 5917SOL    HW129210   1.367   2.389   2.031 -0.3860  0.6700  1.3231
 5917SOL    HW229211   1.282   2.493   1.973  0.9833 -0.5315 -1.0724
 5918SOL     OW29212   2.883   3.677   3.368 -0.9289 -0.6273  0.5110
 5918SOL    HW129213   2.958   3.634   3.408  0.6057  1.3659 -0.1902
 5918SOL    HW229214   2.884   3.761   3.414  0.3445 -0.1410 -0.3856
 5919SOL     OW29215   3.008   3.297   7.081  0.3108 -0.0837  0.0532
 5919SOL    HW129216   2.933   3.307   7.024 -0.3470  0.0058  0.9387
 5919SOL    HW229217   3.045   3.383   7.062 -0.5193  0.0375 -0.9788
 5920SOL     OW29218   4.512   1.709   3.767  0.0019  0.0944  0.3986
 5920SOL    HW129219   4.583   1.763   3.801  0.8852 -0.5438 -0.4210
 5920SOL    HW229220   4.438   1.737   3.821 -0.9335 -0.4324 -0.6159
 5921SOL     OW29221   2.244   0.059  11.229  0.3607 -0.2324  0.1636
 5921SOL    HW129222   2.205   0.126  11.172  1.1297 -0.5207 -0.7037
 5921SOL    HW229223   2.188   4.705  11.230  2.3434 -1.6421  1.4358
 5922SOL     OW29224   3.166   4.647   5.444 -0.1501  0.1267 -0.5941
 5922SOL    HW129225   3.219   4.645   5.523  0.6822 -3.6418 -1.2702
 5922SOL    HW229226   3.232   4.634   5.376  0.8101  2.7939 -0.1805
 5923SOL     OW29227   2.733   1.644  17.434  0.4132  0.1616 -0.1377
 5923SOL    HW129228   2.733   1.551  17.456  0.6649 -0.1447 -1.4613
 5923SOL    HW229229   2.776   1.642  17.349 -0.5923 -1.6933 -0.5985
 5924SOL     OW29230   1.842   3.627   2.147  0.0843 -0.4505 -0.1879
 5924SOL    HW129231   1.809   3.699   2.094  0.1771 -0.3342 -0.0891
 5924SOL    HW229232   1.927   3.666   2.169 -0.4370 -0.7939  2.4640
 5925SOL     OW29233   0.805   4.574  15.241 -0.3421 -0.0577 -0.0478
 5925SOL    HW129234   0.825   4.644  15.179  0.5331 -0.0949  0.1987
 5925SOL    HW229235   0.711   4.594  15.241 -0.2145  0.5144  0.9374
 5926SOL     OW29236   0.130   2.768   9.327 -0.0818  0.1153  0.2544
 5926SOL    HW129237   0.132   2.694   9.266 -2.8359  0.9758 -0.8984
 5926SOL    HW229238   0.087   2.710   9.390  3.4175 -1.2149  1.4151
 5927SOL     OW29239   4.703   0.375  11.619  0.2727 -0.5391 -0.1800
 5927SOL    HW129240   4.612   0.403  11.622  1.3192  2.8903  0.5329
 5927SOL    HW229241   0.009   0.388  11.528  0.1335  0.7135 -0.0431
 5928SOL     OW29242   3.314   2.807   5.511 -0.1655  0.1178 -0.1999
 5928SOL    HW129243   3.308   2.825   5.417 -1.1620  0.9202  0.0204
 5928SOL    HW229244   3.272   2.881   5.555 -1.6955 -0.2162 -1.0737
 5929SOL     OW29245   1.873   1.688   0.261 -0.0792 -0.7723 -0.1956
 5929SOL    HW129246   1.807   1.716   0.198  0.8068  0.2122 -0.6819
 5929SOL    HW229247   1.887   1.770   0.308 -1.2731 -1.9579  2.2293
 5930SOL     OW29248   1.684   1.965   0.498  0.1493  0.3949 -0.2040
 5930SOL    HW129249   1.748   2.026   0.461  1.0749 -0.6559 -0.3436
 5930SOL    HW229250   1.717   1.965   0.588 -3.0018 -1.0533  0.9342
 5931SOL     OW29251   3.327   0.404   8.028 -0.6109 -0.7166 -0.7618
 5931SOL    HW129252   3.412   0.361   8.037  0.0593  1.3467  2.3720
 5931SOL    HW229253   3.359   0.494   8.029  0.4458 -1.1258  0.7775
 5932SOL     OW29254   3.788   2.884   1.663 -0.2464  0.6408  0.4256
 5932SOL    HW129255   3.810   2.791   1.669 -2.5819  0.1286  0.9945
 5932SOL    HW229256   3.862   2.910   1.609 -1.3429  0.9711 -0.9195
 5933SOL     OW29257   1.446   3.011  15.002  0.6055 -0.4371 -0.2800
 5933SOL    HW129258   1.484   2.924  14.995 -1.9902 -1.7171  1.3065
 5933SOL    HW229259   1.410   3.022  14.914 -0.1670 -0.8529 -0.0171
 5934SOL     OW29260   0.762   2.651   6.598  0.0500 -0.7104 -0.0020
 5934SOL    HW129261   0.781   2.652   6.504  1.6947 -2.4336  0.3020
 5934SOL    HW229262   0.765   2.558   6.620  0.1166 -0.7903 -0.3383
 5935SOL     OW29263   2.611   1.426   5.819 -0.2510 -0.1567  0.4438
 5935SOL    HW129264   2.640   1.513   5.845 -1.5115  0.1296  0.9180
 5935SOL    HW229265   2.516   1.437   5.807 -0.3607 -0.9855  0.5925
 5936SOL     OW29266   3.164   0.147   5.020  0.3241  0.5579  0.1749
 5936SOL    HW129267   3.112   0.106   5.089  0.1493  2.8241  1.3837
 5936SOL    HW229268   3.213   0.212   5.069 -0.3113  0.7044  0.6064
 5937SOL     OW29269   0.764   1.174   8.701 -0.0627  0.7854 -0.0724
 5937SOL    HW129270   0.817   1.217   8.634 -0.2419  0.9661 -0.0993
 5937SOL    HW229271   0.829   1.111   8.731 -0.6563  1.0550  1.7562
 5938SOL     OW29272   3.884   2.031   2.194 -0.3047 -0.1709  0.0391
 5938SOL    HW129273   3.865   2.117   2.157  0.5106  0.1478  0.3786
 5938SOL    HW229274   3.831   1.978   2.134  0.7767 -0.1499 -0.9347
 5939SOL     OW29275   2.199   2.033  11.592  0.4178 -0.7295  0.1717
 5939SOL    HW129276   2.256   2.001  11.663  1.6969 -0.7981 -0.8836
 5939SOL    HW229277   2.270   2.053  11.531 -0.9082  0.7203 -0.8702
 5940SOL     OW29278   1.648   0.976  11.380 -0.1834 -0.0788  0.3805
 5940SOL    HW129279   1.665   0.939  11.467  0.1955  0.0047  0.3400
 5940SOL    HW229280   1.728   1.025  11.366  0.9402 -1.9155  0.2971
 5941SOL     OW29281   3.766   2.957   2.228  0.0918  0.0552  0.5262
 5941SOL    HW129282   3.831   2.894   2.258 -1.0794 -0.7515  1.3486
 5941SOL    HW229283   3.694   2.944   2.289 -1.7044  0.4930 -1.4810
 5942SOL     OW29284   1.820   1.374   2.318  0.0091  0.0408 -0.0508
 5942SOL    HW129285   1.779   1.296   2.280  2.6736 -0.9068 -0.9894
 5942SOL    HW229286   1.759   1.397   2.388  3.2399  1.0680  2.4065
 5943SOL     OW29287   2.845   4.694   8.195  0.0557  0.1247 -0.7328
 5943SOL    HW129288   2.838   4.700   8.290  1.2164  0.0216 -0.6383
 5943SOL    HW229289   2.811   4.608   8.172 -1.7452  0.6317  0.0163
 5944SOL     OW29290   0.170   4.352   3.091  0.0357  0.1733 -0.1074
 5944SOL    HW129291   0.263   4.330   3.090  0.2093  0.8315  1.6943
 5944SOL    HW229292   0.180   4.446   3.107 -0.0814  0.4102 -1.3769
 5945SOL     OW29293   0.622   2.484   9.335  0.1360 -0.7225 -0.2436
 5945SOL    HW129294   0.694   2.542   9.361 -1.0487  0.4050  0.4943
 5945SOL    HW229295   0.596   2.437   9.414  0.2999 -1.2588 -0.5098
 5946SOL     OW29296   1.569   2.457   1.320  0.6828  0.0159  0.3018
 5946SOL    HW129297   1.595   2.496   1.404  0.4484  0.5903  0.1103
 5946SOL    HW229298   1.495   2.512   1.294  0.9944  0.1999 -0.1982
 5947SOL     OW29299   2.203   2.981  14.933 -0.4902  0.8836  0.4917
 5947SOL    HW129300   2.241   3.056  14.888 -4.4920  3.0766  0.7253
 5947SOL    HW229301   2.109   3.002  14.937 -0.3722  0.9355  3.3139
 5948SOL     OW29302   1.139   1.603  15.839 -0.1560  0.6294  0.6869
 5948SOL    HW129303   1.109   1.693  15.827  0.0883  0.5852 -0.2114
 5948SOL    HW229304   1.103   1.565  15.759  0.1807  1.9803 -0.0952
 5949SOL     OW29305   2.188   0.575   6.019  0.0016 -0.0963  0.2849
 5949SOL    HW129306   2.217   0.521   6.094 -0.7997 -1.2073 -0.2004
 5949SOL    HW229307   2.114   0.521   5.991  0.8009 -2.0515  1.9198
 5950SOL     OW29308   2.039   1.198   6.054 -0.7379 -0.1554  0.2856
 5950SOL    HW129309   2.049   1.103   6.048  2.0281 -0.0528  2.9843
 5950SOL    HW229310   1.949   1.206   6.087 -1.1308  0.1896 -0.8877
 5951SOL     OW29311   0.331   3.723  14.791 -0.5783 -0.1499  0.5941
 5951SOL    HW129312   0.394   3.653  14.774  0.2748 -0.0024  3.0675
 5951SOL    HW229313   0.393   3.783  14.833  0.5421 -0.0531 -1.1781
 5952SOL     OW29314   0.279   0.954  10.542  0.3792  0.3640  0.2658
 5952SOL    HW129315   0.217   0.882  10.540 -2.7915  3.0858 -0.6210
 5952SOL    HW229316   0.365   0.914  10.529 -0.4156 -1.1063 -0.4350
 5953SOL     OW29317   2.979   1.613   4.470  0.2904 -0.1524  0.2207
 5953SOL    HW129318   2.974   1.690   4.527  1.5641  0.8969 -1.0707
 5953SOL    HW229319   3.075   1.611   4.468  0.2179 -2.1662 -0.8464
 5954SOL     OW29320   4.718   2.195   8.500  0.0441 -0.2319  0.1324
 5954SOL    HW129321   4.624   2.208   8.496  0.1154  0.3350  0.2113
 5954SOL    HW229322   0.003   2.157   8.413 -1.5934 -0.0623 -0.0863
 5955SOL     OW29323   0.163   1.954  12.612  0.1849  0.6027 -0.0849
 5955SOL    HW129324   0.101   1.883  12.592 -0.3697  0.9133  0.5634
 5955SOL    HW229325   0.210   1.956  12.528  0.4151 -0.9229  0.0030
 5956SOL     OW29326   2.426   0.467   5.534  0.1204 -0.2154  0.3917
 5956SOL    HW129327   2.442   0.540   5.474 -0.8107  1.4507  2.1562
 5956SOL    HW229328   2.496   0.489   5.595 -0.0227  2.6538 -0.4623
 5957SOL     OW29329   3.229   0.332  11.993  0.2625 -0.1406  0.1933
 5957SOL    HW129330   3.316   0.351  11.961  0.0771  1.1832  0.4992
 5957SOL    HW229331   3.197   0.421  12.005 -1.8088 -0.6975 -1.2077
 5958SOL     OW29332   0.004   3.365   5.938  0.8603 -0.1934  0.5164
 5958SOL    HW129333   4.658   3.307   5.905 -0.8992  2.4243 -0.4294
 5958SOL    HW229334   0.000   3.361   6.034  0.8972 -2.4099  0.4135
 5959SOL     OW29335   1.122   0.080   1.390 -0.2087 -0.0923  0.4961
 5959SOL    HW129336   1.111   0.169   1.426  1.3951 -0.0300  0.8102
 5959SOL    HW229337   1.036   0.039   1.395 -0.5442  0.2561 -2.5636
 5960SOL     OW29338   1.401   1.461   6.738  0.3063 -0.4627 -0.2750
 5960SOL    HW129339   1.392   1.508   6.655 -2.7754  1.8036  1.3596
 5960SOL    HW229340   1.412   1.529   6.806 -1.4792  0.9322 -1.3841
 5961SOL     OW29341   0.197   3.276   9.486  0.6834 -0.6582  0.5023
 5961SOL    HW129342   0.227   3.239   9.569 -1.6314  2.2797  2.6626
 5961SOL    HW229343   0.175   3.194   9.442  3.9217 -1.4117  0.3188
 5962SOL     OW29344   0.110   1.820   1.879 -0.4076 -0.1599  0.1709
 5962SOL    HW129345   0.180   1.780   1.827 -0.1102  0.3484  0.1839
 5962SOL    HW229346   0.126   1.799   1.971  2.4896 -0.9572 -0.4880
 5963SOL     OW29347   3.919   4.089   3.223  0.9121  0.0112  0.2953
 5963SOL    HW129348   3.978   4.082   3.298  0.7552  0.3884  0.4515
 5963SOL    HW229349   3.948   4.008   3.180 -0.2294  0.7623 -1.9185
 5964SOL     OW29350   3.280   4.461   2.734 -0.4077  0.0389  0.1758
 5964SOL    HW129351   3.283   4.460   2.638  0.7668 -0.4157  0.2269
 5964SOL    HW229352   3.344   4.394   2.756  0.1614  0.0788 -1.3736
 5965SOL     OW29353   3.179   1.296   6.921 -0.0623  0.3976  0.6237
 5965SOL    HW129354   3.162   1.247   6.841 -0.5450  0.7485  0.5084
 5965SOL    HW229355   3.098   1.347   6.929  0.1942  0.8986 -0.0463
 5966SOL     OW29356   4.159   2.090   2.810  0.0384 -0.2936  0.4774
 5966SOL    HW129357   4.188   2.103   2.720 -0.9954  1.3236  0.3742
 5966SOL    HW229358   4.077   2.140   2.806  0.3651  0.2547  0.7249
 5967SOL     OW29359   2.920   0.260  17.461  0.2593  0.1445 -0.0800
 5967SOL    HW129360   2.828   0.243  17.440  0.1337  0.9278 -0.1473
 5967SOL    HW229361   2.923   0.354  17.440  2.7103  0.1314  0.1566
 5968SOL     OW29362   4.555   1.148   2.427  0.2965 -0.3174 -0.1459
 5968SOL    HW129363   4.518   1.129   2.341 -2.3472  2.2005  0.4291
 5968SOL    HW229364   4.490   1.212   2.455 -1.9515 -2.3866 -0.6160
 5969SOL     OW29365   1.514   3.553   3.731 -0.7549  0.1483  0.7349
 5969SOL    HW129366   1.497   3.580   3.641  2.3942  0.8706  0.3776
 5969SOL    HW229367   1.603   3.522   3.721  0.1523  2.3068  2.1141
 5970SOL     OW29368   4.246   3.649   5.188 -0.5067  0.4970  0.1231
 5970SOL    HW129369   4.253   3.706   5.265 -0.6343  2.4057 -1.2882
 5970SOL    HW229370   4.337   3.625   5.168 -0.8751 -1.2507  0.5421
 5971SOL     OW29371   3.277   3.161   4.814  0.0529  0.1769 -0.2305
 5971SOL    HW129372   3.259   3.123   4.728  0.7254 -0.3386 -0.1469
 5971SOL    HW229373   3.191   3.163   4.856 -1.4630 -0.3881 -3.3707
 5972SOL     OW29374   1.695   2.684   9.838  0.3544 -0.2011  0.6135
 5972SOL    HW129375   1.640   2.762   9.828  1.9404  0.8634  0.3439
 5972SOL    HW229376   1.629   2.614   9.847 -0.7865  0.8963  0.7937
 5973SOL     OW29377   0.116   0.139   5.123  0.9088 -0.0993  0.8381
 5973SOL    HW129378   0.073   0.172   5.044 -1.0306  1.8395  2.6669
 5973SOL    HW229379   0.200   0.133   5.078 -0.4403  0.1709 -1.6909
 5974SOL     OW29380   1.542   2.806   1.131 -0.2542 -0.4942  0.0844
 5974SOL    HW129381   1.634   2.807   1.157 -0.6374 -1.7192  1.4371
 5974SOL    HW229382   1.522   2.897   1.151  0.1773 -0.4768  0.4522
 5975SOL     OW29383   0.815   0.214   6.543  0.1488  0.1844  0.3679
 5975SOL    HW129384   0.837   0.167   6.624  1.3746  0.3122  0.1074
 5975SOL    HW229385   0.856   0.159   6.476  0.1331  1.9220 -1.0468
 5976SOL     OW29386   1.566   0.659   7.086 -0.0917 -0.3562  0.5629
 5976SOL    HW129387   1.617   0.578   7.078  0.6722  0.0952  0.8390
 5976SOL    HW229388   1.542   0.666   7.178  2.7023  3.3356  1.0297
 5977SOL     OW29389   1.435   0.673   8.189  0.1006  0.0042  0.1084
 5977SOL    HW129390   1.468   0.710   8.271 -2.8898  1.4537  0.6284
 5977SOL    HW229391   1.387   0.595   8.215  2.1798 -1.3375 -0.0981
 5978SOL     OW29392   0.111   2.081   7.355 -0.2143  0.4438  0.0378
 5978SOL    HW129393   0.100   2.059   7.448  0.2074  4.2528  0.9784
 5978SOL    HW229394   0.027   2.115   7.327 -0.6682  0.7237  1.7367
 5979SOL     OW29395   3.249   3.988   2.143  0.1653 -0.6461 -0.2117
 5979SOL    HW129396   3.323   4.002   2.084  1.6302  1.2097  2.0638
 5979SOL    HW229397   3.180   4.041   2.103  1.4256  1.8528  0.9057
 5980SOL     OW29398   3.545   4.109   9.510 -0.7103  0.2423 -0.2502
 5980SOL    HW129399   3.636   4.094   9.483 -0.2944 -1.7042  2.2066
 5980SOL    HW229400   3.524   4.035   9.567 -3.0177  0.4926 -0.7801
 5981SOL     OW29401   2.437   4.076   3.111 -0.2030 -0.1541  0.4508
 5981SOL    HW129402   2.490   4.086   3.189  0.5358 -2.6521  0.2554
 5981SOL    HW229403   2.372   4.009   3.136 -1.5762  2.4701  3.8830
 5982SOL     OW29404   0.255   1.658   2.118 -0.6268 -0.3406 -0.4331
 5982SOL    HW129405   0.319   1.711   2.070 -1.7943  2.6444  1.2628
 5982SOL    HW229406   0.262   1.706   2.201 -0.1488  0.9814 -1.2355
 5983SOL     OW29407   0.044   0.604  12.439  0.7410 -0.8616 -0.4439
 5983SOL    HW129408   0.121   0.574  12.391  0.0471 -0.1536 -2.0142
 5983SOL    HW229409   0.051   0.699  12.435 -0.6203 -0.6462  2.2503
 5984SOL     OW29410   3.392   3.818   6.242  0.4008  0.0042 -0.1296
 5984SOL    HW129411   3.372   3.911   6.242  0.4083  0.0056 -0.3402
 5984SOL    HW229412   3.396   3.790   6.333  0.0169 -1.2781 -0.5075
 5985SOL     OW29413   3.277   4.110   9.791 -0.1835  0.4190  0.8801
 5985SOL    HW129414   3.293   4.021   9.823  0.8078 -0.0913 -0.9989
 5985SOL    HW229415   3.266   4.104   9.696 -0.5514  0.3577  0.9302
 5986SOL     OW29416   3.331   0.646   3.980  0.4817 -0.5535 -0.2623
 5986SOL    HW129417   3.363   0.589   4.050  0.5912  0.3447  0.4309
 5986SOL    HW229418   3.286   0.717   4.026  2.1306  1.3497 -1.5889
 5987SOL     OW29419   4.589   3.705   4.970  0.2937 -0.5162  0.2270
 5987SOL    HW129420   4.675   3.745   4.959 -0.5607  0.8702 -1.5417
 5987SOL    HW229421   4.577   3.668   4.883 -1.0916 -0.0976  0.2333
 5988SOL     OW29422   0.679   0.627   0.756 -0.3193  0.3664  0.0250
 5988SOL    HW129423   0.714   0.672   0.679 -1.3441  0.6612 -0.2569
 5988SOL    HW229424   0.754   0.617   0.815  0.0912  0.5027 -0.4736
 5989SOL     OW29425   1.033   2.706   7.716  0.1794  0.1699 -0.0092
 5989SOL    HW129426   1.038   2.622   7.760 -1.5914 -0.2086 -0.5108
 5989SOL    HW229427   0.939   2.706   7.697  0.0182 -2.7413  0.8343
 5990SOL     OW29428   2.226   0.367   3.715  0.2325 -0.2199  0.0785
 5990SOL    HW129429   2.320   0.353   3.708  0.4706  1.2077  0.4395
 5990SOL    HW229430   2.207   0.400   3.802 -0.3723 -1.2783  0.3605
 5991SOL     OW29431   1.390   1.260   8.206 -0.3365 -0.0842 -0.5645
 5991SOL    HW129432   1.356   1.241   8.119  0.0773 -3.1450 -0.0398
 5991SOL    HW229433   1.465   1.201   8.212  0.2963  0.7396 -0.2215
 5992SOL     OW29434   2.131   1.348   4.305 -0.1033 -0.6565  0.4461
 5992SOL    HW129435   2.128   1.254   4.287  0.5707 -0.5201 -0.3434
 5992SOL    HW229436   2.200   1.374   4.245  0.6271  0.7102  1.8606
 5993SOL     OW29437   1.846   3.676   7.499  0.1818  0.1567  0.3561
 5993SOL    HW129438   1.849   3.590   7.457  1.9489  0.0135  0.7763
 5993SOL    HW229439   1.758   3.661   7.533  0.1614 -1.3041 -0.3354
 5994SOL     OW29440   4.180   0.858  10.507  0.2922 -0.0920  0.1498
 5994SOL    HW129441   4.263   0.813  10.490  0.6676 -0.0697  1.8859
 5994SOL    HW229442   4.145   0.876  10.420 -0.8383 -1.0656  0.4127
 5995SOL     OW29443   0.144   0.026   4.745  0.2083  0.5769  0.0289
 5995SOL    HW129444   0.185   0.007   4.661 -1.6068  1.3878 -1.0304
 5995SOL    HW229445   0.054   0.031   4.714  0.1684 -1.9908 -0.2476
 5996SOL     OW29446   2.741   3.116   9.448  0.4135 -0.2701 -0.8336
 5996SOL    HW129447   2.813   3.159   9.401 -0.1654  0.4402 -1.0680
 5996SOL    HW229448   2.690   3.190   9.480  0.7661  0.1692 -1.2838
 5997SOL     OW29449   0.784   3.710   6.842 -0.0415  0.0812  0.3353
 5997SOL    HW129450   0.860   3.769   6.835  1.4110 -1.9661 -1.1023
 5997SOL    HW229451   0.777   3.707   6.938 -2.2173 -0.3169  0.1537
 5998SOL     OW29452   4.248   1.926   1.858 -0.4120  0.3199 -0.0201
 5998SOL    HW129453   4.322   1.923   1.919 -0.6391  0.3622  0.2546
 5998SOL    HW229454   4.201   1.858   1.906 -1.4921  1.5635  0.6973
 5999SOL     OW29455   4.608   0.492   8.493  0.1822  0.4749  0.1915
 5999SOL    HW129456   4.533   0.437   8.468  0.9084 -1.0308  1.2543
 5999SOL    HW229457   4.671   0.422   8.477  0.4667  0.2002  2.4533
 6000SOL     OW29458   0.013   2.738  10.132 -0.4875 -0.4226  0.1194
 6000SOL    HW129459   0.064   2.671  10.177  2.7423  2.2210  0.3755
 6000SOL    HW229460   0.009   2.808  10.196 -1.5971 -1.7796  1.5450
 6001SOL     OW29461   3.338   0.435  14.929 -0.0253  0.3593  0.3412
 6001SOL    HW129462   3.356   0.341  14.923 -0.7206  0.2400  0.1201
 6001SOL    HW229463   3.260   0.439  14.874 -0.2143 -1.5009  0.4698
 6002SOL     OW29464   0.091   1.348  16.236  0.2967 -0.4672  0.6091
 6002SOL    HW129465   0.018   1.323  16.180  0.3623  0.9319 -0.1119
 6002SOL    HW229466   0.057   1.434  16.259 -0.1348 -0.2524 -0.8286
 6003SOL     OW29467   2.048   3.641  12.279 -0.3651 -0.3573 -0.5144
 6003SOL    HW129468   2.094   3.581  12.220 -0.5020 -0.9464 -0.0234
 6003SOL    HW229469   1.963   3.598  12.275 -0.1258 -0.9384  0.5225
 6004SOL     OW29470   3.673   3.033   9.900 -0.0171  0.1596  0.1952
 6004SOL    HW129471   3.679   3.128   9.893 -0.2019  0.0556 -1.3482
 6004SOL    HW229472   3.727   3.005   9.825 -1.4953  2.5669 -1.7742
 6005SOL     OW29473   0.868   3.282  15.265 -0.1043 -0.1618 -0.3457
 6005SOL    HW129474   0.905   3.260  15.350  0.1031 -1.5021 -0.7772
 6005SOL    HW229475   0.940   3.256  15.207 -0.0642  0.7415 -0.7069
 6006SOL     OW29476   4.451   3.667   4.457 -0.3404 -0.0025 -0.2281
 6006SOL    HW129477   4.502   3.748   4.453  0.9994 -0.8315  0.2689
 6006SOL    HW229478   4.360   3.691   4.437  0.7169  2.4531 -2.1179
 6007SOL     OW29479   0.327   1.447   1.944  0.2761 -0.5002 -0.2764
 6007SOL    HW129480   0.271   1.507   1.993  1.4559  0.0367  0.3919
 6007SOL    HW229481   0.401   1.501   1.917  1.8480 -2.9024 -0.8434
 6008SOL     OW29482   1.328   3.073  15.652  0.9784 -0.2777 -0.1196
 6008SOL    HW129483   1.296   2.983  15.650  0.2695 -0.0378  0.4691
 6008SOL    HW229484   1.262   3.109  15.712  0.8815  0.4286 -0.6415
 6009SOL     OW29485   0.968   0.806   8.443 -0.0313  0.8214  0.1285
 6009SOL    HW129486   0.890   0.845   8.483 -0.6524  1.5756 -1.8385
 6009SOL    HW229487   1.000   0.875   8.385  2.4057 -1.2851 -1.0089
 6010SOL     OW29488   0.992   2.865  14.555 -0.1456  0.4088 -0.0710
 6010SOL    HW129489   1.009   2.958  14.574  2.1052 -0.0274  0.0496
 6010SOL    HW229490   1.016   2.817  14.634 -1.4264  1.1993  0.8022
 6011SOL     OW29491   1.511   4.029   1.270 -0.2214  0.4170 -0.5929
 6011SOL    HW129492   1.565   4.026   1.191  0.2969 -0.4326 -0.2102
 6011SOL    HW229493   1.558   4.099   1.315  1.3646  0.3635 -2.1984
 6012SOL     OW29494   0.515   0.546   5.953  0.0399  0.0069 -0.7946
 6012SOL    HW129495   0.549   0.630   5.920 -0.0475 -0.0229 -0.9591
 6012SOL    HW229496   0.542   0.564   6.043  1.7665 -2.6736 -0.7754
 6013SOL     OW29497   2.397   4.705   5.675 -0.1968 -0.1375  0.3634
 6013SOL    HW129498   2.418   0.070   5.708 -3.9051  0.4619  1.2423
 6013SOL    HW229499   2.422   4.705   5.583  0.8991  0.8958  0.6598
 6014SOL     OW29500   0.106   3.164   7.323 -0.6783 -0.3314  0.1795
 6014SOL    HW129501   0.149   3.080   7.308  0.5290  0.4192 -0.5468
 6014SOL    HW229502   0.019   3.130   7.345 -0.9715 -0.2361 -0.8663
 6015SOL     OW29503   3.546   0.098   3.333  0.5147  0.1884 -0.0068
 6015SOL    HW129504   3.512   0.028   3.390  0.2481 -1.4761 -2.2159
 6015SOL    HW229505   3.636   0.110   3.365  0.0500 -3.1542  2.5872
 6016SOL     OW29506   2.757   0.668  13.184  0.2201 -0.0732 -0.0101
 6016SOL    HW129507   2.764   0.701  13.274  0.4653 -1.4682  0.4896
 6016SOL    HW229508   2.711   0.586  13.200  2.4703 -1.2224  0.5806
 6017SOL     OW29509   4.333   2.305   7.107  0.1506  0.0202  0.5405
 6017SOL    HW129510   4.318   2.252   7.184  0.1857  0.3786  0.7951
 6017SOL    HW229511   4.300   2.249   7.037 -0.1594  1.2878 -0.3487
 6018SOL     OW29512   1.607   3.601   7.630  0.0007 -0.0347  0.0184
 6018SOL    HW129513   1.571   3.517   7.601  0.5470  0.2111 -1.3712
 6018SOL    HW229514   1.532   3.638   7.676  0.3668  1.7987 -0.8391
 6019SOL     OW29515   1.308   1.832   8.911 -0.4876  0.4068  1.2932
 6019SOL    HW129516   1.234   1.863   8.963 -0.3905  0.1134  1.6134
 6019SOL    HW229517   1.319   1.906   8.851  0.5722  0.1818  1.2139
 6020SOL     OW29518   2.934   0.533  12.683  0.0571  0.1154 -0.1619
 6020SOL    HW129519   2.972   0.496  12.603 -0.1928  1.2302 -0.8027
 6020SOL    HW229520   2.916   0.625  12.660  1.7892  0.3547 -0.5389
 6021SOL     OW29521   2.801   0.595   8.112 -0.1309 -0.4205  0.5490
 6021SOL    HW129522   2.741   0.670   8.117 -0.4032 -0.5763 -0.3868
 6021SOL    HW229523   2.737   0.524   8.111 -0.3561 -0.2152 -1.3205
 6022SOL     OW29524   4.399   0.283   9.235 -0.2516  0.1277 -0.0002
 6022SOL    HW129525   4.458   0.357   9.221  0.8923 -0.1352  3.5352
 6022SOL    HW229526   4.443   0.249   9.313  0.2077 -0.1442 -0.3702
 6023SOL     OW29527   4.546   3.557   4.142  0.3317  0.4124  0.1547
 6023SOL    HW129528   4.517   3.646   4.123  2.3225  0.9674 -0.2764
 6023SOL    HW229529   4.552   3.561   4.237  0.3743 -0.5108  0.1847
 6024SOL     OW29530   2.805   4.221   5.706 -0.6383 -0.0652 -0.6638
 6024SOL    HW129531   2.831   4.182   5.790  1.3074 -0.1772 -1.3233
 6024SOL    HW229532   2.730   4.274   5.734  0.2494  1.0520 -0.4370
 6025SOL     OW29533   2.069   0.789   4.310 -0.3338 -0.0770  0.5929
 6025SOL    HW129534   2.102   0.781   4.399  0.7228 -2.4442 -0.0277
 6025SOL    HW229535   2.050   0.882   4.300 -1.3549 -0.4084 -0.5787
 6026SOL     OW29536   4.382   2.912   1.132 -0.3843  0.3922 -0.0641
 6026SOL    HW129537   4.412   2.919   1.223  3.2473  2.6786 -1.4587
 6026SOL    HW229538   4.391   2.999   1.093  0.7579  1.4433  2.4874
 6027SOL     OW29539   0.875   0.797  10.816  0.0332 -0.0584 -0.1961
 6027SOL    HW129540   0.890   0.789  10.722 -0.0507  0.6092 -0.2614
 6027SOL    HW229541   0.878   0.889  10.840  0.4949 -0.2989  0.6843
 6028SOL     OW29542   0.142   0.117   6.419  0.0376  0.1406  0.1112
 6028SOL    HW129543   0.235   0.140   6.420  0.1017 -0.1234  0.2308
 6028SOL    HW229544   0.138   0.062   6.498  1.4781  0.5630  0.4804
 6029SOL     OW29545   1.148   1.550   6.438 -0.2087  0.0891  0.6627
 6029SOL    HW129546   1.214   1.495   6.394 -0.3336  0.2747  0.2440
 6029SOL    HW229547   1.204   1.607   6.490  0.8071  1.6294 -2.0848
 6030SOL     OW29548   1.386   0.291  17.271  0.9573 -0.2386 -0.4459
 6030SOL    HW129549   1.322   0.223  17.295 -0.8752  2.0316  1.0986
 6030SOL    HW229550   1.331   0.337  17.208  0.8140 -1.7681 -1.4441
 6031SOL     OW29551   2.335   0.170   6.846  0.3572 -0.1615  0.4129
 6031SOL    HW129552   2.276   0.193   6.918  0.2452  0.4937  0.1014
 6031SOL    HW229553   2.274   0.155   6.774  2.0706 -1.6515 -0.7480
 6032SOL     OW29554   3.691   1.491   6.456 -1.0229  0.0028 -0.2006
 6032SOL    HW129555   3.614   1.495   6.400  0.6263 -0.7572 -2.5065
 6032SOL    HW229556   3.688   1.398   6.481  1.5577  0.8699  3.3433
 6033SOL     OW29557   2.651   4.708   3.535 -0.6280 -0.6105 -0.4620
 6033SOL    HW129558   2.693   4.695   3.450  1.1682  2.8315 -0.1090
 6033SOL    HW229559   2.567   0.024   3.511 -0.4799  2.1581  3.4906
 6034SOL     OW29560   2.865   4.020   6.918  0.1043  0.3413 -0.2221
 6034SOL    HW129561   2.900   3.980   6.997 -1.1199 -1.0254 -0.3541
 6034SOL    HW229562   2.898   4.106   6.941 -1.1757  1.1230 -1.2904
 6035SOL     OW29563   0.821   0.917   6.633  0.6601 -0.0374  0.2366
 6035SOL    HW129564   0.732   0.943   6.609  0.6217 -0.4792 -0.1073
 6035SOL    HW229565   0.850   0.971   6.707  1.1039  0.7567 -0.5201
 6036SOL     OW29566   0.925   3.748   7.961 -0.4680 -0.6376 -0.5312
 6036SOL    HW129567   0.860   3.679   7.950 -1.0030 -0.3018  0.4905
 6036SOL    HW229568   0.873   3.814   8.007  1.5598  1.1919 -0.8790
 6037SOL     OW29569   4.256   0.567  16.632  0.1279  0.5168  0.2147
 6037SOL    HW129570   4.266   0.548  16.538  1.0962  1.3245  0.1575
 6037SOL    HW229571   4.313   0.495  16.661 -0.1552  0.5319  0.8019
 6038SOL     OW29572   0.636   0.449   4.593  0.4270  0.2759 -1.0617
 6038SOL    HW129573   0.559   0.452   4.537  0.5396 -1.3467 -1.3095
 6038SOL    HW229574   0.714   0.459   4.538  1.1272 -1.0347 -0.3298
 6039SOL     OW29575   1.562   3.149   8.188 -0.5126 -0.3234 -0.3902
 6039SOL    HW129576   1.618   3.205   8.134  1.6032 -1.1754  0.9241
 6039SOL    HW229577   1.629   3.089   8.221 -1.2250  0.1456  1.8969
 6040SOL     OW29578   2.375   0.219   7.601 -0.4021 -0.4507 -0.3414
 6040SOL    HW129579   2.406   0.226   7.511 -1.6601 -2.5633 -0.9272
 6040SOL    HW229580   2.431   0.152   7.641  0.6658  0.8513  0.3577
 6041SOL     OW29581   2.346   1.524   9.171  0.2843 -0.0653  0.0985
 6041SOL    HW129582   2.332   1.493   9.081 -3.2492  0.1454  0.5986
 6041SOL    HW229583   2.398   1.599   9.140 -1.4931  1.6178  1.2225
 6042SOL     OW29584   0.278   0.484   2.687  0.3628 -0.1202  0.9417
 6042SOL    HW129585   0.212   0.416   2.693  1.8445 -1.7593 -1.4771
 6042SOL    HW229586   0.271   0.507   2.594 -0.6608 -0.0508  1.0364
 6043SOL     OW29587   0.903   1.260   3.239  0.5366 -0.5744  0.7097
 6043SOL    HW129588   0.879   1.335   3.293  0.4786  1.3127 -1.9482
 6043SOL    HW229589   0.841   1.192   3.263 -0.5345 -0.2017 -0.9627
 6044SOL     OW29590   3.502   3.725   8.279 -0.5161 -0.7746  0.1196
 6044SOL    HW129591   3.479   3.809   8.318  2.6626 -0.0412  0.3702
 6044SOL    HW229592   3.549   3.679   8.349  2.3015  1.6938 -0.1599
 6045SOL     OW29593   3.478   3.572  10.557 -0.6643  0.4371  0.7588
 6045SOL    HW129594   3.385   3.592  10.566 -1.0773 -2.5213  3.3179
 6045SOL    HW229595   3.470   3.478  10.573  0.1843  0.9169  4.0417
 6046SOL     OW29596   0.839   3.228   1.673  0.3865 -0.3837 -0.0431
 6046SOL    HW129597   0.795   3.162   1.619  0.0549  0.2747 -0.5618
 6046SOL    HW229598   0.865   3.176   1.749  0.6052  2.1726  1.6244
 6047SOL     OW29599   0.950   3.648   7.215  0.2610 -0.0165 -0.1336
 6047SOL    HW129600   0.936   3.741   7.201 -0.0500  0.2170  1.8271
 6047SOL    HW229601   0.923   3.608   7.132  0.1342  1.3452 -0.7511
 6048SOL     OW29602   0.181   3.151  11.291  0.1274 -0.0304 -0.6701
 6048SOL    HW129603   0.165   3.123  11.381  0.7653 -0.4285 -0.6750
 6048SOL    HW229604   0.272   3.121  11.284  0.4187  0.3695  1.4941
 6049SOL     OW29605   0.967   0.002  14.899 -0.4033 -0.1982 -0.1296
 6049SOL    HW129606   0.905   0.060  14.855  0.7508  1.4181  0.3692
 6049SOL    HW229607   0.953   0.022  14.991 -2.3152 -0.1428 -0.4449
 6050SOL     OW29608   3.496   2.473   6.375  0.1692  0.0415  0.3484
 6050SOL    HW129609   3.575   2.437   6.416 -0.0180  1.2290  1.7603
 6050SOL    HW229610   3.441   2.504   6.447  1.5442 -1.6321  2.1052
 6051SOL     OW29611   1.097   4.331   2.609  0.3201  0.6137  0.3103
 6051SOL    HW129612   1.013   4.368   2.582 -1.8474 -2.8492  2.1826
 6051SOL    HW229613   1.153   4.346   2.533  1.8681  0.0087  1.3286
 6052SOL     OW29614   3.456   4.329   9.134  0.0372 -0.2008  0.2150
 6052SOL    HW129615   3.517   4.349   9.063 -1.0561 -2.5569 -1.4327
 6052SOL    HW229616   3.413   4.413   9.142 -1.8584 -1.0225 -1.2500
 6053SOL     OW29617   2.458   0.324  13.438 -0.1778  0.0984 -0.3857
 6053SOL    HW129618   2.378   0.277  13.462 -1.5933  2.0501 -1.1680
 6053SOL    HW229619   2.438   0.403  13.489  0.5476 -0.0731  0.1516
 6054SOL     OW29620   1.459   0.527   3.536 -0.3675 -0.7861  0.0017
 6054SOL    HW129621   1.491   0.597   3.593  0.4089  0.9998 -2.6189
 6054SOL    HW229622   1.520   0.460   3.565 -0.2846  0.0853  1.8365
 6055SOL     OW29623   2.894   2.524  10.497  0.1485  0.0633  0.3405
 6055SOL    HW129624   2.853   2.469  10.564 -1.0309 -2.0500 -2.1300
 6055SOL    HW229625   2.822   2.538  10.435  0.7526  1.8384  0.0562
 6056SOL     OW29626   1.721   1.946   7.629 -0.1226  0.0464 -0.0017
 6056SOL    HW129627   1.774   2.025   7.629 -0.2452  0.1311 -0.4641
 6056SOL    HW229628   1.787   1.877   7.616  2.5336  2.3825  1.0983
 6057SOL     OW29629   0.996   2.515   6.776  0.2868 -1.1169  0.7349
 6057SOL    HW129630   1.058   2.481   6.842  0.0818  1.6105  2.3182
 6057SOL    HW229631   0.978   2.427   6.743 -0.4324 -0.3168 -0.9907
 6058SOL     OW29632   3.789   4.507   9.358 -0.1950  0.4099 -0.0680
 6058SOL    HW129633   3.716   4.445   9.365  1.0544 -0.8674  1.5438
 6058SOL    HW229634   3.794   4.531   9.450 -1.5067 -0.0620  0.1336
 6059SOL     OW29635   0.914   0.102   6.758 -0.0007 -0.3362 -0.2700
 6059SOL    HW129636   0.959   0.174   6.801 -2.0022  0.1009  1.0817
 6059SOL    HW229637   0.994   0.064   6.720  0.3793 -0.1496  0.3412
 6060SOL     OW29638   3.230   1.377   1.084  0.3666  0.4771  0.2272
 6060SOL    HW129639   3.304   1.359   1.026 -0.2143  0.2712 -0.4527
 6060SOL    HW229640   3.149   1.361   1.036 -0.2425 -0.4356  1.5762
 6061SOL     OW29641   3.379   2.953   5.290 -0.4119 -0.2756 -0.2293
 6061SOL    HW129642   3.330   2.939   5.209  0.2817 -1.8032 -0.3703
 6061SOL    HW229643   3.334   3.034   5.316  0.8192  0.4350 -0.3347
 6062SOL     OW29644   0.266   4.327   9.811 -0.1936 -0.0903 -0.4807
 6062SOL    HW129645   0.340   4.361   9.863 -0.8804  0.3429  0.2244
 6062SOL    HW229646   0.222   4.266   9.870 -0.6948 -1.7969 -2.6368
 6063SOL     OW29647   3.401   2.137   4.429 -0.0905  0.3365  0.6657
 6063SOL    HW129648   3.378   2.054   4.470  2.5288 -1.0852 -0.7260
 6063SOL    HW229649   3.398   2.100   4.340 -1.8004 -1.8945  1.6464
 6064SOL     OW29650   3.330   2.570   3.086  0.2703  0.2237 -0.3577
 6064SOL    HW129651   3.239   2.597   3.092  0.2827  0.2196 -0.1483
 6064SOL    HW229652   3.361   2.615   3.007  1.5973  1.4731  0.8486
 6065SOL     OW29653   1.394   3.756   7.424  0.1004  0.0112  0.4172
 6065SOL    HW129654   1.465   3.815   7.399 -0.8914  1.4286  0.9914
 6065SOL    HW229655   1.424   3.685   7.366 -1.4306  0.9763 -1.5531
 6066SOL     OW29656   0.445   2.112   0.146  0.2330  0.2398 -0.2151
 6066SOL    HW129657   0.400   2.117   0.062  3.9677  0.7521 -2.2138
 6066SOL    HW229658   0.370   2.092   0.202  0.7372  0.6537  0.6193
 6067SOL     OW29659   4.701   0.966  12.627 -0.2730 -0.0780 -0.2420
 6067SOL    HW129660   0.008   0.904  12.694 -0.7865  2.1814  2.0621
 6067SOL    HW229661   0.039   1.040  12.634  0.8022 -1.0760  1.0668
 6068SOL     OW29662   3.674   2.457   7.700 -0.0851 -0.1960  0.4020
 6068SOL    HW129663   3.620   2.416   7.633  1.2857 -1.5517  0.1259
 6068SOL    HW229664   3.621   2.435   7.776 -0.1934 -0.9195  0.1121
 6069SOL     OW29665   2.986   0.836   6.601 -0.3209 -0.1112 -0.3501
 6069SOL    HW129666   3.024   0.901   6.542 -1.3113 -0.8420 -1.7720
 6069SOL    HW229667   2.945   0.897   6.663 -0.9698 -1.0562  0.1489
 6070SOL     OW29668   3.742   4.520   0.646  0.8144 -0.0775 -0.1965
 6070SOL    HW129669   3.658   4.539   0.604  1.8934  0.3282 -2.1519
 6070SOL    HW229670   3.764   4.612   0.656  1.1208  0.0068 -1.5785
 6071SOL     OW29671   1.757   0.166   1.961 -0.1455 -0.0871  0.2053
 6071SOL    HW129672   1.681   0.130   2.006  0.0711 -1.0160 -0.1656
 6071SOL    HW229673   1.787   0.094   1.905 -1.9038  1.1601 -2.3311
 6072SOL     OW29674   4.634   4.055   7.855  0.0766  0.0837 -0.3668
 6072SOL    HW129675   4.663   4.137   7.895 -0.4093 -1.3189  2.8128
 6072SOL    HW229676   4.717   4.008   7.857 -0.3236 -0.5169  1.7817
 6073SOL     OW29677   2.545   2.965   3.927  0.0618 -0.0728 -0.4953
 6073SOL    HW129678   2.496   2.935   3.850 -0.4368 -1.6234  0.4251
 6073SOL    HW229679   2.488   2.937   3.999  0.1302  1.1240  0.0308
 6074SOL     OW29680   2.037   2.635   7.309  0.5762 -0.1076 -0.0615
 6074SOL    HW129681   2.100   2.690   7.262 -0.4270  1.6087  0.6372
 6074SOL    HW229682   1.992   2.693   7.370  2.5673  0.0563  1.2394
 6075SOL     OW29683   4.686   0.824  15.756  0.3186  0.0314 -0.2837
 6075SOL    HW129684   4.626   0.754  15.731  0.7352 -0.7658  0.9522
 6075SOL    HW229685   0.042   0.769  15.765 -0.0711 -0.6567 -1.0480
 6076SOL     OW29686   0.201   0.274   8.150  0.1386  0.2720 -0.5084
 6076SOL    HW129687   0.174   0.185   8.127  0.4904 -0.3150  1.3832
 6076SOL    HW229688   0.145   0.293   8.225 -1.3391  0.5941 -1.6808
 6077SOL     OW29689   2.213   1.545   6.361 -0.3285  0.2837 -0.4990
 6077SOL    HW129690   2.220   1.469   6.303 -1.4631 -0.5309  0.4541
 6077SOL    HW229691   2.186   1.596   6.284  0.2180  3.2264  1.2823
 6078SOL     OW29692   0.015   0.084   0.962 -0.0199 -0.7161  0.7233
 6078SOL    HW129693   0.007   0.166   0.913  0.2079 -1.2752 -0.2549
 6078SOL    HW229694   0.068   0.021   0.912 -1.8017  0.0843 -2.1915
 6079SOL     OW29695   2.573   1.027   7.710 -0.4695 -0.1115  0.3059
 6079SOL    HW129696   2.597   0.947   7.758 -0.2260 -0.3533 -0.2182
 6079SOL    HW229697   2.572   1.092   7.780 -1.6843  0.7288 -0.5042
 6080SOL     OW29698   3.096   0.964   3.897  1.0830 -0.4710 -0.0372
 6080SOL    HW129699   3.106   0.902   3.969  0.0026 -1.8578 -1.0864
 6080SOL    HW229700   3.115   0.907   3.823  0.1557 -0.5498 -0.2182
 6081SOL     OW29701   2.454   2.272  17.431  0.1502  0.1504 -0.2837
 6081SOL    HW129702   2.425   2.207  17.366 -0.3800 -0.0217  0.1266
 6081SOL    HW229703   2.497   2.229  17.504  0.0832 -0.0297 -0.3484
 6082SOL     OW29704   3.204   3.109   5.109 -0.1149  0.8283 -0.1774
 6082SOL    HW129705   3.153   3.140   5.183 -0.8719 -1.1737  0.1324
 6082SOL    HW229706   3.141   3.135   5.042  0.0426 -1.3061 -1.1639
 6083SOL     OW29707   0.870   4.433   5.228  0.1575  0.2389 -0.1851
 6083SOL    HW129708   0.797   4.494   5.219  0.9785  1.1147 -0.8527
 6083SOL    HW229709   0.943   4.487   5.256  0.4642  0.5890 -1.6563
 6084SOL     OW29710   3.708   4.171   7.198 -0.9405  0.6664 -0.1188
 6084SOL    HW129711   3.756   4.180   7.280 -1.8800 -0.7782  0.5931
 6084SOL    HW229712   3.747   4.107   7.139  0.2311  0.8228  0.4832
 6085SOL     OW29713   0.970   2.240   7.092  0.1681  0.7373  0.1138
 6085SOL    HW129714   0.899   2.301   7.070  1.2852  2.1313  0.3937
 6085SOL    HW229715   0.932   2.163   7.134  0.1594  0.1865 -0.9129
 6086SOL     OW29716   0.733   0.020  13.753 -0.1793  0.7803  0.0440
 6086SOL    HW129717   0.804   0.032  13.689  0.4897  1.1245  0.8612
 6086SOL    HW229718   0.777   0.061  13.827  1.2907 -0.0413 -0.3679
 6087SOL     OW29719   0.053   2.295  13.394 -0.1484  0.2330 -0.1224
 6087SOL    HW129720   0.077   2.384  13.366 -0.3916 -0.4808 -2.6146
 6087SOL    HW229721   4.688   2.297  13.357  0.1279 -0.9161 -0.8249
 6088SOL     OW29722   2.339   1.558   5.833 -0.2649 -0.1263 -0.3821
 6088SOL    HW129723   2.247   1.530   5.834  0.0852 -1.2510  0.1167
 6088SOL    HW229724   2.372   1.497   5.898 -2.0839  0.2466  0.9136
 6089SOL     OW29725   3.064   2.848   7.848 -0.5774  0.7222 -0.1686
 6089SOL    HW129726   3.027   2.874   7.763 -2.4872 -0.6543  0.2314
 6089SOL    HW229727   3.133   2.914   7.846 -0.5921  0.6528 -3.0569
 6090SOL     OW29728   1.073   2.183  12.121 -0.1354 -0.0189  0.0261
 6090SOL    HW129729   1.066   2.240  12.045 -1.9533  0.5160  0.5762
 6090SOL    HW229730   1.058   2.097  12.083 -0.6939 -0.6806  1.7258
 6091SOL     OW29731   2.888   1.841   0.812  0.4932  0.2057  0.0041
 6091SOL    HW129732   2.848   1.873   0.732 -3.5112  1.5288  2.5479
 6091SOL    HW229733   2.843   1.889   0.882 -0.6796 -1.8492  0.6739
 6092SOL     OW29734   1.268   1.336   9.817  0.2859  0.4132  0.2504
 6092SOL    HW129735   1.194   1.275   9.815  0.7447 -0.0858 -1.7697
 6092SOL    HW229736   1.318   1.313   9.895  2.0452 -1.7285 -1.4875
 6093SOL     OW29737   2.598   3.202   1.091  0.3404 -0.1416  0.1686
 6093SOL    HW129738   2.663   3.187   1.022 -0.6181 -1.2278 -0.5179
 6093SOL    HW229739   2.525   3.154   1.051  0.2873 -1.5381  1.9381
 6094SOL     OW29740   0.275   4.665  12.051  0.0138 -0.6683 -0.8567
 6094SOL    HW129741   0.210   4.696  12.115  0.9474 -1.7901  0.6360
 6094SOL    HW229742   0.212   4.638  11.984  0.3220 -0.0279 -1.3957
 6095SOL     OW29743   4.005   3.709   0.427 -0.3490 -0.1460  0.6505
 6095SOL    HW129744   3.956   3.633   0.397 -2.3405  1.5166 -0.3266
 6095SOL    HW229745   4.061   3.738   0.354 -2.5395  0.8379 -0.6245
 6096SOL     OW29746   1.813   0.312   7.016  0.7911  0.9844  0.0444
 6096SOL    HW129747   1.844   0.403   7.016 -0.0456  1.2651  1.3929
 6096SOL    HW229748   1.818   0.291   6.923  2.7212 -0.6283  0.5041
 6097SOL     OW29749   0.714   3.986   8.476  0.3578  0.5965  0.5376
 6097SOL    HW129750   0.623   3.959   8.467 -0.2670  2.7312  0.5755
 6097SOL    HW229751   0.742   4.025   8.393  1.0947 -1.7555 -0.3242
 6098SOL     OW29752   3.919   1.210   6.514  0.0545  0.1574 -0.5777
 6098SOL    HW129753   3.833   1.235   6.547 -0.5445 -2.0087 -0.4801
 6098SOL    HW229754   3.965   1.272   6.570  3.5168 -2.9872  0.0667
 6099SOL     OW29755   2.526   4.709   7.693 -0.7256 -0.6813  0.2041
 6099SOL    HW129756   2.583   4.658   7.636 -1.4379 -1.7949  0.4994
 6099SOL    HW229757   2.509   4.636   7.752  0.0245  2.0687  3.8323
 6100SOL     OW29758   1.741   0.810  11.593  0.1176  0.8995  0.0214
 6100SOL    HW129759   1.682   0.773  11.659  2.9861 -3.7665  0.0083
 6100SOL    HW229760   1.785   0.882  11.639 -2.3858  1.2767  1.8565
 6101SOL     OW29761   2.012   1.218  17.217  0.0997  0.0337  0.1715
 6101SOL    HW129762   2.104   1.242  17.234  0.2623 -0.7210  0.3523
 6101SOL    HW229763   2.019   1.127  17.191 -1.4959 -0.2018  0.5587
 6102SOL     OW29764   3.632   1.020   3.348  0.4070 -0.3400 -0.1990
 6102SOL    HW129765   3.658   1.023   3.441  1.2114 -1.3871 -0.3966
 6102SOL    HW229766   3.622   0.926   3.336  1.1912 -0.5792  0.9640
 6103SOL     OW29767   3.682   0.470   4.972  0.0653 -0.3947  0.5175
 6103SOL    HW129768   3.662   0.392   4.921  1.3153  1.5445 -2.9556
 6103SOL    HW229769   3.743   0.507   4.908  0.5621  0.3844  1.4266
 6104SOL     OW29770   2.766   3.711  13.566 -0.3148 -0.2484  0.6118
 6104SOL    HW129771   2.688   3.688  13.515  1.0826  1.4745 -2.2825
 6104SOL    HW229772   2.824   3.636  13.551  0.7708  0.6648  0.2879
 6105SOL     OW29773   0.918   2.718   4.690 -0.2147  0.8084  0.1014
 6105SOL    HW129774   0.994   2.760   4.729 -0.1765  0.9810 -0.1563
 6105SOL    HW229775   0.863   2.715   4.768 -0.0476 -2.6143  0.0884
 6106SOL     OW29776   3.639   3.550  14.114  0.6968 -0.5932 -0.7046
 6106SOL    HW129777   3.732   3.569  14.099  0.3650  0.4836 -1.4012
 6106SOL    HW229778   3.611   3.597  14.035 -0.0497  0.4424  0.1660
 6107SOL     OW29779   3.001   0.706   8.005 -0.2034  0.3830  0.7091
 6107SOL    HW129780   2.990   0.756   8.085 -0.0944 -0.3615  1.1905
 6107SOL    HW229781   2.932   0.644   8.027  0.3390 -1.5373 -2.9233
 6108SOL     OW29782   2.303   1.422   8.668 -0.1262  0.2916  0.0147
 6108SOL    HW129783   2.307   1.456   8.758  0.2725  1.0679 -0.2932
 6108SOL    HW229784   2.360   1.347   8.679 -0.7391 -0.2069 -0.2273
 6109SOL     OW29785   3.763   3.349   5.987 -0.5249 -0.3105 -0.1304
 6109SOL    HW129786   3.830   3.408   6.019 -0.8757 -0.1626  0.3384
 6109SOL    HW229787   3.705   3.356   6.063 -2.7213 -1.5494 -1.6795
 6110SOL     OW29788   4.593   0.391   2.906  0.1745 -0.3787 -0.0605
 6110SOL    HW129789   4.502   0.396   2.877  0.4446 -0.4601 -0.9153
 6110SOL    HW229790   4.592   0.304   2.946 -2.5836 -0.1612  0.3581
 6111SOL     OW29791   3.997   1.615   4.586 -0.3747  0.1257 -0.3310
 6111SOL    HW129792   3.925   1.655   4.635 -0.3160 -0.2034  0.0246
 6111SOL    HW229793   3.996   1.672   4.509 -0.8771 -1.2352 -1.3471
 6112SOL     OW29794   4.632   3.751   3.252  0.1189 -0.7475 -0.4960
 6112SOL    HW129795   4.584   3.673   3.224 -1.0912  1.1121 -3.5942
 6112SOL    HW229796   4.720   3.730   3.220  0.1816 -0.5693 -0.4393
 6113SOL     OW29797   0.752   2.826  16.124  1.0149 -0.0037 -0.0876
 6113SOL    HW129798   0.744   2.901  16.065 -0.9603 -0.0474  0.1284
 6113SOL    HW229799   0.846   2.816  16.110  0.9232 -2.5874  1.1522
 6114SOL     OW29800   1.725   1.468   6.153 -0.4715  0.4328  0.3583
 6114SOL    HW129801   1.751   1.431   6.068 -0.6306 -1.6082  1.1869
 6114SOL    HW229802   1.812   1.482   6.191  0.4760 -1.6252 -1.0441
 6115SOL     OW29803   1.926   2.375   4.803 -0.0672 -0.0309  0.0854
 6115SOL    HW129804   2.017   2.356   4.824 -0.8896 -2.2175  1.6082
 6115SOL    HW229805   1.911   2.458   4.848  0.6985 -1.2648  2.5845
 6116SOL     OW29806   1.534   2.631   8.334 -0.4144  0.1027  0.5774
 6116SOL    HW129807   1.613   2.679   8.359  1.7489 -3.4197  0.5988
 6116SOL    HW229808   1.474   2.705   8.340  0.1212  0.7180 -1.7333
 6117SOL     OW29809   1.877   1.139  11.338  0.3546  0.4675  0.0116
 6117SOL    HW129810   1.867   1.226  11.377  1.9621  0.5267  0.2809
 6117SOL    HW229811   1.958   1.149  11.289  0.3671 -0.3803 -0.1444
 6118SOL     OW29812   0.373   1.968   5.527  0.4558  0.4953  0.1373
 6118SOL    HW129813   0.357   1.950   5.620 -1.2741  1.7013  0.0754
 6118SOL    HW229814   0.461   2.006   5.535  1.2665 -1.8013  1.9390
 6119SOL     OW29815   4.234   2.842   7.479  0.0756 -0.6329 -0.2845
 6119SOL    HW129816   4.233   2.916   7.417  0.8590 -1.1336 -0.8849
 6119SOL    HW229817   4.150   2.849   7.525 -0.0418  4.1485 -1.1591
 6120SOL     OW29818   1.209   1.589  13.051  0.5808  0.3156 -0.0477
 6120SOL    HW129819   1.148   1.517  13.036  0.7867 -0.0491  0.8966
 6120SOL    HW229820   1.190   1.647  12.977 -1.8192 -0.1730  0.1739
 6121SOL     OW29821   4.110   3.440   5.896  1.0955  0.1445  0.2119
 6121SOL    HW129822   4.132   3.477   5.811 -0.3900  0.6801  0.0496
 6121SOL    HW229823   4.129   3.517   5.950  0.6759  0.0323  0.5226
 6122SOL     OW29824   3.399   3.735   2.186  0.2145 -0.1432  0.5784
 6122SOL    HW129825   3.319   3.784   2.209  1.5311  2.1769  0.2051
 6122SOL    HW229826   3.379   3.709   2.096 -0.5399 -2.3596  1.3871
 6123SOL     OW29827   0.702   0.397   3.921  0.0936  0.2037  0.3156
 6123SOL    HW129828   0.713   0.489   3.896 -0.7204  0.0422 -0.6441
 6123SOL    HW229829   0.792   0.379   3.948  0.7565  1.7574 -0.8608
 6124SOL     OW29830   0.022   2.887   6.275 -0.0321  0.1866 -0.6734
 6124SOL    HW129831   0.012   2.938   6.194 -1.5137 -0.1541 -0.7021
 6124SOL    HW229832   0.002   2.800   6.240 -1.3116  0.9391 -1.8412
 6125SOL     OW29833   1.534   2.580   2.297 -0.2346  1.0311 -0.1188
 6125SOL    HW129834   1.453   2.630   2.296 -0.2265  0.9703 -2.9421
 6125SOL    HW229835   1.612   2.634   2.283 -0.2252  0.5426 -1.9927
 6126SOL     OW29836   2.962   0.845  16.016 -0.8715  0.2053  0.3816
 6126SOL    HW129837   2.973   0.891  15.933 -1.9469  0.3784  0.3418
 6126SOL    HW229838   2.935   0.908  16.084 -1.7260  1.8727 -1.4849
 6127SOL     OW29839   2.901   4.626   2.760  0.5447 -0.8630 -0.1431
 6127SOL    HW129840   2.966   4.677   2.809 -0.5378  0.0583  0.3426
 6127SOL    HW229841   2.855   4.596   2.839  0.2931 -0.1008  0.0033
 6128SOL     OW29842   4.331   0.242   2.532 -0.7257 -0.0389 -0.0071
 6128SOL    HW129843   4.412   0.282   2.500 -0.0891  0.2949  2.0301
 6128SOL    HW229844   4.338   0.149   2.512 -1.7499  0.5645 -3.1707
 6129SOL     OW29845   4.356   0.215   8.760  0.0056  0.4053  0.0757
 6129SOL    HW129846   4.413   0.162   8.816 -0.7125  1.0611  1.4103
 6129SOL    HW229847   4.335   0.144   8.699 -0.2248  0.3334  0.2385
 6130SOL     OW29848   0.108   3.853   7.949  0.1598 -0.1286 -0.2211
 6130SOL    HW129849   0.052   3.806   8.011  0.3821 -0.1361 -0.0283
 6130SOL    HW229850   0.110   3.799   7.870  1.6637  0.5152 -0.6232
 6131SOL     OW29851   2.659   1.770   7.277  0.1891 -0.0397  0.2862
 6131SOL    HW129852   2.732   1.768   7.338  0.1675  0.1596  0.3177
 6131SOL    HW229853   2.618   1.684   7.287  1.3776 -0.6797 -0.3740
 6132SOL     OW29854   0.279   1.692   9.096 -0.4655 -0.1863 -0.2889
 6132SOL    HW129855   0.317   1.618   9.145  3.2486  1.0956 -1.2112
 6132SOL    HW229856   0.207   1.641   9.058 -0.4658 -1.5495  1.5338
 6133SOL     OW29857   3.873   3.105   2.646 -0.0858  0.2230  0.2971
 6133SOL    HW129858   3.867   3.014   2.618  0.7134 -0.1609  1.4033
 6133SOL    HW229859   3.965   3.133   2.648  0.1103 -0.6131  2.2010
 6134SOL     OW29860   3.347   1.220   2.988 -0.1400 -0.7703 -0.2740
 6134SOL    HW129861   3.366   1.160   2.916 -0.0451 -0.5059 -0.4743
 6134SOL    HW229862   3.429   1.206   3.036  0.7532 -1.9515 -2.1575
 6135SOL     OW29863   1.735   3.719   3.450  0.9126  0.2481  0.2229
 6135SOL    HW129864   1.818   3.739   3.492  0.3554  1.3613  0.8045
 6135SOL    HW229865   1.718   3.626   3.461 -0.2304  0.3741 -0.4155
 6136SOL     OW29866   3.852   3.491  17.526 -0.0093 -0.6110  0.1159
 6136SOL    HW129867   3.849   3.395  17.516 -0.6672 -0.5276 -0.5577
 6136SOL    HW229868   3.774   3.513  17.474  0.7986  0.6526 -0.5558
 6137SOL     OW29869   3.290   2.981   6.439 -0.0331  0.4666 -0.2480
 6137SOL    HW129870   3.317   2.987   6.347 -0.4440  2.1907 -0.2556
 6137SOL    HW229871   3.203   3.022   6.440 -0.6059 -0.7429 -0.6918
 6138SOL     OW29872   2.536   3.979  12.192 -0.0186 -0.2812 -0.1904
 6138SOL    HW129873   2.587   4.060  12.194  1.5172 -1.2425 -0.1779
 6138SOL    HW229874   2.584   3.928  12.258  0.2269 -0.6551 -0.6567
 6139SOL     OW29875   2.819   0.059  15.253  0.1648 -0.2417  0.6087
 6139SOL    HW129876   2.884   0.073  15.184  1.6163 -1.8659  1.6717
 6139SOL    HW229877   2.782   0.146  15.269  1.2289  0.5109 -0.9522
 6140SOL     OW29878   0.695   2.963   2.803 -0.0086 -0.5407 -0.2588
 6140SOL    HW129879   0.623   2.972   2.741 -1.9514 -2.0902  1.7740
 6140SOL    HW229880   0.697   2.867   2.812  0.8228 -0.5592 -0.6262
 6141SOL     OW29881   3.729   2.115   7.647  0.2911 -0.3863 -0.4448
 6141SOL    HW129882   3.694   2.132   7.734 -2.5159 -0.4399 -1.5522
 6141SOL    HW229883   3.695   2.027   7.631 -0.4860 -0.2209  0.2736
 6142SOL     OW29884   2.484   4.679  13.539  0.3411 -0.0095 -0.1742
 6142SOL    HW129885   2.434   0.037  13.551  1.3282  0.6814 -0.7134
 6142SOL    HW229886   2.417   4.627  13.494  0.2830  0.1713 -0.2972
 6143SOL     OW29887   2.006   1.607   7.253  0.1326  0.0314 -0.3196
 6143SOL    HW129888   2.039   1.697   7.262 -2.9383  0.7339  3.3287
 6143SOL    HW229889   2.057   1.573   7.179  3.1458  2.7652  0.4924
 6144SOL     OW29890   3.423   1.465   6.301  0.4415  0.2860  0.2175
 6144SOL    HW129891   3.333   1.486   6.278  0.4549  0.5832  0.4496
 6144SOL    HW229892   3.418   1.369   6.305 -1.1265  0.3294 -0.7522
 6145SOL     OW29893   4.631   3.574   7.498 -0.2269 -0.1603 -0.3387
 6145SOL    HW129894   4.625   3.552   7.405 -0.0441  0.2290 -0.4444
 6145SOL    HW229895   4.722   3.604   7.503 -0.8550  1.9091 -1.3608
 6146SOL     OW29896   0.512   1.467   4.366 -0.5031 -0.0603 -0.0840
 6146SOL    HW129897   0.558   1.389   4.396  0.4992 -0.9289 -3.9182
 6146SOL    HW229898   0.456   1.429   4.298  0.9646 -0.2913 -1.1430
 6147SOL     OW29899   1.987   1.805  14.712  0.3213 -0.0944 -0.3698
 6147SOL    HW129900   2.019   1.757  14.635 -0.6044  0.4513 -1.1000
 6147SOL    HW229901   2.027   1.749  14.778  1.0779  0.0034 -0.7428
 6148SOL     OW29902   1.423   3.820  12.579 -0.0358 -0.2784 -0.9747
 6148SOL    HW129903   1.425   3.916  12.578  1.2320 -0.3013  0.3083
 6148SOL    HW229904   1.473   3.794  12.657  0.7649  2.1248 -0.6850
 6149SOL     OW29905   0.573   1.917   7.798  0.4303 -0.2877  0.3817
 6149SOL    HW129906   0.501   1.942   7.856  2.1477  1.2212  1.8650
 6149SOL    HW229907   0.543   1.955   7.715  0.5099 -0.5936  0.2115
 6150SOL     OW29908   3.533   3.020   6.035 -0.1098 -0.7435 -0.4582
 6150SOL    HW129909   3.470   2.979   6.094 -0.7242  2.5375  1.1812
 6150SOL    HW229910   3.480   3.058   5.964  1.4247 -1.1092 -1.8079
 6151SOL     OW29911   2.271   4.373   8.655 -0.1417  0.7905 -0.3197
 6151SOL    HW129912   2.354   4.420   8.648  0.8541 -0.7932  0.7532
 6151SOL    HW229913   2.210   4.420   8.598  0.8663  0.2216 -1.8660
 6152SOL     OW29914   4.168   0.484  11.916 -0.4515  0.2169 -0.4233
 6152SOL    HW129915   4.154   0.456  11.826 -1.2942 -0.3990 -0.0939
 6152SOL    HW229916   4.160   0.578  11.901 -1.1990 -0.0964 -1.9497
 6153SOL     OW29917   2.866   0.028  11.965  0.1753  0.3153 -0.4700
 6153SOL    HW129918   2.960   0.037  11.948  0.0307  1.3038 -0.6908
 6153SOL    HW229919   2.855   0.089  12.038 -0.7660 -0.4938  0.0680
 6154SOL     OW29920   2.019   0.500   4.391 -0.0300  0.4501  0.4071
 6154SOL    HW129921   2.010   0.409   4.364  2.2885 -0.0507  1.3292
 6154SOL    HW229922   2.013   0.493   4.486  1.0028 -0.1845  0.4291
 6155SOL     OW29923   3.819   3.547   0.318  0.2874 -0.2278  0.0152
 6155SOL    HW129924   3.767   3.485   0.370  0.3462 -1.2804 -1.1939
 6155SOL    HW229925   3.863   3.484   0.261  1.5225  0.6276  0.0138
 6156SOL     OW29926   0.234   0.515  11.708 -0.1916 -0.5805 -0.4603
 6156SOL    HW129927   0.254   0.435  11.756  1.1207 -0.4157 -0.7512
 6156SOL    HW229928   0.159   0.483  11.658 -1.1976  0.9040  0.0590
 6157SOL     OW29929   4.466   2.990   3.126 -0.6753 -0.1641 -0.6082
 6157SOL    HW129930   4.533   2.950   3.181  0.9039  0.8763 -1.7729
 6157SOL    HW229931   4.500   3.079   3.118  2.6120 -1.4008 -0.3178
 6158SOL     OW29932   3.949   1.801   6.497 -0.2290 -0.0189 -0.1270
 6158SOL    HW129933   3.920   1.862   6.429 -1.4086 -0.1331  0.2816
 6158SOL    HW229934   3.990   1.733   6.444  2.0379 -0.7769  2.6171
 6159SOL     OW29935   1.854   2.035   3.780 -0.0994 -0.2507  0.5334
 6159SOL    HW129936   1.921   2.025   3.847 -0.8351 -0.1071  1.2845
 6159SOL    HW229937   1.915   2.015   3.709 -1.9184 -0.1540 -1.0628
 6160SOL     OW29938   3.952   3.164   6.302 -0.0242  0.2269 -0.2034
 6160SOL    HW129939   3.935   3.089   6.359 -1.8632  0.3936 -0.5229
 6160SOL    HW229940   3.871   3.182   6.254  1.6946  0.0474 -3.1540
 6161SOL     OW29941   3.260   2.230  11.582 -0.3084 -0.1361  0.0775
 6161SOL    HW129942   3.213   2.202  11.661 -1.0985 -3.3246 -1.5156
 6161SOL    HW229943   3.329   2.283  11.622  0.8770 -0.6075 -1.3462
 6162SOL     OW29944   2.280   1.027   2.757  0.5832 -0.5397 -0.3893
 6162SOL    HW129945   2.235   1.004   2.838  1.2232 -1.0571 -0.1843
 6162SOL    HW229946   2.366   0.989   2.777  0.2597 -1.4796 -0.8184
 6163SOL     OW29947   0.915   2.310   3.276  0.5596 -0.0372  0.2188
 6163SOL    HW129948   0.921   2.221   3.310 -0.2427 -0.8881 -1.8575
 6163SOL    HW229949   0.959   2.354   3.348  0.0271 -1.6429  1.5057
 6164SOL     OW29950   4.044   3.008   5.685  0.8261  0.0397 -0.3169
 6164SOL    HW129951   4.040   3.078   5.620 -0.2435  1.2025  0.9944
 6164SOL    HW229952   4.037   3.057   5.767 -0.1543 -3.6770  1.8069
 6165SOL     OW29953   4.428   0.121   7.441 -0.2407  0.2159 -0.1335
 6165SOL    HW129954   4.372   0.046   7.458  0.5553 -0.5765 -1.0545
 6165SOL    HW229955   4.373   0.169   7.379  0.9518  1.1856 -0.4369
 6166SOL     OW29956   2.759   4.155   5.082 -0.1402  0.4205  0.0566
 6166SOL    HW129957   2.733   4.084   5.140  2.2769 -0.1826  0.3849
 6166SOL    HW229958   2.703   4.229   5.107  1.1481  2.2773 -2.3975
 6167SOL     OW29959   3.227   0.480  11.512  0.0545  0.4105 -0.1124
 6167SOL    HW129960   3.296   0.418  11.489 -0.1510  0.2128 -0.2050
 6167SOL    HW229961   3.177   0.424  11.572  0.1962  1.2559  0.8012
 6168SOL     OW29962   3.406   3.201   0.801 -0.5961  0.1106 -0.4837
 6168SOL    HW129963   3.393   3.210   0.896 -0.3257 -0.5664 -0.3870
 6168SOL    HW229964   3.446   3.114   0.806  0.6597  0.8031  1.4257
 6169SOL     OW29965   1.293   3.951  17.164 -0.0295  0.3842  0.1997
 6169SOL    HW129966   1.206   3.936  17.129  0.0568 -0.2218  0.2498
 6169SOL    HW229967   1.310   4.030  17.113  0.6170 -0.6510 -1.1800
 6170SOL     OW29968   3.100   4.283   5.439  0.1144  0.2797 -0.0054
 6170SOL    HW129969   3.147   4.207   5.473 -1.8973 -1.2974 -0.7338
 6170SOL    HW229970   3.173   4.344   5.447 -0.4056  0.4251  3.4686
 6171SOL     OW29971   3.929   0.088   5.006 -0.1321 -0.1820  0.6758
 6171SOL    HW129972   3.968   0.167   4.969  1.0311  0.8595  4.1643
 6171SOL    HW229973   3.863   0.131   5.061  1.8708  1.6372  1.6300
 6172SOL     OW29974   1.692   1.134   2.249  0.4961 -0.1608  0.2171
 6172SOL    HW129975   1.781   1.100   2.262  0.1115 -0.9462  0.7932
 6172SOL    HW229976   1.660   1.133   2.339  0.8198  1.4002  0.3581
 6173SOL     OW29977   2.868   0.507   3.029  0.9622  0.2113  0.7383
 6173SOL    HW129978   2.836   0.597   3.036 -1.4334 -0.6079  0.3642
 6173SOL    HW229979   2.872   0.492   2.935  0.9027 -0.3138  0.8170
 6174SOL     OW29980   0.303   2.515   6.349  0.1880  0.0084  0.0525
 6174SOL    HW129981   0.256   2.506   6.267 -1.0722  1.8820  0.5864
 6174SOL    HW229982   0.288   2.608   6.363 -2.2900 -0.5999  1.3782
 6175SOL     OW29983   0.722   0.246   4.754  0.2893  0.4147 -0.5940
 6175SOL    HW129984   0.688   0.323   4.708 -2.3346  0.1347  0.9313
 6175SOL    HW229985   0.766   0.203   4.681  2.4305  0.7963  0.4752
 6176SOL     OW29986   2.537   2.395   8.136 -0.2869 -0.3162 -0.0782
 6176SOL    HW129987   2.515   2.426   8.224 -0.2040 -1.4576  0.3446
 6176SOL    HW229988   2.526   2.301   8.149  1.4285 -0.8258 -2.2345
 6177SOL     OW29989   2.677   3.178   6.986 -0.2845  0.0386  0.1725
 6177SOL    HW129990   2.711   3.223   6.909  1.3965 -0.7725  0.4386
 6177SOL    HW229991   2.585   3.165   6.963  0.0705 -2.2282  0.0314
 6178SOL     OW29992   0.284   1.783   4.932  0.5428 -0.1091  0.8663
 6178SOL    HW129993   0.222   1.740   4.873 -0.0043 -1.0104  2.0989
 6178SOL    HW229994   0.329   1.707   4.968 -1.3315 -1.3255  0.6322
 6179SOL     OW29995   2.230   3.561   5.181 -0.1741  0.3289  0.2498
 6179SOL    HW129996   2.161   3.515   5.133  0.4798  0.2109 -0.5789
 6179SOL    HW229997   2.301   3.510   5.142 -0.1930 -0.1737  0.8730
 6180SOL     OW29998   3.157   0.675   0.966  0.2352  0.3035 -0.3202
 6180SOL    HW129999   3.244   0.689   1.004  0.0186 -1.0906  0.7106
 6180SOL    HW230000   3.145   0.580   0.975 -1.8775  0.7098  1.1139
 6181SOL     OW30001   0.947   0.559   3.506  0.4655  0.0178 -0.1248
 6181SOL    HW130002   0.962   0.613   3.584 -1.0685 -0.1428  0.2889
 6181SOL    HW230003   1.037   0.534   3.484 -0.2128  0.3524 -3.2810
 6182SOL     OW30004   3.491   0.151  14.202  0.0102  0.6380  0.2186
 6182SOL    HW130005   3.481   0.245  14.216  2.0575  0.6036  2.0469
 6182SOL    HW230006   3.567   0.146  14.260  0.2562 -0.0145 -0.1604
 6183SOL     OW30007   1.704   3.746  14.238 -0.2861  0.5295 -0.4615
 6183SOL    HW130008   1.783   3.760  14.186  0.3424 -2.3138 -0.2913
 6183SOL    HW230009   1.737   3.768  14.325 -0.4910  1.8456 -0.7079
 6184SOL     OW30010   2.390   4.575  14.282  0.0801  0.5203  0.5932
 6184SOL    HW130011   2.335   4.520  14.227  0.5304  0.0892  0.5707
 6184SOL    HW230012   2.372   4.533  14.366 -1.1777  0.8761  0.4976
 6185SOL     OW30013   1.031   4.217   2.319 -0.1655  0.1101 -0.4303
 6185SOL    HW130014   0.971   4.243   2.389 -0.1932  0.7319 -0.6898
 6185SOL    HW230015   1.114   4.261   2.338 -0.9517  1.5855 -0.4036
 6186SOL     OW30016   2.054   3.247   3.191 -0.1303  0.1123  0.6688
 6186SOL    HW130017   2.030   3.160   3.222  1.1078 -0.0245  1.2079
 6186SOL    HW230018   2.148   3.247   3.209 -0.2445  0.4712  1.2724
 6187SOL     OW30019   2.187   0.465   4.744 -0.1515 -0.4020 -1.0682
 6187SOL    HW130020   2.135   0.434   4.817  0.9948 -2.1420 -0.9820
 6187SOL    HW230021   2.167   0.559   4.748  1.4855 -0.0356 -1.0877
 6188SOL     OW30022   2.542   2.866   4.426  0.0199  1.0463 -0.3084
 6188SOL    HW130023   2.483   2.820   4.485 -0.7761  0.0206 -1.9045
 6188SOL    HW230024   2.537   2.955   4.460 -1.8346  0.9845 -0.4112
 6189SOL     OW30025   3.321   2.833  16.400  0.5607 -0.4282  0.2048
 6189SOL    HW130026   3.363   2.779  16.467 -1.8695 -0.2190  1.9279
 6189SOL    HW230027   3.372   2.824  16.320  0.8719  0.8171  0.2690
 6190SOL     OW30028   1.454   3.100   3.426 -0.0799  0.0033  0.0585
 6190SOL    HW130029   1.525   3.157   3.398 -0.4709  0.8583  0.8075
 6190SOL    HW230030   1.495   3.030   3.476  0.3814  0.4210  0.2622
 6191SOL     OW30031   4.178   3.370   2.232 -0.3305  0.9472 -0.0215
 6191SOL    HW130032   4.136   3.285   2.220  0.5196  0.2956  1.7761
 6191SOL    HW230033   4.131   3.411   2.305 -0.2387  0.2473  0.4297
 6192SOL     OW30034   2.387   3.392   3.459 -0.2151 -0.3101  0.3443
 6192SOL    HW130035   2.482   3.403   3.460 -0.0384 -1.7935  0.8717
 6192SOL    HW230036   2.356   3.407   3.548  1.2636  0.1563  0.7674
 6193SOL     OW30037   4.641   4.318   2.387 -0.1435  0.4013 -0.1001
 6193SOL    HW130038   4.624   4.348   2.297  0.5010 -2.1735 -1.0865
 6193SOL    HW230039   4.594   4.235   2.397 -0.4901  0.4333 -1.4446
 6194SOL     OW30040   4.172   0.289   6.246 -0.5379 -0.9291  0.6301
 6194SOL    HW130041   4.135   0.375   6.262 -1.3201 -1.4321  1.5604
 6194SOL    HW230042   4.117   0.251   6.178 -0.4368  1.9978 -1.0407
 6195SOL     OW30043   0.188   0.568   6.189  0.6087 -0.5551 -1.1269
 6195SOL    HW130044   0.271   0.540   6.229 -0.2824 -1.1110  0.3159
 6195SOL    HW230045   0.171   0.491   6.135 -1.9638  0.3304 -1.5464
 6196SOL     OW30046   0.899   2.896   5.845 -0.0040  0.0373  0.3003
 6196SOL    HW130047   0.911   2.870   5.936  0.0747 -0.1298  0.2411
 6196SOL    HW230048   0.864   2.982   5.869  0.2657  0.5194 -1.0295
 6197SOL     OW30049   1.251   0.757   0.912  0.1581  0.0181 -0.2045
 6197SOL    HW130050   1.240   0.664   0.892  2.5374 -0.1929 -0.4866
 6197SOL    HW230051   1.345   0.760   0.930 -0.1145  0.7204  1.0900
 6198SOL     OW30052   0.450   0.179  13.307 -0.8246 -0.5395 -0.2957
 6198SOL    HW130053   0.535   0.222  13.295 -2.1966  2.7487  1.4829
 6198SOL    HW230054   0.479   0.088  13.310  0.4651 -0.1006  0.7205
 6199SOL     OW30055   3.406   1.436   4.555  0.6517 -0.1315 -0.2662
 6199SOL    HW130056   3.500   1.419   4.561  1.0383  2.3727  0.7255
 6199SOL    HW230057   3.404   1.508   4.618 -1.2078 -0.5868  0.1989
 6200SOL     OW30058   0.855   4.135   5.999 -0.1113 -0.1569 -0.0350
 6200SOL    HW130059   0.913   4.210   6.013 -1.4905  1.1917 -1.5382
 6200SOL    HW230060   0.914   4.082   5.946  0.9215 -0.1148  1.0817
 6201SOL     OW30061   0.918   2.944  15.362  0.5267  0.3243  0.0461
 6201SOL    HW130062   0.986   3.011  15.364 -0.5329  1.3961  0.2899
 6201SOL    HW230063   0.947   2.871  15.416  0.9281  0.0585 -0.5234
 6202SOL     OW30064   0.988   1.921  11.333 -0.2018 -0.4283  0.4244
 6202SOL    HW130065   0.962   2.009  11.304 -0.8589 -1.0584 -0.8980
 6202SOL    HW230066   0.993   1.861  11.259  0.1432  0.7121 -0.4731
 6203SOL     OW30067   1.007   0.825   2.369 -1.3427  0.2492 -0.1953
 6203SOL    HW130068   1.007   0.805   2.463  3.3993 -0.0675 -0.2976
 6203SOL    HW230069   0.926   0.786   2.335 -0.6721 -0.0703 -1.4031
 6204SOL     OW30070   4.105   3.330  13.842 -0.3764 -0.1420  0.1622
 6204SOL    HW130071   4.165   3.360  13.911  0.1701 -0.3383 -0.2231
 6204SOL    HW230072   4.109   3.235  13.852 -2.2374 -0.3387 -1.1172
 6205SOL     OW30073   3.694   2.433   2.349 -0.3443  0.1852 -1.1467
 6205SOL    HW130074   3.638   2.362   2.317  0.8478 -0.6341 -1.4342
 6205SOL    HW230075   3.645   2.514   2.334  1.8878  1.4256 -1.7021
 6206SOL     OW30076   4.640   0.382   7.922  0.0049  0.0250 -0.0089
 6206SOL    HW130077   4.626   0.355   8.013 -0.2566  0.8790  0.2065
 6206SOL    HW230078   4.596   0.311   7.877 -1.5484  0.2054  1.2288
 6207SOL     OW30079   0.309   0.052   3.315 -0.4600  0.2942  0.5153
 6207SOL    HW130080   0.381   0.107   3.286 -1.2241  0.2338 -1.5056
 6207SOL    HW230081   0.328   0.043   3.409 -0.1172  2.0828  0.6216
 6208SOL     OW30082   1.694   2.870  16.827  0.1324  0.5861  0.2348
 6208SOL    HW130083   1.670   2.784  16.794  1.8198  1.6523 -3.8082
 6208SOL    HW230084   1.614   2.919  16.805  0.4655  0.5061 -1.1062
 6209SOL     OW30085   1.840   2.479   3.123  0.0962 -0.4290  0.2582
 6209SOL    HW130086   1.761   2.440   3.084  1.7804 -1.4069 -2.1683
 6209SOL    HW230087   1.906   2.419   3.090 -0.3403 -1.5055  1.3554
 6210SOL     OW30088   2.366   3.082  16.413  0.0287 -0.0452  0.1461
 6210SOL    HW130089   2.383   3.176  16.422 -0.9213  0.1616 -0.2043
 6210SOL    HW230090   2.303   3.072  16.485 -1.1723  0.8016 -0.7916
 6211SOL     OW30091   4.562   3.220   7.785 -0.0428  0.3403  0.6698
 6211SOL    HW130092   4.595   3.309   7.797  0.1241  0.4914 -0.9338
 6211SOL    HW230093   4.630   3.170   7.830 -0.9979 -0.4552  1.2504
 6212SOL     OW30094   2.268   2.412   3.093 -0.1570  0.1159  0.1977
 6212SOL    HW130095   2.296   2.356   3.166 -1.1671  0.5668  0.9299
 6212SOL    HW230096   2.262   2.499   3.132  1.3099 -0.1440  1.0040
 6213SOL     OW30097   2.029   1.565  14.271  0.8479 -0.6865 -0.3640
 6213SOL    HW130098   2.113   1.589  14.311 -0.2260 -2.5084  2.9827
 6213SOL    HW230099   2.061   1.493  14.216  0.9554 -0.2054 -0.9288
 6214SOL     OW30100   3.170   2.549   0.588 -0.4074  0.1835  0.2543
 6214SOL    HW130101   3.220   2.496   0.526 -0.6405 -0.4252  0.5869
 6214SOL    HW230102   3.242   2.561   0.650  0.3100 -0.6512 -0.4259
 6215SOL     OW30103   0.986   2.765  15.539 -0.3581 -0.2608 -0.2925
 6215SOL    HW130104   1.051   2.806  15.597  0.1955  1.2291 -1.9748
 6215SOL    HW230105   0.957   2.713  15.614  2.1817  0.3791  1.1566
 6216SOL     OW30106   2.439   1.699  11.763 -0.4285  0.0699  0.0843
 6216SOL    HW130107   2.398   1.783  11.781  0.0565  0.5840 -1.2427
 6216SOL    HW230108   2.521   1.727  11.722  1.1634 -1.5829  2.1033
 6217SOL     OW30109   0.783   1.338  14.112  0.0270 -0.2679  0.0220
 6217SOL    HW130110   0.853   1.273  14.111  0.7530  0.5213 -0.3964
 6217SOL    HW230111   0.752   1.336  14.202 -0.9568  0.5613 -0.2876
 6218SOL     OW30112   2.798   2.062   0.968  0.4699 -0.2913  0.1934
 6218SOL    HW130113   2.788   2.092   0.878  0.3581  1.4497  0.7747
 6218SOL    HW230114   2.758   2.137   1.013  0.9411 -0.1721  0.4124
 6219SOL     OW30115   2.986   0.135   5.865  0.4218 -0.6426  0.0171
 6219SOL    HW130116   2.912   0.114   5.922 -0.2020 -1.5855 -1.1469
 6219SOL    HW230117   3.037   0.171   5.938 -0.3296  0.3606  0.0550
 6220SOL     OW30118   4.648   3.482   1.074  0.3017  0.7429 -0.2170
 6220SOL    HW130119   4.605   3.566   1.053  0.8852  1.4177  1.2441
 6220SOL    HW230120   4.688   3.454   0.992 -0.1419 -1.9877  0.5205
 6221SOL     OW30121   1.577   1.437   5.458  0.1017 -0.2976  0.2024
 6221SOL    HW130122   1.613   1.383   5.388  0.6204  0.7536 -0.3465
 6221SOL    HW230123   1.636   1.511   5.444 -1.3671  1.0108  0.8712
 6222SOL     OW30124   3.721   3.905  14.799 -0.2934  0.5070 -0.1814
 6222SOL    HW130125   3.801   3.912  14.850  0.6723 -1.9573 -1.3762
 6222SOL    HW230126   3.711   3.810  14.792 -0.6655  0.5699 -0.5088
 6223SOL     OW30127   3.808   3.350   6.754 -0.0454 -0.0438  0.8020
 6223SOL    HW130128   3.843   3.383   6.671  1.6840 -3.4303  0.1415
 6223SOL    HW230129   3.803   3.260   6.722 -1.5042 -0.6402  2.7184
 6224SOL     OW30130   1.573   1.704   8.265  0.1241 -0.1412 -0.5839
 6224SOL    HW130131   1.514   1.637   8.231  0.0667 -0.8391  0.8796
 6224SOL    HW230132   1.519   1.743   8.334  0.8008  1.4419 -0.9592
 6225SOL     OW30133   2.827   1.406   7.886  0.0463 -0.0208  0.3465
 6225SOL    HW130134   2.811   1.398   7.980 -1.1134 -1.6051  0.0227
 6225SOL    HW230135   2.761   1.470   7.860  0.2415 -0.4632 -1.2312
 6226SOL     OW30136   3.032   1.921  13.488  0.4832  0.5664 -0.0625
 6226SOL    HW130137   2.942   1.950  13.501  0.1660  0.3995 -1.7773
 6226SOL    HW230138   3.052   1.967  13.406 -0.5201 -2.0054 -1.7859
 6227SOL     OW30139   3.277   0.302   3.825 -0.3274  0.3001  0.5740
 6227SOL    HW130140   3.191   0.331   3.795 -0.7995  0.8760  2.4879
 6227SOL    HW230141   3.250   0.261   3.907 -3.1475  1.7887  0.3625
 6228SOL     OW30142   0.975   0.532   8.771 -0.5832 -0.2045  0.2209
 6228SOL    HW130143   0.973   0.436   8.767  2.5087 -0.2543  0.3569
 6228SOL    HW230144   1.065   0.543   8.799 -0.9115 -1.3052  1.7162
 6229SOL     OW30145   1.839   4.414   5.646  0.2415 -0.5467 -0.4843
 6229SOL    HW130146   1.793   4.387   5.726  0.9436 -1.1842 -0.2970
 6229SOL    HW230147   1.809   4.502   5.625  0.0051 -0.4062  0.4508
 6230SOL     OW30148   1.771   1.728  13.768 -0.8258 -0.0948 -0.4529
 6230SOL    HW130149   1.737   1.757  13.683 -2.2450  1.8427  0.7694
 6230SOL    HW230150   1.734   1.797  13.823  0.2542 -0.5842  0.9032
 6231SOL     OW30151   2.577   0.606   8.758  0.0469 -0.8678  0.2936
 6231SOL    HW130152   2.656   0.653   8.731 -0.4064  0.2585  0.9261
 6231SOL    HW230153   2.590   0.606   8.853  0.5612  1.1475  0.2287
 6232SOL     OW30154   2.026   4.560   0.165 -0.5819 -0.3197 -0.3934
 6232SOL    HW130155   1.931   4.576   0.160 -0.5102 -0.0936 -1.0635
 6232SOL    HW230156   2.058   4.579   0.077  2.4017 -2.0526  0.3513
 6233SOL     OW30157   1.196   2.057   6.469 -0.1389 -0.8074 -0.1147
 6233SOL    HW130158   1.128   2.102   6.420 -0.0134  0.5001  0.9063
 6233SOL    HW230159   1.233   2.115   6.536 -3.7307  1.1265  0.1715
 6234SOL     OW30160   3.056   0.959   5.941 -0.2165 -0.9076 -0.0623
 6234SOL    HW130161   3.002   0.974   6.019  0.4293 -1.9344  0.5818
 6234SOL    HW230162   3.028   1.041   5.901 -1.4530 -0.4032  1.8445
 6235SOL     OW30163   3.855   1.578   6.227 -0.1191  0.0486 -0.0846
 6235SOL    HW130164   3.767   1.544   6.209  0.4582 -1.3209 -0.2967
 6235SOL    HW230165   3.845   1.623   6.311  1.0978  3.5364 -1.7952
 6236SOL     OW30166   4.120   4.594   3.651  0.0921  0.4277  0.1414
 6236SOL    HW130167   4.165   4.540   3.586 -0.3662 -0.0353  0.2085
 6236SOL    HW230168   4.117   4.533   3.724 -2.3183  2.3500  1.6587
 6237SOL     OW30169   0.394   3.249   8.376  0.0437  0.5087 -0.4422
 6237SOL    HW130170   0.435   3.328   8.341 -1.3901  0.7378 -1.5915
 6237SOL    HW230171   0.465   3.221   8.434  1.2475  1.2361 -1.5654
 6238SOL     OW30172   2.076   1.316   5.596  0.4447  0.2227  0.1590
 6238SOL    HW130173   2.157   1.343   5.552  0.6783  0.2456  0.6061
 6238SOL    HW230174   2.086   1.251   5.665  0.4081  0.4159  0.3456
 6239SOL     OW30175   1.991   2.903   9.804 -0.4436 -0.1166 -0.3941
 6239SOL    HW130176   2.055   2.941   9.864  0.0362 -1.7865  0.1597
 6239SOL    HW230177   1.980   2.816   9.842 -0.1743 -0.3395 -0.8268
 6240SOL     OW30178   0.533   1.312   7.392  0.6524 -0.7141  0.2220
 6240SOL    HW130179   0.627   1.314   7.411  0.5167 -0.2318  0.8252
 6240SOL    HW230180   0.506   1.348   7.476 -1.2499  0.2064 -0.7910
 6241SOL     OW30181   1.039   2.684  10.288 -0.1962 -0.9803  0.3427
 6241SOL    HW130182   0.949   2.653  10.280 -1.0932  2.0117 -1.0905
 6241SOL    HW230183   1.063   2.714  10.201 -1.5239 -0.6219  0.1072
 6242SOL     OW30184   4.673   1.368   7.696 -0.7360  0.0789 -0.1000
 6242SOL    HW130185   0.045   1.376   7.689 -0.6409 -0.6728  0.3228
 6242SOL    HW230186   4.668   1.280   7.659  0.8465  0.2921 -0.8136
 6243SOL     OW30187   2.910   1.052   4.244 -0.1137  0.1323  0.7519
 6243SOL    HW130188   2.869   1.117   4.300  1.1882  3.3288 -1.9896
 6243SOL    HW230189   2.900   1.098   4.161 -1.2275 -0.6955  0.4270
 6244SOL     OW30190   2.908   3.945  13.608  0.1441  0.0796 -0.3663
 6244SOL    HW130191   2.876   3.855  13.597 -2.0826  0.8586 -0.1164
 6244SOL    HW230192   2.827   3.992  13.589  1.5581  2.8942  0.5712
 6245SOL     OW30193   4.005   2.318   9.544  0.0561  0.2515  0.2037
 6245SOL    HW130194   4.037   2.294   9.456 -2.0845 -2.7334  0.2412
 6245SOL    HW230195   3.947   2.390   9.518 -0.5235  0.2936  1.6384
 6246SOL     OW30196   1.090   2.450   7.853  0.0679  0.4491 -0.2327
 6246SOL    HW130197   1.041   2.372   7.828  0.7331 -0.1087  0.2073
 6246SOL    HW230198   1.064   2.450   7.945 -1.6694 -0.7822 -0.7387
 6247SOL     OW30199   1.127   3.735   2.190 -0.2807 -0.1245 -0.4357
 6247SOL    HW130200   1.187   3.744   2.264 -2.0176  1.8908  0.6885
 6247SOL    HW230201   1.186   3.751   2.116  3.6054 -1.1079  2.4444
 6248SOL     OW30202   3.094   4.064   1.675  0.1192  0.6786  0.0050
 6248SOL    HW130203   3.187   4.086   1.680  0.0958  0.4716  1.5314
 6248SOL    HW230204   3.075   4.074   1.582  2.0503 -0.2321 -0.4891
 6249SOL     OW30205   0.971   1.630   4.612  0.0572  0.1804  0.0981
 6249SOL    HW130206   1.066   1.623   4.600 -0.3451 -1.6038 -2.0178
 6249SOL    HW230207   0.957   1.720   4.641 -1.0332 -0.2930  1.0085
 6250SOL     OW30208   4.287   3.051   6.920 -0.0085 -0.5476 -0.3722
 6250SOL    HW130209   4.340   3.120   6.878  1.6904 -2.0462 -0.6686
 6250SOL    HW230210   4.202   3.056   6.875 -0.2991 -1.5279  0.0753
 6251SOL     OW30211   3.612   0.152   9.059 -0.2044  0.8149  0.2604
 6251SOL    HW130212   3.678   0.215   9.085 -1.7240  3.2674 -1.8706
 6251SOL    HW230213   3.561   0.151   9.140 -0.8721 -0.8347 -0.1680
 6252SOL     OW30214   1.496   4.010  10.803 -0.1877  0.0266 -0.1036
 6252SOL    HW130215   1.531   4.057  10.727  1.7422 -0.0373  0.7437
 6252SOL    HW230216   1.572   3.984  10.855 -1.4262 -1.7336  0.8241
 6253SOL     OW30217   2.094   2.912   8.601 -0.1986  0.0646  0.0537
 6253SOL    HW130218   2.026   2.966   8.561  0.9332  0.9489 -0.6721
 6253SOL    HW230219   2.160   2.904   8.532  0.3539 -0.5501  0.6471
 6254SOL     OW30220   2.959   1.678  11.584  0.1243  0.2494  0.0038
 6254SOL    HW130221   2.927   1.645  11.668 -1.4619  1.3390 -0.1809
 6254SOL    HW230222   2.923   1.606  11.532 -0.0842  1.0557 -0.9647
 6255SOL     OW30223   4.302   2.537   9.985  0.5938  0.3802 -0.2088
 6255SOL    HW130224   4.252   2.519   9.905 -1.3036  0.1593  1.0605
 6255SOL    HW230225   4.392   2.536   9.950  1.4856  2.2801  2.0196
 6256SOL     OW30226   3.848   2.270  14.414  0.2162 -0.7425  0.3578
 6256SOL    HW130227   3.918   2.278  14.478 -0.6706  3.2369  0.8438
 6256SOL    HW230228   3.879   2.347  14.367  1.8523 -0.2054  2.3120
 6257SOL     OW30229   2.065   0.214  17.024 -0.3877 -0.6535  0.1407
 6257SOL    HW130230   2.080   0.212  16.929  0.0756  0.4876  0.1891
 6257SOL    HW230231   2.074   0.123  17.052  1.4532 -0.1453  1.2052
 6258SOL     OW30232   3.142   3.782   5.959  0.4361  0.2867  0.2541
 6258SOL    HW130233   3.133   3.721   6.032 -1.5916  0.9782  0.5912
 6258SOL    HW230234   3.181   3.853   6.010  0.5029 -1.8683  3.1502
 6259SOL     OW30235   2.289   4.525   1.731 -0.4864 -0.3500 -0.3602
 6259SOL    HW130236   2.226   4.502   1.800 -0.7357 -2.9233 -1.4427
 6259SOL    HW230237   2.344   4.583   1.782 -0.2327  0.2943 -1.3792
 6260SOL     OW30238   3.533   1.299   7.779 -0.1240 -0.2969 -0.0197
 6260SOL    HW130239   3.465   1.366   7.776 -0.2522 -0.4716 -0.9344
 6260SOL    HW230240   3.532   1.282   7.873 -1.4498  0.5636  0.1143
 6261SOL     OW30241   0.436   2.110  12.175  0.2228 -0.5535  0.4234
 6261SOL    HW130242   0.412   2.198  12.144 -0.2609 -1.2844 -1.2968
 6261SOL    HW230243   0.521   2.092  12.134 -0.6774  0.8136 -2.0496
 6262SOL     OW30244   1.905   1.125  10.586  0.3397  0.0494 -0.6263
 6262SOL    HW130245   1.817   1.154  10.563  0.8572  1.3256 -1.0246
 6262SOL    HW230246   1.958   1.172  10.522  1.0101  1.0528  0.6523
 6263SOL     OW30247   2.528   4.209  11.935 -0.2021 -0.1265  0.1141
 6263SOL    HW130248   2.560   4.291  11.898 -0.2330 -0.4167 -0.5543
 6263SOL    HW230249   2.450   4.244  11.979 -0.4477 -0.8889  0.2956
 6264SOL     OW30250   2.918   0.293  10.974 -0.2051 -0.7147 -0.0373
 6264SOL    HW130251   2.908   0.324  11.064  0.0622 -0.7664  0.0084
 6264SOL    HW230252   2.965   0.354  10.917  0.4775  0.5643  1.8749
 6265SOL     OW30253   4.267   4.026   3.887  0.5260 -0.2277  0.3558
 6265SOL    HW130254   4.193   3.966   3.890 -0.0757  0.4046 -2.4307
 6265SOL    HW230255   4.269   4.056   3.978 -1.4780  0.8422  0.0499
 6266SOL     OW30256   2.104   3.724   2.235 -0.0963  0.1003 -0.3914
 6266SOL    HW130257   2.080   3.808   2.273 -0.9775 -1.4698  2.5497
 6266SOL    HW230258   2.160   3.688   2.304 -0.7606 -0.6146 -0.2221
 6267SOL     OW30259   1.528   1.828   2.069  0.0573  0.3041  0.2304
 6267SOL    HW130260   1.545   1.755   2.010 -0.9322  0.2244  0.0515
 6267SOL    HW230261   1.615   1.855   2.098 -0.2236 -0.7017  1.9883
 6268SOL     OW30262   0.796   2.835   6.898  0.3593 -0.2385  0.2121
 6268SOL    HW130263   0.732   2.869   6.835  0.6904 -0.3284 -0.1682
 6268SOL    HW230264   0.738   2.817   6.972 -0.0662 -1.1978 -0.3455
 6269SOL     OW30265   0.539   1.796   4.703 -0.2000  0.3085  0.0174
 6269SOL    HW130266   0.503   1.712   4.733  0.8031 -0.8243 -1.9389
 6269SOL    HW230267   0.551   1.770   4.611  0.6570 -0.0011  0.2249
 6270SOL     OW30268   3.080   2.774   3.923  0.0940 -0.1549  0.2932
 6270SOL    HW130269   3.074   2.718   3.846  1.7898 -1.0826  0.8337
 6270SOL    HW230270   3.096   2.859   3.883  0.1527 -0.7443 -0.9100
 6271SOL     OW30271   3.901   2.977  13.459 -0.0457  0.2358  0.4150
 6271SOL    HW130272   3.937   3.002  13.374 -0.5738 -0.9563 -0.1640
 6271SOL    HW230273   3.814   2.957  13.425 -0.5455  0.4378  1.5892
 6272SOL     OW30274   0.171   3.487   9.699 -0.3120  0.6594 -0.2777
 6272SOL    HW130275   0.158   3.400   9.662  1.0189  0.0150  0.7753
 6272SOL    HW230276   0.082   3.500   9.733 -0.2561 -3.1947  1.2430
 6273SOL     OW30277   2.911   3.085  12.998  0.6876  0.3744  0.3081
 6273SOL    HW130278   2.867   3.013  13.043 -0.2739  0.7823  0.0163
 6273SOL    HW230279   3.001   3.053  12.991  0.4448  0.1115 -1.5872
 6274SOL     OW30280   1.202   2.317   5.110 -0.6023 -0.0545 -0.0502
 6274SOL    HW130281   1.118   2.347   5.143 -0.9261 -1.1583  0.1355
 6274SOL    HW230282   1.260   2.335   5.184  1.0772 -0.1569 -1.3473
 6275SOL     OW30283   0.297   4.205   6.704 -0.7163 -0.1949  0.1516
 6275SOL    HW130284   0.234   4.200   6.776 -0.3380 -2.0938  0.3434
 6275SOL    HW230285   0.235   4.231   6.635 -1.7284 -0.5942  0.9108
 6276SOL     OW30286   4.159   2.811   9.116 -0.0981 -0.4315  0.0782
 6276SOL    HW130287   4.250   2.817   9.143  0.0887 -0.3040 -0.5664
 6276SOL    HW230288   4.129   2.900   9.096  2.0234  0.7223  2.1693
 6277SOL     OW30289   3.928   2.141   1.830  0.3969  0.7155 -0.0712
 6277SOL    HW130290   3.867   2.166   1.762  0.5243  0.5447 -0.2479
 6277SOL    HW230291   3.880   2.105   1.905  1.2528  1.7004  0.9550
 6278SOL     OW30292   3.946   0.750  16.075  0.4091 -0.0082  0.4530
 6278SOL    HW130293   3.885   0.757  16.002 -1.4160  1.0189  2.0568
 6278SOL    HW230294   3.934   0.841  16.100 -1.9077  0.1692 -1.3434
 6279SOL     OW30295   0.574   4.129   8.702  0.3154  0.0935 -0.5112
 6279SOL    HW130296   0.492   4.166   8.671  0.1349 -1.9082 -2.4478
 6279SOL    HW230297   0.620   4.107   8.621 -0.2687  0.6606 -0.9983
 6280SOL     OW30298   1.912   1.772  15.411 -0.4735 -0.2540 -0.3281
 6280SOL    HW130299   1.939   1.787  15.320  0.8814  2.9236  0.6082
 6280SOL    HW230300   1.943   1.684  15.430 -1.7980 -0.7234 -0.3741
 6281SOL     OW30301   1.444   3.199   4.970  0.4351  0.1684 -0.3510
 6281SOL    HW130302   1.492   3.241   5.042 -0.1578  0.9662 -0.4342
 6281SOL    HW230303   1.517   3.218   4.911  0.4650  3.6650  0.7918
 6282SOL     OW30304   1.364   4.123   5.421  0.1877  0.2571 -0.5116
 6282SOL    HW130305   1.370   4.166   5.336  1.1406  0.4742 -0.3366
 6282SOL    HW230306   1.294   4.060   5.405  0.0493  0.6240 -1.3375
 6283SOL     OW30307   2.459   0.109   7.927  0.2462  0.2413 -0.4847
 6283SOL    HW130308   2.365   0.097   7.918  0.1634 -0.9162  1.9642
 6283SOL    HW230309   2.486   0.091   7.837 -1.1631 -0.6210 -0.7353
 6284SOL     OW30310   2.172   1.223   7.311 -0.0423 -0.7924 -0.1970
 6284SOL    HW130311   2.081   1.195   7.309 -0.5179  0.8916 -1.5180
 6284SOL    HW230312   2.221   1.150   7.272  0.8755 -0.0482 -0.4377
 6285SOL     OW30313   0.436   3.962  14.575 -0.3541 -0.4318  0.4539
 6285SOL    HW130314   0.462   4.024  14.643 -1.6447 -1.2275  1.6785
 6285SOL    HW230315   0.375   3.905  14.621  0.2270 -0.5756  1.0360
 6286SOL     OW30316   0.057   0.765   7.922 -0.0150  0.1771  0.1119
 6286SOL    HW130317   0.078   0.672   7.936  0.3658  0.0088 -1.4995
 6286SOL    HW230318   4.690   0.775   7.891  0.3633  1.0866 -0.6823
 6287SOL     OW30319   4.194   0.321   4.051 -0.1003 -0.1931  0.0661
 6287SOL    HW130320   4.202   0.306   3.956 -1.2158 -0.1207 -0.0436
 6287SOL    HW230321   4.259   0.391   4.057  0.8554 -0.9325 -1.5473
 6288SOL     OW30322   3.084   2.604  10.998 -0.0989 -0.2317 -0.0923
 6288SOL    HW130323   3.038   2.672  11.047  2.2501  1.8304 -0.7978
 6288SOL    HW230324   3.137   2.572  11.071 -1.9444  1.9446  2.1948
 6289SOL     OW30325   3.086   1.729   1.329 -0.0166 -0.0788 -0.0532
 6289SOL    HW130326   3.047   1.716   1.243 -0.8690  0.3698  0.2571
 6289SOL    HW230327   3.080   1.645   1.375  0.9116 -0.1739 -0.1046
 6290SOL     OW30328   3.563   3.411   9.576  0.1556  0.0027 -0.1781
 6290SOL    HW130329   3.646   3.374   9.606  0.8469  0.2157 -1.8662
 6290SOL    HW230330   3.593   3.499   9.601  0.8404  0.0655 -1.2215
 6291SOL     OW30331   1.932   3.850   8.416 -0.0114 -0.2919 -0.0917
 6291SOL    HW130332   2.022   3.843   8.385 -0.2625 -1.9449 -0.4270
 6291SOL    HW230333   1.894   3.909   8.350 -2.5929  0.4423  2.0331
 6292SOL     OW30334   2.499   3.492  13.863  0.7780 -0.0351 -0.5582
 6292SOL    HW130335   2.458   3.464  13.781  0.3357 -1.4705  0.1629
 6292SOL    HW230336   2.583   3.447  13.853  2.0457  2.3491 -0.7878
 6293SOL     OW30337   3.985   0.775   2.024 -0.0396 -0.0158  0.9457
 6293SOL    HW130338   4.064   0.730   2.052  1.0995  1.3841  0.0087
 6293SOL    HW230339   4.027   0.861   2.015 -1.0682  0.3471 -0.4180
 6294SOL     OW30340   1.757   2.140   6.582 -0.9922  0.8403 -0.2540
 6294SOL    HW130341   1.750   2.083   6.658  0.2327  0.3754 -0.4867
 6294SOL    HW230342   1.852   2.154   6.586 -0.9906  1.1078 -1.1116
 6295SOL     OW30343   0.377   2.143   8.959 -0.2979  0.0394  0.0141
 6295SOL    HW130344   0.354   2.061   8.915  1.2784 -0.2524 -0.2892
 6295SOL    HW230345   0.466   2.118   8.987  0.5350 -0.0065 -2.6735
 6296SOL     OW30346   0.911   0.255   5.123  0.1514  0.1290 -0.0869
 6296SOL    HW130347   0.974   0.185   5.137  0.5100  0.0880 -1.9191
 6296SOL    HW230348   0.854   0.233   5.197 -2.6576  1.0361 -1.9542
 6297SOL     OW30349   0.022   2.595   9.534 -0.1911 -0.2028 -0.2562
 6297SOL    HW130350   0.002   2.646   9.613 -0.4004 -1.4905  0.5171
 6297SOL    HW230351   0.026   2.507   9.571 -2.0885 -0.6663 -1.1722
 6298SOL     OW30352   4.694   2.549   1.854 -0.1383 -0.6292  0.3730
 6298SOL    HW130353   0.009   2.472   1.812  0.7403 -0.1678  0.3261
 6298SOL    HW230354   0.045   2.588   1.900 -1.5781  0.3465  1.8580
 6299SOL     OW30355   2.787   2.679   4.459 -0.4536  0.4743 -0.3670
 6299SOL    HW130356   2.709   2.625   4.475  0.1491 -0.5923 -1.0234
 6299SOL    HW230357   2.750   2.737   4.391  0.9814  0.5152 -1.1140
 6300SOL     OW30358   3.508   4.090   1.420  0.3725 -0.6699 -0.1117
 6300SOL    HW130359   3.430   4.040   1.446 -0.3901  0.9534  0.7364
 6300SOL    HW230360   3.464   4.148   1.357  0.3622  0.0359  0.5533
 6301SOL     OW30361   2.002   4.376  13.104  0.2084 -0.7408  0.0524
 6301SOL    HW130362   2.092   4.375  13.137  0.3225  0.9232 -0.2421
 6301SOL    HW230363   1.986   4.468  13.086  2.4845 -0.3841 -0.1875
 6302SOL     OW30364   1.582   1.326   3.039  0.0873  0.3640 -0.2506
 6302SOL    HW130365   1.508   1.337   3.099 -1.0059 -1.7016 -1.2019
 6302SOL    HW230366   1.577   1.231   3.029  2.3035 -0.0310  2.3469
 6303SOL     OW30367   2.904   2.810  11.111  0.4665 -0.4808  0.3627
 6303SOL    HW130368   2.931   2.811  11.203 -0.0068  2.2948  0.4570
 6303SOL    HW230369   2.815   2.777  11.125  0.4654  0.3940  2.4549
 6304SOL     OW30370   1.151   4.686   6.012  0.2003 -0.3578  0.5163
 6304SOL    HW130371   1.234   4.693   6.059  0.1342 -0.1704  0.6059
 6304SOL    HW230372   1.173   0.023   5.941 -0.3381 -1.5199 -0.6337
 6305SOL     OW30373   4.583   3.455   2.121 -0.4333 -0.2553 -0.0806
 6305SOL    HW130374   4.536   3.538   2.115  0.8025  0.2508 -2.4777
 6305SOL    HW230375   4.567   3.431   2.213 -2.9228 -2.4036 -1.0632
 6306SOL     OW30376   0.317   2.914  14.538  0.1886 -0.1918  0.3014
 6306SOL    HW130377   0.298   2.820  14.539 -1.8527  0.2240 -0.0030
 6306SOL    HW230378   0.407   2.922  14.505  0.4494  0.2454  1.1255
 6307SOL     OW30379   4.237   0.120   6.613  0.1950 -0.0010  0.5389
 6307SOL    HW130380   4.282   0.046   6.656 -0.3974  0.5453  2.1064
 6307SOL    HW230381   4.306   0.185   6.622 -0.0491  0.2282  0.7318
 6308SOL     OW30382   0.656   0.410  14.102 -0.3654 -0.2294 -0.7538
 6308SOL    HW130383   0.738   0.376  14.067  0.6157  0.1399  1.1487
 6308SOL    HW230384   0.623   0.470  14.034 -2.4712  0.0196  0.4705
 6309SOL     OW30385   4.494   0.783   7.584  0.3016 -0.1806  0.0419
 6309SOL    HW130386   4.539   0.827   7.511  1.0855  0.1438  0.7212
 6309SOL    HW230387   4.514   0.847   7.653  1.1203  0.9324 -1.2259
 6310SOL     OW30388   4.344   2.767   5.146 -0.1784 -0.7587  0.0023
 6310SOL    HW130389   4.311   2.818   5.072 -2.5907  1.5025  2.6430
 6310SOL    HW230390   4.414   2.712   5.111  1.6567  2.8458 -1.9703
 6311SOL     OW30391   1.635   1.265   0.640  0.0619 -0.5236  0.2674
 6311SOL    HW130392   1.685   1.241   0.563 -0.5859  0.5027 -0.4642
 6311SOL    HW230393   1.597   1.344   0.601  0.7148 -1.0968 -1.4895
 6312SOL     OW30394   0.735   1.752  15.447 -0.5265  0.5119  0.1993
 6312SOL    HW130395   0.683   1.811  15.501  1.7931 -0.5358  3.6347
 6312SOL    HW230396   0.816   1.748  15.499 -0.4065 -1.1746 -0.1123
 6313SOL     OW30397   1.928   2.457  17.603 -0.3614  0.2836 -0.3027
 6313SOL    HW130398   1.986   2.496  17.669 -1.6128  3.1204 -0.8935
 6313SOL    HW230399   1.908   2.535  17.553  0.8278  0.6356 -0.2196
 6314SOL     OW30400   2.511   3.016  15.070  0.1185 -0.2364  0.4660
 6314SOL    HW130401   2.466   3.001  14.986 -0.3488 -1.7650  0.9921
 6314SOL    HW230402   2.576   2.948  15.057  0.8211  0.5075  0.0619
 6315SOL     OW30403   1.019   1.716   1.766 -0.2899 -0.4787  0.2381
 6315SOL    HW130404   1.111   1.706   1.741  0.1225 -0.0422  1.6156
 6315SOL    HW230405   0.977   1.708   1.680 -2.1107  0.4752  1.0356
 6316SOL     OW30406   1.654   1.585   5.017  0.0774  0.0510  0.1542
 6316SOL    HW130407   1.666   1.680   5.011  0.0703  0.0720  0.4367
 6316SOL    HW230408   1.693   1.555   4.935  0.4260 -0.8688  0.6571
 6317SOL     OW30409   3.363   1.330  11.535  0.3964 -0.7333 -0.5994
 6317SOL    HW130410   3.281   1.350  11.580  0.7781  0.7787 -0.5545
 6317SOL    HW230411   3.424   1.368  11.599 -1.5218  2.1686 -0.5028
 6318SOL     OW30412   2.802   4.391   4.619 -0.0123 -0.0133  0.3664
 6318SOL    HW130413   2.803   4.296   4.624  2.2114  0.0130  0.3024
 6318SOL    HW230414   2.785   4.402   4.525  2.8655  0.8374 -0.0509
 6319SOL     OW30415   4.030   4.562   5.037  0.0544  0.0859 -0.4344
 6319SOL    HW130416   3.943   4.521   5.032 -0.5083  1.4753 -1.8580
 6319SOL    HW230417   4.007   4.652   5.013  1.1918  0.2056 -1.0732
 6320SOL     OW30418   3.016   4.183  10.557 -0.0405 -0.3544  0.3126
 6320SOL    HW130419   3.075   4.234  10.612  1.3801 -2.7546  0.9934
 6320SOL    HW230420   3.044   4.199  10.467  0.1399 -0.7309  0.3050
 6321SOL     OW30421   2.568   2.247  16.617 -0.0025 -0.5728  0.6765
 6321SOL    HW130422   2.617   2.198  16.683  0.2305 -1.5794 -0.2417
 6321SOL    HW230423   2.601   2.336  16.616  1.4354 -1.1412 -1.0768
 6322SOL     OW30424   3.480   3.336   5.472  0.1169  0.5844 -0.2305
 6322SOL    HW130425   3.523   3.419   5.451  0.5764  0.8564  1.8226
 6322SOL    HW230426   3.508   3.312   5.560  0.6644 -0.6260 -0.7295
 6323SOL     OW30427   2.940   4.545   9.830  0.0646 -0.0399  0.6192
 6323SOL    HW130428   3.020   4.496   9.811  0.3586  0.4391  0.6191
 6323SOL    HW230429   2.900   4.545   9.743  0.9055 -0.7333  0.2275
 6324SOL     OW30430   4.626   1.989  17.120  0.9255  0.7907 -0.0879
 6324SOL    HW130431   4.596   2.077  17.145  1.8974  1.3074 -0.7511
 6324SOL    HW230432   4.689   1.961  17.186 -0.8645 -1.0863  0.8077
 6325SOL     OW30433   3.512   3.703   4.994  0.4865  0.9737 -0.1125
 6325SOL    HW130434   3.583   3.640   4.985 -0.3636 -0.1495  1.1241
 6325SOL    HW230435   3.474   3.700   4.906  0.4350 -1.5511 -0.0037
 6326SOL     OW30436   1.072   1.155   9.462 -0.1762 -0.6070 -0.4543
 6326SOL    HW130437   1.101   1.128   9.549  0.2528  2.9301  0.5183
 6326SOL    HW230438   1.156   1.189   9.431 -1.3364  0.9216 -1.9391
 6327SOL     OW30439   4.348   4.124   6.102 -0.3024  0.1540  0.0383
 6327SOL    HW130440   4.262   4.161   6.125 -0.6787 -1.3409  1.0255
 6327SOL    HW230441   4.392   4.208   6.087 -1.2255  0.3901 -1.4059
 6328SOL     OW30442   0.868   4.042   3.023  0.2058 -0.3309  0.2628
 6328SOL    HW130443   0.952   4.044   2.978  1.6166 -0.7026  2.8737
 6328SOL    HW230444   0.903   4.028   3.111  2.8283 -0.9849 -0.8849
 6329SOL     OW30445   4.474   3.113  15.113  0.4400  0.2923  0.0686
 6329SOL    HW130446   4.394   3.078  15.152 -0.7553  1.3107 -1.4361
 6329SOL    HW230447   4.550   3.069  15.150  0.5658  0.9805  0.6232
 6330SOL     OW30448   1.890   0.907   6.452 -0.2376  0.0791  0.3663
 6330SOL    HW130449   1.938   0.824   6.447  1.9715  1.2135  2.1717
 6330SOL    HW230450   1.932   0.946   6.529 -0.3320 -1.8922  1.4045
 6331SOL     OW30451   3.086   1.274  17.412 -0.4493 -0.3674 -0.3394
 6331SOL    HW130452   3.134   1.356  17.403 -0.5022 -0.2802  0.2266
 6331SOL    HW230453   3.137   1.238  17.484  1.7334 -0.8355 -2.1010
 6332SOL     OW30454   3.279   4.370   6.508 -0.1675 -0.4490  0.4225
 6332SOL    HW130455   3.336   4.342   6.579 -0.0931 -0.8497  0.2042
 6332SOL    HW230456   3.316   4.329   6.429 -2.8095 -2.8007  0.4092
 6333SOL     OW30457   0.435   1.475   4.646  0.1296 -0.2542  0.1402
 6333SOL    HW130458   0.449   1.517   4.561 -1.2826 -1.2594 -0.6020
 6333SOL    HW230459   0.368   1.413   4.618 -2.3964  1.5465  2.1961
 6334SOL     OW30460   4.260   0.942   8.527 -0.1967  0.9193 -0.2505
 6334SOL    HW130461   4.278   0.868   8.470  0.5842  0.3130  0.7765
 6334SOL    HW230462   4.258   0.909   8.617 -1.3846  2.2360  0.2047
 6335SOL     OW30463   3.993   0.092   3.990  0.2185  0.2796 -0.1443
 6335SOL    HW130464   3.963   0.174   4.028 -0.5903 -0.0045 -0.1574
 6335SOL    HW230465   4.055   0.058   4.054 -0.9882 -0.8358  0.4263
 6336SOL     OW30466   2.614   3.948   7.537 -0.1113 -0.2717  0.1413
 6336SOL    HW130467   2.702   3.980   7.518 -0.9600  1.0095 -1.5963
 6336SOL    HW230468   2.592   3.931   7.446  1.4094 -2.4091  0.1778
 6337SOL     OW30469   1.059   3.001   7.459  0.3957 -0.3261  0.0477
 6337SOL    HW130470   1.069   2.909   7.436  1.3721  0.3699 -2.3392
 6337SOL    HW230471   1.091   2.994   7.548  0.5174  0.5323  0.0740
 6338SOL     OW30472   0.074   1.510   4.033 -0.4555 -0.8689 -0.4568
 6338SOL    HW130473   0.004   1.551   3.983  0.1304 -0.8725 -1.2811
 6338SOL    HW230474   0.107   1.452   3.965 -0.8209 -1.2587 -0.3034
 6339SOL     OW30475   1.208   0.620  13.640 -0.5721  0.2734  0.2485
 6339SOL    HW130476   1.209   0.579  13.554  1.9290 -0.6294  0.6833
 6339SOL    HW230477   1.153   0.696  13.622  0.5916  1.3380  1.1244
 6340SOL     OW30478   3.169   1.056   7.815  0.6174  0.6033  0.1185
 6340SOL    HW130479   3.087   1.008   7.822  0.6593  0.7129  1.4187
 6340SOL    HW230480   3.146   1.127   7.875  0.5708  1.1257 -0.5099
 6341SOL     OW30481   2.848   2.381   6.190  0.2878 -0.2176  0.4800
 6341SOL    HW130482   2.942   2.372   6.171  0.0740 -0.2760 -0.5236
 6341SOL    HW230483   2.848   2.453   6.253 -3.7559  0.2924 -0.1098
 6342SOL     OW30484   2.327   2.436   3.514 -0.0473 -0.2904 -0.0059
 6342SOL    HW130485   2.352   2.379   3.441  1.5609  1.1883 -0.6116
 6342SOL    HW230486   2.245   2.396   3.541 -0.3549  1.6202  1.9038
 6343SOL     OW30487   4.262   3.920   8.107 -0.4711  0.4301  0.0539
 6343SOL    HW130488   4.246   3.927   8.013 -2.6149  0.1143  0.3979
 6343SOL    HW230489   4.330   3.853   8.115 -0.3085  0.7740  1.5414
 6344SOL     OW30490   2.857   2.036   4.369 -0.3422  0.0188  0.0325
 6344SOL    HW130491   2.883   2.066   4.282  2.0771 -0.4190  0.5979
 6344SOL    HW230492   2.922   1.966   4.383  1.6303  1.7697 -0.4441
 6345SOL     OW30493   1.495   0.219   5.728 -0.0560  0.2712  0.2958
 6345SOL    HW130494   1.495   0.124   5.716 -2.1942  0.0641  2.0455
 6345SOL    HW230495   1.435   0.252   5.661  0.5502  0.6443 -0.0714
 6346SOL     OW30496   4.406   1.683  11.604 -0.5445 -0.2924 -0.0949
 6346SOL    HW130497   4.404   1.746  11.676  2.2760 -1.3360  0.9081
 6346SOL    HW230498   4.454   1.611  11.645  1.4873  0.6440 -0.8331
 6347SOL     OW30499   0.090   0.370   2.295 -0.0534  0.2963 -0.6005
 6347SOL    HW130500   0.180   0.395   2.316 -0.0561  0.8765 -1.2905
 6347SOL    HW230501   0.102   0.291   2.243  2.3100  1.7655 -2.2450
 6348SOL     OW30502   2.325   3.072  16.866 -0.4818  0.2589 -0.8420
 6348SOL    HW130503   2.312   3.161  16.899  0.4844  0.2240 -0.3756
 6348SOL    HW230504   2.301   3.081  16.774 -2.5271 -1.0736 -0.4401
 6349SOL     OW30505   3.150   0.077  11.908 -0.1989  0.2474  0.0991
 6349SOL    HW130506   3.177   0.161  11.945  2.3475 -0.1363 -0.9023
 6349SOL    HW230507   3.222   0.039  11.857 -0.8684 -0.9214  0.0252
 6350SOL     OW30508   3.029   3.217  10.844 -0.2916  0.1885 -0.8458
 6350SOL    HW130509   3.040   3.162  10.922  0.5265  0.6144 -0.6550
 6350SOL    HW230510   2.946   3.258  10.867 -0.7299 -2.0665  1.5521
 6351SOL     OW30511   3.641   4.697  16.522  0.3338  0.2781  0.0523
 6351SOL    HW130512   3.682   0.051  16.563 -2.3931  0.5958  2.2209
 6351SOL    HW230513   3.720   4.644  16.530  1.5562  2.2426  1.1917
 6352SOL     OW30514   4.376   3.000   1.522 -0.8919  0.2523 -0.7367
 6352SOL    HW130515   4.306   3.059   1.495  0.3807  2.0692 -0.0471
 6352SOL    HW230516   4.454   3.049   1.497  0.2363  0.8455  3.9984
 6353SOL     OW30517   4.099   1.896   7.143 -0.3210 -0.3267  1.0486
 6353SOL    HW130518   4.109   1.807   7.111 -2.8248  0.4855 -1.9706
 6353SOL    HW230519   4.181   1.911   7.190  0.1411  2.4680 -0.6472
 6354SOL     OW30520   3.721   3.084  11.876 -0.0309 -0.1962  0.3415
 6354SOL    HW130521   3.665   3.059  11.802 -0.0003  0.6618  0.0321
 6354SOL    HW230522   3.809   3.093  11.840 -0.3389  0.5997 -0.2086
 6355SOL     OW30523   3.955   2.642   4.640 -0.0474 -0.0684  0.1722
 6355SOL    HW130524   3.892   2.570   4.643  2.1206 -1.9658 -0.3527
 6355SOL    HW230525   3.928   2.709   4.577  0.2738 -0.3331 -0.2426
 6356SOL     OW30526   4.714   0.891   8.290  0.1189 -0.5287  0.9479
 6356SOL    HW130527   4.678   0.872   8.377 -1.3940 -2.7939 -0.1648
 6356SOL    HW230528   0.076   0.924   8.318 -0.0822 -0.0049  0.9418
 6357SOL     OW30529   4.331   2.759   0.908 -0.0885  0.1346 -0.0148
 6357SOL    HW130530   4.342   2.800   0.994 -1.5621  2.8726 -1.1172
 6357SOL    HW230531   4.405   2.699   0.906 -0.3677 -0.2153  0.3341
 6358SOL     OW30532   3.983   2.820   4.132 -0.1223 -0.3701  0.2812
 6358SOL    HW130533   4.055   2.760   4.152  1.8276  1.3171 -1.7233
 6358SOL    HW230534   4.010   2.865   4.052  0.6145  1.8861  1.7943
 6359SOL     OW30535   1.908   0.244  11.381 -0.4902  0.4567  0.2000
 6359SOL    HW130536   1.905   0.213  11.290  0.9250 -3.9825  1.6674
 6359SOL    HW230537   1.858   0.171  11.417  1.8109 -1.1790  0.0881
 6360SOL     OW30538   0.675   3.096  15.350  0.2684  0.6203 -0.3232
 6360SOL    HW130539   0.747   3.034  15.356 -2.1929 -2.4477 -2.4323
 6360SOL    HW230540   0.716   3.156  15.287 -1.2733  1.3761 -0.6229
 6361SOL     OW30541   3.991   0.576   3.023  0.0626  0.1007  0.3200
 6361SOL    HW130542   4.014   0.522   3.099  2.0763 -0.0245 -0.3757
 6361SOL    HW230543   3.901   0.547   3.012  0.5330 -1.0441 -0.5763
 6362SOL     OW30544   3.696   1.486   2.329  0.0637  0.1320  0.0278
 6362SOL    HW130545   3.738   1.545   2.393 -1.1249  1.6747 -0.6240
 6362SOL    HW230546   3.620   1.541   2.313 -0.6039 -0.7311  0.2521
 6363SOL     OW30547   2.948   1.408  12.263 -0.6302 -0.1743  0.2717
 6363SOL    HW130548   3.035   1.370  12.254 -1.2456 -1.0390 -1.9374
 6363SOL    HW230549   2.959   1.446  12.351 -0.5405 -0.4588  0.3847
 6364SOL     OW30550   1.478   4.110  16.289 -0.0446  0.1693 -0.0669
 6364SOL    HW130551   1.442   4.046  16.349 -1.8506  0.2132 -1.0848
 6364SOL    HW230552   1.571   4.112  16.310 -0.3352  0.6048  1.1563
 6365SOL     OW30553   2.331   3.765   7.051 -0.1001  0.8191  0.0010
 6365SOL    HW130554   2.409   3.795   7.005 -1.2879  1.0218 -1.8804
 6365SOL    HW230555   2.300   3.697   6.990  0.6095  0.9009 -0.4543
 6366SOL     OW30556   2.725   0.446   7.426 -0.0442  0.1484  0.2767
 6366SOL    HW130557   2.675   0.366   7.443 -1.0785  1.2305  2.2420
 6366SOL    HW230558   2.656   0.506   7.397 -0.0577  1.1941  2.4819
 6367SOL     OW30559   4.548   3.626   7.877  0.0384  0.3411 -0.0524
 6367SOL    HW130560   4.526   3.659   7.964 -0.4516 -1.7058  0.6090
 6367SOL    HW230561   4.488   3.552   7.883 -0.2713  0.6843  1.0360
 6368SOL     OW30562   2.222   3.832   6.198  0.0256  0.1453 -0.2570
 6368SOL    HW130563   2.317   3.847   6.198 -0.1520  1.1350 -3.1340
 6368SOL    HW230564   2.196   3.876   6.117 -0.3552  0.2714 -0.0632
 6369SOL     OW30565   2.338   2.231  15.317  0.7961 -0.0049  0.1171
 6369SOL    HW130566   2.317   2.315  15.277 -0.9253 -0.7153 -0.4476
 6369SOL    HW230567   2.273   2.225  15.386  1.7044  0.6891  1.0229
 6370SOL     OW30568   3.334   0.846   7.864 -0.2851  0.2000  0.8191
 6370SOL    HW130569   3.266   0.898   7.820  2.0388  2.8369  0.3622
 6370SOL    HW230570   3.275   0.772   7.879 -2.3035  1.1867 -2.1099
 6371SOL     OW30571   4.707   3.759   2.629 -0.3653 -0.1513  0.4834
 6371SOL    HW130572   4.650   3.732   2.557  0.0385  0.2467  0.0181
 6371SOL    HW230573   0.018   3.845   2.606 -0.9742  0.6626  2.5542
 6372SOL     OW30574   4.445   4.144  14.242  0.0439  0.1314  0.5353
 6372SOL    HW130575   4.489   4.061  14.261  2.8027  0.9727 -2.1849
 6372SOL    HW230576   4.424   4.177  14.329  0.2421  1.7210 -0.0251
 6373SOL     OW30577   2.940   1.379   6.198  0.4551  0.2600  0.4178
 6373SOL    HW130578   2.913   1.299   6.154 -0.3563 -0.5305  2.3221
 6373SOL    HW230579   2.856   1.420   6.216 -0.6457 -2.0466  0.5916
 6374SOL     OW30580   2.239   0.653   6.822 -0.1690  0.3193  0.1791
 6374SOL    HW130581   2.284   0.698   6.894  2.0219 -1.4812 -0.0520
 6374SOL    HW230582   2.297   0.591   6.777  1.1740  0.7598  1.3124
 6375SOL     OW30583   4.318   2.265   5.658  0.5628 -0.2243  0.5856
 6375SOL    HW130584   4.386   2.327   5.681  0.6733 -1.1253  2.6916
 6375SOL    HW230585   4.335   2.202   5.728  0.4686 -0.4959  0.3661
 6376SOL     OW30586   4.250   2.771   7.805 -0.0521 -0.4359  0.8355
 6376SOL    HW130587   4.176   2.748   7.749  1.3881 -2.0216 -0.3890
 6376SOL    HW230588   4.303   2.692   7.804  0.8193  0.1563  0.5669
 6377SOL     OW30589   1.171   2.937  14.033 -0.7198 -0.0698  0.1117
 6377SOL    HW130590   1.203   2.895  14.113 -0.3358  0.4239  0.2198
 6377SOL    HW230591   1.116   3.007  14.068  1.4770  1.6381  0.1597
 6378SOL     OW30592   4.617   1.427   7.305  0.2829 -0.4067  0.0309
 6378SOL    HW130593   4.700   1.426   7.352 -0.3060 -0.9498  1.0531
 6378SOL    HW230594   4.584   1.337   7.304 -0.4091 -0.1295 -2.4002
 6379SOL     OW30595   2.646   4.249   7.159  0.7773 -0.1169  0.2331
 6379SOL    HW130596   2.741   4.262   7.164  0.9704 -1.6863  0.5695
 6379SOL    HW230597   2.615   4.331   7.197 -1.6665 -1.1961  0.5635
 6380SOL     OW30598   1.820   2.787  15.463 -0.2743 -0.1653  0.6140
 6380SOL    HW130599   1.760   2.723  15.499  0.3121 -1.7729 -1.2683
 6380SOL    HW230600   1.905   2.743  15.473 -0.0745 -0.3126 -1.7288
 6381SOL     OW30601   3.042   0.327   4.540 -0.1674 -0.4436  0.0413
 6381SOL    HW130602   3.046   0.273   4.619  2.0243 -2.7215 -1.6522
 6381SOL    HW230603   3.137   0.332   4.527  0.1218 -1.1900  1.8165
 6382SOL     OW30604   2.088   2.145  12.842 -0.3424  0.3953  0.5507
 6382SOL    HW130605   2.082   2.152  12.747 -0.0016 -0.9413  0.4314
 6382SOL    HW230606   2.183   2.142  12.854 -0.2256 -1.3400 -0.8634
 6383SOL     OW30607   4.474   0.593   1.601  0.4520 -0.3421 -0.1446
 6383SOL    HW130608   4.486   0.685   1.623  1.0872 -0.0974 -1.5785
 6383SOL    HW230609   4.506   0.595   1.511  1.9672 -1.5028  0.3654
 6384SOL     OW30610   2.774   0.043   5.001  0.0677  0.1080  0.1196
 6384SOL    HW130611   2.849   4.715   5.029 -0.0655 -0.2491 -0.1700
 6384SOL    HW230612   2.753   0.007   4.915 -0.5728  2.1624 -0.5999
 6385SOL     OW30613   0.562   0.802   0.324  0.8025  0.6898  0.0251
 6385SOL    HW130614   0.644   0.847   0.306  1.0136  0.4178  0.3047
 6385SOL    HW230615   0.554   0.833   0.414 -0.3249 -0.4614  0.3289
 6386SOL     OW30616   3.141   1.747   8.239  0.2818  0.1243  1.0213
 6386SOL    HW130617   3.189   1.770   8.318  0.5061  0.3726  0.8127
 6386SOL    HW230618   3.172   1.816   8.180  0.1589  0.3725  1.2462
 6387SOL     OW30619   4.108   3.006   7.878 -0.1411  0.1977 -0.0670
 6387SOL    HW130620   4.201   3.031   7.875  0.5245 -2.2014  0.6110
 6387SOL    HW230621   4.102   2.954   7.798  1.4779 -0.6612  0.3592
 6388SOL     OW30622   0.325   1.734   1.751  0.0124 -0.0531  0.0566
 6388SOL    HW130623   0.400   1.696   1.798  0.0869 -1.4731 -1.1715
 6388SOL    HW230624   0.357   1.737   1.660 -0.2035  0.4041  0.0005
 6389SOL     OW30625   3.652   0.961   7.698 -0.5472 -0.3746 -0.1905
 6389SOL    HW130626   3.564   0.997   7.692 -0.6146 -0.5504 -0.2742
 6389SOL    HW230627   3.635   0.867   7.708  0.6785 -0.6935 -1.0031
 6390SOL     OW30628   0.549   2.714  11.345 -0.3041  0.4186  0.2768
 6390SOL    HW130629   0.526   2.682  11.258  1.1523 -1.6229  0.6391
 6390SOL    HW230630   0.638   2.746  11.328  0.1466 -0.4659  0.9793
 6391SOL     OW30631   3.509   2.029   9.235 -0.0365  0.3695  0.9124
 6391SOL    HW130632   3.588   2.067   9.273  1.5498  0.2340 -2.3054
 6391SOL    HW230633   3.544   1.995   9.153  0.7473  0.7286  1.0942
 6392SOL     OW30634   0.346   3.426   7.389 -0.4536  0.5921 -0.2914
 6392SOL    HW130635   0.408   3.395   7.324 -0.6368 -2.0669  0.7923
 6392SOL    HW230636   0.387   3.412   7.474  2.2363  0.9386 -1.5556
 6393SOL     OW30637   4.547   0.486  13.006  0.0876 -0.4899  0.3806
 6393SOL    HW130638   4.500   0.483  12.923 -3.3491 -1.5275  2.3685
 6393SOL    HW230639   4.619   0.424  12.999  1.3972  1.1847 -0.9928
 6394SOL     OW30640   2.728   2.544   0.422  0.1975  0.1450 -0.0111
 6394SOL    HW130641   2.777   2.572   0.345  0.0788  0.5956  0.0739
 6394SOL    HW230642   2.789   2.557   0.494  1.1834  0.2061 -0.8610
 6395SOL     OW30643   4.676   4.439  11.703 -0.0546 -0.4484  0.8075
 6395SOL    HW130644   0.019   4.390  11.654  1.1018  1.5412  0.4033
 6395SOL    HW230645   4.624   4.480  11.633  1.4516  0.8806  0.4597
 6396SOL     OW30646   2.802   3.722   2.943  0.3134  0.3829 -0.1248
 6396SOL    HW130647   2.848   3.709   2.860  0.4423  0.8867 -0.1375
 6396SOL    HW230648   2.784   3.632   2.967  1.9107 -0.0518 -0.5656
 6397SOL     OW30649   2.101   2.688  10.913 -0.5517  0.4626  0.3006
 6397SOL    HW130650   2.060   2.763  10.958 -0.3160  0.3981  0.6205
 6397SOL    HW230651   2.127   2.737  10.835 -0.1416  0.1012  0.2126
 6398SOL     OW30652   4.196   0.904   2.255  0.3514 -0.0272  0.0113
 6398SOL    HW130653   4.279   0.951   2.263  0.4815 -0.0785 -1.0766
 6398SOL    HW230654   4.166   0.934   2.170  0.4734  1.1611  0.3866
 6399SOL     OW30655   4.159   1.868   3.295 -0.9838  0.3595  0.2046
 6399SOL    HW130656   4.180   1.961   3.303 -0.1541  0.1984 -0.1089
 6399SOL    HW230657   4.153   1.836   3.385 -1.2456  3.7348  1.3659
 6400SOL     OW30658   3.336   0.245  17.308  0.1318 -0.1717 -0.1274
 6400SOL    HW130659   3.381   0.317  17.353 -0.3501 -1.2904  2.1353
 6400SOL    HW230660   3.246   0.276  17.312  0.6177  1.0268  1.4070
 6401SOL     OW30661   2.183   1.797   3.519 -0.0807  0.4435 -0.7728
 6401SOL    HW130662   2.132   1.717   3.529  2.1283 -0.8420  0.3211
 6401SOL    HW230663   2.116   1.865   3.521  1.6844  2.1106  1.7008
 6402SOL     OW30664   0.133   0.789  16.550  0.3601  0.1372 -0.2405
 6402SOL    HW130665   0.074   0.763  16.620  0.3795  1.3930  0.2475
 6402SOL    HW230666   0.220   0.755  16.570  0.9719  2.0806  0.4033
 6403SOL     OW30667   1.449   1.023   7.516  0.0156 -0.3770  0.6955
 6403SOL    HW130668   1.474   1.114   7.501 -4.4459  0.9741  1.5847
 6403SOL    HW230669   1.384   1.030   7.586  1.1213  0.2021  1.6657
 6404SOL     OW30670   1.524   3.571   2.910 -0.7024 -0.2645 -0.3599
 6404SOL    HW130671   1.520   3.660   2.874  0.0731 -0.1155 -0.0761
 6404SOL    HW230672   1.599   3.575   2.969 -1.0737 -1.5511  0.1889
 6405SOL     OW30673   3.179   0.984  15.242  0.7403  0.2625 -0.3651
 6405SOL    HW130674   3.091   0.952  15.222  1.0674 -2.3539  2.5056
 6405SOL    HW230675   3.185   1.074  15.211  3.1395  0.7458  1.5447
 6406SOL     OW30676   1.391   3.978  13.977 -0.2173 -0.2375  0.0958
 6406SOL    HW130677   1.402   3.943  14.065  2.0888  1.4081  0.4677
 6406SOL    HW230678   1.440   4.060  13.986  1.5586 -1.2913  0.1593
 6407SOL     OW30679   4.378   3.295   4.442 -0.2492  0.1119 -0.0481
 6407SOL    HW130680   4.345   3.366   4.388 -0.3897  0.1149  0.0433
 6407SOL    HW230681   4.294   3.272   4.481  0.5835 -0.6689  1.2806
 6408SOL     OW30682   0.562   0.622   6.740 -0.4344  0.2460 -1.6892
 6408SOL    HW130683   0.641   0.568   6.733 -0.3436  0.1404  0.2930
 6408SOL    HW230684   0.583   0.657   6.653 -0.4986 -1.4038 -2.3557
 6409SOL     OW30685   0.991   3.236   3.417 -0.3506  0.7868  0.0834
 6409SOL    HW130686   1.064   3.177   3.397  0.0197  2.4280 -3.5187
 6409SOL    HW230687   0.932   3.172   3.456  0.9981 -1.3445 -1.3513
 6410SOL     OW30688   1.779   2.016  11.565  0.1561  0.0410  0.1672
 6410SOL    HW130689   1.689   1.996  11.589 -0.1956  0.4388 -0.7995
 6410SOL    HW230690   1.774   2.015  11.469  2.3503  0.3890  0.0539
 6411SOL     OW30691   4.621   2.507   4.404  0.2916  0.5352 -0.2339
 6411SOL    HW130692   4.588   2.417   4.409 -1.9227  1.2169 -2.5708
 6411SOL    HW230693   4.715   2.491   4.407  0.2334  0.7064  2.3810
 6412SOL     OW30694   2.331   4.042   5.132  0.5399 -0.2630 -0.2492
 6412SOL    HW130695   2.263   4.104   5.105  1.5943  1.1234  0.2475
 6412SOL    HW230696   2.364   4.085   5.211  2.2402 -1.6484 -0.2065
 6413SOL     OW30697   1.556   3.500   5.357 -0.0230 -0.5257  0.6439
 6413SOL    HW130698   1.570   3.588   5.321  0.5203 -1.0441 -0.4075
 6413SOL    HW230699   1.627   3.503   5.420  2.1749  0.7056 -1.8495
 6414SOL     OW30700   0.943   0.269   1.520 -0.1420  0.9954  0.4670
 6414SOL    HW130701   0.898   0.345   1.482 -0.4354  0.6411  0.0995
 6414SOL    HW230702   0.870   0.213   1.546 -0.0609  1.2010  1.1288
 6415SOL     OW30703   3.676   3.954   9.074  0.3304  0.1499  0.1958
 6415SOL    HW130704   3.585   3.942   9.048  0.1687  0.0987  0.7873
 6415SOL    HW230705   3.723   3.989   8.998  1.2502  3.9189  2.4601
 6416SOL     OW30706   3.372   3.367   8.717  0.1754 -0.0190  0.4297
 6416SOL    HW130707   3.463   3.393   8.733  0.5918 -3.0650  3.0223
 6416SOL    HW230708   3.329   3.423   8.781 -0.9510  0.8764 -1.1157
 6417SOL     OW30709   4.521   1.346   3.976  0.0111  0.0146  0.2327
 6417SOL    HW130710   4.447   1.403   3.955 -2.4631 -2.9055  0.9411
 6417SOL    HW230711   4.534   1.302   3.892 -1.6996 -2.7367  1.4168
 6418SOL     OW30712   1.664   3.030  11.801  0.4013  0.2261  0.2025
 6418SOL    HW130713   1.751   2.998  11.825  0.3303 -1.4699 -1.7528
 6418SOL    HW230714   1.601   2.990  11.861 -0.7409  1.4847 -0.1457
 6419SOL     OW30715   0.360   0.545   4.151  0.5774  0.0612  0.6959
 6419SOL    HW130716   0.287   0.562   4.210 -0.9211  1.2523 -1.4835
 6419SOL    HW230717   0.424   0.499   4.205 -0.5299 -0.2820  1.7216
 6420SOL     OW30718   2.665   2.495   5.589  0.4610 -0.6693 -0.4605
 6420SOL    HW130719   2.587   2.449   5.619  2.4820 -4.1339 -0.5380
 6420SOL    HW230720   2.689   2.539   5.670  1.0933 -2.0161  0.0736
 6421SOL     OW30721   2.783   1.067   8.249  0.2243  0.2043 -0.8103
 6421SOL    HW130722   2.691   1.093   8.252 -0.8126 -3.3446 -1.7383
 6421SOL    HW230723   2.807   1.073   8.156  1.0524 -1.3185 -0.6920
 6422SOL     OW30724   2.809   0.980   6.368 -0.5480 -0.1054  0.1696
 6422SOL    HW130725   2.768   0.947   6.448 -1.6078  0.4788 -0.1308
 6422SOL    HW230726   2.897   0.988   6.405 -0.5514 -2.0579  0.5937
 6423SOL     OW30727   4.010   2.509  10.609  0.3648 -0.4675 -0.1447
 6423SOL    HW130728   4.023   2.443  10.541  0.3943 -1.2864  0.6504
 6423SOL    HW230729   4.067   2.580  10.582  1.6354 -0.7923  1.7070
 6424SOL     OW30730   1.237   2.593   5.039 -0.0413  0.2288  0.0414
 6424SOL    HW130731   1.204   2.506   5.064 -0.3737 -0.6610 -3.5610
 6424SOL    HW230732   1.244   2.631   5.127 -0.9889  1.3354 -0.3606
 6425SOL     OW30733   0.085   3.372   5.667 -0.0584  0.5616  0.4460
 6425SOL    HW130734   0.150   3.312   5.629  2.3655  1.4459  3.1883
 6425SOL    HW230735   0.099   3.365   5.762  0.4974  1.1129  0.3979
 6426SOL     OW30736   0.654   4.623   9.307  0.0456 -0.1777 -0.1846
 6426SOL    HW130737   0.688   4.677   9.236 -0.7676 -1.2603 -1.3919
 6426SOL    HW230738   0.740   4.584   9.316 -0.2698 -0.4771  1.5743
 6427SOL     OW30739   2.542   1.021  17.212  0.1909  0.0578  0.1269
 6427SOL    HW130740   2.580   0.934  17.206 -2.2421 -0.9590 -0.5960
 6427SOL    HW230741   2.447   1.006  17.209  0.4463 -1.6896  0.6639
 6428SOL     OW30742   4.371   1.271   3.474  0.2723 -0.1331  0.1603
 6428SOL    HW130743   4.374   1.295   3.381  1.6845 -0.0759  0.2277
 6428SOL    HW230744   4.413   1.348   3.512 -0.9501 -0.1105  1.4837
 6429SOL     OW30745   4.611   2.159  15.255 -0.0881  0.1361  0.1150
 6429SOL    HW130746   4.578   2.132  15.341 -0.0121 -3.1642 -0.8828
 6429SOL    HW230747   4.683   2.217  15.281  0.5966  0.4634 -2.5812
 6430SOL     OW30748   3.313   4.722   6.243  0.1729 -0.3231  0.3485
 6430SOL    HW130749   3.360   0.066   6.293  2.0969 -1.1629 -0.3520
 6430SOL    HW230750   3.262   4.688   6.317 -0.9682 -0.4217 -0.4893
 6431SOL     OW30751   4.689   1.459  17.253 -0.3688 -0.1306  0.3054
 6431SOL    HW130752   4.684   1.446  17.158 -1.1017  1.5783  0.1081
 6431SOL    HW230753   4.637   1.539  17.263 -1.9937 -1.2559  0.8739
 6432SOL     OW30754   0.996   0.014   3.862  0.2021  0.2752  0.3502
 6432SOL    HW130755   1.010   4.674   3.791 -1.2256  2.8857 -2.2631
 6432SOL    HW230756   0.949   0.075   3.805 -1.4497 -2.3651 -1.1373
 6433SOL     OW30757   2.530   0.989   2.142  0.1230 -0.2955  0.6975
 6433SOL    HW130758   2.530   0.960   2.233  2.2577  1.0012  1.0991
 6433SOL    HW230759   2.571   1.075   2.136  0.6737 -0.8008 -2.9014
 6434SOL     OW30760   3.418   0.824  12.713  0.0209  0.0775 -0.1521
 6434SOL    HW130761   3.367   0.749  12.680  0.3071 -1.4548  2.8746
 6434SOL    HW230762   3.349   0.889  12.710  0.5761  0.6966  0.5713
 6435SOL     OW30763   2.300   0.472  11.531 -0.0067  0.1094  0.0420
 6435SOL    HW130764   2.359   0.471  11.456 -0.2262 -0.7207 -0.1114
 6435SOL    HW230765   2.277   0.565  11.527  2.0222  0.7537  3.2404
 6436SOL     OW30766   3.231   4.319   8.556  0.2589 -0.1743  0.3057
 6436SOL    HW130767   3.288   4.319   8.633  2.3430 -0.4061 -1.2399
 6436SOL    HW230768   3.213   4.225   8.563  1.8261 -0.4752  0.3886
 6437SOL     OW30769   2.225   2.492  15.235  0.1432 -0.0155 -0.2852
 6437SOL    HW130770   2.246   2.464  15.146 -1.6103  1.1894 -1.0805
 6437SOL    HW230771   2.182   2.570  15.199 -0.3799  0.3686  1.1780
 6438SOL     OW30772   3.836   1.352  16.984  0.1540  0.2824 -0.3132
 6438SOL    HW130773   3.914   1.311  17.020  0.3215  1.2734  0.4647
 6438SOL    HW230774   3.770   1.329  17.049 -1.7700  2.1723 -1.5738
 6439SOL     OW30775   0.067   1.896  10.995  0.1169  0.4569 -0.5738
 6439SOL    HW130776   0.027   1.842  11.063 -1.3428  0.2648 -1.5688
 6439SOL    HW230777   0.157   1.868  10.983 -0.9629 -2.7391 -1.1897
 6440SOL     OW30778   1.483   2.549   6.886 -0.2656  0.1532 -0.4105
 6440SOL    HW130779   1.465   2.629   6.836 -0.8002 -1.6155 -2.9815
 6440SOL    HW230780   1.574   2.571   6.908 -0.3881 -1.7987  2.0020
 6441SOL     OW30781   4.018   0.457   3.717  0.2273 -0.7254  0.5788
 6441SOL    HW130782   4.016   0.381   3.659 -1.9482 -0.0472 -0.2493
 6441SOL    HW230783   3.979   0.529   3.667  0.0167 -1.4806 -0.3488
 6442SOL     OW30784   3.057   1.390   7.749 -0.4137  0.1542  0.3137
 6442SOL    HW130785   3.034   1.454   7.683  0.8265 -0.7533 -0.9989
 6442SOL    HW230786   2.981   1.392   7.807  1.4287  2.2426  2.6919
 6443SOL     OW30787   3.379   3.428  13.550 -0.8623 -0.1399  0.8076
 6443SOL    HW130788   3.420   3.384  13.475 -0.0664  0.3168  0.9684
 6443SOL    HW230789   3.455   3.454  13.603 -0.3804  1.0631 -0.4580
 6444SOL     OW30790   1.817   3.971   3.231 -0.2421 -0.3568  0.4399
 6444SOL    HW130791   1.729   3.940   3.253 -0.7719  0.1439 -0.9376
 6444SOL    HW230792   1.858   3.892   3.198 -0.8547  0.0421 -1.2998
 6445SOL     OW30793   0.812   1.581   3.106 -0.1803  0.1405  0.0158
 6445SOL    HW130794   0.737   1.639   3.098  1.1829  1.8732 -0.1349
 6445SOL    HW230795   0.792   1.509   3.045  2.4562 -0.0403 -0.6514
 6446SOL     OW30796   4.510   0.530   0.756  0.1844 -0.9241  0.0314
 6446SOL    HW130797   4.544   0.609   0.800 -2.2149 -1.0655  2.1288
 6446SOL    HW230798   4.587   0.493   0.713  1.0133  0.2898  0.4517
 6447SOL     OW30799   0.084   2.822   9.008 -0.1160  0.4667 -0.0872
 6447SOL    HW130800   0.111   2.746   8.957  1.0428  1.9107 -1.5804
 6447SOL    HW230801   4.711   2.816   9.000 -0.1043 -0.5393  0.5530
 6448SOL     OW30802   3.360   3.479  16.857 -0.0261 -0.1155 -0.6055
 6448SOL    HW130803   3.316   3.561  16.881 -0.3163 -0.1406 -1.0650
 6448SOL    HW230804   3.452   3.507  16.854  0.1120 -0.3717  0.9688
 6449SOL     OW30805   4.374   1.149  11.052  0.2525  0.2888  0.2337
 6449SOL    HW130806   4.319   1.152  11.130 -0.9751 -0.7676 -0.5921
 6449SOL    HW230807   4.366   1.056  11.030 -1.9113  0.3845  0.5490
 6450SOL     OW30808   2.455   4.551   8.558  0.1682  0.6173  0.0267
 6450SOL    HW130809   2.429   4.526   8.469  0.5078  1.3154 -0.2747
 6450SOL    HW230810   2.546   4.580   8.546 -0.0648  1.4857  0.3898
 6451SOL     OW30811   2.885   0.397   6.213  0.3295 -0.2126  0.5995
 6451SOL    HW130812   2.960   0.351   6.252  1.6056  1.7662  0.4781
 6451SOL    HW230813   2.909   0.485   6.242 -3.1101  0.9765 -0.1473
 6452SOL     OW30814   0.056   1.476  16.971 -0.1288  0.6590 -0.2366
 6452SOL    HW130815   4.686   1.473  16.947 -0.3426 -0.3696  0.7112
 6452SOL    HW230816   0.102   1.435  16.898 -0.9701  1.4132 -1.1932
 6453SOL     OW30817   0.433   3.362   7.646  0.2619 -0.0325 -0.2260
 6453SOL    HW130818   0.473   3.314   7.718  0.6010  1.3571  0.5134
 6453SOL    HW230819   0.341   3.336   7.649 -0.9439  4.1488 -1.1534
 6454SOL     OW30820   4.166   2.906  11.811  0.1688 -0.0397 -0.1641
 6454SOL    HW130821   4.211   2.838  11.763 -2.5010 -0.9551 -1.3869
 6454SOL    HW230822   4.092   2.847  11.828 -1.6448  2.5790  1.0999
 6455SOL     OW30823   1.656   0.542  12.147  0.0498  0.1769  0.1175
 6455SOL    HW130824   1.682   0.634  12.144 -1.3322  0.6164  1.1761
 6455SOL    HW230825   1.579   0.548  12.204  0.9930 -1.4722  1.5933
 6456SOL     OW30826   3.475   3.472   8.151  0.6142 -0.1421 -0.4398
 6456SOL    HW130827   3.454   3.548   8.205 -0.1456  0.5668 -1.7340
 6456SOL    HW230828   3.569   3.486   8.136  0.7796  0.3460  1.0434
 6457SOL     OW30829   4.290   4.585   2.439  0.3988  0.1124  0.4567
 6457SOL    HW130830   4.337   4.620   2.364  0.2140 -0.4912  0.0667
 6457SOL    HW230831   4.334   4.639   2.505  0.3799  1.8923 -0.9643
 6458SOL     OW30832   0.360   4.694   2.580 -0.2424  0.3928 -0.4573
 6458SOL    HW130833   0.365   0.025   2.501  1.0787  0.6650 -0.1845
 6458SOL    HW230834   0.267   4.672   2.578  0.1701 -1.4800  1.0871
 6459SOL     OW30835   0.501   0.108   7.756  0.0347  0.6937 -0.4565
 6459SOL    HW130836   0.455   0.082   7.836 -0.6906 -0.5124 -1.2723
 6459SOL    HW230837   0.508   0.203   7.766 -0.8621  0.5538  1.5594
 6460SOL     OW30838   3.546   0.477   1.874  0.8837 -0.0981  0.2993
 6460SOL    HW130839   3.514   0.494   1.963 -0.0353 -0.4346  0.0355
 6460SOL    HW230840   3.514   0.388   1.854  2.9274 -1.2315  2.0975
 6461SOL     OW30841   3.849   3.658   5.513  0.8912  0.4767 -0.1128
 6461SOL    HW130842   3.858   3.565   5.492  0.6509  0.5246 -0.4177
 6461SOL    HW230843   3.770   3.663   5.567 -0.0543  0.8828 -1.5223
 6462SOL     OW30844   2.133   1.362  11.567  0.6475 -0.2808 -0.1633
 6462SOL    HW130845   2.176   1.290  11.613 -0.2776 -0.9132 -0.2906
 6462SOL    HW230846   2.184   1.372  11.486  1.2688  5.1662  0.8657
 6463SOL     OW30847   3.785   2.065  10.128 -0.2201  0.1388 -0.3401
 6463SOL    HW130848   3.815   2.032  10.043 -0.1300  0.9193 -0.6165
 6463SOL    HW230849   3.750   2.151  10.103 -1.8467 -0.6066 -0.6316
 6464SOL     OW30850   2.277   0.952  17.238 -0.0103 -0.2039 -0.4286
 6464SOL    HW130851   2.228   0.966  17.319  0.1245  0.2511 -0.4290
 6464SOL    HW230852   2.203   0.942  17.179  0.0770 -2.6032 -0.1436
 6465SOL     OW30853   1.857   1.838   2.769  0.3186 -0.0383  0.4717
 6465SOL    HW130854   1.943   1.878   2.776 -0.3093  1.4401 -0.1823
 6465SOL    HW230855   1.844   1.831   2.674  1.1869  1.0117  0.2818
 6466SOL     OW30856   3.256   4.347  11.861  0.6296 -0.0581 -0.3493
 6466SOL    HW130857   3.199   4.395  11.921  1.9610  0.7355  0.2795
 6466SOL    HW230858   3.202   4.280  11.818  0.2370 -0.1799  0.3371
 6467SOL     OW30859   1.667   2.059   5.549  0.0175 -0.4521  0.5329
 6467SOL    HW130860   1.667   2.103   5.633  0.2138 -0.9115  0.7737
 6467SOL    HW230861   1.594   2.001   5.570 -1.7565  1.3080 -0.8135
 6468SOL     OW30862   2.130   2.027   3.193  0.0416  0.3032  0.0949
 6468SOL    HW130863   2.096   2.085   3.262  1.0753  1.0032  0.0205
 6468SOL    HW230864   2.051   2.015   3.141  0.3226 -2.4876  0.3370
 6469SOL     OW30865   0.042   3.811   5.366  0.3003  0.3206  0.3201
 6469SOL    HW130866   0.073   3.897   5.393 -0.6939  0.6580  0.3864
 6469SOL    HW230867   4.671   3.825   5.361  0.4857  0.9327 -1.3252
 6470SOL     OW30868   4.299   2.781   4.502  0.7030  0.0560 -0.2626
 6470SOL    HW130869   4.273   2.689   4.503  0.6142  0.0772 -2.2934
 6470SOL    HW230870   4.395   2.775   4.498  0.7022 -1.8446  2.1658
 6471SOL     OW30871   3.562   1.687   7.774 -0.2576  0.3153 -0.2242
 6471SOL    HW130872   3.527   1.751   7.836  0.8935  1.3897 -0.6814
 6471SOL    HW230873   3.476   1.646   7.765  1.2098 -2.5136 -1.2145
 6472SOL     OW30874   2.279   0.521   1.390  0.1064  0.5087  0.1633
 6472SOL    HW130875   2.325   0.462   1.331 -0.1130  1.1663 -0.6622
 6472SOL    HW230876   2.348   0.568   1.435  0.6110 -1.2720  1.2722
 6473SOL     OW30877   1.470   3.364   7.611  0.3521 -0.1995  0.0279
 6473SOL    HW130878   1.523   3.316   7.547  2.3854 -1.3986  2.6064
 6473SOL    HW230879   1.415   3.294   7.647  1.0117 -1.0807 -0.6477
 6474SOL     OW30880   2.744   3.969  11.945 -0.7444  0.6128  0.1317
 6474SOL    HW130881   2.826   4.018  11.952  0.2985 -0.5182 -4.3911
 6474SOL    HW230882   2.689   4.041  11.914  0.3064  0.9738 -0.8770
 6475SOL     OW30883   2.469   1.087  11.402 -0.4724  0.0643  0.4585
 6475SOL    HW130884   2.444   1.070  11.311  0.0784 -0.9886  0.4969
 6475SOL    HW230885   2.395   1.063  11.458  0.5065 -2.1193  0.8521
 6476SOL     OW30886   3.253   4.600   1.893 -0.1529  0.2764 -0.4245
 6476SOL    HW130887   3.275   4.544   1.819 -0.5006 -0.6223  0.1434
 6476SOL    HW230888   3.253   4.526   1.954  1.0116 -1.7307 -2.8738
 6477SOL     OW30889   4.137   2.186  16.658 -0.3845  0.5989  0.1183
 6477SOL    HW130890   4.189   2.115  16.621 -1.0064 -1.0708  2.4457
 6477SOL    HW230891   4.174   2.179  16.746  1.8473  0.2063 -0.8434
 6478SOL     OW30892   3.094   0.662   7.220 -0.4793  0.1297 -0.0218
 6478SOL    HW130893   3.124   0.701   7.138 -0.2783 -0.6415 -0.3176
 6478SOL    HW230894   3.157   0.695   7.284 -1.3438  0.4915  0.6325
 6479SOL     OW30895   3.274   2.185   6.619 -0.2820 -0.3094 -0.1647
 6479SOL    HW130896   3.192   2.229   6.640 -0.2231  0.1999 -1.0072
 6479SOL    HW230897   3.329   2.245   6.669  0.0277  1.9497 -3.1931
 6480SOL     OW30898   4.714   4.590   2.253 -1.0752  0.2482 -0.0740
 6480SOL    HW130899   4.629   4.634   2.245 -0.8931  0.4610 -0.8018
 6480SOL    HW230900   4.697   4.498   2.234 -1.5639  0.5012 -0.8650
 6481SOL     OW30901   2.942   1.030  16.477  0.2353 -0.1894  0.3508
 6481SOL    HW130902   3.036   1.020  16.497  1.1450  3.3977 -2.2086
 6481SOL    HW230903   2.921   0.937  16.487  0.9448 -0.3354  0.4964
 6482SOL     OW30904   1.529   3.913   4.951 -0.3088  0.2842  0.7126
 6482SOL    HW130905   1.525   3.915   5.047  1.2968 -0.9504  0.8009
 6482SOL    HW230906   1.528   4.006   4.931 -2.5570 -0.3708 -2.1882
 6483SOL     OW30907   1.027   3.748  16.156  0.2062  0.3326 -0.5019
 6483SOL    HW130908   1.017   3.843  16.148  0.5380  0.3283 -0.9426
 6483SOL    HW230909   1.117   3.741  16.188  0.8341  3.1968 -1.6334
 6484SOL     OW30910   1.676   2.539   4.640  0.6907  0.7264  0.6221
 6484SOL    HW130911   1.755   2.506   4.596 -0.5698 -1.4561  0.0330
 6484SOL    HW230912   1.680   2.485   4.719 -1.5467  1.0262  0.9338
 6485SOL     OW30913   0.032   1.217   1.969 -0.0111  0.0956  0.1734
 6485SOL    HW130914   4.671   1.186   1.933  0.1635 -0.8417  0.5614
 6485SOL    HW230915   0.077   1.256   1.894 -0.1988  0.0782  0.0507
 6486SOL     OW30916   0.817   4.206   8.782  0.1725  0.5627 -0.0926
 6486SOL    HW130917   0.795   4.188   8.874 -0.2941 -2.1593 -0.7430
 6486SOL    HW230918   0.736   4.181   8.739 -0.0053  0.1990  0.4504
 6487SOL     OW30919   0.192   0.971  11.658 -0.3074 -0.2732 -0.1433
 6487SOL    HW130920   0.275   0.948  11.616  0.9029  0.4460  1.8185
 6487SOL    HW230921   0.157   1.039  11.601  3.0308  1.2094 -0.4555
 6488SOL     OW30922   2.375   0.191   6.208 -0.1393  0.1947  0.1174
 6488SOL    HW130923   2.340   0.280   6.207 -1.4260 -0.3025  0.9702
 6488SOL    HW230924   2.396   0.161   6.119 -3.7532 -1.3766 -0.1951
 6489SOL     OW30925   4.233   1.408   2.933 -0.0496 -0.0219  0.1412
 6489SOL    HW130926   4.167   1.410   3.002 -0.1660  0.0117  0.0284
 6489SOL    HW230927   4.193   1.333   2.888  1.2846 -0.7402  0.1566
 6490SOL     OW30928   1.908   3.132   0.205  0.1436 -0.2677 -0.0702
 6490SOL    HW130929   1.909   3.164   0.115  1.7383  2.1982  0.8275
 6490SOL    HW230930   1.980   3.069   0.200 -0.5112 -1.1190  0.9407
 6491SOL     OW30931   2.707   4.378  15.578 -0.4707  0.2965 -0.2876
 6491SOL    HW130932   2.717   4.464  15.538  2.9932  0.5882  1.1307
 6491SOL    HW230933   2.761   4.382  15.657  2.0082  0.3791 -1.9671
 6492SOL     OW30934   3.489   2.318  15.826  0.1775  0.1861 -0.2446
 6492SOL    HW130935   3.565   2.360  15.784  0.9640  0.2204  1.1914
 6492SOL    HW230936   3.429   2.327  15.752  0.0993  0.7813 -0.1126
 6493SOL     OW30937   1.994   1.323   3.356  0.6267 -0.1491 -0.5034
 6493SOL    HW130938   2.065   1.326   3.292  1.2095  0.2067  0.1580
 6493SOL    HW230939   1.943   1.248   3.325 -2.0432 -0.0204  3.5335
 6494SOL     OW30940   0.616   0.792   5.859 -0.1898  0.0075 -0.1638
 6494SOL    HW130941   0.707   0.818   5.874  0.2685 -1.9785  0.4816
 6494SOL    HW230942   0.573   0.858   5.913  2.5833  0.1385  1.9008
 6495SOL     OW30943   3.275   0.137   7.903  0.2837  0.0527 -0.5050
 6495SOL    HW130944   3.273   0.226   7.938  3.3633  0.8461 -2.3610
 6495SOL    HW230945   3.367   0.111   7.894  0.0151 -0.7568 -0.8852
 6496SOL     OW30946   3.547   0.772   1.031  0.2767  0.1247 -0.1047
 6496SOL    HW130947   3.504   0.772   1.117  1.9687  0.9098  0.7290
 6496SOL    HW230948   3.618   0.834   1.043  0.7032 -0.5195  0.6947
 6497SOL     OW30949   2.871   3.858  12.714 -0.0069 -0.4443  0.3475
 6497SOL    HW130950   2.837   3.878  12.802 -0.4230 -0.4877  0.1980
 6497SOL    HW230951   2.799   3.813  12.671  0.6603  1.9975 -3.3554
 6498SOL     OW30952   3.353   1.819   1.328 -0.1940 -0.2056 -0.1408
 6498SOL    HW130953   3.262   1.832   1.354 -0.1118 -2.5359  1.3011
 6498SOL    HW230954   3.341   1.756   1.256  1.6047 -2.8535  1.8785
 6499SOL     OW30955   4.049   0.039  14.743 -0.0807 -0.2447 -0.4763
 6499SOL    HW130956   3.970   4.710  14.727  0.5419 -1.8426  1.6484
 6499SOL    HW230957   4.084   0.012  14.828 -2.4956  0.2601  0.6636
 6500SOL     OW30958   1.055   1.921   3.062 -0.2754 -0.0409 -0.0455
 6500SOL    HW130959   1.080   1.955   2.976  1.0914  3.1418  1.6031
 6500SOL    HW230960   0.960   1.920   3.058 -0.2805  0.3388 -0.0342
 6501SOL     OW30961   3.749   1.187   8.028 -0.2280 -0.1732 -0.0903
 6501SOL    HW130962   3.813   1.140   8.081  0.4455  0.3776 -0.4118
 6501SOL    HW230963   3.704   1.238   8.095 -2.2019 -1.9500 -0.0451
 6502SOL     OW30964   2.783   1.914   3.865 -0.1672  0.0885 -0.1041
 6502SOL    HW130965   2.745   1.983   3.810 -1.0432  0.4431  0.9410
 6502SOL    HW230966   2.867   1.952   3.889 -0.5475 -1.4210  3.6215
 6503SOL     OW30967   0.836   2.282   1.573  0.5456 -0.0923  0.1037
 6503SOL    HW130968   0.865   2.192   1.586  0.0925 -0.1822  0.4976
 6503SOL    HW230969   0.909   2.336   1.601  0.2821  0.9815 -1.2953
 6504SOL     OW30970   1.627   1.143   2.509 -0.1394  0.5392 -0.2789
 6504SOL    HW130971   1.592   1.075   2.566 -0.2674 -0.7200 -1.8398
 6504SOL    HW230972   1.698   1.182   2.559  1.8502 -0.9000 -1.9556
 6505SOL     OW30973   4.530   1.510  17.669  0.1582  0.1346  0.0404
 6505SOL    HW130974   4.546   1.437  17.609  0.5567 -0.2808  0.6428
 6505SOL    HW230975   4.464   1.551  17.614  0.2578 -0.7979 -0.7754
 6506SOL     OW30976   3.120   2.068   3.753 -0.2840  0.0296 -0.3154
 6506SOL    HW130977   3.207   2.043   3.721 -0.9248 -0.4141 -1.7467
 6506SOL    HW230978   3.111   2.007   3.826  1.0909  0.0419 -0.1458
 6507SOL     OW30979   1.175   3.357   7.834  0.5448 -0.7990  0.4955
 6507SOL    HW130980   1.245   3.308   7.790  0.3146  0.9396 -1.7943
 6507SOL    HW230981   1.163   3.432   7.776  1.8291  0.0915  1.4037
 6508SOL     OW30982   2.183   2.762   9.269 -0.1927 -0.2529 -0.3809
 6508SOL    HW130983   2.174   2.847   9.312  1.3776  0.4570 -1.4578
 6508SOL    HW230984   2.149   2.708   9.341  0.5928 -1.0970 -0.6475
 6509SOL     OW30985   1.501   0.472   6.477  0.1126  0.0226 -0.0433
 6509SOL    HW130986   1.562   0.521   6.533  1.7404 -0.6741 -1.2176
 6509SOL    HW230987   1.418   0.514   6.500  0.8513  1.6819 -0.3345
 6510SOL     OW30988   0.644   4.247   6.124 -0.3092 -0.0916  0.3707
 6510SOL    HW130989   0.700   4.218   6.051  1.3841 -0.5389  1.8422
 6510SOL    HW230990   0.579   4.303   6.082 -0.2605  0.5130  1.1034
 6511SOL     OW30991   1.738   2.841  10.142 -0.0758 -0.1047 -0.2995
 6511SOL    HW130992   1.765   2.825  10.232  1.2455 -2.0853 -1.0510
 6511SOL    HW230993   1.647   2.814  10.154 -0.2557  1.3114  1.6277
 6512SOL     OW30994   2.721   3.733  12.073  0.7673  0.0772  0.2372
 6512SOL    HW130995   2.732   3.789  12.149  1.7863  0.1996 -0.0030
 6512SOL    HW230996   2.703   3.806  12.014 -1.0390  1.4966  2.5613
 6513SOL     OW30997   4.154   4.322   1.367 -0.4795  0.1954 -0.0644
 6513SOL    HW130998   4.138   4.413   1.343  2.0467  0.7348  0.3462
 6513SOL    HW230999   4.211   4.291   1.298  0.2530  1.5374 -0.0620
 6514SOL     OW31000   0.956   4.650   3.168  0.4754 -0.2540  0.5275
 6514SOL    HW131001   0.884   4.677   3.225  0.5986 -0.8247  0.9551
 6514SOL    HW231002   0.980   4.563   3.199 -1.9357 -1.1427 -0.1387
 6515SOL     OW31003   3.000   1.246   5.114  0.1516  0.1615 -0.2419
 6515SOL    HW131004   3.049   1.278   5.038 -0.9193 -1.6754 -1.7051
 6515SOL    HW231005   2.914   1.287   5.102  0.3418  0.5127 -0.4204
 6516SOL     OW31006   3.460   4.212  15.109  0.3688 -0.1063  0.0977
 6516SOL    HW131007   3.471   4.134  15.054 -0.7378  2.1829 -3.3237
 6516SOL    HW231008   3.418   4.176  15.187 -0.6110 -0.0574 -0.4140
 6517SOL     OW31009   4.176   1.575  11.449 -0.3577  0.3712  0.1617
 6517SOL    HW131010   4.257   1.590  11.498 -1.3823 -0.6594  2.1642
 6517SOL    HW231011   4.217   1.545  11.368 -1.1838 -1.3743  0.3898
 6518SOL     OW31012   2.249   4.388   3.748 -0.3075 -0.1837  0.2507
 6518SOL    HW131013   2.239   4.293   3.749  0.0256 -0.2104  0.8309
 6518SOL    HW231014   2.345   4.397   3.754 -0.2507 -2.4383  2.7495
 6519SOL     OW31015   1.562   4.027  14.398  0.0197  0.0985 -0.3503
 6519SOL    HW131016   1.508   3.974  14.339 -1.1573 -0.3612  1.1240
 6519SOL    HW231017   1.611   4.080  14.336 -1.2039  0.6309 -0.8794
 6520SOL     OW31018   1.053   4.349  10.714  0.3837 -0.4647 -0.1346
 6520SOL    HW131019   1.031   4.436  10.747  2.3676 -0.4711  1.1632
 6520SOL    HW231020   1.021   4.373  10.628 -3.0236 -1.9925  0.6797
 6521SOL     OW31021   1.492   2.499   7.433 -0.1094  0.3665  0.1783
 6521SOL    HW131022   1.454   2.498   7.345  2.1867  0.0618 -0.8084
 6521SOL    HW231023   1.426   2.555   7.475  0.2002  0.3641  0.6716
 6522SOL     OW31024   2.107   3.398   4.165 -0.0900 -0.0350  0.3901
 6522SOL    HW131025   2.040   3.333   4.184 -0.3443  0.6028  1.7207
 6522SOL    HW231026   2.124   3.423   4.256 -1.9764  1.2906  0.3946
 6523SOL     OW31027   4.685   3.023   6.047 -0.3753  0.1411  0.1756
 6523SOL    HW131028   4.679   3.094   5.983 -0.6202  0.5931  0.7035
 6523SOL    HW231029   4.594   3.017   6.075 -0.0921 -0.4267  0.9430
 6524SOL     OW31030   4.119   1.506  16.941 -0.0368 -0.6853 -0.0549
 6524SOL    HW131031   4.109   1.420  16.983  1.0930 -0.2903  0.9948
 6524SOL    HW231032   4.065   1.557  17.001  0.2454 -0.8294  0.3211
 6525SOL     OW31033   3.704   3.414   1.555  0.3832  0.4722 -0.5538
 6525SOL    HW131034   3.632   3.418   1.493  0.6735 -5.5053 -1.2258
 6525SOL    HW231035   3.732   3.323   1.548 -5.6233 -1.4858  1.3725
 6526SOL     OW31036   4.414   2.789   6.970 -0.2474  0.3010 -0.0207
 6526SOL    HW131037   4.385   2.871   6.928  0.4341  0.4680 -0.1594
 6526SOL    HW231038   4.509   2.789   6.971 -0.2278 -1.3595 -1.9427
 6527SOL     OW31039   1.559   2.411   3.847  0.1973 -0.0978  0.5701
 6527SOL    HW131040   1.594   2.333   3.804 -0.7418 -0.3352  0.2350
 6527SOL    HW231041   1.553   2.384   3.938 -2.8293 -1.8820 -0.1605
 6528SOL     OW31042   1.227   4.309   6.605  0.3833 -0.1654  0.4388
 6528SOL    HW131043   1.148   4.357   6.578  0.1215  0.6146  2.5437
 6528SOL    HW231044   1.208   4.308   6.699 -0.1401  0.7129  0.3479
 6529SOL     OW31045   0.635   2.098   8.931  0.3046 -0.7267 -0.4157
 6529SOL    HW131046   0.717   2.111   8.979  1.2735 -0.5225 -2.1294
 6529SOL    HW231047   0.661   2.148   8.853 -0.5107  0.0476 -0.1919
 6530SOL     OW31048   4.274   4.529   4.045  0.2099 -0.1745  0.0849
 6530SOL    HW131049   4.244   4.472   3.973 -0.4113  0.3021 -0.0374
 6530SOL    HW231050   4.320   4.456   4.086  0.5421 -1.4200 -2.5023
 6531SOL     OW31051   4.362   4.582   7.478  0.3968  0.0244  0.2818
 6531SOL    HW131052   4.343   4.543   7.393  2.3699  1.1762 -0.6833
 6531SOL    HW231053   4.422   4.518   7.517  2.0409  0.9949 -0.6636
 6532SOL     OW31054   2.064   2.067   9.315  0.1973  0.6707  0.5726
 6532SOL    HW131055   2.050   2.160   9.336  1.8592  0.8402  0.9376
 6532SOL    HW231056   2.079   2.032   9.402 -2.8696 -0.1619  0.7569
 6533SOL     OW31057   1.573   1.867  16.899  0.1808  0.0206 -1.0548
 6533SOL    HW131058   1.525   1.784  16.892  1.0072 -0.6626  1.3382
 6533SOL    HW231059   1.625   1.858  16.979  0.4497 -1.6120 -1.4086
 6534SOL     OW31060   1.409   4.105   0.229  0.1719  0.2198 -0.0827
 6534SOL    HW131061   1.350   4.086   0.156  0.8570 -1.0890 -0.3113
 6534SOL    HW231062   1.351   4.095   0.305  0.9919 -2.4635  0.1933
 6535SOL     OW31063   0.856   1.031   6.082 -0.0369 -0.0764 -0.0055
 6535SOL    HW131064   0.836   1.000   5.993  2.5134  0.8830 -0.9101
 6535SOL    HW231065   0.838   1.123   6.063  0.6622 -0.0616 -0.5818
 6536SOL     OW31066   3.609   2.108   5.002 -0.3693  0.3212 -0.0576
 6536SOL    HW131067   3.705   2.115   5.002 -0.2692 -1.2972 -1.4098
 6536SOL    HW231068   3.599   2.152   5.087  0.0202  0.4916 -0.0946
 6537SOL     OW31069   2.947   3.250   1.724  0.0120  0.4405 -0.0879
 6537SOL    HW131070   2.874   3.268   1.664  1.2762 -0.5881 -1.9246
 6537SOL    HW231071   2.956   3.334   1.770  0.9154  0.5411 -0.4605
 6538SOL     OW31072   0.648   0.700   5.604  0.3738  0.2391  0.0195
 6538SOL    HW131073   0.558   0.676   5.583  0.8277 -1.3396 -0.1569
 6538SOL    HW231074   0.637   0.726   5.696 -1.8149  1.1788 -0.5032
 6539SOL     OW31075   2.251   0.809   1.804  0.4028 -0.4394  0.2349
 6539SOL    HW131076   2.328   0.844   1.761 -2.0397  1.8754 -2.2390
 6539SOL    HW231077   2.263   0.715   1.793 -0.7327 -0.5183 -0.3735
 6540SOL     OW31078   2.519   0.630   7.468 -0.4672  0.6150 -0.4949
 6540SOL    HW131079   2.554   0.709   7.510  1.3473 -1.3332  1.6760
 6540SOL    HW231080   2.428   0.632   7.497 -0.6498  1.5707 -1.1338
 6541SOL     OW31081   2.469   2.762  11.906  0.3544 -0.0080  0.7535
 6541SOL    HW131082   2.435   2.690  11.958  0.1076 -0.2221  0.2874
 6541SOL    HW231083   2.543   2.788  11.962  0.2617  0.3601  0.7099
 6542SOL     OW31084   3.310   0.834   9.310  0.2869  0.5847 -0.0054
 6542SOL    HW131085   3.349   0.756   9.270 -1.4184 -1.5998  2.5545
 6542SOL    HW231086   3.363   0.831   9.390 -0.1432 -0.0676  0.2539
 6543SOL     OW31087   1.705   0.384   2.780 -0.1737 -0.1279  0.0300
 6543SOL    HW131088   1.626   0.347   2.819  0.6550 -1.0370  0.8535
 6543SOL    HW231089   1.768   0.312   2.774 -1.4939 -1.2704 -0.2158
 6544SOL     OW31090   2.652   2.447  14.929 -0.3805  0.0546 -0.3722
 6544SOL    HW131091   2.734   2.496  14.919  1.0976 -2.2771  0.4070
 6544SOL    HW231092   2.658   2.405  14.843 -0.3684  2.3064 -1.4708
 6545SOL     OW31093   0.577   1.221   3.236  0.0965 -0.5859 -0.0234
 6545SOL    HW131094   0.589   1.303   3.188  0.9420 -0.7578 -0.1159
 6545SOL    HW231095   0.550   1.155   3.172 -1.6603  2.0959 -2.0814
 6546SOL     OW31096   4.473   0.566  13.301  0.0336 -0.3046 -0.0990
 6546SOL    HW131097   4.566   0.590  13.308 -0.0239  0.2833 -1.2800
 6546SOL    HW231098   4.471   0.535  13.211  2.5906 -0.7418 -0.0180
 6547SOL     OW31099   2.515   4.367   3.741 -0.0617  0.1703  0.0319
 6547SOL    HW131100   2.595   4.406   3.775 -0.7602  2.3296 -0.7555
 6547SOL    HW231101   2.516   4.286   3.792  1.0297  0.2708  0.1728
 6548SOL     OW31102   2.880   2.854   2.850 -0.3511 -0.7061  0.0445
 6548SOL    HW131103   2.926   2.773   2.830 -2.4396 -1.6556 -0.9641
 6548SOL    HW231104   2.798   2.831   2.806 -0.9175  0.4636  0.4901
 6549SOL     OW31105   4.027   2.429   7.861  0.0518  0.1806  0.3622
 6549SOL    HW131106   3.954   2.477   7.821 -0.5273 -0.9318  0.0664
 6549SOL    HW231107   4.095   2.439   7.794 -0.6971  0.5478 -0.3462
 6550SOL     OW31108   3.484   3.800   9.423 -0.3988  0.7391  0.1081
 6550SOL    HW131109   3.548   3.729   9.429 -1.0910 -0.0984 -2.2432
 6550SOL    HW231110   3.469   3.819   9.515  0.3866 -0.1659  0.4217
 6551SOL     OW31111   2.714   3.249   5.665 -0.4724  0.0785  0.1604
 6551SOL    HW131112   2.619   3.255   5.654 -0.4490  1.3848  0.7121
 6551SOL    HW231113   2.724   3.159   5.634 -0.1429  1.2868 -3.2560
 6552SOL     OW31114   0.332   3.237   6.549  0.1007  0.1789 -0.2110
 6552SOL    HW131115   0.263   3.288   6.507  1.4119  1.0739 -1.3103
 6552SOL    HW231116   0.283   3.200   6.622  0.9050 -1.4960 -0.5346
 6553SOL     OW31117   2.349   2.284  15.789 -0.0949 -0.2352 -0.2177
 6553SOL    HW131118   2.284   2.317  15.850 -0.8407  0.2919 -1.2974
 6553SOL    HW231119   2.419   2.347  15.808 -0.9092  0.3515  0.8606
 6554SOL     OW31120   2.230   0.480  17.067  0.4730  0.0403 -0.2847
 6554SOL    HW131121   2.263   0.534  17.139  0.1435 -1.3129  0.8748
 6554SOL    HW231122   2.315   0.451  17.034  0.9052  1.7717 -0.7123
 6555SOL     OW31123   2.928   3.799  17.691  0.0027  0.4394 -0.0564
 6555SOL    HW131124   2.945   3.713   0.036 -2.3967  0.7640  1.6840
 6555SOL    HW231125   2.851   3.828   0.046  0.4344 -0.6335  1.2637
 6556SOL     OW31126   4.436   0.039   5.209 -0.4134 -0.1812 -0.4788
 6556SOL    HW131127   4.498   4.690   5.193 -1.0384 -0.4769 -1.5623
 6556SOL    HW231128   4.465   0.106   5.147  0.5041  1.6841  1.9313
 6557SOL     OW31129   3.074   0.199   8.393  0.2072  0.5449 -0.5400
 6557SOL    HW131130   3.108   0.119   8.351  0.4184  0.8814 -1.0080
 6557SOL    HW231131   3.072   0.259   8.318  0.3876 -0.2142 -1.1581
 6558SOL     OW31132   3.437   1.296   2.455  0.0009 -0.9337 -0.0147
 6558SOL    HW131133   3.508   1.258   2.402  0.1743 -1.2010  0.4042
 6558SOL    HW231134   3.365   1.259   2.404  0.4493  1.0216 -2.0461
 6559SOL     OW31135   0.421   0.492   6.329  0.1625  0.0967  0.5441
 6559SOL    HW131136   0.464   0.422   6.379 -1.1269 -1.1482 -0.0747
 6559SOL    HW231137   0.466   0.497   6.246 -1.0047  0.1299 -0.0908
 6560SOL     OW31138   0.313   0.602  15.052  0.5779  0.4244  0.1445
 6560SOL    HW131139   0.386   0.580  14.995  3.3166  3.2634  2.5667
 6560SOL    HW231140   0.292   0.686  15.011 -3.0409 -0.1659  0.7628
 6561SOL     OW31141   2.797   0.410  13.623 -0.3279  0.4421 -0.2529
 6561SOL    HW131142   2.835   0.348  13.560  2.1547  1.1135  0.5848
 6561SOL    HW231143   2.806   0.500  13.591 -0.4853  0.5102 -0.1056
 6562SOL     OW31144   3.753   3.619   1.697  0.2406 -0.3489 -0.3303
 6562SOL    HW131145   3.828   3.655   1.649  2.9506 -3.3250  1.6398
 6562SOL    HW231146   3.708   3.557   1.640  0.4958 -1.8644  1.1236
 6563SOL     OW31147   0.469   4.554   8.826 -0.3250  0.1772  0.0343
 6563SOL    HW131148   0.557   4.519   8.841  1.7507  4.1834 -2.6911
 6563SOL    HW231149   0.416   4.479   8.852  1.2056 -1.2799 -1.0422
 6564SOL     OW31150   2.756   0.355   5.661 -0.0027  1.1713 -0.1842
 6564SOL    HW131151   2.840   0.387   5.694  0.0048 -0.6237  1.5124
 6564SOL    HW231152   2.760   0.399   5.576  2.3919  0.3928 -0.4862
 6565SOL     OW31153   1.266   4.402   0.152 -0.6692 -0.0474  0.0361
 6565SOL    HW131154   1.353   4.377   0.121 -0.9178 -0.2171 -0.5252
 6565SOL    HW231155   1.286   4.446   0.234 -0.5289  0.7289 -0.4041
 6566SOL     OW31156   3.120   4.633   3.861 -0.1999 -0.4039 -0.3671
 6566SOL    HW131157   3.066   4.697   3.814 -0.9483  0.9653  2.3558
 6566SOL    HW231158   3.161   4.584   3.790  0.5964 -0.6415  0.2647
 6567SOL     OW31159   0.156   2.298   8.018  0.4312  0.0946  0.6691
 6567SOL    HW131160   0.166   2.393   8.020 -0.6422  0.1923  1.5449
 6567SOL    HW231161   0.235   2.277   7.969  1.7428 -0.9272  3.2415
 6568SOL     OW31162   3.719   2.123   4.376 -0.0915  0.6049 -0.1767
 6568SOL    HW131163   3.715   2.129   4.472  1.2080  2.6817 -0.2403
 6568SOL    HW231164   3.685   2.036   4.358 -0.4739  1.1953 -2.3212
 6569SOL     OW31165   4.189   3.495  13.625  0.2755 -0.0098  0.3776
 6569SOL    HW131166   4.164   3.426  13.686  1.1105  0.1967  0.9546
 6569SOL    HW231167   4.160   3.455  13.544  0.1692 -1.6543  1.2288
 6570SOL     OW31168   3.912   3.151   7.461  0.0925  0.6386  0.6322
 6570SOL    HW131169   4.005   3.174   7.462  0.3436 -0.4170  1.1950
 6570SOL    HW231170   3.882   3.183   7.546 -0.2832  1.7126  0.0938
 6571SOL     OW31171   3.103   3.182  14.592  0.0995 -0.3954 -0.0293
 6571SOL    HW131172   3.137   3.261  14.634 -0.5212  0.3918 -1.0167
 6571SOL    HW231173   3.022   3.172  14.643  0.9842 -1.2251  1.2414
 6572SOL     OW31174   2.298   3.087  15.260  0.0610  0.4785  0.1499
 6572SOL    HW131175   2.309   3.181  15.246 -0.1956  0.1682 -2.2447
 6572SOL    HW231176   2.365   3.063  15.195 -1.2781  0.0240 -1.0596
 6573SOL     OW31177   0.622   4.458  13.516 -0.2283 -0.2628  0.6956
 6573SOL    HW131178   0.632   4.486  13.607  0.1004  0.1987  0.5170
 6573SOL    HW231179   0.618   4.363  13.528  0.0111 -0.3181  0.3412
 6574SOL     OW31180   4.472   0.492  15.085  0.2008  0.0222  0.1127
 6574SOL    HW131181   4.457   0.399  15.096  1.4791 -0.0673  1.0813
 6574SOL    HW231182   4.529   0.515  15.158  0.9318 -0.3766 -0.3448
 6575SOL     OW31183   2.809   3.298   6.775  0.6775 -0.1064 -0.3034
 6575SOL    HW131184   2.878   3.272   6.714  0.2320  1.6091 -1.5423
 6575SOL    HW231185   2.813   3.394   6.775 -1.0130 -0.0352  0.2146
 6576SOL     OW31186   3.747   3.186   0.046  0.8465  0.1161 -0.3401
 6576SOL    HW131187   3.656   3.158   0.061  2.0162 -3.2910  0.4961
 6576SOL    HW231188   3.794   3.104   0.030  1.7868  0.6390 -0.2055
 6577SOL     OW31189   0.512   4.634   9.838  0.1685  0.7529  0.0968
 6577SOL    HW131190   0.429   4.681   9.832  0.8005  1.6217 -1.6548
 6577SOL    HW231191   0.545   4.628   9.748  0.1707  0.9840  0.0824
 6578SOL     OW31192   0.751   3.294   3.101 -0.1880 -0.5063 -0.7157
 6578SOL    HW131193   0.830   3.241   3.086  0.5193  0.5783 -0.8946
 6578SOL    HW231194   0.674   3.243   3.078  1.3731 -1.6489 -3.4815
 6579SOL     OW31195   0.471   2.114   8.384  0.3329  0.5390 -0.2686
 6579SOL    HW131196   0.393   2.072   8.348  0.2570  0.8837 -0.5053
 6579SOL    HW231197   0.525   2.040   8.413 -0.0235  0.8730  1.2383
 6580SOL     OW31198   3.535   4.394   2.889  0.0791  0.1034 -0.4692
 6580SOL    HW131199   3.526   4.309   2.932 -0.0743 -1.1845 -3.0434
 6580SOL    HW231200   3.482   4.443   2.951 -0.7673 -1.3234 -0.0607
 6581SOL     OW31201   2.071   2.891   1.274  0.4700  0.3215  0.3369
 6581SOL    HW131202   2.127   2.915   1.200 -2.9575  3.9006 -1.1137
 6581SOL    HW231203   2.036   2.973   1.311  0.7367 -0.8308  3.1672
 6582SOL     OW31204   1.206   2.546   8.298 -0.0203  0.2154 -0.5189
 6582SOL    HW131205   1.217   2.570   8.390  0.1560  1.2913 -0.8178
 6582SOL    HW231206   1.281   2.490   8.279 -1.2135 -2.3665  2.3784
 6583SOL     OW31207   3.618   1.816   1.784  0.4899  0.0038  0.0068
 6583SOL    HW131208   3.698   1.806   1.733 -1.6363 -0.7311 -3.1688
 6583SOL    HW231209   3.546   1.848   1.729  1.5429  2.2925  0.0110
 6584SOL     OW31210   0.978   0.145   4.090  0.0947  0.0293  0.1271
 6584SOL    HW131211   1.023   0.076   4.042  0.8505 -0.9194  2.2067
 6584SOL    HW231212   0.966   0.112   4.179  1.2306  2.4203  1.1608
 6585SOL     OW31213   0.282   4.414   7.551 -0.2646 -0.6783 -0.1582
 6585SOL    HW131214   0.315   4.338   7.598 -0.1366 -0.0869  0.7156
 6585SOL    HW231215   0.344   4.472   7.596 -2.0671  1.1718 -0.0273
 6586SOL     OW31216   3.537   3.010   9.278 -0.3268  0.0702  0.2089
 6586SOL    HW131217   3.514   3.066   9.352 -3.0000 -1.8288  0.7908
 6586SOL    HW231218   3.619   2.974   9.311  0.9580  2.7208 -0.1071
 6587SOL     OW31219   1.512   4.039   9.045 -0.2404  0.0760 -0.4392
 6587SOL    HW131220   1.585   4.084   9.089 -0.4515 -2.3600  2.4222
 6587SOL    HW231221   1.447   4.110   9.046 -0.4975 -0.1716  0.3616
 6588SOL     OW31222   3.327   1.900   3.573  0.1078 -0.5528 -0.1463
 6588SOL    HW131223   3.414   1.910   3.613  0.4526  1.1934 -1.3400
 6588SOL    HW231224   3.328   1.967   3.505 -0.7890  0.0364  0.4356
 6589SOL     OW31225   1.161   0.273   8.526 -0.2716 -0.4983  0.2768
 6589SOL    HW131226   1.087   0.266   8.466 -0.3933  1.1598  0.2178
 6589SOL    HW231227   1.118   0.284   8.611 -0.1576  1.2884  0.1042
 6590SOL     OW31228   4.574   0.328   2.437 -0.2475  0.1032  0.0073
 6590SOL    HW131229   4.633   0.373   2.376 -0.4993  0.5402  0.0925
 6590SOL    HW231230   4.641   0.264   2.462 -0.5663  0.6981  2.3746
 6591SOL     OW31231   1.602   3.560  11.572  0.1324  0.2373 -0.0993
 6591SOL    HW131232   1.553   3.499  11.517  0.5386 -1.2121  1.1649
 6591SOL    HW231233   1.596   3.638  11.517  0.3937 -1.0529 -1.9649
 6592SOL     OW31234   3.467   3.678   7.501  0.0757 -0.7241 -0.4688
 6592SOL    HW131235   3.394   3.629   7.465 -0.6580  0.4630 -0.5924
 6592SOL    HW231236   3.423   3.711   7.580  1.3548 -4.4583  1.8175
 6593SOL     OW31237   2.297   0.996   7.870  0.3972  0.6611 -0.6816
 6593SOL    HW131238   2.220   1.036   7.911  1.4126 -0.0444  1.8822
 6593SOL    HW231239   2.349   0.956   7.939 -1.9075  0.0865  0.7168
 6594SOL     OW31240   1.745   2.584   6.977 -0.8070  0.3733 -0.1550
 6594SOL    HW131241   1.833   2.549   6.981 -1.3442 -1.0387 -0.6109
 6594SOL    HW231242   1.703   2.537   7.049 -2.2700  1.7326 -0.1166
 6595SOL     OW31243   4.457   2.824   8.279  0.6297 -0.4305 -0.1830
 6595SOL    HW131244   4.527   2.886   8.300  0.9730 -1.2151  1.0423
 6595SOL    HW231245   4.429   2.848   8.191  0.1585 -0.5434 -0.0611
 6596SOL     OW31246   0.111   0.818  12.816  0.0910  0.8258  0.7482
 6596SOL    HW131247   0.078   0.789  12.901  2.8270 -2.4845  0.6852
 6596SOL    HW231248   0.145   0.900  12.853 -0.3542  0.1978  2.5676
 6597SOL     OW31249   4.420   0.268   2.060 -0.3413  0.0150 -0.3137
 6597SOL    HW131250   4.465   0.326   2.121 -2.9603 -1.3348  2.9103
 6597SOL    HW231251   4.478   0.194   2.043  1.0959  0.8388  1.0098
 6598SOL     OW31252   1.397   1.428   8.506 -0.2695 -0.2049 -0.1823
 6598SOL    HW131253   1.448   1.346   8.503  1.6740  0.9781  0.5019
 6598SOL    HW231254   1.439   1.480   8.575 -2.0639  1.8683 -0.6897
 6599SOL     OW31255   4.455   4.528   1.305  0.5167  0.4191  0.0266
 6599SOL    HW131256   4.381   4.502   1.251  0.7992  1.1236 -0.6906
 6599SOL    HW231257   4.494   4.602   1.259  0.5490 -0.2403 -1.0115
 6600SOL     OW31258   3.205   4.613   4.767  0.0185  0.1995  0.0504
 6600SOL    HW131259   3.225   4.654   4.851 -1.7710 -0.5630  0.8612
 6600SOL    HW231260   3.250   4.668   4.704  1.3210 -0.3776  0.4708
 6601SOL     OW31261   1.111   2.846   5.721 -0.4802  0.4208  0.4357
 6601SOL    HW131262   1.041   2.855   5.786 -0.7576  0.7210  0.0947
 6601SOL    HW231263   1.163   2.926   5.729  1.3143 -0.8049  1.0817
 6602SOL     OW31264   1.328   4.554   5.017  0.1447 -0.4134  0.2062
 6602SOL    HW131265   1.263   4.611   4.976  1.2226 -0.0602 -1.0354
 6602SOL    HW231266   1.296   4.466   4.997  2.3392 -1.3712  0.9764
 6603SOL     OW31267   3.913   2.581  13.070  0.2940 -0.1999  0.6398
 6603SOL    HW131268   3.937   2.626  12.989 -2.1461  0.2518  0.1674
 6603SOL    HW231269   3.994   2.574  13.119 -0.2024  2.0502  1.7871
 6604SOL     OW31270   1.736   0.719   3.152 -0.0300  0.0002 -0.5113
 6604SOL    HW131271   1.713   0.764   3.234  0.2414 -2.0374  0.7030
 6604SOL    HW231272   1.651   0.685   3.125 -1.0667  0.0581  2.5644
 6605SOL     OW31273   4.261   3.568   6.209  0.0711  0.7513  0.0145
 6605SOL    HW131274   4.251   3.473   6.206 -1.1811  0.9393 -1.4857
 6605SOL    HW231275   4.187   3.606   6.161 -2.1329 -1.2775  1.7961
 6606SOL     OW31276   4.669   0.212  10.318 -0.4477  0.4155 -0.9319
 6606SOL    HW131277   4.597   0.190  10.378 -0.6045 -2.1152 -2.0500
 6606SOL    HW231278   0.020   0.176  10.366 -0.1646  1.6430 -0.4526
 6607SOL     OW31279   2.921   3.164   8.005  0.6562 -0.5072 -0.0159
 6607SOL    HW131280   2.847   3.163   7.945  0.4063 -0.4735  0.2893
 6607SOL    HW231281   2.984   3.195   7.940 -0.8777  1.9170 -0.3729
 6608SOL     OW31282   2.831   1.291  16.814  0.6341  0.7485 -0.4425
 6608SOL    HW131283   2.918   1.252  16.820 -0.4473 -1.5426  0.5379
 6608SOL    HW231284   2.785   1.255  16.890  1.0905 -0.5902 -0.8051
 6609SOL     OW31285   1.716   1.482   2.576 -0.3201 -0.3432  0.1726
 6609SOL    HW131286   1.679   1.479   2.664 -0.8591 -0.8967 -0.0683
 6609SOL    HW231287   1.673   1.548   2.522  0.4766  0.7801  0.9078
 6610SOL     OW31288   3.543   3.395   1.811  0.2970 -0.4596 -0.3544
 6610SOL    HW131289   3.571   3.384   1.902  1.0970  2.4424 -0.2298
 6610SOL    HW231290   3.605   3.454   1.768  2.9731 -2.0564  1.3312
 6611SOL     OW31291   2.332   3.195   8.905  0.5911  0.4404  0.4199
 6611SOL    HW131292   2.365   3.200   8.816 -0.3455 -2.4724 -0.0861
 6611SOL    HW231293   2.242   3.164   8.890  1.0622 -1.0744  0.7813
 6612SOL     OW31294   3.255   4.292   3.822 -0.2202  0.4095  0.8600
 6612SOL    HW131295   3.187   4.304   3.755  0.1759  0.9682  0.5541
 6612SOL    HW231296   3.326   4.350   3.795  2.2154 -2.9117  0.2888
 6613SOL     OW31297   3.295   1.407  13.241 -0.1978  0.0655 -0.2678
 6613SOL    HW131298   3.327   1.425  13.330  0.7689  3.4006 -1.3024
 6613SOL    HW231299   3.220   1.466  13.237  1.1910  1.8336  0.2073
 6614SOL     OW31300   2.233   4.108   2.264  0.8097  0.1462  0.4945
 6614SOL    HW131301   2.163   4.064   2.313  0.3579  2.5888  2.0463
 6614SOL    HW231302   2.197   4.196   2.260 -1.4159 -0.8119 -0.7607
 6615SOL     OW31303   1.043   3.469   0.263  0.2327  0.0429 -0.0619
 6615SOL    HW131304   1.119   3.513   0.300 -0.7253  0.1569  1.7692
 6615SOL    HW231305   1.086   3.426   0.189  0.6978 -1.5388  1.1561
 6616SOL     OW31306   4.448   3.478  13.654 -0.2511  0.5462 -0.0671
 6616SOL    HW131307   4.442   3.510  13.744  1.3728 -1.4726  0.7348
 6616SOL    HW231308   4.355   3.478  13.630  0.2275 -1.2754 -1.9170
 6617SOL     OW31309   0.473   1.986   2.375  0.4133 -0.1666 -0.4990
 6617SOL    HW131310   0.542   2.051   2.363  0.7792 -0.4392  0.1252
 6617SOL    HW231311   0.508   1.910   2.422  0.6787  0.1910 -0.1262
 6618SOL     OW31312   1.432   4.707   7.827 -0.3869 -0.0401 -0.1497
 6618SOL    HW131313   1.509   0.037   7.808 -1.6428  1.8209 -0.0731
 6618SOL    HW231314   1.422   4.720   7.921 -1.5681  1.2316 -0.4458
 6619SOL     OW31315   1.467   4.625   5.931 -0.2866  0.3110  0.1188
 6619SOL    HW131316   1.530   4.587   5.992  0.7107 -0.9596 -1.7207
 6619SOL    HW231317   1.434   4.688   5.995  0.4195 -1.2916  2.0548
 6620SOL     OW31318   2.457   4.211   9.301 -0.3226 -0.0215 -0.1120
 6620SOL    HW131319   2.516   4.259   9.243 -1.7748  2.8175  0.7798
 6620SOL    HW231320   2.387   4.183   9.242  1.0665 -0.9356 -1.3433
 6621SOL     OW31321   4.341   2.641  10.747  0.2404  0.2728 -0.8637
 6621SOL    HW131322   4.298   2.662  10.664 -0.8985 -4.1168 -1.3467
 6621SOL    HW231323   4.369   2.731  10.767 -0.9833 -0.2114  3.1393
 6622SOL     OW31324   3.475   2.628   6.160  0.4416  0.3228 -0.2287
 6622SOL    HW131325   3.464   2.565   6.231 -2.5820  0.7610 -0.3135
 6622SOL    HW231326   3.412   2.593   6.096 -1.4023  2.4888  0.4274
 6623SOL     OW31327   2.761   4.413   1.777 -1.1192  0.2041  0.3573
 6623SOL    HW131328   2.761   4.481   1.709 -3.3540  1.8438  2.0003
 6623SOL    HW231329   2.777   4.332   1.727  0.0133  1.0382 -0.6449
 6624SOL     OW31330   3.049   2.401   8.768  0.8633  1.0523  0.1906
 6624SOL    HW131331   3.104   2.430   8.840 -1.7437  1.5353  2.0022
 6624SOL    HW231332   2.973   2.457   8.786  0.4904  1.3036 -2.2480
 6625SOL     OW31333   0.572   4.511   3.276 -0.3924  0.1213 -0.5376
 6625SOL    HW131334   0.636   4.443   3.256 -1.3360 -0.8916 -0.1083
 6625SOL    HW231335   0.492   4.487   3.230  0.6631  0.8016 -2.7272
 6626SOL     OW31336   0.999   1.434  12.078 -0.2694  0.0882  0.0308
 6626SOL    HW131337   0.982   1.370  12.147  0.2858  1.5848  1.5431
 6626SOL    HW231338   0.909   1.446  12.047 -0.0933  1.9896  0.2667
 6627SOL     OW31339   2.433   2.318   3.276 -0.2196  0.5559 -0.4850
 6627SOL    HW131340   2.516   2.355   3.245 -1.4118  2.8431 -0.9339
 6627SOL    HW231341   2.433   2.223   3.276  0.3981  0.5536 -0.3060
 6628SOL     OW31342   0.605   2.838   7.800  0.8028  0.3323  0.0737
 6628SOL    HW131343   0.596   2.753   7.844  1.1122  0.0253 -0.4521
 6628SOL    HW231344   0.540   2.892   7.843  0.0679 -0.8470  0.4446
 6629SOL     OW31345   2.095   1.700   6.666  0.3369 -0.4011 -0.1095
 6629SOL    HW131346   2.145   1.740   6.737 -1.7940  3.7226 -0.9305
 6629SOL    HW231347   2.164   1.669   6.607 -0.1461  2.1655 -2.0163
 6630SOL     OW31348   1.414   2.005   3.225  0.0049  0.2204  0.2740
 6630SOL    HW131349   1.491   2.012   3.170  0.4505  0.0951  0.8756
 6630SOL    HW231350   1.371   1.927   3.190 -0.1822  0.1822  0.5898
 6631SOL     OW31351   1.031   1.723   4.081 -0.0016 -0.1758  0.8878
 6631SOL    HW131352   1.118   1.742   4.117 -0.1100  1.6685  0.1695
 6631SOL    HW231353   1.023   1.801   4.026 -0.1695 -0.5352  0.4033
 6632SOL     OW31354   4.396   1.876   0.736  0.3827 -0.0285 -0.2694
 6632SOL    HW131355   4.427   1.966   0.748  0.5614 -0.3156  1.3662
 6632SOL    HW231356   4.350   1.867   0.819 -1.5958 -0.6972 -1.4358
 6633SOL     OW31357   2.798   2.247  10.106  0.0337  0.4137  0.1371
 6633SOL    HW131358   2.760   2.218  10.024  0.2403 -0.4679  0.3509
 6633SOL    HW231359   2.892   2.246  10.086 -0.0195  0.8953 -0.1253
 6634SOL     OW31360   2.113   4.360   9.375 -0.8265  0.4799 -0.0774
 6634SOL    HW131361   2.209   4.355   9.380 -0.8541  0.9497  0.8231
 6634SOL    HW231362   2.105   4.436   9.318 -1.3216  0.4596 -0.0378
 6635SOL     OW31363   1.371   0.662   2.708  0.2413  0.0272 -0.2665
 6635SOL    HW131364   1.325   0.614   2.639  0.0110  0.7118 -0.5939
 6635SOL    HW231365   1.389   0.589   2.766  0.6426  1.0872  0.9354
 6636SOL     OW31366   3.041   0.039   9.029 -0.4544  0.6450 -0.4086
 6636SOL    HW131367   3.070   0.126   9.058  0.7482  0.3787 -0.8032
 6636SOL    HW231368   2.990   0.071   8.954  0.2565 -0.2910 -1.2954
 6637SOL     OW31369   1.293   4.512   3.336 -0.0115  0.1305  0.6044
 6637SOL    HW131370   1.319   4.518   3.244 -0.6232  0.4993  0.4540
 6637SOL    HW231371   1.211   4.466   3.320 -0.2954  0.8090  0.1190
 6638SOL     OW31372   2.858   3.301   7.630 -0.3571  0.1424  0.7061
 6638SOL    HW131373   2.809   3.254   7.698  1.1546 -3.1892 -0.4763
 6638SOL    HW231374   2.908   3.245   7.569 -2.5526 -1.2001  0.1457
 6639SOL     OW31375   1.609   0.820   3.378  0.0567 -0.4259 -0.0441
 6639SOL    HW131376   1.519   0.813   3.346  0.3628 -0.0276 -0.9938
 6639SOL    HW231377   1.588   0.833   3.471 -1.6014  0.5979 -0.5429
 6640SOL     OW31378   2.877   0.494  17.183 -0.0873 -0.1494 -0.1575
 6640SOL    HW131379   2.901   0.519  17.272 -1.2736 -0.1906  0.1765
 6640SOL    HW231380   2.784   0.518  17.184  0.5069  2.1013  1.0186
 6641SOL     OW31381   3.590   3.623   5.671 -0.6689  0.2719  0.0894
 6641SOL    HW131382   3.536   3.648   5.746 -1.6227  1.6906 -1.0614
 6641SOL    HW231383   3.570   3.529   5.671  3.0042 -0.4943  3.7133
 6642SOL     OW31384   0.854   1.466  15.379  0.2892  0.2589 -0.2574
 6642SOL    HW131385   0.804   1.540  15.412  1.1851  1.2989 -1.2547
 6642SOL    HW231386   0.866   1.425  15.465  1.6737 -0.3346 -0.7196
 6643SOL     OW31387   4.069   3.216  16.867 -0.3243 -0.2962 -0.1800
 6643SOL    HW131388   4.136   3.217  16.935  0.7235  0.0830 -1.2179
 6643SOL    HW231389   4.022   3.134  16.880  0.6598 -1.1995 -2.3501
 6644SOL     OW31390   1.281   3.539   0.370 -0.0782 -0.8315 -0.1856
 6644SOL    HW131391   1.251   3.489   0.446 -1.9597  0.2440 -0.2045
 6644SOL    HW231392   1.348   3.477   0.343  0.0661 -1.0949  0.7883
 6645SOL     OW31393   2.067   3.259   7.026  0.3206  0.1602 -0.5205
 6645SOL    HW131394   2.026   3.255   6.940  0.6565  0.3115 -0.6892
 6645SOL    HW231395   2.156   3.257   6.990  0.4434 -0.5363 -0.1760
 6646SOL     OW31396   0.514   2.237   3.913  0.0925  0.0741  0.4234
 6646SOL    HW131397   0.567   2.293   3.857 -0.5373 -0.3460 -0.5931
 6646SOL    HW231398   0.496   2.288   3.992  0.3215  0.0715  0.4772
 6647SOL     OW31399   1.930   2.532  16.362 -0.0083 -0.4220  0.3293
 6647SOL    HW131400   1.919   2.483  16.444  2.9273 -0.2603  0.8406
 6647SOL    HW231401   1.966   2.617  16.389 -0.2181 -0.0757 -0.4924
 6648SOL     OW31402   2.434   4.234   5.286  0.5744 -0.0844 -0.3018
 6648SOL    HW131403   2.507   4.282   5.326 -1.2065  2.5564 -0.2493
 6648SOL    HW231404   2.404   4.297   5.221 -0.6090 -0.2774  0.0586
 6649SOL     OW31405   0.964   2.842   1.652 -0.4904  0.9579 -0.5349
 6649SOL    HW131406   1.009   2.916   1.694 -1.7386  1.8648 -0.7884
 6649SOL    HW231407   0.985   2.769   1.710  1.2118  1.2333 -0.7775
 6650SOL     OW31408   1.876   1.036   5.557 -0.0478 -0.3326 -0.8586
 6650SOL    HW131409   1.968   1.030   5.583  0.1008  2.0949 -0.8885
 6650SOL    HW231410   1.868   0.957   5.503 -0.5272 -1.1221  0.3648
 6651SOL     OW31411   1.768   3.846   2.002  0.0284 -0.1632 -0.6240
 6651SOL    HW131412   1.684   3.880   2.033  0.9128  0.5618  0.9949
 6651SOL    HW231413   1.756   3.856   1.908 -0.9994  0.6279 -0.4141
 6652SOL     OW31414   1.355   4.485  13.817  0.2585 -0.0920 -0.1487
 6652SOL    HW131415   1.339   4.571  13.856 -0.6994 -0.9040  1.2562
 6652SOL    HW231416   1.265   4.457  13.801  0.6370 -2.4533  1.7639
 6653SOL     OW31417   0.341   0.654   2.187  0.6866  0.3540 -0.1131
 6653SOL    HW131418   0.339   0.748   2.168  2.6074  0.0955 -1.5995
 6653SOL    HW231419   0.428   0.641   2.227  0.5836  0.3070  0.0961
 6654SOL     OW31420   2.480   3.558  16.793  0.2237 -0.1202  0.4359
 6654SOL    HW131421   2.453   3.625  16.856  4.1481  1.6507  0.1721
 6654SOL    HW231422   2.506   3.611  16.718  0.8760  1.5850  1.8752
 6655SOL     OW31423   2.081   1.203   2.100 -0.3936  0.1973  0.0111
 6655SOL    HW131424   2.150   1.145   2.067  1.1444  2.7617 -1.2719
 6655SOL    HW231425   2.102   1.199   2.193 -0.2184 -0.6047 -0.0584
 6656SOL     OW31426   2.214   4.647  17.372 -0.0899  0.1490 -0.0898
 6656SOL    HW131427   2.149   4.610  17.313 -1.4227 -0.2403  1.6158
 6656SOL    HW231428   2.224   4.723  17.314  1.5284  0.7504  0.9646
 6657SOL     OW31429   0.209   0.574  10.401 -0.0384 -0.2653 -0.0526
 6657SOL    HW131430   0.131   0.620  10.430  0.0225 -0.3004  0.1628
 6657SOL    HW231431   0.261   0.603  10.476 -0.5367 -2.4703  1.1465
 6658SOL     OW31432   0.128   3.645  13.100  0.0376  0.5238 -0.2325
 6658SOL    HW131433   0.139   3.550  13.103  1.9472  0.7501 -0.2582
 6658SOL    HW231434   0.175   3.677  13.177 -1.3147  1.1077  0.3515
 6659SOL     OW31435   4.261   4.404   7.946  0.2743  0.3527 -0.2254
 6659SOL    HW131436   4.292   4.339   8.008  0.5258 -0.4845 -1.2281
 6659SOL    HW231437   4.268   4.357   7.863  0.9542  0.7918 -0.4142
 6660SOL     OW31438   3.454   3.002   1.918  0.6521 -1.1189 -0.0643
 6660SOL    HW131439   3.500   2.927   1.879  1.5667 -0.4605 -0.2442
 6660SOL    HW231440   3.480   3.068   1.855 -1.7078  1.2043  1.3793
 6661SOL     OW31441   2.865   4.454   0.846 -0.0286  0.1501 -0.0895
 6661SOL    HW131442   2.826   4.448   0.934 -1.4908 -0.9818 -0.8028
 6661SOL    HW231443   2.807   4.517   0.804 -0.0173  0.1662 -0.0806
 6662SOL     OW31444   3.305   3.422  17.119 -0.6904 -0.1274  0.3078
 6662SOL    HW131445   3.339   3.432  17.030  1.9353  0.5697  1.3882
 6662SOL    HW231446   3.236   3.359  17.097  0.7865 -1.5105 -0.3528
 6663SOL     OW31447   1.258   3.533   7.097  0.4330  0.4827  0.4153
 6663SOL    HW131448   1.200   3.462   7.125 -1.0689  2.4238  2.2551
 6663SOL    HW231449   1.346   3.505   7.122  0.9387  2.2152  0.5723
 6664SOL     OW31450   0.795   1.460   5.221 -0.2909  0.2331  0.3633
 6664SOL    HW131451   0.874   1.508   5.197 -1.0043  1.3097  0.1807
 6664SOL    HW231452   0.844   1.385   5.254  1.4693  1.3651  0.2980
 6665SOL     OW31453   3.686   1.753   0.256  0.1646 -0.3893 -0.3570
 6665SOL    HW131454   3.686   1.663   0.223 -0.4352 -0.7003  0.4885
 6665SOL    HW231455   3.640   1.802   0.188 -1.9441  0.0456  1.3764
 6666SOL     OW31456   3.792   0.694   5.134  0.3199  0.0655 -0.1896
 6666SOL    HW131457   3.749   0.614   5.104 -0.4283  0.5148 -0.3174
 6666SOL    HW231458   3.827   0.734   5.054 -0.1257  0.9873  0.0694
 6667SOL     OW31459   1.548   3.240   3.045  0.0764  0.1277 -0.3705
 6667SOL    HW131460   1.524   3.177   2.978 -1.5841 -0.1338  0.4712
 6667SOL    HW231461   1.463   3.246   3.089  0.3408 -2.7163  0.5512
 6668SOL     OW31462   4.018   3.859   3.166  0.4607  0.1651  0.1200
 6668SOL    HW131463   3.961   3.783   3.175 -1.3006  1.3066 -1.6588
 6668SOL    HW231464   4.100   3.817   3.139  0.4055  0.6216 -0.7315
 6669SOL     OW31465   1.887   3.240   9.965 -0.6231  0.4497 -0.0079
 6669SOL    HW131466   1.892   3.251   9.870  0.7852 -1.0746 -0.0981
 6669SOL    HW231467   1.815   3.177   9.961  0.2746 -0.5284 -0.7741
 6670SOL     OW31468   1.060   2.925  13.285  0.0961  0.0958  0.5212
 6670SOL    HW131469   0.986   2.953  13.232  0.5040 -0.3526 -0.2802
 6670SOL    HW231470   1.110   3.007  13.290  1.2979 -0.7077  2.1137
 6671SOL     OW31471   0.253   1.298   3.410 -0.0218 -0.9852 -0.0341
 6671SOL    HW131472   0.337   1.318   3.450  0.0673  0.9820 -1.2020
 6671SOL    HW231473   0.227   1.386   3.385 -0.4687 -1.6652 -2.0074
 6672SOL     OW31474   1.005   0.527  12.621  0.2269  0.6419  0.2392
 6672SOL    HW131475   1.084   0.581  12.624  1.0125 -0.5964  1.9605
 6672SOL    HW231476   0.958   0.539  12.704  0.2069  1.3681  0.1169
 6673SOL     OW31477   3.688   1.046   7.419  0.5958  0.7810  0.0784
 6673SOL    HW131478   3.669   1.139   7.433  0.7985  0.9947 -1.1125
 6673SOL    HW231479   3.701   1.025   7.512 -1.1395 -0.5279  0.0248
 6674SOL     OW31480   1.259   1.310   4.632 -0.0932  0.3669  0.8412
 6674SOL    HW131481   1.261   1.247   4.559 -2.2886 -0.1651  1.2328
 6674SOL    HW231482   1.178   1.274   4.669  0.5368 -1.1343  0.7407
 6675SOL     OW31483   4.606   1.754   4.456 -0.3823 -0.4308 -0.2144
 6675SOL    HW131484   4.583   1.683   4.396  1.7294  0.9436 -2.6812
 6675SOL    HW231485   4.542   1.742   4.526 -0.0681 -1.5928 -0.1227
 6676SOL     OW31486   3.025   0.129  15.080 -0.1369  0.0850 -0.2000
 6676SOL    HW131487   3.094   0.180  15.038 -0.8865  0.5426 -0.8743
 6676SOL    HW231488   3.062   0.043  15.061 -2.5992 -1.0916  0.3962
 6677SOL     OW31489   0.554   0.283   6.462 -0.0153  0.0587 -0.0901
 6677SOL    HW131490   0.521   0.250   6.546  0.5767  1.9578  0.9008
 6677SOL    HW231491   0.648   0.268   6.464  0.0957  0.4374 -3.0158
 6678SOL     OW31492   3.696   4.269   5.159  0.0867 -0.3773 -0.3589
 6678SOL    HW131493   3.622   4.224   5.118  0.8711 -2.0055  0.0246
 6678SOL    HW231494   3.757   4.196   5.154 -1.3028 -1.6050  0.6988
 6679SOL     OW31495   2.726   2.633   5.809 -0.2601 -0.0644 -0.2699
 6679SOL    HW131496   2.708   2.638   5.903  0.4719  0.2015 -0.1388
 6679SOL    HW231497   2.817   2.604   5.804 -0.1191  0.4908 -0.9101
 6680SOL     OW31498   3.594   0.798   1.418 -0.1098  0.2540 -0.6924
 6680SOL    HW131499   3.639   0.883   1.419 -1.8641  1.1537  1.3473
 6680SOL    HW231500   3.623   0.748   1.494 -1.3857 -1.9532 -1.6799
 6681SOL     OW31501   3.296   0.092   3.237  0.7319 -0.1890  0.6445
 6681SOL    HW131502   3.274   4.722   3.228  2.9599 -0.5109 -1.4782
 6681SOL    HW231503   3.391   0.087   3.243  0.6728 -1.3300  0.6890
 6682SOL     OW31504   0.049   1.343  16.618  0.2292 -0.0536 -0.1086
 6682SOL    HW131505   0.114   1.404  16.651  0.5348  0.9360 -2.5936
 6682SOL    HW231506   0.099   1.289  16.558  0.8264 -1.7456  1.8993
 6683SOL     OW31507   4.167   0.551   8.569 -0.6212 -0.0102  0.1754
 6683SOL    HW131508   4.181   0.631   8.619 -1.6587  0.8834 -0.9533
 6683SOL    HW231509   4.145   0.495   8.643 -0.9957  0.8886  0.7456
 6684SOL     OW31510   0.864   0.084   3.575  0.4685  0.3933  0.4726
 6684SOL    HW131511   0.924   0.141   3.623  1.1752  0.3917 -0.4056
 6684SOL    HW231512   0.798   0.140   3.534  1.0445 -0.6709 -1.8846
 6685SOL     OW31513   4.462   2.476   4.787  0.2541  0.0732 -0.8030
 6685SOL    HW131514   4.394   2.541   4.807  0.6612 -0.0743  1.0938
 6685SOL    HW231515   4.481   2.490   4.695 -0.9854 -0.0709 -1.0819
 6686SOL     OW31516   1.699   2.689   1.794 -0.1795  0.3188 -0.4071
 6686SOL    HW131517   1.659   2.765   1.836 -0.1976 -0.1914  0.4996
 6686SOL    HW231518   1.790   2.697   1.822 -0.1040  1.1082 -0.8880
 6687SOL     OW31519   0.255   2.975   4.603 -0.0745  0.6542 -0.2204
 6687SOL    HW131520   0.273   2.973   4.697 -0.1743  1.2725 -0.1919
 6687SOL    HW231521   0.325   2.929   4.556  0.5751  2.0855 -0.6472
 6688SOL     OW31522   3.254   4.099   9.526 -0.4007  0.3637 -0.1441
 6688SOL    HW131523   3.210   4.088   9.442  0.2463  0.5897 -0.5190
 6688SOL    HW231524   3.341   4.060   9.509 -0.2900  0.8233 -0.6412
 6689SOL     OW31525   4.149   3.289   4.599 -0.3747 -0.0329  0.0590
 6689SOL    HW131526   4.146   3.350   4.673 -0.3638  1.3812 -1.0951
 6689SOL    HW231527   4.060   3.256   4.592 -0.5549  1.1900 -3.5542
 6690SOL     OW31528   1.655   2.192   3.692 -0.4198  0.8784 -0.0114
 6690SOL    HW131529   1.605   2.147   3.624 -0.1966 -1.7490  1.5639
 6690SOL    HW231530   1.712   2.125   3.731 -1.2740  1.2941  1.9462
 6691SOL     OW31531   3.696   1.143   8.561  0.2712 -0.0349 -0.8683
 6691SOL    HW131532   3.778   1.111   8.598  0.8371  2.4181 -0.0302
 6691SOL    HW231533   3.645   1.135   8.641 -0.6027  1.1263 -1.3170
 6692SOL     OW31534   2.071   2.226   5.996 -0.8994 -0.4295 -0.0566
 6692SOL    HW131535   2.059   2.321   5.988  0.7924 -0.3466 -1.5335
 6692SOL    HW231536   2.024   2.205   6.077 -3.8992 -2.0298 -2.1916
 6693SOL     OW31537   1.263   3.650   5.508 -0.0889  0.2481  0.0351
 6693SOL    HW131538   1.346   3.696   5.497  0.2512 -0.3728 -0.0379
 6693SOL    HW231539   1.278   3.610   5.594 -0.8899 -0.6441 -0.2426
 6694SOL     OW31540   2.029   2.207   1.845  0.8030  0.7944 -0.5296
 6694SOL    HW131541   2.030   2.158   1.764  0.5337 -0.0360 -0.0306
 6694SOL    HW231542   2.047   2.299   1.823 -0.0126  1.5157  1.7408
 6695SOL     OW31543   1.548   0.051  12.005  0.3483 -0.3535  0.1488
 6695SOL    HW131544   1.630   0.077  11.964  0.3444  0.0046  0.3658
 6695SOL    HW231545   1.497   0.130  12.025  0.7368  0.1004 -0.6576
 6696SOL     OW31546   4.480   1.092   3.867 -0.0208 -0.1391  0.8076
 6696SOL    HW131547   4.456   1.059   3.780 -0.6443  0.1235  0.8836
 6696SOL    HW231548   4.400   1.065   3.914 -0.7901  0.1696 -0.3341
 6697SOL     OW31549   1.402   2.926  16.813 -0.2263 -0.3931 -0.2410
 6697SOL    HW131550   1.330   2.987  16.802  0.5919  0.3285 -1.5449
 6697SOL    HW231551   1.360   2.842  16.832  1.0132 -0.7461  0.9376
 6698SOL     OW31552   3.821   0.999   4.346  0.1725 -0.6924 -1.0766
 6698SOL    HW131553   3.759   0.927   4.360  0.2442 -0.4282  0.6447
 6698SOL    HW231554   3.826   0.994   4.251  1.6130  4.1655 -1.2519
 6699SOL     OW31555   4.468   0.363   6.632 -0.1275  0.7515 -0.3285
 6699SOL    HW131556   4.442   0.386   6.542 -0.7279  1.4489  0.0272
 6699SOL    HW231557   4.537   0.296   6.630  0.1471  1.0581 -1.5981
 6700SOL     OW31558   4.474   1.919   1.995  0.4067 -0.1588 -0.1023
 6700SOL    HW131559   4.499   1.827   1.990 -2.4493 -0.8633 -1.3976
 6700SOL    HW231560   4.543   1.967   1.950  1.4001 -1.1634  0.3579
 6701SOL     OW31561   2.224   4.549   8.003  0.2320 -0.1045 -1.4256
 6701SOL    HW131562   2.221   4.454   7.996 -4.3099 -0.0689  0.2698
 6701SOL    HW231563   2.318   4.562   7.996  0.2325  1.3079  1.4430
 6702SOL     OW31564   1.656   4.415   7.874  0.3628  0.7130  0.3886
 6702SOL    HW131565   1.583   4.436   7.933 -0.3102 -1.9213  0.4974
 6702SOL    HW231566   1.618   4.435   7.789  2.0538 -1.5710 -0.9100
 6703SOL     OW31567   0.878   3.947   7.229  0.5146 -0.3293  0.0727
 6703SOL    HW131568   0.807   3.892   7.196 -0.0756  0.1840  0.4934
 6703SOL    HW231569   0.843   4.035   7.212 -0.1616 -0.5373  0.3829
 6704SOL     OW31570   1.963   0.425   0.444 -0.1712  0.2346 -0.0678
 6704SOL    HW131571   2.002   0.339   0.430 -1.8869 -0.7264  1.0247
 6704SOL    HW231572   1.960   0.453   0.353 -1.1183 -0.5217 -0.2738
 6705SOL     OW31573   3.624   2.839   9.652 -0.7015  0.3665  0.5575
 6705SOL    HW131574   3.656   2.774   9.715  0.9666  1.9469  1.3483
 6705SOL    HW231575   3.691   2.907   9.663 -0.8225  0.6828 -0.6692
 6706SOL     OW31576   4.653   4.165  13.522  0.2434 -0.2178  0.2592
 6706SOL    HW131577   4.624   4.227  13.455 -0.4145  0.7499  1.4320
 6706SOL    HW231578   4.717   4.216  13.573  0.6664  0.2971 -0.7781
 6707SOL     OW31579   1.687   1.473   0.274  0.3766 -0.0373 -0.4227
 6707SOL    HW131580   1.732   1.557   0.275  0.2661  0.0261 -1.0465
 6707SOL    HW231581   1.768   1.423   0.287  1.5612  1.9932 -0.1087
 6708SOL     OW31582   2.419   3.399   5.093 -0.1294 -0.5256 -0.2288
 6708SOL    HW131583   2.453   3.346   5.165 -0.0847  0.0581  0.1770
 6708SOL    HW231584   2.396   3.342   5.020  0.1807 -0.1311 -0.6369
 6709SOL     OW31585   0.319   4.481  13.131  0.0989  0.1248  0.2013
 6709SOL    HW131586   0.279   4.446  13.211  1.5257 -1.3815  0.2539
 6709SOL    HW231587   0.247   4.523  13.083  0.9382  3.3147  1.7092
 6710SOL     OW31588   1.485   3.368  11.276 -0.1299  0.0076  0.2471
 6710SOL    HW131589   1.418   3.390  11.342  0.7545  2.2391  0.3846
 6710SOL    HW231590   1.462   3.429  11.206 -1.6180  0.0522  0.7563
 6711SOL     OW31591   0.919   2.875   1.372 -0.4240  0.2596  0.5184
 6711SOL    HW131592   0.926   2.856   1.465  1.2822 -1.0142  0.1422
 6711SOL    HW231593   1.012   2.874   1.348 -0.3571  0.8767  0.7764
 6712SOL     OW31594   0.990   4.722   4.330 -0.0840  0.5677  0.0887
 6712SOL    HW131595   0.952   4.647   4.377  1.9424  0.4376  1.5012
 6712SOL    HW231596   1.077   0.006   4.369 -0.0209 -2.5062  0.5255
 6713SOL     OW31597   1.827   0.663   3.510  0.2976 -0.1308 -0.0246
 6713SOL    HW131598   1.910   0.651   3.556  1.4323 -1.9271 -2.5744
 6713SOL    HW231599   1.825   0.755   3.487 -0.0446  0.1262  1.0001
 6714SOL     OW31600   2.516   3.240   8.094 -0.0689 -0.2666  0.0460
 6714SOL    HW131601   2.517   3.297   8.171 -0.4354  0.1280 -0.2401
 6714SOL    HW231602   2.575   3.173   8.128 -1.6165 -2.1234 -0.9704
 6715SOL     OW31603   1.160   2.431   0.382 -0.3711 -0.3412 -0.6821
 6715SOL    HW131604   1.103   2.358   0.405  0.3195 -0.5776  0.2503
 6715SOL    HW231605   1.157   2.422   0.286  0.5188  2.0161 -0.9353
 6716SOL     OW31606   4.040   4.314   3.026  0.5120 -0.6168  0.9563
 6716SOL    HW131607   3.952   4.286   3.053  1.3893 -2.5793  1.7548
 6716SOL    HW231608   4.053   4.274   2.940  1.1813  0.8296  0.3838
 6717SOL     OW31609   3.608   0.869   8.629  0.1692  0.1058  0.2963
 6717SOL    HW131610   3.694   0.873   8.670 -0.1927  0.4952  1.0310
 6717SOL    HW231611   3.610   0.957   8.590 -1.6084  0.8777  1.9248
 6718SOL     OW31612   2.984   2.930   5.267 -0.4198  0.0990  0.2610
 6718SOL    HW131613   2.957   3.021   5.271 -0.0517  0.3543 -2.7560
 6718SOL    HW231614   3.024   2.921   5.354  0.9868 -1.9729 -0.5854
 6719SOL     OW31615   4.307   4.056   1.233  0.2835 -0.5473 -0.0414
 6719SOL    HW131616   4.241   4.033   1.298 -0.2540 -0.3314 -0.5166
 6719SOL    HW231617   4.334   3.969   1.204  0.0615 -0.2927 -0.9983
 6720SOL     OW31618   3.260   3.445   7.709  0.3744  0.6544 -0.1837
 6720SOL    HW131619   3.278   3.535   7.734 -0.8905  0.8163  0.1625
 6720SOL    HW231620   3.200   3.448   7.634 -0.3739 -0.7638  0.3634
 6721SOL     OW31621   2.898   4.461  15.801 -0.5765  0.4499 -0.1163
 6721SOL    HW131622   2.947   4.543  15.800  0.1930  0.0025  0.1607
 6721SOL    HW231623   2.918   4.434  15.891 -3.0607 -1.4976 -0.1613
 6722SOL     OW31624   3.232   3.442  16.531 -0.1160  0.3855 -0.1478
 6722SOL    HW131625   3.218   3.347  16.523 -1.3710  0.5922 -0.3713
 6722SOL    HW231626   3.174   3.470  16.601  0.4175  1.1863 -0.0340
 6723SOL     OW31627   4.083   2.589   5.935  0.1642 -0.5022 -0.7159
 6723SOL    HW131628   4.123   2.676   5.941 -1.6436  0.3114 -0.3441
 6723SOL    HW231629   4.014   2.616   5.875 -0.8352 -2.3513 -0.3939
 6724SOL     OW31630   2.541   4.352  13.185 -0.3968  0.0694 -0.2060
 6724SOL    HW131631   2.535   4.353  13.280 -0.0435 -0.9087 -0.1668
 6724SOL    HW231632   2.622   4.301  13.176  0.4124  1.1042  1.3172
 6725SOL     OW31633   3.211   1.619   6.439 -0.3523 -0.6666 -0.6909
 6725SOL    HW131634   3.282   1.681   6.418 -0.4451 -0.8851 -1.6396
 6725SOL    HW231635   3.251   1.573   6.512  1.1088  1.1923 -0.2979
 6726SOL     OW31636   2.686   4.420   5.160 -0.0050  0.2451  0.6298
 6726SOL    HW131637   2.776   4.417   5.127  0.1429  0.8391  0.9858
 6726SOL    HW231638   2.690   4.409   5.255 -1.8332  2.5727  0.9628
 6727SOL     OW31639   1.871   2.772   7.459  0.1990  0.2123  0.0826
 6727SOL    HW131640   1.816   2.835   7.412 -2.6413 -0.8322  1.9775
 6727SOL    HW231641   1.855   2.794   7.551  0.4686  0.4662  0.0683
 6728SOL     OW31642   3.915   4.327   0.972  0.2972 -0.6123  0.5142
 6728SOL    HW131643   3.937   4.395   1.036  1.9385 -2.2433  1.6418
 6728SOL    HW231644   3.988   4.266   0.968 -0.3682 -1.3582 -0.2966
 6729SOL     OW31645   0.250   4.590  10.023 -0.1365  0.3924 -0.0906
 6729SOL    HW131646   0.330   4.542  10.046 -0.0609  0.5630  0.0010
 6729SOL    HW231647   0.246   4.656  10.092  3.9917  0.8000 -0.2549
 6730SOL     OW31648   4.479   1.193  11.865 -0.0184  0.2342 -0.0459
 6730SOL    HW131649   4.549   1.141  11.904 -1.9587 -2.7076 -0.4413
 6730SOL    HW231650   4.470   1.272  11.917  2.9847  1.5659 -1.5796
 6731SOL     OW31651   4.357   1.827   7.719  0.5903  0.4128  0.2539
 6731SOL    HW131652   4.375   1.756   7.658 -0.7185  0.8735 -0.6667
 6731SOL    HW231653   4.412   1.806   7.794  0.1716  1.7808  0.9485
 6732SOL     OW31654   2.932   1.641   9.116  0.4596 -0.6083 -0.2033
 6732SOL    HW131655   2.874   1.588   9.061 -2.1507  1.9876  0.0968
 6732SOL    HW231656   2.986   1.575   9.160 -1.2569 -1.4987  0.5620
 6733SOL     OW31657   4.597   4.680   8.395  0.3337  0.4166  0.6851
 6733SOL    HW131658   4.609   0.043   8.435  2.3128  1.5722 -2.3417
 6733SOL    HW231659   4.509   4.685   8.359  0.5119  1.7545  0.4254
 6734SOL     OW31660   3.480   2.398   2.842 -0.6022 -0.1585  0.0931
 6734SOL    HW131661   3.478   2.402   2.747  0.4105 -0.8275  0.0450
 6734SOL    HW231662   3.400   2.345   2.847  0.9407 -2.5271 -0.3074
 6735SOL     OW31663   2.639   0.236  17.402  0.0443 -0.1889  0.2717
 6735SOL    HW131664   2.608   0.224  17.312  1.6569 -0.7099 -0.2170
 6735SOL    HW231665   2.561   0.272  17.444  1.6760 -0.3067  3.4035
 6736SOL     OW31666   2.340   0.477   6.261 -0.0309 -0.4563  0.4431
 6736SOL    HW131667   2.340   0.475   6.357  1.2297  1.4337  0.4790
 6736SOL    HW231668   2.434   0.463   6.252 -0.5275 -2.1844 -2.0236
 6737SOL     OW31669   3.298   4.072   6.271 -0.1971  0.0992  0.5427
 6737SOL    HW131670   3.213   4.108   6.297  0.0876  0.9320  0.3224
 6737SOL    HW231671   3.355   4.137   6.313 -0.1922  1.3589 -1.4081
 6738SOL     OW31672   0.180   4.333  13.320 -0.5551 -0.3772  0.0126
 6738SOL    HW131673   0.139   4.249  13.297  0.2301 -0.6941 -0.2401
 6738SOL    HW231674   0.101   4.385  13.311  0.0511  0.6243  0.5102
 6739SOL     OW31675   3.014   0.007  17.469 -0.0477  0.3192 -0.0250
 6739SOL    HW131676   2.947   4.662  17.478 -0.7042  0.6399 -2.4586
 6739SOL    HW231677   2.957   0.080  17.491  1.0272  0.6099  1.7470
 6740SOL     OW31678   1.674   4.453  10.009 -0.0637 -0.6117 -0.2210
 6740SOL    HW131679   1.626   4.500  10.077  1.1854 -1.8283  1.4855
 6740SOL    HW231680   1.764   4.472  10.034 -0.4651  0.0288  0.7179
 6741SOL     OW31681   2.967   0.682   7.620  0.1541  0.2296  0.0141
 6741SOL    HW131682   2.899   0.648   7.679  0.0863  0.7572  0.2407
 6741SOL    HW231683   3.018   0.602   7.607 -1.3866 -0.2358 -3.0109
 6742SOL     OW31684   0.754   3.130   6.345  0.0251  0.5103 -0.1764
 6742SOL    HW131685   0.766   3.202   6.283 -0.3516  0.3600 -0.4178
 6742SOL    HW231686   0.695   3.166   6.411 -0.8457 -0.2293 -0.5551
 6743SOL     OW31687   2.713   2.740  12.607  0.0735  0.1860 -0.4166
 6743SOL    HW131688   2.800   2.710  12.632 -0.6767 -1.7282 -0.0855
 6743SOL    HW231689   2.697   2.823  12.653 -0.4727 -0.5393  0.7035
 6744SOL     OW31690   2.957   3.982   9.484  0.2365  0.0838 -0.0321
 6744SOL    HW131691   2.962   3.944   9.572  0.2842 -0.8723 -0.4426
 6744SOL    HW231692   3.002   3.917   9.430 -1.4851 -0.6792 -0.5565
 6745SOL     OW31693   1.004   3.732   2.505  0.5327  0.5786 -0.2824
 6745SOL    HW131694   1.004   3.723   2.410  2.7243  0.9212 -0.3122
 6745SOL    HW231695   0.952   3.657   2.536 -4.3668  3.6541 -1.1114
 6746SOL     OW31696   0.892   3.770   5.383  0.0866  0.2571  0.0021
 6746SOL    HW131697   0.909   3.812   5.299  0.2751  0.7262  0.2758
 6746SOL    HW231698   0.826   3.828   5.422  1.5875  1.5379  0.5887
 6747SOL     OW31699   1.229   0.772   4.984  0.3658  0.1938 -0.2043
 6747SOL    HW131700   1.237   0.827   5.062  0.2253 -1.8243  1.2347
 6747SOL    HW231701   1.142   0.802   4.960  1.0017 -0.4971 -3.4337
 6748SOL     OW31702   0.347   1.720  16.683 -0.2173  0.2462  0.0398
 6748SOL    HW131703   0.278   1.775  16.722 -2.5683 -2.4786 -0.3018
 6748SOL    HW231704   0.413   1.729  16.752 -0.4750 -0.2128  0.3491
 6749SOL     OW31705   3.201   1.669   6.032 -0.2096 -0.1857  0.6749
 6749SOL    HW131706   3.212   1.590   6.085  0.1037 -1.1428 -0.7983
 6749SOL    HW231707   3.293   1.687   6.017  0.4568 -1.5055  3.3071
 6750SOL     OW31708   0.158   3.011   3.924 -0.2571 -0.3585  0.0675
 6750SOL    HW131709   0.105   3.063   3.985 -1.0600  0.0058 -0.9362
 6750SOL    HW231710   0.241   3.047   3.953 -0.4257  1.4281 -1.6053
 6751SOL     OW31711   4.492   0.508   3.815 -0.8725  0.4498 -0.5417
 6751SOL    HW131712   4.400   0.505   3.789 -1.1328  1.0162  0.2931
 6751SOL    HW231713   4.491   0.474   3.905  0.7812  2.9711  0.4391
 6752SOL     OW31714   0.262   0.833  13.128  0.0340 -0.6156 -0.4978
 6752SOL    HW131715   0.307   0.760  13.086 -0.0478  0.1626 -1.9525
 6752SOL    HW231716   0.312   0.845  13.208 -0.4593  1.4386 -0.4813
 6753SOL     OW31717   0.782   1.498  13.043 -0.9240  0.1207  0.0104
 6753SOL    HW131718   0.843   1.435  13.005 -0.8825  1.1708 -1.6837
 6753SOL    HW231719   0.736   1.453  13.114 -2.2602 -0.3274 -1.1346
 6754SOL     OW31720   3.480   2.798   3.837  0.1241 -0.1767  0.5203
 6754SOL    HW131721   3.471   2.887   3.804  1.5270 -0.2562 -0.0876
 6754SOL    HW231722   3.492   2.748   3.756  2.7078  1.6816 -0.2529
 6755SOL     OW31723   3.692   3.784   7.325 -0.3001 -0.2711  0.2504
 6755SOL    HW131724   3.648   3.767   7.408 -1.1311 -1.1649 -0.3825
 6755SOL    HW231725   3.777   3.819   7.352  0.6742 -1.9587 -0.6149
 6756SOL     OW31726   0.018   3.611   5.861 -0.1925  0.0322  0.3029
 6756SOL    HW131727   0.005   3.623   5.955  0.0718  0.1901  0.3200
 6756SOL    HW231728   0.039   3.519   5.875 -2.4517 -0.5937 -0.4193
 6757SOL     OW31729   3.284   3.967   8.104 -0.4864 -0.2749  0.1321
 6757SOL    HW131730   3.356   3.929   8.052  0.2190  2.1900 -0.6647
 6757SOL    HW231731   3.333   4.020   8.167  0.6852 -1.2445  0.0413
 6758SOL     OW31732   3.071   0.864  12.798  0.0075 -0.4522 -0.7639
 6758SOL    HW131733   3.132   0.931  12.769 -1.2475  1.3107  0.6869
 6758SOL    HW231734   3.009   0.924  12.840  0.6318 -0.4332  0.1140
 6759SOL     OW31735   1.866   0.573   4.989  0.3697 -0.0627 -0.3173
 6759SOL    HW131736   1.842   0.659   4.956 -1.0609 -0.1765  0.4333
 6759SOL    HW231737   1.945   0.595   5.039  0.0421  0.3972 -0.0024
 6760SOL     OW31738   2.992   3.425   2.585 -0.5279  0.5013  0.3116
 6760SOL    HW131739   2.900   3.446   2.601 -1.3978 -4.8427  2.0874
 6760SOL    HW231740   3.002   3.395   2.494  1.5894  1.4994  0.2213
 6761SOL     OW31741   1.320   4.576   6.291  0.6098  0.3315 -0.2269
 6761SOL    HW131742   1.238   4.532   6.313  0.0266  0.1872 -2.6808
 6761SOL    HW231743   1.385   4.508   6.310  1.2722  1.1220  0.4028
 6762SOL     OW31744   1.008   1.598   3.300  0.7133  0.5809  0.1084
 6762SOL    HW131745   0.986   1.513   3.339  0.5374  0.1651 -0.8944
 6762SOL    HW231746   0.953   1.593   3.222 -0.5894 -0.7779  1.1190
 6763SOL     OW31747   2.949   4.103   8.169 -0.7864 -0.4029  0.1437
 6763SOL    HW131748   2.891   4.153   8.226  0.3815  0.1136  0.8754
 6763SOL    HW231749   2.958   4.029   8.229 -0.1397 -0.9052 -0.5731
 6764SOL     OW31750   0.410   4.644   6.571 -0.5419  0.1548 -0.2774
 6764SOL    HW131751   0.427   0.014   6.585 -1.0821  0.3042 -0.6098
 6764SOL    HW231752   0.361   4.619   6.649  2.1729 -1.5983  0.8455
 6765SOL     OW31753   2.064   4.229   4.415  0.7309  0.6173 -0.3708
 6765SOL    HW131754   2.139   4.277   4.449  0.3383  0.1588  1.1177
 6765SOL    HW231755   2.041   4.294   4.348  0.0885  0.2732 -0.4895
 6766SOL     OW31756   4.344   0.056  10.208  0.1206 -0.1231  0.0920
 6766SOL    HW131757   4.355   0.053  10.303  1.9874  0.4218 -0.1224
 6766SOL    HW231758   4.428   0.074  10.166  0.2171  1.7977  1.1366
 6767SOL     OW31759   4.421   0.410  11.661  0.3833 -0.1360 -0.6801
 6767SOL    HW131760   4.427   0.326  11.614  0.9521 -0.7145  0.4206
 6767SOL    HW231761   4.327   0.416  11.678  0.8554  1.1407  1.4191
 6768SOL     OW31762   3.937   1.375   8.272 -0.1366  0.2841 -0.1279
 6768SOL    HW131763   3.982   1.418   8.345  1.8476  0.1932 -1.2888
 6768SOL    HW231764   3.850   1.354   8.305  0.3935 -1.2472  0.3150
 6769SOL     OW31765   4.398   2.527   6.873 -0.0618 -0.2285  0.6472
 6769SOL    HW131766   4.315   2.493   6.907 -0.0981 -0.6954  0.0987
 6769SOL    HW231767   4.403   2.613   6.914  2.0732  0.1281 -0.3485
 6770SOL     OW31768   1.277   1.780   5.158  0.5540 -0.7201  0.7740
 6770SOL    HW131769   1.229   1.773   5.075  0.2643 -1.0105  0.9667
 6770SOL    HW231770   1.319   1.694   5.168  0.7743 -0.9479 -2.1570
 6771SOL     OW31771   0.689   2.123  13.288  0.0276 -0.3401  0.0339
 6771SOL    HW131772   0.723   2.085  13.369  1.3357  0.0615 -0.3239
 6771SOL    HW231773   0.772   2.126  13.239  0.5364  2.3127  1.0849
 6772SOL     OW31774   1.804   0.730   2.702 -0.2513  0.3073 -0.5995
 6772SOL    HW131775   1.790   0.679   2.622  0.0596 -1.6964  0.6293
 6772SOL    HW231776   1.892   0.705   2.729 -0.4378  1.1111  0.7509
 6773SOL     OW31777   0.662   1.715   5.264  0.0155  0.2181 -0.0465
 6773SOL    HW131778   0.604   1.735   5.337  0.1922  0.8041 -0.0599
 6773SOL    HW231779   0.724   1.659   5.311 -0.8146 -0.6272  0.0388
 6774SOL     OW31780   2.012   4.692   7.702  0.5381  0.4578 -0.1557
 6774SOL    HW131781   1.986   4.624   7.763  3.6497  0.1923  0.8473
 6774SOL    HW231782   1.948   4.675   7.632 -0.9022  0.0123  1.2632
 6775SOL     OW31783   0.813   2.740   9.022  0.0737 -0.0478  0.6206
 6775SOL    HW131784   0.878   2.715   8.957 -1.5744 -1.3138 -0.5580
 6775SOL    HW231785   0.867   2.726   9.099 -0.3019 -1.3665  0.6474
 6776SOL     OW31786   0.723   3.240   2.745 -0.4146  0.2855  0.2702
 6776SOL    HW131787   0.806   3.245   2.793 -0.3736 -1.0243  0.3160
 6776SOL    HW231788   0.684   3.165   2.789 -1.6808  0.1896 -1.0373
 6777SOL     OW31789   3.139   0.857   3.100 -0.0209 -0.0640  0.6263
 6777SOL    HW131790   3.167   0.801   3.028 -1.6059 -1.6276  1.2013
 6777SOL    HW231791   3.044   0.841   3.094  0.1508 -0.0770 -1.7906
 6778SOL     OW31792   2.810   1.092  13.413  0.0647 -0.2827 -0.1893
 6778SOL    HW131793   2.761   1.083  13.331 -3.0515  2.1566  1.4229
 6778SOL    HW231794   2.786   1.179  13.444 -0.8223 -0.0675 -1.4708
 6779SOL     OW31795   2.346   3.780   3.624 -0.1423  0.3425 -0.1229
 6779SOL    HW131796   2.320   3.860   3.669 -0.8152  0.8964 -1.5121
 6779SOL    HW231797   2.433   3.805   3.593 -1.0252  1.6322 -1.5391
 6780SOL     OW31798   3.868   2.825   2.625  0.3511 -0.2710  0.0761
 6780SOL    HW131799   3.791   2.819   2.681  1.0667 -2.3764  0.8495
 6780SOL    HW231800   3.937   2.786   2.680  1.0301  1.6955  0.6308
 6781SOL     OW31801   1.600   4.495   7.415 -0.5371  0.2044 -0.0016
 6781SOL    HW131802   1.579   4.438   7.340 -1.0936  0.0124  0.3043
 6781SOL    HW231803   1.532   4.464   7.475 -0.7547  0.0046 -0.3497
 6782SOL     OW31804   3.367   2.591   5.681  0.1585 -0.5272  0.6759
 6782SOL    HW131805   3.324   2.518   5.637 -3.8119  2.4203 -0.2875
 6782SOL    HW231806   3.389   2.649   5.608 -1.8970 -0.4814  0.0978
 6783SOL     OW31807   4.002   1.753   8.481 -0.3235  0.2139 -0.3614
 6783SOL    HW131808   4.041   1.666   8.490  0.9226  0.9471  1.2530
 6783SOL    HW231809   3.942   1.749   8.555 -1.0972  3.2801 -0.8091
 6784SOL     OW31810   1.707   4.304  12.104  0.1285  0.0304  0.6618
 6784SOL    HW131811   1.656   4.383  12.121  0.5063  0.7968 -1.8360
 6784SOL    HW231812   1.753   4.288  12.186 -0.0970 -0.1223  0.7573
 6785SOL     OW31813   4.315   0.073   5.973 -0.6408  0.3914  0.8628
 6785SOL    HW131814   4.408   0.065   5.951 -1.4287 -1.9811 -1.6004
 6785SOL    HW231815   4.318   0.078   6.069  2.7961  0.5430  0.7685
 6786SOL     OW31816   2.692   2.949   5.720 -0.1929 -0.3645 -0.0231
 6786SOL    HW131817   2.639   2.917   5.648  1.2818 -0.3347 -1.1155
 6786SOL    HW231818   2.750   2.876   5.742 -0.8702 -0.9146 -0.1071
 6787SOL     OW31819   2.997   1.479  10.767 -0.1866 -0.1057  0.6472
 6787SOL    HW131820   3.032   1.442  10.686  1.5243 -0.3468  1.5065
 6787SOL    HW231821   2.908   1.497  10.737  0.2513 -1.5118 -1.5064
 6788SOL     OW31822   2.394   2.021   3.307 -0.4079 -0.3222  0.1577
 6788SOL    HW131823   2.388   2.043   3.400  1.0587  2.1905 -0.3181
 6788SOL    HW231824   2.318   1.977   3.272 -0.2280  0.3315 -1.0501
 6789SOL     OW31825   1.373   2.982   2.442 -0.0644  0.0579 -0.0463
 6789SOL    HW131826   1.459   2.941   2.456 -0.1177 -0.1287 -0.2754
 6789SOL    HW231827   1.342   2.977   2.533 -1.2512  2.7520 -0.3197
 6790SOL     OW31828   0.096   0.431  14.925  0.0913  0.3688 -0.5563
 6790SOL    HW131829   0.049   0.510  14.897 -0.3431  0.0830 -0.6258
 6790SOL    HW231830   0.162   0.457  14.989 -0.6131 -0.8612  0.6680
 6791SOL     OW31831   0.060   4.313   4.724 -0.2235  0.4062 -0.2391
 6791SOL    HW131832   0.140   4.325   4.775 -0.6565  1.2985  0.2371
 6791SOL    HW231833   0.046   4.219   4.734  1.0595  0.1706 -0.6706
 6792SOL     OW31834   0.694   0.468   8.781 -0.0382 -0.9645 -0.1529
 6792SOL    HW131835   0.782   0.505   8.777 -0.8530  0.7051 -2.6976
 6792SOL    HW231836   0.709   0.386   8.735 -0.3220 -0.4523 -1.1653
 6793SOL     OW31837   2.248   2.393   0.100 -1.0450  0.2347  0.1831
 6793SOL    HW131838   2.267   2.485   0.080  0.2032 -0.2650 -0.8851
 6793SOL    HW231839   2.252   2.410   0.194 -1.4931 -0.3929  0.3121
 6794SOL     OW31840   1.193   2.632  10.901 -0.6187 -0.6328 -0.4302
 6794SOL    HW131841   1.144   2.616  10.981 -1.4204  3.6322 -0.0617
 6794SOL    HW231842   1.131   2.640  10.828  0.4482  0.6955 -1.1834
 6795SOL     OW31843   1.187   0.373   1.457 -0.4452  0.5398 -0.0317
 6795SOL    HW131844   1.114   0.335   1.505 -0.8242  0.7782 -0.4125
 6795SOL    HW231845   1.214   0.437   1.523  0.5592 -1.4914  1.5049
 6796SOL     OW31846   3.585   4.700   4.653  0.0609 -0.2529  0.1097
 6796SOL    HW131847   3.581   4.680   4.559 -1.0935 -1.6688  0.4544
 6796SOL    HW231848   3.594   0.072   4.662 -0.5804  0.0219 -2.0151
 6797SOL     OW31849   3.609   4.247   1.788 -0.3834 -0.2102 -0.6986
 6797SOL    HW131850   3.636   4.206   1.870  0.6655 -1.2320 -1.5513
 6797SOL    HW231851   3.633   4.340   1.787  0.5354 -0.4831 -2.6422
 6798SOL     OW31852   4.174   3.483  11.066 -0.7350  0.2319  0.0786
 6798SOL    HW131853   4.190   3.473  11.160  0.4879  1.0354 -0.0470
 6798SOL    HW231854   4.132   3.398  11.049 -0.9186  0.4147 -0.3811
 6799SOL     OW31855   3.973   4.054   1.652 -0.5847 -0.0065 -0.0429
 6799SOL    HW131856   3.902   4.010   1.699  0.9801 -0.7953  1.5931
 6799SOL    HW231857   3.959   4.142   1.687  0.6199 -0.8238  2.5707
 6800SOL     OW31858   1.675   1.398   5.203  0.1002  0.5987 -0.1614
 6800SOL    HW131859   1.654   1.315   5.159 -1.5005 -0.6758  3.0001
 6800SOL    HW231860   1.699   1.460   5.134 -0.1839  0.6844 -0.1833
 6801SOL     OW31861   2.150   1.750  11.887 -0.1237  0.4839  0.0468
 6801SOL    HW131862   2.233   1.790  11.857  0.8735 -1.5599  0.0843
 6801SOL    HW231863   2.173   1.695  11.962 -0.0023 -0.4177 -0.6576
 6802SOL     OW31864   4.687   2.893   7.143 -0.3659 -0.2581 -0.3102
 6802SOL    HW131865   0.009   2.810   7.157  0.8869  0.5938  0.6885
 6802SOL    HW231866   4.711   2.900   7.050 -1.9705  3.3461 -0.4195
 6803SOL     OW31867   3.574   0.494   2.181 -0.1666  0.0818  0.1481
 6803SOL    HW131868   3.620   0.453   2.254  3.3461  1.2573 -1.3955
 6803SOL    HW231869   3.607   0.583   2.196 -0.0518 -0.0104  0.4379
 6804SOL     OW31870   0.063   1.960   6.905  0.2137  0.0306  0.2825
 6804SOL    HW131871   0.043   1.890   6.843  0.6052  0.5063 -0.3666
 6804SOL    HW231872   0.064   1.907   6.986 -1.5284  1.5157  1.2760
 6805SOL     OW31873   4.695   4.328  12.979 -0.0246  0.2592 -0.0194
 6805SOL    HW131874   4.628   4.300  13.042  0.6278 -0.7616  0.2190
 6805SOL    HW231875   4.642   4.345  12.901  0.6915  1.1256 -0.3084
 6806SOL     OW31876   2.331   2.126   7.263  0.4998 -0.2011  0.6294
 6806SOL    HW131877   2.289   2.089   7.340  0.2342  0.8243  0.9844
 6806SOL    HW231878   2.388   2.192   7.303  0.1308 -1.2286  2.8875
 6807SOL     OW31879   4.430   2.696   4.080 -0.2495 -0.5466  0.0141
 6807SOL    HW131880   4.476   2.777   4.100 -0.0193 -1.0784  1.6447
 6807SOL    HW231881   4.459   2.701   3.989  0.5109  0.2671  0.3120
 6808SOL     OW31882   3.001   0.987  15.512  0.5421 -0.3316 -0.0678
 6808SOL    HW131883   3.059   0.917  15.484  0.3831 -0.7707  0.6871
 6808SOL    HW231884   3.048   1.069  15.500 -0.2615  0.4779  2.1715
 6809SOL     OW31885   4.052   3.122  11.654 -0.0778  0.6743  0.3286
 6809SOL    HW131886   4.143   3.154  11.650 -0.3755  1.2526 -2.1971
 6809SOL    HW231887   4.056   3.076  11.738 -2.6236  1.2044  0.7438
 6810SOL     OW31888   1.282   1.199  14.450 -0.1158 -0.1571 -0.2636
 6810SOL    HW131889   1.264   1.244  14.368 -0.0523 -0.4848 -0.4586
 6810SOL    HW231890   1.349   1.139  14.417 -0.9228 -0.6518 -1.0027
 6811SOL     OW31891   2.665   3.503   1.721 -0.0794 -0.1797 -0.1054
 6811SOL    HW131892   2.638   3.588   1.757  3.1675  0.6608  0.3186
 6811SOL    HW231893   2.643   3.440   1.790  0.7013 -0.4556 -0.1105
 6812SOL     OW31894   2.184   0.054   8.408  0.2912 -0.0321  0.4637
 6812SOL    HW131895   2.168   0.108   8.331 -1.1257 -0.9979  0.0800
 6812SOL    HW231896   2.277   0.070   8.420  0.7751 -2.0316 -0.6339
 6813SOL     OW31897   3.465   1.045   8.310 -0.1083  0.2904 -0.6816
 6813SOL    HW131898   3.447   1.031   8.217 -1.0978 -1.1174 -0.2815
 6813SOL    HW231899   3.528   1.117   8.309 -0.3890  0.5979  3.2163
 6814SOL     OW31900   1.498   4.651   5.672  0.3093  0.8142 -0.2973
 6814SOL    HW131901   1.503   4.632   5.765 -1.6890  0.1058 -0.3327
 6814SOL    HW231902   1.586   4.670   5.641  0.2154  1.0283 -0.4351
 6815SOL     OW31903   1.675   0.073   7.121  0.0262  0.2693 -0.8276
 6815SOL    HW131904   1.588   0.106   7.099  1.0988  4.9257  1.9806
 6815SOL    HW231905   1.725   0.149   7.092 -0.9724  2.0057  2.0621
 6816SOL     OW31906   1.488   4.131   2.377  0.0288 -0.6607 -0.2646
 6816SOL    HW131907   1.526   4.177   2.452  1.3104  0.6710 -1.7159
 6816SOL    HW231908   1.535   4.173   2.305 -2.0871 -1.5915 -2.1790
 6817SOL     OW31909   4.144   0.421   2.180 -0.3860 -0.3048  0.3035
 6817SOL    HW131910   4.144   0.379   2.266 -1.2175  0.0614  0.4765
 6817SOL    HW231911   4.064   0.472   2.188  0.4798  1.0391  0.4000
 6818SOL     OW31912   2.491   2.767   8.242  0.0908  0.9668  0.1760
 6818SOL    HW131913   2.471   2.687   8.194  1.4678 -1.2143  3.2779
 6818SOL    HW231914   2.586   2.761   8.256  0.3441  2.9052 -0.5628
 6819SOL     OW31915   4.238   4.043   4.659  0.2119  0.4956 -0.0270
 6819SOL    HW131916   4.163   4.062   4.716 -0.0689 -1.7255  0.3488
 6819SOL    HW231917   4.306   4.056   4.725  0.7663  0.7223 -0.6504
 6820SOL     OW31918   1.317   4.465   3.072 -0.0297  0.2739 -0.5907
 6820SOL    HW131919   1.335   4.371   3.070  2.4647  0.7303 -0.1385
 6820SOL    HW231920   1.396   4.508   3.040  0.3143  0.1336  0.0581
 6821SOL     OW31921   2.015   4.140   8.464 -0.2439  0.1367  0.0822
 6821SOL    HW131922   2.001   4.206   8.397  0.8442  0.4034  0.1249
 6821SOL    HW231923   1.942   4.148   8.526  0.3924 -0.2035  0.8825
 6822SOL     OW31924   0.139   1.564   5.933  0.6473 -0.4501 -0.5383
 6822SOL    HW131925   0.186   1.520   5.862  3.1115 -0.3767  1.0569
 6822SOL    HW231926   0.071   1.616   5.890 -0.5567 -0.8439  0.9008
 6823SOL     OW31927   4.448   2.531   6.237 -0.1734 -0.0674  0.3175
 6823SOL    HW131928   4.458   2.553   6.145 -2.3121  0.5689  0.2429
 6823SOL    HW231929   4.357   2.503   6.242 -0.5638  1.3548  1.2053
 6824SOL     OW31930   4.164   1.069   3.433  0.5503 -0.0451 -0.5343
 6824SOL    HW131931   4.175   1.040   3.524  0.4723 -0.3597 -0.6258
 6824SOL    HW231932   4.222   1.146   3.437  1.7006 -0.8988 -0.7395
 6825SOL     OW31933   4.234   0.803  11.310  0.4782  0.0362 -0.7439
 6825SOL    HW131934   4.256   0.808  11.217  0.1247 -2.7324 -0.9859
 6825SOL    HW231935   4.308   0.848  11.349 -0.0577 -0.5252  0.9084
 6826SOL     OW31936   1.287   4.031  13.158  0.5787  0.3368  0.3764
 6826SOL    HW131937   1.280   3.936  13.144 -0.7017  0.6495 -1.1472
 6826SOL    HW231938   1.255   4.063  13.073  0.4338  0.7114  0.5734
 6827SOL     OW31939   1.998   2.513  16.867 -0.2374 -0.4102 -0.1329
 6827SOL    HW131940   1.970   2.583  16.925 -0.4429  0.0663 -0.8122
 6827SOL    HW231941   2.091   2.512  16.891  0.0889 -2.0625 -1.4192
 6828SOL     OW31942   2.441   0.058   3.408 -0.1966 -0.4119 -0.0801
 6828SOL    HW131943   2.403   0.113   3.339 -0.4389  0.0567  0.4312
 6828SOL    HW231944   2.365   0.052   3.465  0.6878  0.1902  1.1642
 6829SOL     OW31945   2.001   4.645   2.184 -0.2217  0.0258  1.0229
 6829SOL    HW131946   2.068   4.702   2.148  0.2492 -0.6467  0.8285
 6829SOL    HW231947   2.003   4.665   2.277  2.9238 -0.8995  1.1332
 6830SOL     OW31948   1.370   2.590   4.790 -0.1497 -0.2463 -0.0804
 6830SOL    HW131949   1.330   2.602   4.876  0.3310  3.5287 -0.3901
 6830SOL    HW231950   1.330   2.506   4.770  1.1001 -1.2063  1.4786
 6831SOL     OW31951   2.165   3.135   6.524 -0.0444 -0.5434 -0.5174
 6831SOL    HW131952   2.214   3.204   6.480 -1.9241  1.0921 -0.0485
 6831SOL    HW231953   2.180   3.064   6.462  0.5259 -0.7772 -0.1164
 6832SOL     OW31954   2.604   2.955   6.226  0.7056 -0.0575  0.4960
 6832SOL    HW131955   2.689   2.977   6.190  0.9668 -0.0755  1.1029
 6832SOL    HW231956   2.544   3.029   6.212  1.1221  0.6697  2.5824
 6833SOL     OW31957   2.472   1.094   5.088  0.6309 -0.3124  0.1730
 6833SOL    HW131958   2.470   1.140   5.004 -1.9916 -0.7455 -0.0085
 6833SOL    HW231959   2.546   1.136   5.131  0.7185 -0.4932  0.2021
 6834SOL     OW31960   2.528   3.027   3.460 -0.2773  0.3581 -0.2588
 6834SOL    HW131961   2.441   3.034   3.419  0.0628 -2.3651 -1.4481
 6834SOL    HW231962   2.528   2.936   3.490 -0.5279  0.4222 -0.0688
 6835SOL     OW31963   3.040   2.987   5.546  0.2582  0.0407 -0.2410
 6835SOL    HW131964   3.001   3.073   5.555 -0.6355 -0.4086  0.1266
 6835SOL    HW231965   3.102   2.995   5.619 -1.1183 -0.3984  0.9740
 6836SOL     OW31966   4.187   0.592   3.884  0.3563  0.0479 -0.1877
 6836SOL    HW131967   4.129   0.667   3.869 -1.5860 -1.3074  0.5799
 6836SOL    HW231968   4.152   0.538   3.813  0.8152 -2.2313  1.3483
 6837SOL     OW31969   3.195   0.120   4.033  0.0297 -1.1979 -0.0525
 6837SOL    HW131970   3.116   0.093   4.081 -0.2130  1.3597  0.9604
 6837SOL    HW231971   3.214   0.040   3.984 -2.1624 -2.0117  0.3971
 6838SOL     OW31972   0.355   1.730  17.332  0.1653 -0.3819 -0.1383
 6838SOL    HW131973   0.319   1.706  17.247  1.3306  1.3977 -1.1285
 6838SOL    HW231974   0.299   1.675  17.386  1.3926 -1.7839 -0.2862
 6839SOL     OW31975   3.975   0.337   1.906  0.8468  0.5851  0.0979
 6839SOL    HW131976   3.919   0.415   1.902 -0.2402 -0.1324  1.0784
 6839SOL    HW231977   3.913   0.281   1.953  2.2087 -0.8349  0.2094
 6840SOL     OW31978   2.651   3.278   7.234 -0.9602  0.2815 -1.0132
 6840SOL    HW131979   2.651   3.242   7.145  0.4846 -1.7870 -0.1859
 6840SOL    HW231980   2.684   3.204   7.285 -1.0334  0.9551 -0.0034
 6841SOL     OW31981   1.536   4.140  10.584  0.3460  0.6234  0.6257
 6841SOL    HW131982   1.478   4.216  10.584  0.0567  0.3970 -0.5228
 6841SOL    HW231983   1.562   4.143  10.492 -0.4297  0.7276  0.4087
 6842SOL     OW31984   1.309   0.988   0.698  0.0033  0.0718  0.6661
 6842SOL    HW131985   1.220   1.018   0.711  0.3812  1.2285  0.5222
 6842SOL    HW231986   1.299   0.895   0.719 -1.5891 -0.3002 -1.6759
 6843SOL     OW31987   3.101   0.832   5.106  0.2526 -0.0003  0.5290
 6843SOL    HW131988   3.103   0.879   5.189 -0.8255  1.1527 -0.1142
 6843SOL    HW231989   3.047   0.760   5.139 -0.2596  1.3221  2.5446
 6844SOL     OW31990   3.613   2.753   0.812  0.0712 -0.8028  0.4875
 6844SOL    HW131991   3.633   2.846   0.801 -1.5361 -0.6859 -1.4665
 6844SOL    HW231992   3.675   2.725   0.879 -1.0766  1.1740  2.3520
 6845SOL     OW31993   4.509   2.254  10.056 -0.2350  0.5376 -0.5252
 6845SOL    HW131994   4.486   2.234  10.146  1.1971  1.9531  0.1572
 6845SOL    HW231995   4.516   2.170  10.012 -0.6754  0.2883 -0.1238
 6846SOL     OW31996   1.553   3.932   2.146 -0.2264  0.2678  0.2010
 6846SOL    HW131997   1.467   3.965   2.120 -0.3464 -0.4936 -0.3616
 6846SOL    HW231998   1.564   3.974   2.231  1.0865 -1.1640  0.7421
 6847SOL     OW31999   1.037   3.750   5.704  0.2042 -0.1456  0.1433
 6847SOL    HW132000   0.943   3.733   5.703 -0.2321  2.3386 -0.2627
 6847SOL    HW232001   1.062   3.717   5.617 -0.6275  1.6415 -0.7799
 6848SOL     OW32002   2.068   2.997  17.197 -0.4532 -0.5289 -0.2716
 6848SOL    HW132003   2.137   2.946  17.154  0.3525  0.8441 -0.6202
 6848SOL    HW232004   1.999   2.999  17.131 -2.1038 -2.2479  1.4122
 6849SOL     OW32005   3.320   1.828   3.935  0.6077  0.0536  0.2009
 6849SOL    HW132006   3.352   1.760   3.875 -0.0639 -1.8543  2.0419
 6849SOL    HW232007   3.375   1.904   3.919 -2.4424  2.4392  1.0843
 6850SOL     OW32008   2.729   0.876   1.780 -0.0913  0.2633 -0.1053
 6850SOL    HW132009   2.730   0.825   1.700 -0.5216  0.8367 -0.4753
 6850SOL    HW232010   2.729   0.962   1.740 -2.5061  0.2433 -0.1680
 6851SOL     OW32011   2.372   4.689   2.153 -0.2472 -0.0167  0.0328
 6851SOL    HW132012   2.347   4.608   2.108  0.9104 -0.3400 -0.0114
 6851SOL    HW232013   2.466   4.673   2.156 -0.7154 -2.8247 -0.3730
 6852SOL     OW32014   0.211   0.568   6.649  0.6038 -0.1642 -0.3697
 6852SOL    HW132015   0.264   0.648   6.642  2.4046 -1.3832 -0.6002
 6852SOL    HW232016   0.153   0.578   6.574  2.2600  2.0349 -1.3638
 6853SOL     OW32017   4.258   0.681   7.645 -0.2784 -0.1091 -0.1159
 6853SOL    HW132018   4.335   0.731   7.619  0.3080 -0.2509  1.3917
 6853SOL    HW232019   4.260   0.604   7.588 -0.5267 -0.6570  0.6245
 6854SOL     OW32020   2.644   4.640   9.128 -0.0877 -0.1448 -0.5032
 6854SOL    HW132021   2.660   4.565   9.187  0.5109  0.5007  0.1607
 6854SOL    HW232022   2.710   4.695   9.171 -1.4200  1.3576 -0.4148
 6855SOL     OW32023   0.020   1.872   3.770  0.3671 -0.5053 -0.0114
 6855SOL    HW132024   0.020   1.954   3.820 -2.1471  0.4015 -1.5454
 6855SOL    HW232025   0.083   1.837   3.834 -0.7153 -0.0819  1.3013
 6856SOL     OW32026   2.963   1.658  15.572  0.1537 -0.0327 -0.5000
 6856SOL    HW132027   2.883   1.628  15.528 -0.3862  1.5751 -0.6364
 6856SOL    HW232028   2.999   1.574  15.602 -1.5260 -0.0518  1.5046
 6857SOL     OW32029   3.772   0.933   6.482 -0.1178 -0.0103 -0.1802
 6857SOL    HW132030   3.842   0.986   6.443  1.8572 -3.0488 -0.7455
 6857SOL    HW232031   3.804   0.843   6.473  1.2134  0.3011  1.3250
 6858SOL     OW32032   2.370   2.619  10.729  0.7712  0.0725 -0.1707
 6858SOL    HW132033   2.304   2.577  10.784  0.6817  0.1134 -0.2463
 6858SOL    HW232034   2.441   2.623  10.793  0.4295  0.2166  0.1972
 6859SOL     OW32035   2.667   1.849   2.956  0.1068 -0.1968 -0.0431
 6859SOL    HW132036   2.619   1.772   2.922 -0.2115 -0.4796  1.0529
 6859SOL    HW232037   2.752   1.809   2.970  1.5617  2.2221 -1.9993
 6860SOL     OW32038   1.852   1.795   5.034 -0.1875 -0.2868  0.4304
 6860SOL    HW132039   1.844   1.774   5.127 -0.3336  0.1231  0.5102
 6860SOL    HW232040   1.862   1.890   5.037 -0.8585 -0.1587 -1.7845
 6861SOL     OW32041   2.480   3.692   7.271  1.0528 -0.3068  0.5517
 6861SOL    HW132042   2.428   3.701   7.192  1.8108  0.9734  0.2071
 6861SOL    HW232043   2.482   3.784   7.296 -1.6847 -0.5182  1.5600
 6862SOL     OW32044   2.108   1.862   2.459 -0.1536 -0.2447 -0.4536
 6862SOL    HW132045   2.044   1.792   2.446 -0.3431  0.0399 -1.0429
 6862SOL    HW232046   2.067   1.940   2.424 -1.0521 -1.1894 -1.5059
 6863SOL     OW32047   4.632   0.910   7.381  0.2332 -0.2603  0.3278
 6863SOL    HW132048   0.004   0.908   7.376  0.0592 -0.1642 -2.9906
 6863SOL    HW232049   4.607   0.842   7.319  0.7555 -1.5668  1.5603
 6864SOL     OW32050   1.020   3.560   4.646 -0.0575 -0.4354  0.5049
 6864SOL    HW132051   1.101   3.561   4.594 -1.0048 -1.1228 -0.9821
 6864SOL    HW232052   1.005   3.653   4.665  1.0887 -0.4674  1.5583
 6865SOL     OW32053   2.927   2.198   5.240  0.1026  0.3146  0.3898
 6865SOL    HW132054   2.973   2.280   5.219 -0.8311  0.3477 -1.5238
 6865SOL    HW232055   2.862   2.231   5.302  1.3574 -0.2990  2.0393
 6866SOL     OW32056   4.397   4.325   6.633  0.3442  0.2972 -0.2180
 6866SOL    HW132057   4.416   4.257   6.569 -1.3112 -2.3862  2.1483
 6866SOL    HW232058   4.377   4.275   6.712  0.8703 -0.2061 -0.4063
 6867SOL     OW32059   3.329   0.058   6.998  0.4787 -0.2408 -0.3949
 6867SOL    HW132060   3.381   0.135   7.020  1.0483 -0.6198 -0.4453
 6867SOL    HW232061   3.261   0.109   6.952  1.1258  1.1077  0.1594
 6868SOL     OW32062   0.718   3.525   7.958  0.0642  0.1494  0.0728
 6868SOL    HW132063   0.727   3.447   8.013 -2.9398  0.5518  1.1043
 6868SOL    HW232064   0.626   3.542   7.978  0.6322  3.2184  0.1043
 6869SOL     OW32065   2.604   3.603   7.951  0.3187 -0.9043  0.4561
 6869SOL    HW132066   2.651   3.611   8.034 -2.0781  0.5592  1.6785
 6869SOL    HW232067   2.663   3.644   7.888  0.2569  1.2366  1.8008
 6870SOL     OW32068   4.325   1.282   6.053 -0.1858  0.6242  0.3805
 6870SOL    HW132069   4.384   1.356   6.064 -0.8038  1.3022 -0.9355
 6870SOL    HW232070   4.243   1.318   6.087  0.2877  0.1481  2.0194
 6871SOL     OW32071   0.844   0.921   4.210 -0.3076  0.1660 -0.0550
 6871SOL    HW132072   0.859   0.950   4.119 -0.9223  0.9839  0.1015
 6871SOL    HW232073   0.923   0.952   4.253 -1.7169  0.5293  2.2723
 6872SOL     OW32074   1.945   4.280   2.833 -0.6571 -0.2849  0.2783
 6872SOL    HW132075   2.028   4.233   2.840 -0.6281 -0.7255 -3.0866
 6872SOL    HW232076   1.875   4.227   2.871 -0.6940  0.3541  1.0991
 6873SOL     OW32077   1.752   2.249  16.788 -0.3350  0.6173  0.1699
 6873SOL    HW132078   1.703   2.171  16.763 -0.1523 -0.1829  2.3046
 6873SOL    HW232079   1.688   2.304  16.834  2.0093  0.1668  3.9180
 6874SOL     OW32080   3.340   0.376   2.471  0.3225 -0.7324  0.4396
 6874SOL    HW132081   3.277   0.315   2.510  0.2653 -0.9285  0.0500
 6874SOL    HW232082   3.390   0.304   2.431  0.5286  0.7191 -1.8991
 6875SOL     OW32083   3.585   3.067   7.639  0.6247 -0.1862 -0.0400
 6875SOL    HW132084   3.521   3.122   7.684 -0.0766  0.1580 -1.4542
 6875SOL    HW232085   3.665   3.115   7.663 -1.1884  1.0722  3.4810
 6876SOL     OW32086   3.143   1.902   0.937 -0.2209 -0.4398  0.2276
 6876SOL    HW132087   3.058   1.892   0.894  0.3521  0.4373 -1.1406
 6876SOL    HW232088   3.127   1.979   0.992 -1.9502 -1.3304  0.9471
 6877SOL     OW32089   0.034   3.189   2.568 -0.1952 -0.7723  0.0436
 6877SOL    HW132090   0.013   3.189   2.474  3.0830 -2.2434 -0.7059
 6877SOL    HW232091   0.093   3.114   2.571  0.8920  0.0098 -1.8360
 6878SOL     OW32092   1.411   4.694  16.452 -0.2569  0.0144 -0.4778
 6878SOL    HW132093   1.324   0.007  16.433 -1.3789 -2.1157  0.6034
 6878SOL    HW232094   1.416   4.621  16.390  2.3492 -1.8473  1.9197
 6879SOL     OW32095   1.624   4.458   9.432 -0.3306  0.5629 -0.6622
 6879SOL    HW132096   1.691   4.392   9.415  0.0052  0.8803 -0.5752
 6879SOL    HW232097   1.625   4.456   9.528 -1.2801 -0.0053 -0.6600
 6880SOL     OW32098   3.913   3.197   4.113  0.0162 -0.0511  0.9129
 6880SOL    HW132099   3.886   3.134   4.045  0.0069  2.8438 -1.7569
 6880SOL    HW232100   4.009   3.187   4.118  0.1969  1.2316  0.0055
 6881SOL     OW32101   0.323   2.353  12.109 -0.2038  0.4306 -0.0215
 6881SOL    HW132102   0.368   2.434  12.132  1.9015 -1.0769  1.2332
 6881SOL    HW232103   0.243   2.361  12.160 -1.1226 -1.8861 -1.1083
 6882SOL     OW32104   2.789   0.825   8.406  0.1975 -0.5269  0.1800
 6882SOL    HW132105   2.879   0.809   8.376 -1.0670 -1.8341 -2.8634
 6882SOL    HW232106   2.787   0.913   8.371 -3.5187 -0.4372  0.6877
 6883SOL     OW32107   0.934   1.275   8.507 -0.8261  0.3735  0.1204
 6883SOL    HW132108   0.963   1.232   8.426 -0.0304  0.7141  0.2260
 6883SOL    HW232109   1.003   1.341   8.508 -1.0307  0.5700  0.7423
 6884SOL     OW32110   1.718   3.351   2.720  0.1221  0.3234  0.1331
 6884SOL    HW132111   1.634   3.386   2.692 -1.2335 -1.4500  2.0268
 6884SOL    HW232112   1.741   3.417   2.786  1.9531  2.0107 -2.1532
 6885SOL     OW32113   1.598   2.145   5.809 -0.3267 -0.9072  0.6081
 6885SOL    HW132114   1.528   2.133   5.873 -1.4367 -0.9140 -0.6192
 6885SOL    HW232115   1.672   2.091   5.838 -0.6921 -2.9581 -2.3459
 6886SOL     OW32116   2.757   2.864  12.993 -0.4322  0.3138  0.4281
 6886SOL    HW132117   2.703   2.785  12.996 -1.0368  0.7353  0.7054
 6886SOL    HW232118   2.837   2.823  13.028 -1.2533 -0.7308  1.0777
 6887SOL     OW32119   1.366   0.604   2.121  0.1277  0.1242  0.0369
 6887SOL    HW132120   1.460   0.591   2.127 -0.1022 -1.9366 -0.9849
 6887SOL    HW232121   1.368   0.637   2.031 -1.0139  2.4193  0.8496
 6888SOL     OW32122   2.488   2.458   8.905  0.8292  0.4886  0.9196
 6888SOL    HW132123   2.544   2.393   8.948  0.0393 -0.1531  0.9614
 6888SOL    HW232124   2.421   2.467   8.973  0.1750 -2.0395  0.5950
 6889SOL     OW32125   2.842   0.761   9.705  0.1227 -0.5037 -0.4836
 6889SOL    HW132126   2.919   0.765   9.648 -1.1072  1.9376 -1.9701
 6889SOL    HW232127   2.808   0.849   9.690  0.7082  0.8470  5.8116
 6890SOL     OW32128   3.911   3.105  16.615  0.3725  0.6758 -0.6495
 6890SOL    HW132129   3.971   3.134  16.546  0.3052  2.6438  0.1308
 6890SOL    HW232130   3.951   3.143  16.693  0.0501  0.9399 -0.6095
 6891SOL     OW32131   1.274   1.178   3.779  0.2633  0.1100 -0.0546
 6891SOL    HW132132   1.291   1.254   3.833  1.3710  0.6062 -1.1109
 6891SOL    HW232133   1.250   1.216   3.694  0.5159  0.9738  0.2648
 6892SOL     OW32134   0.145   0.665  15.520 -0.1414 -0.2833 -0.0884
 6892SOL    HW132135   0.234   0.699  15.512 -0.5774  0.2552 -2.9017
 6892SOL    HW232136   0.148   0.616  15.602  1.4660 -0.9298 -0.5376
 6893SOL     OW32137   4.221   0.942  10.258 -0.1118  0.3706  0.2363
 6893SOL    HW132138   4.287   0.915  10.195 -0.2849  1.5566 -0.4528
 6893SOL    HW232139   4.155   0.986  10.205 -2.0601 -0.2586  2.1414
 6894SOL     OW32140   3.205   2.044   2.439 -0.4201  0.3750 -0.7389
 6894SOL    HW132141   3.155   1.989   2.379  0.0987 -1.9594  0.9538
 6894SOL    HW232142   3.292   2.005   2.429 -0.9825 -1.4226  1.4187
 6895SOL     OW32143   3.513   4.444   0.863 -0.3908 -0.2501  0.1254
 6895SOL    HW132144   3.462   4.366   0.884  1.0228 -1.1242  0.2357
 6895SOL    HW232145   3.598   4.430   0.903  0.9392  2.0103 -1.9137
 6896SOL     OW32146   2.900   1.097   3.588  0.1345 -0.3985 -0.4712
 6896SOL    HW132147   2.931   1.184   3.614  1.6129 -0.3166 -2.4597
 6896SOL    HW232148   2.902   1.113   3.493  0.1745  2.4504  0.0164
 6897SOL     OW32149   4.257   4.015   6.571  0.5527  0.1540  0.0717
 6897SOL    HW132150   4.305   4.050   6.497 -0.3703  1.9657  0.3318
 6897SOL    HW232151   4.210   3.940   6.533  2.4616 -1.0059 -0.0075
 6898SOL     OW32152   4.403   2.400   1.923  0.1838 -0.3604  0.3790
 6898SOL    HW132153   4.419   2.337   1.852  0.1396  1.4376 -1.2226
 6898SOL    HW232154   4.316   2.436   1.906 -0.1007 -0.8722  0.7679
 6899SOL     OW32155   0.758   0.442   7.889  0.1622 -0.5587  0.0931
 6899SOL    HW132156   0.732   0.413   7.977 -1.7948 -0.6000 -0.4987
 6899SOL    HW232157   0.682   0.494   7.863  0.3509 -0.9904 -1.3073
 6900SOL     OW32158   1.558   0.179   3.996  0.2040 -0.4783  0.0545
 6900SOL    HW132159   1.529   0.270   4.000  2.0078  0.0241  2.0800
 6900SOL    HW232160   1.636   0.189   3.941 -0.6716  0.8129 -0.9410
 6901SOL     OW32161   4.400   1.291   4.828  0.1940  0.1829 -0.0450
 6901SOL    HW132162   4.435   1.338   4.904  1.0970  1.6873 -1.3701
 6901SOL    HW232163   4.457   1.215   4.830 -0.2705 -0.1698 -0.3491
 6902SOL     OW32164   4.662   4.597   6.993 -0.4028  0.4596  0.1971
 6902SOL    HW132165   4.623   4.588   7.080 -1.6242  1.4690 -0.2448
 6902SOL    HW232166   4.694   4.688   6.992  1.8205 -0.2989  1.1465
 6903SOL     OW32167   1.774   2.381   8.440 -0.1190  0.1853 -0.0194
 6903SOL    HW132168   1.691   2.407   8.400 -0.1290 -0.3428 -0.3504
 6903SOL    HW232169   1.751   2.369   8.532 -0.3438  0.2061 -0.0720
 6904SOL     OW32170   3.137   3.999   9.126 -0.1507 -0.4706 -0.6384
 6904SOL    HW132171   3.224   3.977   9.159 -0.6345 -2.4639 -0.6963
 6904SOL    HW232172   3.161   4.065   9.062  1.7934 -1.0475 -0.5036
 6905SOL     OW32173   3.858   2.049   4.101 -0.2533 -0.0677 -0.2829
 6905SOL    HW132174   3.839   2.120   4.041  1.7310  0.1571 -0.6612
 6905SOL    HW232175   3.921   2.091   4.159 -1.1174  1.7295 -0.6705
 6906SOL     OW32176   4.405   4.149   6.380 -0.2383  0.0210 -0.9064
 6906SOL    HW132177   4.481   4.096   6.358  0.4813  1.0538 -0.8831
 6906SOL    HW232178   4.400   4.220   6.317 -0.6560  1.4984  0.7699
 6907SOL     OW32179   4.555   1.521  16.612 -0.8290  0.2620  0.1917
 6907SOL    HW132180   4.540   1.583  16.540  1.5558 -0.5626 -1.0112
 6907SOL    HW232181   4.616   1.453  16.582  0.1560  0.6806  1.2933
 6908SOL     OW32182   1.391   1.585   4.838  0.6118  0.4989  0.3165
 6908SOL    HW132183   1.423   1.673   4.859  1.5648 -0.1619  1.6340
 6908SOL    HW232184   1.316   1.601   4.781  1.4723 -3.1985 -1.8832
 6909SOL     OW32185   3.589   2.260   4.772  0.0271  0.5659  0.2872
 6909SOL    HW132186   3.583   2.226   4.862 -2.0726 -1.9809 -0.8166
 6909SOL    HW232187   3.654   2.204   4.729 -0.3850  1.4958 -1.5347
 6910SOL     OW32188   3.371   4.322   3.497  0.2332 -0.1772 -0.4468
 6910SOL    HW132189   3.462   4.349   3.508  0.2477 -0.4247  0.0645
 6910SOL    HW232190   3.381   4.232   3.526 -1.2425  0.2324  1.3660
 6911SOL     OW32191   2.656   2.330   4.313  0.0169  0.0672 -0.2514
 6911SOL    HW132192   2.648   2.278   4.233 -0.4349  0.7042 -0.6207
 6911SOL    HW232193   2.628   2.417   4.284 -1.6130 -0.3073  0.2020
 6912SOL     OW32194   0.711   2.968  15.910  0.4315  0.6186  0.0570
 6912SOL    HW132195   0.739   2.929  15.827  0.4741  1.7045 -0.4401
 6912SOL    HW232196   0.645   3.031  15.881  0.6216 -0.2018 -2.1946
 6913SOL     OW32197   3.575   1.541   8.990 -0.3112  0.1992  0.2609
 6913SOL    HW132198   3.540   1.598   9.059 -0.8293  1.0327 -0.6870
 6913SOL    HW232199   3.603   1.600   8.920  2.7001  0.8851  2.0004
 6914SOL     OW32200   3.413   0.906   4.267 -0.0581  0.4907  0.0268
 6914SOL    HW132201   3.396   0.996   4.292 -0.3160  0.4846 -0.1308
 6914SOL    HW232202   3.352   0.869   4.330 -1.4260  1.9161 -0.4881
 6915SOL     OW32203   0.534   3.642   7.489 -0.1567  0.6116 -0.0192
 6915SOL    HW132204   0.547   3.732   7.520 -0.4905  0.5503  0.3087
 6915SOL    HW232205   0.581   3.592   7.556 -0.0218  1.2759  0.3854
 6916SOL     OW32206   2.978   1.979   9.085 -0.6924 -0.3140  0.3869
 6916SOL    HW132207   2.920   1.915   9.126 -0.0851 -1.0353  0.1114
 6916SOL    HW232208   3.017   1.934   9.010  0.4154  0.7984  0.2907
 6917SOL     OW32209   0.050   1.300  14.157  0.0413  0.1776 -0.0192
 6917SOL    HW132210   0.007   1.214  14.155  0.2001  0.0774  1.4354
 6917SOL    HW232211   0.126   1.287  14.100  0.1916 -1.7351  0.6211
 6918SOL     OW32212   2.504   0.186  17.174  0.2846  0.0359 -0.8325
 6918SOL    HW132213   2.546   0.103  17.155 -2.9249 -1.4515 -1.3889
 6918SOL    HW232214   2.412   0.163  17.183  0.6837 -0.5733  1.7489
 6919SOL     OW32215   0.167   1.368   3.814  0.4974 -0.0005 -0.2090
 6919SOL    HW132216   0.183   1.279   3.781  0.1178 -0.0684 -0.2033
 6919SOL    HW232217   0.231   1.414   3.759 -1.8377  1.5693 -1.5852
 6920SOL     OW32218   2.143   1.399  15.044 -0.0455  0.4289 -0.1370
 6920SOL    HW132219   2.110   1.482  15.009 -0.6033 -0.1754 -1.0137
 6920SOL    HW232220   2.225   1.381  14.998 -0.7462 -1.0715 -0.7947
 6921SOL     OW32221   4.496   0.674  15.993 -0.0158  0.3789 -0.8500
 6921SOL    HW132222   4.526   0.627  15.915 -0.3548 -0.8131 -0.2642
 6921SOL    HW232223   4.430   0.735  15.959 -0.0377  0.3664 -0.8297
 6922SOL     OW32224   4.688   0.130   7.319 -0.0538  0.9786  0.3992
 6922SOL    HW132225   0.030   0.174   7.374  1.1633  0.7130 -0.8456
 6922SOL    HW232226   4.606   0.142   7.366 -0.2209 -0.0022  0.3524
 6923SOL     OW32227   4.490   3.546   2.842  0.5393 -0.3449  0.2570
 6923SOL    HW132228   4.407   3.581   2.809  0.3396 -0.2350  0.8724
 6923SOL    HW232229   4.490   3.461   2.799 -1.7059 -0.3263  0.2257
 6924SOL     OW32230   2.847   1.522   1.431 -0.4295 -0.3429 -0.1818
 6924SOL    HW132231   2.816   1.507   1.342  0.7191 -1.3227 -0.4245
 6924SOL    HW232232   2.791   1.590   1.468 -1.5096 -0.9964 -0.6446
 6925SOL     OW32233   3.895   1.431   2.772 -0.4453  0.4071  0.4342
 6925SOL    HW132234   3.898   1.503   2.836 -1.4556 -0.2650  1.2437
 6925SOL    HW232235   3.823   1.386   2.817  1.3547 -1.8456  1.0615
 6926SOL     OW32236   2.069   2.112  11.233  0.3821  0.5643 -0.0350
 6926SOL    HW132237   2.028   2.130  11.318  0.5649  1.1944 -0.0806
 6926SOL    HW232238   2.159   2.098  11.262 -0.0434 -2.4408 -0.1818
 6927SOL     OW32239   1.875   0.267  10.985  0.4384 -0.3400  0.9006
 6927SOL    HW132240   1.850   0.198  11.047 -2.4439 -1.4568 -1.5187
 6927SOL    HW232241   1.805   0.330  11.003 -0.7676 -2.0373  2.0459
 6928SOL     OW32242   2.669   3.059   1.948 -0.2238  0.0152  0.2869
 6928SOL    HW132243   2.703   2.987   1.895  0.3484 -1.5312  2.7689
 6928SOL    HW232244   2.726   3.063   2.025  1.0406 -3.6969 -0.4686
 6929SOL     OW32245   2.623   0.489   6.258 -0.2697  0.2496  0.2038
 6929SOL    HW132246   2.690   0.546   6.220 -0.5812  0.3923 -0.1350
 6929SOL    HW232247   2.666   0.404   6.244 -1.9461 -0.7592  1.1950
 6930SOL     OW32248   1.365   3.382  10.552 -0.0452  0.4135  0.7747
 6930SOL    HW132249   1.293   3.345  10.500  0.9477  0.7218 -0.8056
 6930SOL    HW232250   1.430   3.361  10.485  0.3180  0.6435  1.0590
 6931SOL     OW32251   3.762   2.234   2.038 -0.2168  0.7135 -0.0508
 6931SOL    HW132252   3.672   2.247   2.068 -0.0041  1.8901  0.0857
 6931SOL    HW232253   3.780   2.320   2.000  1.5192 -0.4212 -1.8258
 6932SOL     OW32254   3.086   4.028   7.929  0.4702 -0.1406  0.7238
 6932SOL    HW132255   3.179   4.041   7.949  0.7673 -0.7097 -0.2781
 6932SOL    HW232256   3.050   4.058   8.012  0.5638  0.6719  0.4781
 6933SOL     OW32257   3.085   1.801  16.187 -0.3245  0.0183 -0.2975
 6933SOL    HW132258   3.039   1.884  16.195 -0.8422 -0.2362 -0.6815
 6933SOL    HW232259   3.012   1.742  16.173 -1.3567  0.8183  1.8176
 6934SOL     OW32260   0.520   3.683  17.294  0.4057  0.5783  0.7206
 6934SOL    HW132261   0.560   3.745  17.233 -0.7835  1.2514  0.6428
 6934SOL    HW232262   0.518   3.736  17.373 -0.8310 -0.9396  1.7189
 6935SOL     OW32263   2.564   2.310   2.709  0.1279  0.1283 -0.1864
 6935SOL    HW132264   2.494   2.358   2.755  0.3840 -2.1045  2.5221
 6935SOL    HW232265   2.517   2.245   2.658  1.5402 -0.8517 -0.2352
 6936SOL     OW32266   3.647   3.776  10.594 -0.8827  0.0654  0.1475
 6936SOL    HW132267   3.721   3.760  10.653 -0.5222 -1.0709 -0.6129
 6936SOL    HW232268   3.617   3.686  10.578 -4.0700  1.2985 -0.7335
 6937SOL     OW32269   4.647   3.849   8.685 -0.1293  0.2733 -0.6272
 6937SOL    HW132270   4.692   3.765   8.680 -1.3604 -0.4541  0.8788
 6937SOL    HW232271   0.000   3.907   8.680 -2.0807  2.9931  1.3408
 6938SOL     OW32272   3.235   2.963   3.757  0.2915  0.1178 -0.5001
 6938SOL    HW132273   3.201   2.984   3.670 -1.1115 -1.9196 -0.4616
 6938SOL    HW232274   3.329   2.969   3.741  0.6081 -1.5741  0.6400
 6939SOL     OW32275   3.434   4.391  14.884 -0.3097  0.3760  0.1183
 6939SOL    HW132276   3.446   4.327  14.955  1.0642  2.5075  1.7985
 6939SOL    HW232277   3.438   4.327  14.813  0.2367 -0.1757  0.6467
 6940SOL     OW32278   1.674   2.262   7.440 -0.0570  0.3721 -0.2064
 6940SOL    HW132279   1.723   2.201   7.385 -2.7044 -1.1345 -0.9509
 6940SOL    HW232280   1.629   2.314   7.374  1.7511  1.9473 -0.1928
 6941SOL     OW32281   2.144   4.495   6.372  0.4128 -0.0336  0.5077
 6941SOL    HW132282   2.137   4.590   6.367  0.5291 -0.0499  0.0185
 6941SOL    HW232283   2.072   4.482   6.433  1.4533  0.3322  1.8137
 6942SOL     OW32284   1.224   0.390   4.075 -0.2759 -0.2817 -0.1497
 6942SOL    HW132285   1.284   0.386   4.000  1.5870  0.7944  1.2761
 6942SOL    HW232286   1.281   0.354   4.143 -0.5361 -1.2868 -0.4616
 6943SOL     OW32287   0.208   1.179  14.736 -0.8325 -0.3313  0.4582
 6943SOL    HW132288   0.209   1.258  14.790  0.0879 -0.9437  1.3306
 6943SOL    HW232289   0.273   1.136  14.792  0.1231 -0.6358 -0.8731
 6944SOL     OW32290   3.428   0.636  13.055  0.0919 -0.0021  0.5768
 6944SOL    HW132291   3.389   0.548  13.059 -2.7318  1.2456  0.8564
 6944SOL    HW232292   3.426   0.649  13.150  2.5831 -1.6907  0.8657
 6945SOL     OW32293   2.497   2.782  17.130  0.3040 -0.1278  0.0097
 6945SOL    HW132294   2.575   2.736  17.097 -0.6174 -1.0609 -0.8789
 6945SOL    HW232295   2.516   2.793  17.223 -2.3231 -0.2344  0.5558
 6946SOL     OW32296   2.778   2.160   2.226  0.6141  0.1631  0.0407
 6946SOL    HW132297   2.817   2.193   2.307  1.0762 -2.0167  0.7092
 6946SOL    HW232298   2.684   2.168   2.243  0.9774  1.6731  1.4106
 6947SOL     OW32299   3.830   4.518   8.408  0.5775 -0.8225  0.1037
 6947SOL    HW132300   3.860   4.427   8.418  0.4716 -0.6779  1.6494
 6947SOL    HW232301   3.857   4.555   8.491 -1.6507  2.2987 -0.5685
 6948SOL     OW32302   1.539   2.148   5.131 -0.3236  0.2828 -0.2829
 6948SOL    HW132303   1.605   2.156   5.200  0.2949 -1.4305 -0.6769
 6948SOL    HW232304   1.516   2.237   5.105  1.6748  0.8802  0.0202
 6949SOL     OW32305   2.119   3.519   6.579 -0.3776 -1.0170 -0.8873
 6949SOL    HW132306   2.158   3.466   6.510 -0.0856 -1.7294 -0.1797
 6949SOL    HW232307   2.123   3.604   6.535  1.2580  0.2384  1.6843
 6950SOL     OW32308   1.966   2.974   9.108 -0.0073 -0.1290  0.5956
 6950SOL    HW132309   2.000   3.048   9.158  0.0546  0.6365 -0.5891
 6950SOL    HW232310   1.878   2.954   9.138 -1.6243  1.0707 -3.4028
 6951SOL     OW32311   4.150   2.522  13.205 -0.4060 -1.2610  0.8958
 6951SOL    HW132312   4.153   2.427  13.216 -1.2168 -1.4209 -0.2895
 6951SOL    HW232313   4.184   2.547  13.291 -0.9836  0.9537  0.4758
 6952SOL     OW32314   2.695   1.898   8.267 -0.2112 -0.5238  0.2088
 6952SOL    HW132315   2.606   1.923   8.243  0.2004  1.0594  0.3029
 6952SOL    HW232316   2.744   1.968   8.224  0.7340 -3.1091 -2.9399
 6953SOL     OW32317   2.405   3.032   4.690 -0.0887  0.0847  0.1162
 6953SOL    HW132318   2.486   3.071   4.657 -0.7624  0.9292 -0.5269
 6953SOL    HW232319   2.340   3.077   4.636  1.6647  1.8444 -0.5229
 6954SOL     OW32320   4.559   1.179  11.278  0.4764  0.1607 -0.3470
 6954SOL    HW132321   4.489   1.222  11.328  1.6115  0.6658  0.8075
 6954SOL    HW232322   4.519   1.155  11.194 -0.7696 -0.9747  0.5595
 6955SOL     OW32323   2.693   4.588   3.262  0.1670  0.0161 -0.1734
 6955SOL    HW132324   2.720   4.498   3.278 -1.8072 -0.6446 -0.6503
 6955SOL    HW232325   2.600   4.574   3.277  0.2725 -0.7773 -0.2774
 6956SOL     OW32326   3.793   4.203   6.857 -0.7336 -0.2059 -0.7072
 6956SOL    HW132327   3.883   4.207   6.825 -0.8727  0.2493 -1.0370
 6956SOL    HW232328   3.808   4.131   6.919 -1.9086  0.5263  0.4385
 6957SOL     OW32329   3.489   1.309  14.234 -0.1145  0.4532  0.1710
 6957SOL    HW132330   3.438   1.385  14.205  1.7867  0.9674 -1.8405
 6957SOL    HW232331   3.581   1.331  14.218 -0.1624  0.7067  0.2413
 6958SOL     OW32332   2.317   1.523   0.791  0.5560  0.0123 -0.0346
 6958SOL    HW132333   2.274   1.439   0.805 -0.2126  0.3740 -0.2110
 6958SOL    HW232334   2.239   1.578   0.784  0.7519  0.4898  1.3938
 6959SOL     OW32335   3.985   2.445   2.957 -0.1317  0.0531  0.2341
 6959SOL    HW132336   3.962   2.363   2.915 -1.5730  0.6968 -0.2359
 6959SOL    HW232337   3.898   2.478   2.979  0.0111 -0.4076  1.4774
 6960SOL     OW32338   1.879   3.214   5.550 -0.0380  0.0230 -0.1135
 6960SOL    HW132339   1.891   3.119   5.543  0.1041 -0.1580  2.6043
 6960SOL    HW232340   1.968   3.248   5.542  1.2468 -2.8242  1.8806
 6961SOL     OW32341   2.179   2.803  16.593 -0.5978 -0.0792 -0.0878
 6961SOL    HW132342   2.157   2.812  16.500 -2.9863  1.4827  0.6481
 6961SOL    HW232343   2.096   2.832  16.629 -0.1517  0.4963  0.4732
 6962SOL     OW32344   1.296   2.425   6.529  0.0162 -0.1505  0.2852
 6962SOL    HW132345   1.343   2.489   6.583 -1.1942  1.5625 -0.6785
 6962SOL    HW232346   1.263   2.479   6.458 -1.9490  1.4353  2.4132
 6963SOL     OW32347   2.412   2.759   4.659 -0.0900 -0.1654  0.2989
 6963SOL    HW132348   2.426   2.838   4.711  2.0442  0.6124 -1.4235
 6963SOL    HW232349   2.319   2.772   4.642 -0.3712 -1.0233  1.2161
 6964SOL     OW32350   0.194   2.573   9.169 -0.1876  0.1851  0.1506
 6964SOL    HW132351   0.279   2.532   9.180 -0.0083  1.0720  2.1756
 6964SOL    HW232352   0.154   2.529   9.094 -1.0292 -2.0280  1.8891
 6965SOL     OW32353   2.810   2.302   5.473  0.2629  0.4385  0.0680
 6965SOL    HW132354   2.829   2.247   5.549  2.3332  1.4275  0.2799
 6965SOL    HW232355   2.752   2.365   5.515 -0.6905 -2.1609  2.6018
 6966SOL     OW32356   3.599   3.718   1.329  0.0271 -1.0907  0.0729
 6966SOL    HW132357   3.687   3.743   1.358  0.0785  0.1579 -1.1729
 6966SOL    HW232358   3.626   3.642   1.277  1.5257  0.6361 -1.6704
 6967SOL     OW32359   0.290   4.467   4.553 -0.4499 -0.0336  0.0242
 6967SOL    HW132360   0.250   4.465   4.640  0.2609 -2.2077  0.3123
 6967SOL    HW232361   0.244   4.538   4.508 -0.2054  1.4226  2.0575
 6968SOL     OW32362   4.414   0.933   6.388 -0.5140  0.4871  0.5074
 6968SOL    HW132363   4.440   0.850   6.428 -1.5460  0.2971  0.7796
 6968SOL    HW232364   4.413   0.907   6.296  1.6255 -1.2206  0.9469
 6969SOL     OW32365   3.445   0.526   7.140 -0.2174 -0.0092  0.0759
 6969SOL    HW132366   3.395   0.484   7.210 -0.2633 -0.1381 -0.0341
 6969SOL    HW232367   3.511   0.458   7.128 -1.7068 -1.6299  1.1641
 6970SOL     OW32368   2.411   2.289  14.270  0.2267  0.3281 -0.6997
 6970SOL    HW132369   2.323   2.326  14.269  0.3254  0.5741 -0.3416
 6970SOL    HW232370   2.384   2.200  14.249  0.0396  0.4220 -0.8626
 6971SOL     OW32371   3.534   2.327   5.708 -0.1856 -0.9109  0.4626
 6971SOL    HW132372   3.505   2.418   5.715  0.9241 -0.6681  1.7565
 6971SOL    HW232373   3.573   2.326   5.620  0.6516 -1.4314  0.8404
 6972SOL     OW32374   3.297   2.190  10.779 -0.2302  0.0496 -0.3965
 6972SOL    HW132375   3.278   2.283  10.793  2.6367  0.5230  0.3349
 6972SOL    HW232376   3.361   2.182  10.849  2.2426  2.4796 -2.3688
 6973SOL     OW32377   3.421   3.976   1.915 -0.2786 -0.8258  0.5076
 6973SOL    HW132378   3.494   3.948   1.860 -0.9305 -0.8743 -0.3285
 6973SOL    HW232379   3.360   4.024   1.860 -0.3582 -0.7904  0.6275
 6974SOL     OW32380   2.649   0.100   9.775  1.1710 -0.0820  0.0193
 6974SOL    HW132381   2.602   0.025   9.812 -1.8721  1.7647 -0.1505
 6974SOL    HW232382   2.675   0.068   9.689  2.2172 -2.6916  1.3017
 6975SOL     OW32383   0.880   0.194  12.852 -0.4296  0.1239 -0.0910
 6975SOL    HW132384   0.897   0.142  12.773 -1.5426  1.1403 -1.0148
 6975SOL    HW232385   0.792   0.165  12.876 -0.0294 -1.5230 -0.6684
 6976SOL     OW32386   0.628   1.415   7.156  0.5587 -0.1565  0.0620
 6976SOL    HW132387   0.569   1.375   7.093  0.4557  0.6461 -0.3575
 6976SOL    HW232388   0.604   1.373   7.239 -0.3473 -0.7878 -0.5193
 6977SOL     OW32389   2.697   3.281   5.111 -0.2591 -0.5495  0.2133
 6977SOL    HW132390   2.718   3.306   5.021 -0.4870  1.1329  0.6451
 6977SOL    HW232391   2.665   3.361   5.152  0.4002 -1.2873  2.2160
 6978SOL     OW32392   2.647   1.133  17.434  0.2738  0.4827  0.0872
 6978SOL    HW132393   2.627   1.105  17.345 -1.6399 -1.8158  1.2623
 6978SOL    HW232394   2.562   1.162  17.465 -0.2966 -0.7636 -0.3335
 6979SOL     OW32395   4.412   4.722   4.486  0.2216  0.0223  0.3105
 6979SOL    HW132396   4.327   0.041   4.498 -0.8123 -1.6788 -1.0662
 6979SOL    HW232397   4.427   0.010   4.392  0.8809 -1.0367  0.2910
 6980SOL     OW32398   1.140   3.278   9.048  0.2839  0.2076  0.2298
 6980SOL    HW132399   1.115   3.313   8.963 -0.7089 -0.9600  0.0448
 6980SOL    HW232400   1.235   3.280   9.038  0.2119  2.2113 -0.0523
 6981SOL     OW32401   1.022   1.878   2.265 -0.6926 -0.4688  0.0289
 6981SOL    HW132402   1.005   1.838   2.180 -0.2886  0.5068 -0.5108
 6981SOL    HW232403   0.943   1.857   2.316  0.1032 -0.1082  1.4230
 6982SOL     OW32404   3.770   2.006  14.547 -0.4526 -0.6468 -0.2660
 6982SOL    HW132405   3.819   1.933  14.585 -1.9909 -0.5657  1.8685
 6982SOL    HW232406   3.819   2.043  14.474  1.3796  0.2677  1.4390
 6983SOL     OW32407   0.619   2.748   6.119 -0.5958 -0.2337  0.3370
 6983SOL    HW132408   0.591   2.822   6.066 -0.9064  0.8039  1.9631
 6983SOL    HW232409   0.577   2.768   6.202 -0.7168  2.5836 -0.4101
 6984SOL     OW32410   3.103   4.461   3.560  0.6041 -0.1308  0.1963
 6984SOL    HW132411   3.182   4.414   3.531 -0.9192 -1.5536 -1.6461
 6984SOL    HW232412   3.132   4.551   3.551  0.3541 -0.2245 -1.5444
 6985SOL     OW32413   4.694   2.735   4.206 -0.3341 -0.0545 -0.0054
 6985SOL    HW132414   4.633   2.708   4.274  0.6816  0.4302  1.1108
 6985SOL    HW232415   0.018   2.796   4.262  0.6006 -0.8047  0.0440
 6986SOL     OW32416   4.040   3.045   9.056 -0.1994  0.2131 -0.3167
 6986SOL    HW132417   4.108   3.092   9.008  2.3855 -0.6225  2.5674
 6986SOL    HW232418   3.960   3.094   9.037  0.4554  1.3082 -0.2368
 6987SOL     OW32419   1.436   2.120   1.114  0.3659  0.0813  0.0010
 6987SOL    HW132420   1.406   2.211   1.110 -2.0828 -0.6344  2.3205
 6987SOL    HW232421   1.422   2.094   1.205  1.8981  0.0759  0.2319
 6988SOL     OW32422   1.293   0.030   3.638 -0.1224 -0.4776 -0.2946
 6988SOL    HW132423   1.199   0.015   3.646  0.0369 -1.4102 -0.1055
 6988SOL    HW232424   1.294   0.067   3.550  1.0908 -1.7810 -0.8212
 6989SOL     OW32425   1.457   0.594   4.143 -0.3452  0.1044 -0.4851
 6989SOL    HW132426   1.399   0.660   4.180 -0.5051  0.6989 -1.7812
 6989SOL    HW232427   1.417   0.515   4.178  0.7654  0.0054  0.5544
 6990SOL     OW32428   0.625   1.816   8.795  0.0295 -0.4592  0.3072
 6990SOL    HW132429   0.669   1.901   8.802  0.8153 -0.8686  0.3747
 6990SOL    HW232430   0.590   1.801   8.882 -0.7416 -1.2156 -0.1285
 6991SOL     OW32431   3.098   0.341   8.163  0.0086  0.3143  0.5944
 6991SOL    HW132432   3.042   0.288   8.107  2.0370  1.5430 -2.5466
 6991SOL    HW232433   3.176   0.354   8.110  1.2453  1.2345  2.6528
 6992SOL     OW32434   4.480   2.775   7.574 -0.0945 -0.2761  0.1896
 6992SOL    HW132435   4.457   2.700   7.628 -1.9359  0.4791  0.4576
 6992SOL    HW232436   4.398   2.805   7.534 -0.1489  1.9727  1.9588
 6993SOL     OW32437   1.960   1.444   5.248 -0.5083 -0.0143  0.8277
 6993SOL    HW132438   1.886   1.396   5.285 -1.5761 -0.9318 -2.4800
 6993SOL    HW232439   1.978   1.369   5.190  0.0385 -1.2632  2.6241
 6994SOL     OW32440   4.538   3.575   3.732 -0.4461 -0.3822  0.0635
 6994SOL    HW132441   4.596   3.650   3.724 -0.5476 -0.1085  1.8874
 6994SOL    HW232442   4.591   3.509   3.778 -1.1742  0.3976  2.0374
 6995SOL     OW32443   0.247   0.088   9.053  0.2211 -0.5859 -0.0611
 6995SOL    HW132444   0.213   0.174   9.076 -2.5858 -1.0208 -2.6040
 6995SOL    HW232445   0.273   0.057   9.140  0.2938  0.2409  0.2070
 6996SOL     OW32446   2.874   3.388   4.942 -0.5315 -0.4736  0.1307
 6996SOL    HW132447   2.836   3.475   4.932  1.4830  0.1998 -1.5358
 6996SOL    HW232448   2.942   3.410   5.006 -0.3402  1.9588 -0.9243
 6997SOL     OW32449   2.119   1.679  14.915 -0.2165  0.0866 -0.5935
 6997SOL    HW132450   2.127   1.705  15.006 -0.8809 -0.7011 -0.2994
 6997SOL    HW232451   2.209   1.680  14.884  0.2208 -0.2210  0.6619
 6998SOL     OW32452   4.430   2.483   0.159  0.2400  0.3367 -0.4803
 6998SOL    HW132453   4.416   2.495   0.253 -0.4725  1.9793 -0.7878
 6998SOL    HW232454   4.497   2.549   0.137 -1.4281  1.6558 -1.5591
 6999SOL     OW32455   4.334   4.169   0.230  0.2208  0.1958  0.3892
 6999SOL    HW132456   4.314   4.252   0.273  1.5696  0.5509  0.3286
 6999SOL    HW232457   4.252   4.168   0.181  0.0963 -1.1292  0.6116
 7000SOL     OW32458   4.246   1.389   9.213  0.1833 -0.1586 -0.0742
 7000SOL    HW132459   4.164   1.347   9.237 -0.2304  0.1125 -1.0436
 7000SOL    HW232460   4.303   1.342   9.274  0.9075 -2.0266 -2.2117
 7001SOL     OW32461   1.857   2.593   4.971  0.1142  0.1357 -0.4672
 7001SOL    HW132462   1.951   2.614   4.975  0.8959 -3.2440 -1.3151
 7001SOL    HW232463   1.829   2.642   5.049  0.1794 -0.0523 -0.3254
 7002SOL     OW32464   0.090   2.483   8.471  0.1067 -0.2790  0.3905
 7002SOL    HW132465   0.094   2.388   8.488 -0.7342 -0.7857 -2.2807
 7002SOL    HW232466   0.085   2.489   8.376  2.8721  0.1409  0.2784
 7003SOL     OW32467   3.516   0.138  16.872  0.4505 -0.2101 -0.1148
 7003SOL    HW132468   3.584   0.141  16.806 -0.4408  2.6368 -0.8993
 7003SOL    HW232469   3.573   0.154  16.947  0.1975  2.0223 -0.4111
 7004SOL     OW32470   0.463   3.371   3.431  0.0429 -0.1501 -0.7798
 7004SOL    HW132471   0.555   3.366   3.404 -0.2290  0.8469 -1.8629
 7004SOL    HW232472   0.425   3.298   3.382 -0.3806 -0.9229  0.6884
 7005SOL     OW32473   3.371   4.285   9.987  0.2286  0.2755 -0.3457
 7005SOL    HW132474   3.323   4.248   9.912 -1.0245 -0.8741  1.0325
 7005SOL    HW232475   3.428   4.210  10.003  0.1106  0.2315 -0.1352
 7006SOL     OW32476   4.246   1.570  11.831  0.5577 -0.1068 -0.6863
 7006SOL    HW132477   4.295   1.561  11.750 -0.3722  0.5404 -1.3293
 7006SOL    HW232478   4.273   1.502  11.893 -0.8907  0.5384  0.6614
 7007SOL     OW32479   4.085   2.979  12.057  0.7300  0.0711  0.7077
 7007SOL    HW132480   4.097   2.886  12.073  1.4592 -0.0031 -0.2218
 7007SOL    HW232481   4.122   2.978  11.969 -0.7889  2.3505  0.0528
 7008SOL     OW32482   0.152   2.597   8.828  0.1464  0.3023 -0.0622
 7008SOL    HW132483   0.242   2.598   8.797  0.0661  0.6558 -0.2931
 7008SOL    HW232484   0.122   2.507   8.812 -0.4380  0.8744 -2.3273
 7009SOL     OW32485   0.427   2.378   4.794  0.6167  0.0945 -0.8637
 7009SOL    HW132486   0.492   2.438   4.756 -0.2974  1.1814 -0.7159
 7009SOL    HW232487   0.486   2.325   4.847 -0.6512 -1.1734 -0.7293
 7010SOL     OW32488   4.139   4.644   7.883 -0.0159  0.0460 -0.3469
 7010SOL    HW132489   4.190   4.566   7.902 -0.0669  0.0995  0.0191
 7010SOL    HW232490   4.190   4.692   7.819  2.1425 -0.9648  0.6160
 7011SOL     OW32491   1.466   3.628   4.006  0.0364 -0.4632  0.0709
 7011SOL    HW132492   1.481   3.616   3.912 -0.6327  1.5102 -0.2923
 7011SOL    HW232493   1.463   3.723   4.015  0.1054 -0.5935  1.4323
 7012SOL     OW32494   3.951   1.321   7.578  0.2444 -0.0729  0.1238
 7012SOL    HW132495   4.034   1.359   7.550 -0.5180  1.0474 -0.6205
 7012SOL    HW232496   3.945   1.353   7.668 -0.7168  2.6530 -0.9278
 7013SOL     OW32497   1.895   3.182  11.953 -0.2643  0.2207  0.3899
 7013SOL    HW132498   1.974   3.130  11.968 -0.5894 -0.4470 -0.2644
 7013SOL    HW232499   1.932   3.222  11.874 -0.6795  2.4853  1.3194
 7014SOL     OW32500   0.129   3.599   5.177  0.0638  0.1259  0.4603
 7014SOL    HW132501   0.069   3.640   5.239  0.2848  0.3098  0.5510
 7014SOL    HW232502   0.155   3.676   5.126 -0.4896  0.7745  1.1542
 7015SOL     OW32503   4.339   4.195   8.121 -0.1358 -0.0392  0.0556
 7015SOL    HW132504   4.402   4.181   8.192 -0.5846  0.0160  0.4641
 7015SOL    HW232505   4.311   4.109   8.090  2.2413 -0.6805 -0.3224
 7016SOL     OW32506   2.891   0.219   6.531  0.5456 -0.0923  0.4945
 7016SOL    HW132507   2.837   0.285   6.574 -0.8159 -0.9054  0.0311
 7016SOL    HW232508   2.938   0.261   6.459  1.7661 -4.5854 -1.3015
 7017SOL     OW32509   3.986   3.262   7.921  0.1243  0.2952  0.0534
 7017SOL    HW132510   4.065   3.308   7.948 -0.4251  0.5532  1.1900
 7017SOL    HW232511   4.027   3.176   7.908 -0.8509  0.3110 -3.2417
 7018SOL     OW32512   2.593   1.523   7.366  0.5286  0.0314  0.0224
 7018SOL    HW132513   2.511   1.475   7.356  1.8241 -2.4996  1.5806
 7018SOL    HW232514   2.645   1.466   7.423  2.8948  2.2743  0.1027
 7019SOL     OW32515   1.945   0.379  12.178  0.1809 -0.2385 -0.1545
 7019SOL    HW132516   1.978   0.468  12.163  2.6501 -1.3976 -1.4023
 7019SOL    HW232517   1.857   0.380  12.139  0.4405  0.3885 -0.7173
 7020SOL     OW32518   1.480   3.914  16.952 -0.1244 -0.3051  0.0320
 7020SOL    HW132519   1.556   3.962  16.984 -0.4591 -0.1745  0.6281
 7020SOL    HW232520   1.424   3.898  17.029  0.3467  0.9774  0.6279
 7021SOL     OW32521   2.763   4.487  15.133  0.5977 -0.1062  0.1834
 7021SOL    HW132522   2.773   4.574  15.173 -1.7234  1.1796 -2.0359
 7021SOL    HW232523   2.754   4.507  15.040  0.8137  1.7329  0.5494
 7022SOL     OW32524   0.004   0.107   2.954 -0.2360 -0.3879 -0.6967
 7022SOL    HW132525   0.033   0.036   2.896 -1.7951 -2.4229  0.9979
 7022SOL    HW232526   4.632   0.099   2.942 -0.3190 -1.1629  0.4910
 7023SOL     OW32527   4.369   3.848   6.051 -0.4099  0.5446 -0.2728
 7023SOL    HW132528   4.416   3.826   6.132  0.2457  1.8422 -0.2942
 7023SOL    HW232529   4.375   3.944   6.056 -3.9726  0.7284  0.4193
 7024SOL     OW32530   1.733   4.666   3.848 -0.3884  0.4481 -0.0953
 7024SOL    HW132531   1.761   0.029   3.879  2.8082 -0.9689  0.8936
 7024SOL    HW232532   1.670   4.689   3.779  0.6521 -0.1922 -1.2551
 7025SOL     OW32533   0.566   3.882   9.009 -0.1208 -0.0281  0.1282
 7025SOL    HW132534   0.509   3.841   9.074  0.3594  0.0067  0.5712
 7025SOL    HW232535   0.615   3.810   8.968 -1.4408 -1.1111  0.4527
 7026SOL     OW32536   2.204   2.822   7.581 -0.1926  0.0773 -0.4779
 7026SOL    HW132537   2.122   2.793   7.621 -0.5347  0.9798 -0.5180
 7026SOL    HW232538   2.258   2.824   7.660 -0.1424 -0.0488 -0.5098
 7027SOL     OW32539   3.939   4.094   2.544 -0.0057  0.6219 -0.2768
 7027SOL    HW132540   4.027   4.062   2.526 -0.3525 -0.5773  0.1153
 7027SOL    HW232541   3.956   4.187   2.533  1.1189  0.5610  1.0616
 7028SOL     OW32542   0.036   0.119   7.051 -0.3451  0.2164  0.4989
 7028SOL    HW132543   0.043   0.205   7.009 -0.2004 -0.4230 -0.7806
 7028SOL    HW232544   0.012   0.148   7.139  1.6704 -0.3452  1.2371
 7029SOL     OW32545   0.347   4.357   7.277  0.2641  0.0784  0.6649
 7029SOL    HW132546   0.348   4.354   7.373  0.8806 -0.8199  0.6261
 7029SOL    HW232547   0.253   4.359   7.259 -0.1408  1.8483  2.9885
 7030SOL     OW32548   0.026   2.217   6.308  0.4705  0.4377 -0.3503
 7030SOL    HW132549   0.067   2.144   6.354  1.2984  1.9470  1.3366
 7030SOL    HW232550   0.014   2.281   6.379  0.9115  0.4301 -0.2663
 7031SOL     OW32551   0.321   2.328   1.559 -0.1393  0.1204 -0.2432
 7031SOL    HW132552   0.385   2.397   1.578 -0.5950  0.4846 -0.0332
 7031SOL    HW232553   0.250   2.382   1.526 -2.0492 -1.2790  1.5768
 7032SOL     OW32554   2.841   1.394   4.108 -0.0265 -0.4856  0.1569
 7032SOL    HW132555   2.873   1.334   4.041  0.0153 -0.3208  0.0318
 7032SOL    HW232556   2.754   1.355   4.122  0.8547 -1.8969  1.7975
 7033SOL     OW32557   1.264   3.718   8.622  0.0220 -0.0780 -0.4459
 7033SOL    HW132558   1.234   3.661   8.551  2.1493 -1.2969 -0.3596
 7033SOL    HW232559   1.356   3.694   8.625 -0.6124 -2.7133 -2.2962
 7034SOL     OW32560   3.297   2.757  14.647 -0.4325  0.4502  0.5998
 7034SOL    HW132561   3.291   2.756  14.551  0.2398 -0.2656  0.5660
 7034SOL    HW232562   3.347   2.677  14.664  0.7479  1.0580 -0.0526
 7035SOL     OW32563   0.488   1.175  16.527 -0.9051 -0.3999  0.9628
 7035SOL    HW132564   0.500   1.263  16.564 -0.1110  0.5451 -1.5121
 7035SOL    HW232565   0.437   1.191  16.447 -1.4068 -1.9011  0.9858
 7036SOL     OW32566   1.891   3.552   3.951 -0.2952 -0.1837  0.0616
 7036SOL    HW132567   1.983   3.530   3.939  0.2402  1.6775  0.7806
 7036SOL    HW232568   1.850   3.470   3.923 -1.8827  0.5063  0.3705
 7037SOL     OW32569   4.429   2.356  12.085  0.1637  0.0935 -0.0034
 7037SOL    HW132570   4.389   2.270  12.077 -1.1934  0.6486  0.9665
 7037SOL    HW232571   4.387   2.392  12.162  0.0201  0.3802 -0.2161
 7038SOL     OW32572   2.140   3.020   1.021  0.1142 -0.0768 -0.1889
 7038SOL    HW132573   2.132   2.939   0.971  0.0073 -0.9492  1.2560
 7038SOL    HW232574   2.222   3.061   0.993  0.1665 -0.0274  0.0414
 7039SOL     OW32575   1.683   3.252   1.985  0.7779 -0.6752 -0.4770
 7039SOL    HW132576   1.616   3.291   2.042  0.1100 -1.3431 -0.8019
 7039SOL    HW232577   1.757   3.313   1.986  1.8816 -2.0840  2.6598
 7040SOL     OW32578   0.711   3.382   6.166  0.0285  0.6730 -0.8121
 7040SOL    HW132579   0.776   3.406   6.100  2.0452 -1.8998  0.2418
 7040SOL    HW232580   0.687   3.467   6.204  0.5247  0.4793 -0.0589
 7041SOL     OW32581   4.110   0.557   9.003  0.5941 -0.2233 -0.3919
 7041SOL    HW132582   4.200   0.531   8.982  0.3686 -2.2937  1.2381
 7041SOL    HW232583   4.068   0.499   8.940  0.0530 -0.5378  0.2575
 7042SOL     OW32584   0.396   1.326   5.536  0.1495 -0.1900  0.3665
 7042SOL    HW132585   0.380   1.317   5.442  1.4166  0.5378  0.0871
 7042SOL    HW232586   0.326   1.271   5.573 -0.4124 -0.2666 -0.7919
 7043SOL     OW32587   3.695   0.688   2.591  0.5366 -0.4749  0.0075
 7043SOL    HW132588   3.687   0.781   2.569 -0.1342 -1.3417 -3.4570
 7043SOL    HW232589   3.788   0.676   2.572  0.8700 -0.1299  1.4023
 7044SOL     OW32590   4.560   2.624   5.015  0.2595  0.5518 -0.0482
 7044SOL    HW132591   4.656   2.627   5.021  0.2636  0.8933 -0.2548
 7044SOL    HW232592   4.556   2.575   4.933 -0.3438  0.6383 -0.0704
 7045SOL     OW32593   4.175   4.100  12.798 -0.2005  0.3806 -0.1647
 7045SOL    HW132594   4.164   4.026  12.858  0.6953 -0.5358 -1.1486
 7045SOL    HW232595   4.211   4.061  12.719  0.4944 -1.0531  0.8564
 7046SOL     OW32596   2.396   1.984   1.339 -0.2089  0.1090 -0.3434
 7046SOL    HW132597   2.394   1.947   1.427  0.3643  2.4372  0.6663
 7046SOL    HW232598   2.400   2.077   1.360  2.5413  0.2987 -1.7357
 7047SOL     OW32599   0.134   3.580   1.569  0.5422  0.0610 -0.5775
 7047SOL    HW132600   0.061   3.631   1.604  1.3003  2.3896 -2.3620
 7047SOL    HW232601   0.135   3.632   1.488 -0.2075  1.6741  0.4393
 7048SOL     OW32602   1.002   2.440   2.128 -0.7116  0.0262 -0.2117
 7048SOL    HW132603   1.029   2.403   2.212 -1.0696 -0.8338 -0.4809
 7048SOL    HW232604   1.073   2.412   2.071 -0.9869 -1.3777  0.1391
 7049SOL     OW32605   2.244   4.654   0.979 -0.1080 -0.3535  0.6951
 7049SOL    HW132606   2.163   4.695   0.947  1.7897  1.2066 -2.0345
 7049SOL    HW232607   2.244   4.572   0.931  0.1127  1.0405 -1.6499
 7050SOL     OW32608   2.843   3.035  15.198  0.2329  0.2599 -0.4277
 7050SOL    HW132609   2.847   3.099  15.126 -0.2930  0.1796 -0.5276
 7050SOL    HW232610   2.790   2.971  15.151 -0.7404  1.7246 -1.3540
 7051SOL     OW32611   3.589   3.596   6.627 -0.1788  0.0739  0.0078
 7051SOL    HW132612   3.645   3.653   6.575 -2.6281  2.9352  0.4459
 7051SOL    HW232613   3.641   3.599   6.707 -1.9442 -0.1098  1.1775
 7052SOL     OW32614   4.145   3.590   4.177  0.1268  0.6231  0.1381
 7052SOL    HW132615   4.155   3.680   4.207  0.4375 -0.3225  2.8858
 7052SOL    HW232616   4.064   3.594   4.127  0.3670  0.5735 -0.2556
 7053SOL     OW32617   4.341   3.604   2.106 -0.5758 -0.3375 -0.1104
 7053SOL    HW132618   4.281   3.675   2.130 -0.3633 -0.5065  0.9109
 7053SOL    HW232619   4.294   3.526   2.137 -1.2019  0.2615  0.4533
 7054SOL     OW32620   2.191   4.010   7.044  0.3624 -0.0073  0.3156
 7054SOL    HW132621   2.238   3.929   7.066 -0.9442 -0.5545  1.0712
 7054SOL    HW232622   2.127   4.015   7.115  0.3652  1.2006  0.2305
 7055SOL     OW32623   2.232   4.508   5.707 -0.0221  0.1097  0.3673
 7055SOL    HW132624   2.307   4.561   5.680 -0.2568  0.6741  0.8225
 7055SOL    HW232625   2.163   4.518   5.640  0.5176  1.7312  0.0694
 7056SOL     OW32626   2.805   3.178   3.587  0.4467 -0.3016  0.1340
 7056SOL    HW132627   2.798   3.256   3.641 -0.5136 -0.3575  0.0985
 7056SOL    HW232628   2.816   3.222   3.503 -0.8704 -1.5272 -0.6848
 7057SOL     OW32629   1.214   1.584  10.894  0.0342  0.6382  0.7954
 7057SOL    HW132630   1.148   1.549  10.835  0.9503 -0.5382  0.4604
 7057SOL    HW232631   1.202   1.675  10.867 -1.9110  0.1532  0.0375
 7058SOL     OW32632   1.451   0.841   2.945  0.0362 -0.3005  0.0510
 7058SOL    HW132633   1.464   0.903   2.873  0.8429 -0.6592 -0.1225
 7058SOL    HW232634   1.496   0.760   2.919 -0.5857 -0.3623 -0.8147
 7059SOL     OW32635   3.555   2.896   2.719 -0.3352 -0.4065 -0.2807
 7059SOL    HW132636   3.485   2.958   2.699 -0.0432  0.6759  2.1237
 7059SOL    HW232637   3.586   2.928   2.803  0.1951  0.4559 -0.8100
 7060SOL     OW32638   3.694   0.697   8.124  0.3445  0.0762  0.3187
 7060SOL    HW132639   3.691   0.775   8.069  1.1277 -0.5791 -0.6519
 7060SOL    HW232640   3.677   0.748   8.203 -2.4842 -2.3169  1.2708
 7061SOL     OW32641   3.898   3.871   2.678 -1.1299 -0.2139 -0.0846
 7061SOL    HW132642   3.878   3.900   2.767  0.9815 -0.8743  0.6197
 7061SOL    HW232643   3.888   3.953   2.630  0.1635 -0.9829 -1.6893
 7062SOL     OW32644   1.740   2.374   8.744 -0.1153 -0.2109 -0.3692
 7062SOL    HW132645   1.797   2.298   8.753 -1.7102 -1.4728 -1.1138
 7062SOL    HW232646   1.796   2.448   8.769 -0.9202 -0.0472  0.9242
 7063SOL     OW32647   3.967   4.439  14.645 -0.4853 -0.1970  0.6734
 7063SOL    HW132648   3.981   4.345  14.645  1.1210  0.0255 -1.7920
 7063SOL    HW232649   3.873   4.454  14.659 -1.1645 -0.9772 -3.0303
 7064SOL     OW32650   3.660   0.031   5.121  0.1415  0.0934 -0.4255
 7064SOL    HW132651   3.653   0.046   5.027  1.7869  1.2955 -0.3673
 7064SOL    HW232652   3.609   0.107   5.147  0.8275  0.1555  0.7472
 7065SOL     OW32653   1.329   1.655   3.808  0.2332  0.0649  0.4567
 7065SOL    HW132654   1.352   1.648   3.716 -2.0639  1.5938 -0.2511
 7065SOL    HW232655   1.344   1.748   3.825 -0.2143  0.0684  0.8580
 7066SOL     OW32656   3.193   0.969  17.508  0.4001  0.0813 -0.4828
 7066SOL    HW132657   3.114   0.967  17.455  0.1271  1.3024 -0.1091
 7066SOL    HW232658   3.184   1.049  17.559  1.0504  0.2162 -0.5803
 7067SOL     OW32659   0.985   4.498  14.753  0.1443 -0.3069  0.0376
 7067SOL    HW132660   1.005   4.538  14.668  1.5186  0.4111  0.7057
 7067SOL    HW232661   0.964   4.576  14.804  3.2908  1.5186 -1.4707
 7068SOL     OW32662   1.623   1.052   3.064  0.2661  0.1390 -0.0811
 7068SOL    HW132663   1.689   1.054   2.995  1.2676  0.8007  0.8771
 7068SOL    HW232664   1.607   0.958   3.059  2.6274 -0.2390 -0.7436
 7069SOL     OW32665   2.730   1.621   8.515 -0.1454  0.2920 -0.3957
 7069SOL    HW132666   2.716   1.536   8.473 -2.8550  0.6119 -0.1456
 7069SOL    HW232667   2.737   1.592   8.606  0.3424 -0.6980 -0.7489
 7070SOL     OW32668   3.199   2.132  17.080 -0.1503 -0.5443  0.4327
 7070SOL    HW132669   3.286   2.172  17.087 -1.7814  3.0041  0.0558
 7070SOL    HW232670   3.229   2.042  17.063 -1.7625 -0.4137 -3.1214
 7071SOL     OW32671   1.877   0.913  14.236 -0.4204 -0.0713  0.1869
 7071SOL    HW132672   1.940   0.843  14.222 -1.4713 -1.4216  2.1755
 7071SOL    HW232673   1.847   0.920  14.146 -1.2823  0.3685  0.5063
 7072SOL     OW32674   2.392   0.012   1.872 -0.5399  0.2714  0.0380
 7072SOL    HW132675   2.477   0.021   1.829  0.6278 -1.4797  2.0307
 7072SOL    HW232676   2.397   0.096   1.918  1.1625  1.2952 -2.0462
 7073SOL     OW32677   3.455   3.847   8.947  0.3019  0.2322 -0.2773
 7073SOL    HW132678   3.385   3.891   8.899 -0.1526  0.8082  0.9142
 7073SOL    HW232679   3.418   3.759   8.951  0.7972  0.0497  0.3983
 7074SOL     OW32680   1.758   1.427  15.696 -0.2107  0.3190  0.4403
 7074SOL    HW132681   1.846   1.413  15.661 -0.7402  2.4225 -1.7458
 7074SOL    HW232682   1.784   1.445  15.786  3.7954 -2.8884 -0.0682
 7075SOL     OW32683   3.339   4.132  13.085 -0.7990  0.0615  0.0988
 7075SOL    HW132684   3.433   4.144  13.100 -0.6061 -0.6872 -0.5052
 7075SOL    HW232685   3.332   4.089  13.000  1.7394  0.2532 -0.1979
 7076SOL     OW32686   4.483   2.838   9.817  0.1152 -0.3080 -0.0462
 7076SOL    HW132687   4.456   2.759   9.769  2.4841 -1.9259  1.2515
 7076SOL    HW232688   4.498   2.815   9.909  1.6872 -2.5304 -0.8377
 7077SOL     OW32689   4.511   0.562  16.238 -0.8337  0.2188  0.3731
 7077SOL    HW132690   4.533   0.609  16.157 -0.2257 -1.5443 -0.4852
 7077SOL    HW232691   4.449   0.496  16.207 -1.4634  1.2142 -0.4654
 7078SOL     OW32692   3.553   0.626   3.849 -0.4423  0.2456  0.2813
 7078SOL    HW132693   3.555   0.544   3.900 -1.0290  0.8355  1.2611
 7078SOL    HW232694   3.459   0.645   3.854 -0.7771 -1.7904  1.9435
 7079SOL     OW32695   4.007   1.863   4.338 -0.3453 -0.3992  0.3851
 7079SOL    HW132696   3.924   1.866   4.386 -0.2512 -2.0448  0.6515
 7079SOL    HW232697   4.020   1.958   4.336 -0.2090 -0.4091  0.8183
 7080SOL     OW32698   1.063   4.618   4.972  0.1325  0.4611 -0.5228
 7080SOL    HW132699   1.072   4.536   5.020 -0.5674  0.9855  0.5054
 7080SOL    HW232700   0.983   4.597   4.924 -1.5348 -0.5816  2.6640
 7081SOL     OW32701   4.022   4.137   7.681  0.0309  0.0346 -0.1077
 7081SOL    HW132702   3.954   4.116   7.746 -1.7155 -0.4037 -2.0836
 7081SOL    HW232703   3.984   4.214   7.639 -0.2167  0.0423  0.1258
 7082SOL     OW32704   0.485   0.014   4.724  0.4254 -0.3270 -0.0517
 7082SOL    HW132705   0.439   0.056   4.651  0.9200  1.3147  0.5621
 7082SOL    HW232706   0.495   4.650   4.687  1.5506 -0.5542  0.8047
 7083SOL     OW32707   0.613   1.055   6.500 -0.4032 -0.1953  0.1730
 7083SOL    HW132708   0.697   1.100   6.491  1.1129 -3.3563 -1.5474
 7083SOL    HW232709   0.576   1.112   6.567  2.1556 -1.4356  2.6607
 7084SOL     OW32710   0.869   0.995   5.117  0.0669  0.2889  0.1996
 7084SOL    HW132711   0.831   0.911   5.143 -1.4519  1.1670  0.8160
 7084SOL    HW232712   0.785   1.036   5.098  0.5636  1.2258 -0.0147
 7085SOL     OW32713   3.706   0.502   3.610 -0.2679 -0.1088  0.0346
 7085SOL    HW132714   3.760   0.431   3.644 -0.5477 -0.3146  0.0535
 7085SOL    HW232715   3.679   0.560   3.682 -1.3854 -1.3379  0.6153
 7086SOL     OW32716   2.322   3.285   8.379 -0.6274 -0.1222 -0.4055
 7086SOL    HW132717   2.348   3.199   8.347 -1.3780 -0.3019 -0.5312
 7086SOL    HW232718   2.397   3.335   8.346  0.9677 -2.8460 -0.8825
 7087SOL     OW32719   1.848   3.958   6.746  0.3274  0.2640 -0.2747
 7087SOL    HW132720   1.932   3.994   6.774  0.9650 -0.8523 -0.7750
 7087SOL    HW232721   1.839   3.892   6.815  0.0971 -1.0097 -1.5144
 7088SOL     OW32722   4.224   4.241   2.728  0.4349  0.1881  0.3570
 7088SOL    HW132723   4.308   4.281   2.704 -0.2855  1.8117  0.5673
 7088SOL    HW232724   4.180   4.251   2.644  2.1508  0.4690 -0.5285
 7089SOL     OW32725   2.292   1.048   6.246  0.0730  0.1106 -0.2736
 7089SOL    HW132726   2.233   0.995   6.191  0.2014  0.8562 -1.1181
 7089SOL    HW232727   2.315   0.979   6.308  0.0486  0.3630  0.0175
 7090SOL     OW32728   0.684   2.821   4.573  0.0970  0.8533  0.2972
 7090SOL    HW132729   0.755   2.777   4.620 -0.3942  0.5691  0.7701
 7090SOL    HW232730   0.736   2.890   4.532 -0.1382  0.6344 -0.3549
 7091SOL     OW32731   1.078   1.923   9.021 -0.8345 -0.2422  0.8092
 7091SOL    HW132732   1.034   1.944   8.938 -1.4979  0.1399  1.2526
 7091SOL    HW232733   1.043   1.995   9.074 -2.3932  0.1730 -0.7882
 7092SOL     OW32734   0.174   3.063   7.769  0.7332 -0.0913 -0.2323
 7092SOL    HW132735   0.187   3.121   7.694  1.1765 -1.1144 -0.9433
 7092SOL    HW232736   0.180   2.980   7.722 -1.7909 -0.5743  0.3071
 7093SOL     OW32737   4.674   2.004   2.285  0.1050  0.2984 -0.5469
 7093SOL    HW132738   0.046   2.007   2.274  0.3240  1.0694  1.5364
 7093SOL    HW232739   4.670   1.913   2.312  2.0934  0.9886  2.0444
 7094SOL     OW32740   3.869   2.331   7.143 -0.2166 -0.1761 -0.2416
 7094SOL    HW132741   3.937   2.268   7.119 -1.2490 -0.4514 -2.3774
 7094SOL    HW232742   3.844   2.303   7.231 -1.1586 -0.1377 -0.5009
 7095SOL     OW32743   4.448   4.050   4.840  0.0089 -0.1569  0.5061
 7095SOL    HW132744   4.446   4.060   4.935 -2.5159  0.3255  0.3826
 7095SOL    HW232745   4.541   4.031   4.825  0.2825  1.3786  0.1810
 7096SOL     OW32746   4.051   1.736   7.447  0.3164  0.4747  0.5984
 7096SOL    HW132747   3.992   1.773   7.513  0.7154  0.9199  0.7052
 7096SOL    HW232748   4.021   1.792   7.376 -2.1454  1.5501  2.5056
 7097SOL     OW32749   1.039   2.365  12.723  0.3191 -0.1653  0.2056
 7097SOL    HW132750   1.071   2.430  12.786 -0.9691  1.0576 -0.3896
 7097SOL    HW232751   1.114   2.309  12.740 -0.8066 -1.1692  1.8443
 7098SOL     OW32752   0.256   3.950  13.196  0.2018 -0.2051  0.0211
 7098SOL    HW132753   0.172   3.989  13.222  0.6894  1.8063 -1.4517
 7098SOL    HW232754   0.275   3.902  13.277  0.7579  3.7243  2.1710
 7099SOL     OW32755   2.250   0.178  10.363  0.6919  0.0000  0.2089
 7099SOL    HW132756   2.299   0.165  10.282  2.1896  1.8124  0.8095
 7099SOL    HW232757   2.214   0.090  10.367 -2.1095  1.1662  0.7321
 7100SOL     OW32758   2.366   2.208   2.085 -0.2919  0.3098 -0.8041
 7100SOL    HW132759   2.421   2.286   2.075  0.9403 -0.4402  0.1141
 7100SOL    HW232760   2.358   2.185   1.992 -1.2432 -0.0691 -0.6199
 7101SOL     OW32761   2.138   0.837   9.888  0.7126  0.0257 -0.3070
 7101SOL    HW132762   2.187   0.896   9.946  0.3309  0.2348 -0.1935
 7101SOL    HW232763   2.110   0.779   9.959  1.4177 -0.9971 -0.8792
 7102SOL     OW32764   2.723   1.249   6.066  0.2225  0.2733  0.4308
 7102SOL    HW132765   2.695   1.308   5.996 -1.1418  0.3796  1.0641
 7102SOL    HW232766   2.650   1.251   6.129 -1.5551  0.0388 -1.6219
 7103SOL     OW32767   2.296   0.841   8.358  0.3324 -0.0988  0.4853
 7103SOL    HW132768   2.349   0.796   8.425  0.8185 -0.2205  0.0177
 7103SOL    HW232769   2.232   0.772   8.342  1.0509 -0.6278 -0.0912
 7104SOL     OW32770   1.294   1.287   3.494 -0.6292 -0.4956  0.8510
 7104SOL    HW132771   1.265   1.357   3.552 -0.3579  1.1847 -1.0527
 7104SOL    HW232772   1.209   1.245   3.480 -0.8546 -0.1848  1.2587
 7105SOL     OW32773   3.830   1.680   9.077 -0.1718  0.6062 -0.0868
 7105SOL    HW132774   3.742   1.685   9.115 -0.5909  0.2415 -1.0214
 7105SOL    HW232775   3.843   1.586   9.090  1.1369  0.9029  0.7765
 7106SOL     OW32776   0.104   0.848   4.436  0.1753 -0.1868 -0.0633
 7106SOL    HW132777   0.102   0.797   4.354 -1.6512 -0.5698  0.2254
 7106SOL    HW232778   0.019   0.891   4.429  0.1300  0.0617  1.9871
 7107SOL     OW32779   1.249   0.808   4.180  0.3218 -0.1382 -0.1711
 7107SOL    HW132780   1.233   0.873   4.248 -0.3509 -0.1610 -0.3052
 7107SOL    HW232781   1.254   0.856   4.097  1.1560  1.8529  1.0383
 7108SOL     OW32782   3.046   2.111   1.101 -0.1652 -0.6236 -0.4668
 7108SOL    HW132783   2.958   2.144   1.085 -0.8209 -1.9813  0.2931
 7108SOL    HW232784   3.038   2.078   1.190 -0.2408 -1.8795 -0.9350
 7109SOL     OW32785   3.216   2.228  11.871  0.3953 -0.0932 -0.0433
 7109SOL    HW132786   3.206   2.322  11.859 -1.7690 -0.4959 -1.4942
 7109SOL    HW232787   3.128   2.197  11.894  0.1021  1.8132  1.4010
 7110SOL     OW32788   1.410   3.994  13.676 -0.0441  0.1566  0.1289
 7110SOL    HW132789   1.499   4.030  13.679  0.5027 -1.1556 -0.3502
 7110SOL    HW232790   1.400   3.960  13.765 -2.1182 -0.4976 -0.3533
 7111SOL     OW32791   0.446   4.512   5.495  0.4883  0.4627 -0.2470
 7111SOL    HW132792   0.406   4.588   5.451  0.6000 -0.9793 -2.8680
 7111SOL    HW232793   0.360   4.474   5.512  0.0883  0.7094 -1.6680
 7112SOL     OW32794   4.228   3.960   8.384 -0.0069  0.0194  0.1088
 7112SOL    HW132795   4.152   3.906   8.403 -0.1009  0.6558  1.5341
 7112SOL    HW232796   4.207   3.979   8.292 -0.6854  1.6433  0.6007
 7113SOL     OW32797   1.042   3.174  15.723 -0.7386 -0.6074 -0.3101
 7113SOL    HW132798   1.017   3.107  15.787  0.9788  0.5710  1.6027
 7113SOL    HW232799   1.097   3.236  15.770 -0.8042 -0.2342 -0.7266
 7114SOL     OW32800   0.245   1.026   6.372 -0.2675  0.8388  0.5760
 7114SOL    HW132801   0.289   0.941   6.363 -0.1375  0.7596  1.9352
 7114SOL    HW232802   0.249   1.045   6.466 -2.4749  1.1731  0.6050
 7115SOL     OW32803   1.709   0.904   4.516  0.0706 -0.2365  0.0794
 7115SOL    HW132804   1.766   0.828   4.522  0.3742 -0.0891 -1.0204
 7115SOL    HW232805   1.650   0.875   4.586 -1.4622 -0.1685 -1.1911
 7116SOL     OW32806   3.504   3.920   4.355 -0.6744 -0.4706 -0.2089
 7116SOL    HW132807   3.511   3.926   4.450 -0.0480  2.3197 -0.4425
 7116SOL    HW232808   3.409   3.907   4.347 -0.5915 -0.7846 -0.6355
 7117SOL     OW32809   0.404   2.906  12.536  0.2358  0.4987  0.0029
 7117SOL    HW132810   0.447   2.880  12.455  0.2715 -1.7710  0.7478
 7117SOL    HW232811   0.392   2.999  12.517  1.0008  0.6863  0.4146
 7118SOL     OW32812   0.502   1.224   4.054  0.6530  0.1920  0.2245
 7118SOL    HW132813   0.485   1.319   4.052  0.4733  0.1871  1.2745
 7118SOL    HW232814   0.472   1.195   4.140 -0.4801 -1.1129 -0.6139
 7119SOL     OW32815   3.697   0.151  17.073 -0.5292  0.4874 -0.5127
 7119SOL    HW132816   3.710   0.207  17.149 -1.8361  1.2837 -0.8733
 7119SOL    HW232817   3.716   0.065  17.112 -1.8178  1.6160  2.5467
 7120SOL     OW32818   2.928   0.323  13.382 -0.2797 -0.1765 -0.2100
 7120SOL    HW132819   2.849   0.333  13.330 -2.0031  2.2995  2.9026
 7120SOL    HW232820   2.977   0.395  13.342 -1.7495  0.3502 -1.0565
 7121SOL     OW32821   2.240   2.813   6.375  0.2389 -0.7659  0.6318
 7121SOL    HW132822   2.179   2.776   6.312  1.1002 -0.3628 -0.4336
 7121SOL    HW232823   2.278   2.874   6.311  0.2357 -0.1668  1.2005
 7122SOL     OW32824   0.417   2.822   3.848 -0.1003 -0.2499 -0.0997
 7122SOL    HW132825   0.411   2.757   3.917  0.6472  1.1252  1.2531
 7122SOL    HW232826   0.331   2.865   3.852 -0.7047 -1.4158 -0.6464
 7123SOL     OW32827   3.360   4.071   3.160  0.0436  0.6147 -0.0473
 7123SOL    HW132828   3.359   3.976   3.153  0.2547  0.6058  0.0379
 7123SOL    HW232829   3.331   4.085   3.250 -0.1476 -0.3486  0.0371
 7124SOL     OW32830   0.888   2.047   4.078 -0.5637  0.4548  0.4150
 7124SOL    HW132831   0.917   2.138   4.075 -1.5992  0.8812  3.3418
 7124SOL    HW232832   0.955   2.018   4.015 -1.2579 -0.5196  0.1341
 7125SOL     OW32833   0.612   2.938   2.180 -0.3022 -0.2541 -0.0007
 7125SOL    HW132834   0.693   2.895   2.150  0.4996 -1.1478  3.4844
 7125SOL    HW232835   0.620   3.022   2.134  1.9449 -0.0240  0.7761
 7126SOL     OW32836   1.411   2.251   2.269  0.5368 -0.7482  0.1214
 7126SOL    HW132837   1.345   2.194   2.230  2.3019 -0.6929 -3.0235
 7126SOL    HW232838   1.416   2.323   2.206 -0.8977 -2.2724 -1.7545
 7127SOL     OW32839   0.689   2.171   6.177 -0.2933 -0.6798 -0.0642
 7127SOL    HW132840   0.613   2.127   6.215 -1.6064  1.2861 -0.4137
 7127SOL    HW232841   0.672   2.261   6.205  2.9334 -0.1337  0.1898
 7128SOL     OW32842   3.378   3.299   6.309  0.2427  0.0271 -0.7617
 7128SOL    HW132843   3.404   3.368   6.247 -1.3222  0.5628 -0.8312
 7128SOL    HW232844   3.377   3.344   6.393  0.3294 -0.5641 -0.4428
 7129SOL     OW32845   0.415   3.854   6.823 -0.2675  0.2673 -0.6507
 7129SOL    HW132846   0.412   3.941   6.862  1.4623  1.3373 -2.8534
 7129SOL    HW232847   0.509   3.859   6.840 -0.3977 -2.8303  0.8105
 7130SOL     OW32848   3.429   4.652   9.748 -0.1936 -0.2588 -0.0603
 7130SOL    HW132849   3.359   4.674   9.809 -0.2982  0.4403 -0.4260
 7130SOL    HW232850   3.380   4.642   9.666  0.2788 -0.7198 -0.2908
 7131SOL     OW32851   3.391   3.031  13.419  0.1856 -0.3611  0.0826
 7131SOL    HW132852   3.332   3.055  13.490 -0.7243  0.7073 -1.0316
 7131SOL    HW232853   3.327   3.043  13.349 -1.2181 -0.8211  1.2842
 7132SOL     OW32854   2.861   1.956   8.746  0.1470 -0.3453  0.2640
 7132SOL    HW132855   2.860   1.926   8.655 -0.5604  1.3365 -0.2798
 7132SOL    HW232856   2.936   2.014   8.733  0.1132  0.0340  1.7297
 7133SOL     OW32857   0.440   1.501   3.985  0.3530  0.5577  0.1772
 7133SOL    HW132858   0.368   1.477   4.043  0.8532  0.8621  0.9189
 7133SOL    HW232859   0.408   1.498   3.895  0.8443  0.6478 -0.0049
 7134SOL     OW32860   3.375   2.191  16.750 -0.6476 -0.2465 -0.1562
 7134SOL    HW132861   3.318   2.249  16.699 -1.4652  0.6403  1.7493
 7134SOL    HW232862   3.381   2.114  16.693  1.3867 -0.9245  0.9737
 7135SOL     OW32863   1.027   3.851   6.905  0.3035 -0.0284  0.5532
 7135SOL    HW132864   1.068   3.840   6.991 -1.1268 -0.0872  1.2189
 7135SOL    HW232865   1.012   3.945   6.895  1.3353  0.1083  0.2878
 7136SOL     OW32866   2.701   4.083   9.535  0.0441 -0.0986 -0.1867
 7136SOL    HW132867   2.723   4.145   9.605  0.4104 -2.2524  1.6282
 7136SOL    HW232868   2.787   4.045   9.516 -1.0794 -2.1174 -1.2073
 7137SOL     OW32869   0.579   2.210   4.955  0.1209 -0.4101 -0.1943
 7137SOL    HW132870   0.519   2.138   4.975  0.6093 -0.5353  0.7756
 7137SOL    HW232871   0.630   2.171   4.884 -0.2533  3.0942 -2.4302
 7138SOL     OW32872   2.066   1.042  13.980  0.1903  0.3165 -0.0007
 7138SOL    HW132873   2.121   1.018  14.055  1.5051  2.6339 -0.2096
 7138SOL    HW232874   1.982   0.998  13.991  0.0862  1.1022  2.4047
 7139SOL     OW32875   4.358   1.968   4.114  0.1572 -0.2015  0.3743
 7139SOL    HW132876   4.309   2.045   4.140  0.1311  0.5192 -1.8423
 7139SOL    HW232877   4.394   1.942   4.199  1.2705 -3.8611 -1.2026
 7140SOL     OW32878   3.265   0.373   7.268  0.4462  0.4138  0.6611
 7140SOL    HW132879   3.295   0.291   7.227 -1.5015 -0.7740  1.6105
 7140SOL    HW232880   3.240   0.356   7.359  4.0952 -1.2200  1.3530
 7141SOL     OW32881   1.276   4.272   6.321 -0.0290 -0.0180  0.3402
 7141SOL    HW132882   1.258   4.318   6.402 -1.0398 -0.2124  0.2288
 7141SOL    HW232883   1.353   4.219   6.339  1.2814  1.8720  0.2656
 7142SOL     OW32884   4.641   3.861   9.198  0.7554 -0.2708 -0.1612
 7142SOL    HW132885   4.589   3.938   9.175  0.2052 -0.6187 -0.0743
 7142SOL    HW232886   4.574   3.806   9.238 -0.9731  0.9097 -1.4227
 7143SOL     OW32887   4.204   2.821   8.468  0.2578 -0.1660  0.4125
 7143SOL    HW132888   4.162   2.763   8.405 -0.5556 -0.3219  1.1035
 7143SOL    HW232889   4.296   2.793   8.467  0.1169 -0.6681  1.0144
 7144SOL     OW32890   0.432   0.047   4.443 -0.0414  0.2212 -0.3956
 7144SOL    HW132891   0.499   0.013   4.384 -0.3727  1.1085 -1.2808
 7144SOL    HW232892   0.353   4.720   4.423 -1.1571  1.5249  0.7299
 7145SOL     OW32893   0.640   3.653   8.904 -1.0001  0.6502 -0.6901
 7145SOL    HW132894   0.714   3.593   8.916 -1.2449  0.4068 -0.3852
 7145SOL    HW232895   0.680   3.719   8.848  3.1957 -0.3442  1.1380
 7146SOL     OW32896   0.223   0.794   8.622 -0.3062 -0.2631  0.2958
 7146SOL    HW132897   0.230   0.727   8.555 -1.4687  1.4733 -1.5498
 7146SOL    HW232898   0.159   0.749   8.677 -2.3915  2.1376 -0.1476
 7147SOL     OW32899   3.946   1.508  11.723  0.7562 -0.1050  0.6325
 7147SOL    HW132900   4.014   1.514  11.790  0.0876  1.0259  1.1942
 7147SOL    HW232901   3.871   1.490  11.779  0.2878  0.2786  0.1226
 7148SOL     OW32902   2.702   2.507   0.861  0.6745 -0.2775 -0.1228
 7148SOL    HW132903   2.644   2.581   0.844  2.4150  1.3670  1.0697
 7148SOL    HW232904   2.755   2.514   0.782 -1.3524 -0.2050 -1.4500
 7149SOL     OW32905   1.280   3.022   8.025 -0.0817 -0.1022 -0.3169
 7149SOL    HW132906   1.247   2.936   8.053  0.1832  0.5098  1.8910
 7149SOL    HW232907   1.246   3.077   8.094 -1.1742  2.7237 -3.1262
 7150SOL     OW32908   2.601   0.218   7.408  0.1957  0.1776 -0.0228
 7150SOL    HW132909   2.610   0.235   7.314  0.3075  2.7550  0.4639
 7150SOL    HW232910   2.650   0.136   7.415 -0.5773 -0.1008  2.1030
 7151SOL     OW32911   2.988   0.531   8.367  0.0424 -0.4583  0.7648
 7151SOL    HW132912   2.930   0.583   8.311  0.2413  0.2061  1.1700
 7151SOL    HW232913   3.032   0.470   8.307 -0.3532 -0.0757  0.0845
 7152SOL     OW32914   2.003   1.922   7.287 -0.2451 -0.2311 -0.6678
 7152SOL    HW132915   1.989   1.934   7.193  1.1343 -0.3235 -0.8801
 7152SOL    HW232916   1.919   1.963   7.309 -0.8090 -1.0264 -1.3456
 7153SOL     OW32917   3.718   1.209  16.600  0.3268 -0.0922 -0.0282
 7153SOL    HW132918   3.769   1.260  16.663 -2.2114  0.3157  1.7090
 7153SOL    HW232919   3.771   1.130  16.594  0.3564 -0.2366  2.2442
 7154SOL     OW32920   0.419   2.821   8.707  0.0381  0.4944 -0.0225
 7154SOL    HW132921   0.474   2.803   8.783  0.0662  2.6200  0.4569
 7154SOL    HW232922   0.358   2.890   8.732 -2.3273 -1.8320  0.7059
 7155SOL     OW32923   1.997   3.971   2.634  0.5885  0.2406 -0.0115
 7155SOL    HW132924   2.034   3.981   2.722 -0.8801 -0.3037  0.6772
 7155SOL    HW232925   1.934   3.899   2.648  0.0202  0.5056 -1.2429
 7156SOL     OW32926   4.469   1.690   7.008 -0.6306 -0.0652  0.2450
 7156SOL    HW132927   4.539   1.654   7.062 -2.8132 -3.0695  1.0887
 7156SOL    HW232928   4.488   1.783   6.998 -0.8625 -0.1718 -1.2033
 7157SOL     OW32929   0.922   2.155   9.726 -1.0067  0.0459  0.0575
 7157SOL    HW132930   0.841   2.141   9.774  0.0015 -0.6678  1.5523
 7157SOL    HW232931   0.888   2.148   9.637  1.0102 -1.5683 -0.5799
 7158SOL     OW32932   2.789   4.219  13.189  0.7930  0.0486  0.4620
 7158SOL    HW132933   2.856   4.234  13.122  0.7445 -1.5299  0.0771
 7158SOL    HW232934   2.829   4.150  13.241  1.5374 -0.8424 -1.2879
 7159SOL     OW32935   2.869   1.982   2.524  0.3883  0.1654  0.0992
 7159SOL    HW132936   2.901   1.958   2.610 -0.0748  0.4049  0.3386
 7159SOL    HW232937   2.782   1.943   2.513  1.7215 -3.1012  1.1760
 7160SOL     OW32938   3.826   2.939  17.671  0.0853 -0.8496  0.2940
 7160SOL    HW132939   3.798   2.868   0.034 -0.3961 -0.8052  0.1122
 7160SOL    HW232940   3.854   2.888  17.595  1.2710 -1.1772  0.9600
 7161SOL     OW32941   1.607   1.266   8.508 -0.5599  0.1237  0.1504
 7161SOL    HW132942   1.675   1.199   8.497 -0.4961  0.4823 -1.6173
 7161SOL    HW232943   1.649   1.346   8.477  0.2301  0.0568  1.0321
 7162SOL     OW32944   4.389   3.884   5.660  0.4271  0.1802  0.2734
 7162SOL    HW132945   4.390   3.829   5.739  2.1357  0.2375  0.2762
 7162SOL    HW232946   4.389   3.809   5.600 -0.4311 -0.7205  1.3758
 7163SOL     OW32947   4.204   1.614   2.575 -0.4660 -0.3412  0.5325
 7163SOL    HW132948   4.157   1.530   2.575 -1.1322  0.0158 -2.2959
 7163SOL    HW232949   4.297   1.596   2.584 -0.1050  1.1610 -0.2179
 7164SOL     OW32950   0.419   1.700   8.652  0.1854 -0.1924  0.4827
 7164SOL    HW132951   0.364   1.765   8.695 -0.1799 -0.1935  0.0239
 7164SOL    HW232952   0.496   1.713   8.707  0.1321 -0.1599  0.5499
 7165SOL     OW32953   3.851   2.496   1.932 -0.9828  0.0401  0.9051
 7165SOL    HW132954   3.827   2.494   1.839 -0.0769 -0.3011  0.6758
 7165SOL    HW232955   3.774   2.537   1.970 -0.6830  1.0153  0.4491
 7166SOL     OW32956   0.065   3.132   0.443  0.1575  0.5431  0.6038
 7166SOL    HW132957   4.705   3.087   0.461 -0.2155  0.4555 -1.3249
 7166SOL    HW232958   0.031   3.216   0.475 -0.1704  0.3168  0.8476
 7167SOL     OW32959   3.391   2.659   7.659  0.0762 -0.1117 -0.0354
 7167SOL    HW132960   3.333   2.661   7.583 -0.5185  0.4567  0.4386
 7167SOL    HW232961   3.476   2.667   7.615  1.0112 -0.7263  1.6502
 7168SOL     OW32962   4.340   4.177   3.684 -0.4347 -0.0267  0.6598
 7168SOL    HW132963   4.320   4.098   3.734 -0.4356 -1.1068 -1.0526
 7168SOL    HW232964   4.435   4.184   3.690 -0.5124  2.9062 -1.8298
 7169SOL     OW32965   0.659   3.871   2.921 -0.0168  0.1202  0.1573
 7169SOL    HW132966   0.648   3.817   2.999 -1.1576  0.9348  0.5724
 7169SOL    HW232967   0.729   3.932   2.947 -1.8047  1.2814  2.1777
 7170SOL     OW32968   0.431   3.567   5.945 -0.1012 -0.1754  0.3092
 7170SOL    HW132969   0.378   3.604   5.874 -0.3644 -1.2046 -0.0331
 7170SOL    HW232970   0.499   3.634   5.956  0.3944 -1.0561  2.6315
 7171SOL     OW32971   0.018   3.151   7.965  0.0987  0.9602  0.1891
 7171SOL    HW132972   0.088   3.125   7.905 -1.1984 -1.6953 -0.1531
 7171SOL    HW232973   0.058   3.156   8.052  0.9264 -1.5364 -0.0683
 7172SOL     OW32974   3.183   3.607   6.410  0.0757  0.0074  0.2523
 7172SOL    HW132975   3.225   3.541   6.465 -1.0318 -2.6821 -2.1369
 7172SOL    HW232976   3.224   3.690   6.434 -0.1012  0.1800 -0.0433
 7173SOL     OW32977   0.270   0.432   1.993 -0.5330  0.0708 -0.0597
 7173SOL    HW132978   0.342   0.383   2.033 -0.7013  1.0002  1.3718
 7173SOL    HW232979   0.259   0.499   2.061 -0.1851 -0.2454  0.3135
 7174SOL     OW32980   1.107   1.895   6.259  0.1002 -0.5870 -0.0953
 7174SOL    HW132981   1.148   1.913   6.344  0.7496 -0.5032 -0.4308
 7174SOL    HW232982   1.181   1.860   6.210 -0.0640 -0.2521 -0.5769
 7175SOL     OW32983   2.690   2.207  17.216 -0.0367 -0.0938  0.1033
 7175SOL    HW132984   2.689   2.300  17.239 -0.7948 -0.0462 -0.1279
 7175SOL    HW232985   2.690   2.160  17.300 -0.6844  2.2286  1.4147
 7176SOL     OW32986   4.151   2.513   0.683 -0.0905 -0.0658 -0.0795
 7176SOL    HW132987   4.206   2.434   0.692 -0.6944 -0.5316 -0.4805
 7176SOL    HW232988   4.189   2.555   0.606 -1.2439 -0.5527 -0.9098
 7177SOL     OW32989   3.684   3.934   3.907 -0.1184  0.2510 -0.0601
 7177SOL    HW132990   3.710   3.859   3.961  4.3569  2.4218  0.7382
 7177SOL    HW232991   3.760   3.935   3.850  1.3903 -2.2670  1.9017
 7178SOL     OW32992   2.585   0.997   2.781 -0.1722  0.3504  0.1842
 7178SOL    HW132993   2.656   0.975   2.720  0.6740  1.0863  0.8867
 7178SOL    HW232994   2.609   1.089   2.794  0.3228  0.4176 -1.1873
 7179SOL     OW32995   2.037   1.059   7.920  0.4279 -0.0848  0.2696
 7179SOL    HW132996   2.009   1.000   7.991 -0.5821 -0.1196 -0.1659
 7179SOL    HW232997   1.976   1.132   7.927  0.0306 -0.3903 -0.0554
 7180SOL     OW32998   4.607   0.026   8.671 -0.2200  0.3817  0.0799
 7180SOL    HW132999   4.562   4.666   8.656  0.1581  0.3234 -0.7840
 7180SOL    HW233000   4.682   4.718   8.722  0.7299  0.6136 -1.1821
 7181SOL     OW33001   4.500   1.982   7.142  0.3350 -0.0513  0.1767
 7181SOL    HW133002   4.593   1.966   7.156  0.0116 -0.3377  2.0861
 7181SOL    HW233003   4.500   1.982   7.046  2.4358  1.2719  0.1771
 7182SOL     OW33004   3.314   4.541   7.108  0.5419 -0.5520 -0.3875
 7182SOL    HW133005   3.318   4.620   7.055  1.2626 -0.5982 -0.3957
 7182SOL    HW233006   3.257   4.569   7.179  0.2893 -0.3944 -0.6511
 7183SOL     OW33007   2.070   0.779   2.828  0.1381  0.1814 -0.2981
 7183SOL    HW133008   2.068   0.684   2.832 -1.3680  0.2306  0.0952
 7183SOL    HW233009   2.141   0.803   2.768 -1.1489  3.2273 -0.6109
 7184SOL     OW33010   2.927   0.589   1.155 -0.2892 -0.1476  0.0234
 7184SOL    HW133011   2.993   0.650   1.123 -1.6319  1.3792  0.1314
 7184SOL    HW233012   2.872   0.643   1.212 -0.8410  0.0710 -0.7176
 7185SOL     OW33013   0.009   1.477   4.619 -0.2686 -0.0831  0.3482
 7185SOL    HW133014   4.668   1.506   4.554  0.8389  1.1380 -0.2015
 7185SOL    HW233015   4.721   1.540   4.690  0.8634  0.5552 -0.0419
 7186SOL     OW33016   3.828   1.762   4.751 -0.2888  0.2833  1.2072
 7186SOL    HW133017   3.749   1.810   4.777 -0.1361  0.7870  0.7338
 7186SOL    HW233018   3.886   1.769   4.826 -0.2547 -0.1538  1.2214
 7187SOL     OW33019   1.829   3.524   2.399  0.8298  0.2913  0.4425
 7187SOL    HW133020   1.841   3.553   2.308 -0.2843 -0.2057  0.1401
 7187SOL    HW233021   1.845   3.431   2.383  1.1189  0.6420 -1.3502
 7188SOL     OW33022   0.558   4.684  15.216 -0.0616 -0.1982  0.5765
 7188SOL    HW133023   0.491   4.620  15.241 -2.2669  0.1776 -4.4030
 7188SOL    HW233024   0.513   4.723  15.141  1.3400  1.0102  0.3742
 7189SOL     OW33025   3.350   1.698   4.192  0.3879  0.2896  0.1657
 7189SOL    HW133026   3.392   1.775   4.232 -0.1330  0.4577  0.3831
 7189SOL    HW233027   3.326   1.735   4.107 -2.7109 -0.1566  0.8391
 7190SOL     OW33028   1.718   3.114   2.864  0.4266 -0.0866 -0.3832
 7190SOL    HW133029   1.717   3.186   2.801 -0.5190  1.2970  1.2058
 7190SOL    HW233030   1.723   3.174   2.939 -0.0626 -1.5203  0.7923
 7191SOL     OW33031   4.292   4.614  16.455 -1.0112  0.3411 -0.2478
 7191SOL    HW133032   4.233   4.556  16.503  0.7523 -0.2622  1.2348
 7191SOL    HW233033   4.379   4.604  16.495 -0.2909 -0.8622 -2.0842
 7192SOL     OW33034   2.400   1.004   1.234  0.3667 -0.3388  0.0872
 7192SOL    HW133035   2.437   0.922   1.202 -1.6800 -1.7538  1.3870
 7192SOL    HW233036   2.442   1.063   1.172 -0.5940  1.5971  1.2804
 7193SOL     OW33037   2.245   1.771   1.711  0.2057  0.7949  0.1438
 7193SOL    HW133038   2.249   1.692   1.657  1.2900  1.6409 -1.0081
 7193SOL    HW233039   2.282   1.835   1.650  0.0195  1.4776  0.7433
 7194SOL     OW33040   2.733   2.843  15.035  0.8912 -0.2921 -0.5869
 7194SOL    HW133041   2.737   2.796  14.952  0.6692  1.2387 -1.4649
 7194SOL    HW233042   2.801   2.802  15.090  1.7578  1.3931 -0.3972
 7195SOL     OW33043   2.025   4.091   9.270 -0.2890  0.1440  0.0658
 7195SOL    HW133044   2.056   4.031   9.337 -0.6134 -0.9671 -0.7858
 7195SOL    HW233045   2.083   4.164   9.291  0.0304 -0.2690  0.6263
 7196SOL     OW33046   3.523   4.285   4.628 -0.4787 -0.3408 -0.3276
 7196SOL    HW133047   3.575   4.363   4.648 -1.3554  0.1100  0.1975
 7196SOL    HW233048   3.435   4.312   4.653 -0.1989 -0.3099  0.6335
 7197SOL     OW33049   4.233   1.718  16.818  0.2380 -0.1419 -0.3384
 7197SOL    HW133050   4.211   1.781  16.887  2.3044  0.3646 -0.1315
 7197SOL    HW233051   4.219   1.635  16.863  0.1233 -0.0260 -0.1613
 7198SOL     OW33052   2.547   0.317   2.281  0.6341  0.4161 -0.2792
 7198SOL    HW133053   2.513   0.347   2.366  0.8099  0.8570 -0.3667
 7198SOL    HW233054   2.637   0.350   2.286  0.1150  1.1735  4.2080
 7199SOL     OW33055   4.489   0.275   7.036  0.1187 -0.3676  0.4916
 7199SOL    HW133056   4.577   0.313   7.032 -0.8470  1.9625  1.5535
 7199SOL    HW233057   4.463   0.318   7.117 -0.7000  1.8392 -0.9471
 7200SOL     OW33058   2.653   0.318   8.837 -0.7151  0.3657 -0.2400
 7200SOL    HW133059   2.667   0.378   8.764  0.0097  0.4449 -0.0442
 7200SOL    HW233060   2.559   0.316   8.820 -0.8734  2.0036  0.4105
 7201SOL     OW33061   3.612   1.342   6.807 -0.1422  1.0978 -0.2590
 7201SOL    HW133062   3.586   1.320   6.897  1.1596  1.9507  0.3167
 7201SOL    HW233063   3.629   1.251   6.781 -0.8192  0.8858  0.0196
 7202SOL     OW33064   3.759   2.656   9.803 -0.5848 -0.4073  0.1621
 7202SOL    HW133065   3.823   2.669   9.873  1.5404 -2.2349 -1.4770
 7202SOL    HW233066   3.785   2.577   9.757  2.0737  0.9692 -0.7068
 7203SOL     OW33067   0.643   0.692   6.444 -0.3292 -0.2440 -0.0695
 7203SOL    HW133068   0.736   0.671   6.448 -0.1104  0.9401  0.8138
 7203SOL    HW233069   0.622   0.649   6.361  1.6351 -0.1142 -0.6204
 7204SOL     OW33070   1.614   3.491   5.727  0.1745  0.3583  0.1906
 7204SOL    HW133071   1.588   3.583   5.722  2.0246  0.8853  0.1790
 7204SOL    HW233072   1.695   3.492   5.676  1.9016  0.0001  2.9300
 7205SOL     OW33073   0.633   3.756   2.671  0.7618  0.3521 -0.0329
 7205SOL    HW133074   0.662   3.780   2.759 -1.3872  1.1910  0.4367
 7205SOL    HW233075   0.638   3.661   2.662  0.2432  0.3068  0.1994
 7206SOL     OW33076   1.724   2.052   8.716 -0.8068 -0.0109  0.1437
 7206SOL    HW133077   1.697   2.024   8.803  0.7165 -0.1480  0.5810
 7206SOL    HW233078   1.645   2.100   8.695 -0.8504 -0.0715  0.1686
 7207SOL     OW33079   1.511   1.760   1.090 -0.1481  0.5014  0.3221
 7207SOL    HW133080   1.459   1.717   1.022  0.1624 -0.3288  0.6091
 7207SOL    HW233081   1.443   1.759   1.158 -2.5844  0.9664 -2.1087
 7208SOL     OW33082   3.626   2.610   2.045 -0.2274 -0.3489 -0.9146
 7208SOL    HW133083   3.577   2.614   2.127  0.1255 -2.4077 -0.5934
 7208SOL    HW233084   3.667   2.696   2.040 -1.2058  0.1628 -0.1979
 7209SOL     OW33085   3.477   0.361   6.227 -0.2712  0.8311  0.1586
 7209SOL    HW133086   3.417   0.376   6.300  0.3792 -0.5165  0.9744
 7209SOL    HW233087   3.468   0.442   6.177  2.0626  0.7377 -0.4087
 7210SOL     OW33088   2.399   2.260   5.125  0.6459  1.2487 -0.1585
 7210SOL    HW133089   2.476   2.298   5.167  1.4023  1.1338 -1.4438
 7210SOL    HW233090   2.372   2.196   5.191  1.3502 -1.0779 -2.1024
 7211SOL     OW33091   1.652   0.147   8.015 -0.5168  0.0310 -0.0678
 7211SOL    HW133092   1.739   0.163   8.049 -0.8211 -2.0168  1.6659
 7211SOL    HW233093   1.603   0.205   8.073 -1.3906 -0.0441 -0.7245
 7212SOL     OW33094   3.573   1.556   7.370  0.6066 -0.4079  0.1160
 7212SOL    HW133095   3.509   1.579   7.302 -0.1095 -1.6113  0.3894
 7212SOL    HW233096   3.547   1.605   7.448  0.5931  0.0030 -0.1465
 7213SOL     OW33097   2.649   1.666  15.230 -0.2093 -0.2325  0.1681
 7213SOL    HW133098   2.692   1.627  15.307  1.1376 -2.3781 -1.6664
 7213SOL    HW233099   2.723   1.673  15.169  1.6021 -0.6244  2.2797
 7214SOL     OW33100   0.969   1.047   3.895 -0.1437 -0.2358  0.2332
 7214SOL    HW133101   1.019   1.069   3.816  0.5005 -1.1816  0.3717
 7214SOL    HW233102   0.893   1.105   3.895 -1.5055 -2.0449  1.6449
 7215SOL     OW33103   3.955   0.234   5.828  0.2492  0.1794 -0.4880
 7215SOL    HW133104   3.937   0.224   5.921  0.6793 -1.9669 -0.6365
 7215SOL    HW233105   3.974   0.328   5.828 -2.4112  0.7163  0.1618
 7216SOL     OW33106   2.576   3.001  10.270  0.3309  0.2283 -0.3857
 7216SOL    HW133107   2.574   2.928  10.332  0.0131  0.8761  0.3596
 7216SOL    HW233108   2.501   3.055  10.296 -1.7315 -2.5547 -0.5507
 7217SOL     OW33109   3.037   0.434   3.808  0.1760 -0.5092  0.0327
 7217SOL    HW133110   2.956   0.382   3.802  0.6765 -0.8876 -3.2650
 7217SOL    HW233111   3.049   0.464   3.718  3.9154  2.1155  1.4274
 7218SOL     OW33112   0.401   2.950  11.372 -0.0288  0.2278 -0.5607
 7218SOL    HW133113   0.439   2.862  11.368 -0.1278  0.2503 -2.0655
 7218SOL    HW233114   0.481   2.984  11.411  0.8424 -0.8403 -1.4121
 7219SOL     OW33115   2.226   3.188   3.555 -0.0147 -0.5435 -0.0663
 7219SOL    HW133116   2.294   3.174   3.621 -1.6272  0.1613  1.7823
 7219SOL    HW233117   2.283   3.234   3.494 -0.9634  0.3266 -0.3000
 7220SOL     OW33118   1.555   4.516   1.916  0.2135  0.1690  0.5415
 7220SOL    HW133119   1.643   4.553   1.912  0.7586 -1.2167 -0.6727
 7220SOL    HW233120   1.573   4.427   1.947  0.1299 -1.5112 -4.1854
 7221SOL     OW33121   0.364   3.030   6.349  0.5974  0.3159  0.3689
 7221SOL    HW133122   0.337   3.077   6.270  2.2610 -1.4650 -1.2653
 7221SOL    HW233123   0.348   3.095   6.418  0.2821  1.8489 -1.1457
 7222SOL     OW33124   3.064   4.317   9.781 -0.0901 -0.3799  0.6508
 7222SOL    HW133125   2.987   4.263   9.800  1.1703 -2.2624  0.4146
 7222SOL    HW233126   3.137   4.255   9.784  0.3473  0.1246  0.3155
 7223SOL     OW33127   2.261   3.457  12.472 -0.1865 -0.0588 -0.4061
 7223SOL    HW133128   2.226   3.532  12.423  1.7864  0.2286 -1.3967
 7223SOL    HW233129   2.179   3.429  12.512 -0.6619 -0.6622 -1.7933
 7224SOL     OW33130   0.248   3.350   3.606 -0.0691 -0.5536  0.4270
 7224SOL    HW133131   0.301   3.355   3.527  1.1681 -2.5029  1.1247
 7224SOL    HW233132   0.324   3.331   3.661  0.4490  0.1869 -0.0480
 7225SOL     OW33133   0.383   1.554   7.766  0.3465  0.5882 -0.4574
 7225SOL    HW133134   0.340   1.639   7.772 -0.4483  0.1311  0.3478
 7225SOL    HW233135   0.416   1.545   7.855  0.0393  1.6493 -0.2347
 7226SOL     OW33136   0.317   3.970   2.948  0.2109 -0.1579 -0.1109
 7226SOL    HW133137   0.315   4.065   2.960  0.7880 -0.6754  3.9784
 7226SOL    HW233138   0.305   3.967   2.853 -2.2065 -0.3120  0.1994
 7227SOL     OW33139   2.051   3.499   4.403  0.0605 -0.2183  0.4708
 7227SOL    HW133140   2.005   3.559   4.462 -1.1674 -1.1731  0.4942
 7227SOL    HW233141   2.131   3.481   4.454  1.4068  2.0777 -0.8517
 7228SOL     OW33142   0.392   1.835   0.875  0.4252  0.6818 -0.0490
 7228SOL    HW133143   0.313   1.856   0.926 -0.0785  2.0605 -1.3903
 7228SOL    HW233144   0.403   1.923   0.839  1.4071  1.2946  1.6951
 7229SOL     OW33145   3.343   0.572   3.207  0.2956  0.4925  0.2252
 7229SOL    HW133146   3.387   0.506   3.261 -0.3309 -0.9397 -1.0336
 7229SOL    HW233147   3.254   0.543   3.223  0.8450 -0.3937  1.6925
 7230SOL     OW33148   2.144   0.543   8.770  1.1686  0.1829 -0.3379
 7230SOL    HW133149   2.064   0.596   8.775  0.6606 -0.4468 -1.8617
 7230SOL    HW233150   2.126   0.489   8.847 -1.4018 -0.0360 -1.0914
 7231SOL     OW33151   4.277   4.331  12.681  0.0828  0.4648  0.1454
 7231SOL    HW133152   4.326   4.347  12.601 -0.3030  0.2868 -0.1240
 7231SOL    HW233153   4.286   4.236  12.693  0.7469  0.6726  1.3010
 7232SOL     OW33154   4.569   3.761   6.892 -1.0717  0.3641  0.0876
 7232SOL    HW133155   4.534   3.673   6.907 -1.9749  0.7392  0.1403
 7232SOL    HW233156   4.493   3.819   6.887  0.2294  2.0724  0.1482
 7233SOL     OW33157   2.627   1.238   3.338  0.1715  0.0931  0.2706
 7233SOL    HW133158   2.681   1.160   3.328 -0.4864 -0.2881 -0.3693
 7233SOL    HW233159   2.594   1.212   3.425  2.0859 -1.6297  0.4631
 7234SOL     OW33160   4.060   1.858   6.770  0.2545 -0.1072 -0.1518
 7234SOL    HW133161   4.031   1.839   6.681  1.0684  1.2474 -0.7023
 7234SOL    HW233162   4.155   1.849   6.759  0.0797 -1.6866 -0.3818
 7235SOL     OW33163   0.336   0.004   5.361  0.0923  0.0521 -0.4084
 7235SOL    HW133164   0.270   0.064   5.327 -1.4491 -0.5756  1.4835
 7235SOL    HW233165   0.404   0.056   5.403 -0.4143 -0.8276  1.5058
 7236SOL     OW33166   2.236   2.702   3.261  0.0317  0.1467 -0.2836
 7236SOL    HW133167   2.146   2.699   3.229 -0.3120  0.4900  0.6780
 7236SOL    HW233168   2.283   2.708   3.177 -1.0818  0.3398 -0.8877
 7237SOL     OW33169   4.009   1.804   3.856  0.6290 -0.0886 -0.3448
 7237SOL    HW133170   4.095   1.779   3.889 -0.1757 -0.0689  1.7990
 7237SOL    HW233171   3.989   1.887   3.899  1.7148  0.7117 -1.3625
 7238SOL     OW33172   1.314   2.241   2.869 -0.4579 -0.3266 -0.0040
 7238SOL    HW133173   1.294   2.293   2.946  0.6057  1.5895 -1.0080
 7238SOL    HW233174   1.231   2.194   2.871 -0.4262 -0.4303 -1.0476
 7239SOL     OW33175   0.028   3.172   6.453  0.1621 -0.0320 -0.3390
 7239SOL    HW133176   0.035   3.253   6.404 -0.4132  1.4452  2.0381
 7239SOL    HW233177   0.061   3.108   6.389  2.3522  0.3709  0.3771
 7240SOL     OW33178   2.307   2.757  15.133  0.0578  0.3670 -0.3520
 7240SOL    HW133179   2.397   2.730  15.154 -0.6674 -2.8780 -1.3989
 7240SOL    HW233180   2.320   2.798  15.048 -0.5266  2.2236  0.4484
 7241SOL     OW33181   1.320   1.002   2.139  0.5210  0.5296  0.4751
 7241SOL    HW133182   1.315   0.924   2.195 -0.7524 -1.2717 -2.1585
 7241SOL    HW233183   1.229   1.028   2.156  0.4550  0.2349  0.5833
 7242SOL     OW33184   2.586   2.213   6.076 -0.5723 -0.2312  0.0600
 7242SOL    HW133185   2.580   2.138   6.136  1.1354 -1.9730 -1.9221
 7242SOL    HW233186   2.568   2.283   6.139  0.7394 -2.1714  2.6052
 7243SOL     OW33187   2.337   4.056   2.011 -0.3334 -0.6002  0.2706
 7243SOL    HW133188   2.399   4.121   1.978 -1.6299  2.1842  3.3890
 7243SOL    HW233189   2.295   4.105   2.082  2.8318  1.4448  0.7138
 7244SOL     OW33190   1.821   3.317   8.171  0.1998  0.8473 -0.3153
 7244SOL    HW133191   1.890   3.357   8.226 -0.3009  1.3566 -0.0571
 7244SOL    HW233192   1.872   3.246   8.133 -0.3159 -0.3963  1.3439
 7245SOL     OW33193   3.887   1.807  14.679  0.3506 -0.4008 -0.7194
 7245SOL    HW133194   3.845   1.721  14.689  0.3713 -0.2940  0.3293
 7245SOL    HW233195   3.920   1.821  14.768 -1.5084  1.3612 -0.3191
 7246SOL     OW33196   1.799   3.293   3.836 -0.2106  0.2725 -0.0910
 7246SOL    HW133197   1.872   3.233   3.853  0.9827  0.9257 -2.8271
 7246SOL    HW233198   1.730   3.256   3.891 -0.4145 -0.5816 -0.9227
 7247SOL     OW33199   3.861   1.482   8.694 -0.0049  0.4068 -0.3067
 7247SOL    HW133200   3.793   1.437   8.744  0.2508 -1.9073 -2.0320
 7247SOL    HW233201   3.932   1.483   8.759  1.5193 -0.2634 -1.9454
 7248SOL     OW33202   0.188   3.431   8.143 -0.1027  0.3814 -0.5724
 7248SOL    HW133203   0.158   3.516   8.175  1.2960  0.8979 -0.6311
 7248SOL    HW233204   0.280   3.443   8.168 -0.1920 -0.4048  0.1310
 7249SOL     OW33205   4.381   1.151   9.932  0.3601  0.3004 -0.1227
 7249SOL    HW133206   4.406   1.060   9.950  0.7581  0.8338  2.0976
 7249SOL    HW233207   4.303   1.156   9.987 -0.8285  2.8871 -2.0639
 7250SOL     OW33208   2.600   2.365  15.163 -0.2311  0.4041 -0.1182
 7250SOL    HW133209   2.563   2.446  15.197  0.0951  1.0282 -1.2564
 7250SOL    HW233210   2.608   2.388  15.070  0.5303 -0.6774 -0.3264
 7251SOL     OW33211   0.317   3.598   9.457  0.0065  0.2778  0.3264
 7251SOL    HW133212   0.260   3.657   9.408  1.3382  1.8938  0.7128
 7251SOL    HW233213   0.265   3.567   9.532  0.0442  1.5290  0.8590
 7252SOL     OW33214   1.879   1.188   1.922 -0.3173 -0.0227 -0.3360
 7252SOL    HW133215   1.950   1.195   1.985 -0.4339  2.6324 -0.4927
 7252SOL    HW233216   1.926   1.132   1.859 -2.7241 -3.2192  0.7191
 7253SOL     OW33217   4.518   1.578   8.926 -0.2922  0.1204  0.2675
 7253SOL    HW133218   4.464   1.614   8.996  2.0538  2.1529  1.0753
 7253SOL    HW233219   4.585   1.541   8.984 -0.5320  2.1950  1.8865
 7254SOL     OW33220   3.757   1.869   2.018  0.2904  0.6067  0.2211
 7254SOL    HW133221   3.725   1.838   1.933 -0.8674 -0.8558  1.1908
 7254SOL    HW233222   3.773   1.787   2.064 -2.9001  0.1466  0.4963
 7255SOL     OW33223   2.166   1.223  15.361 -0.1801  0.1467  0.0751
 7255SOL    HW133224   2.233   1.155  15.355  0.1299  0.5352 -0.7180
 7255SOL    HW233225   2.224   1.299  15.363 -1.9948  1.5415  0.3219
 7256SOL     OW33226   2.722   2.462   1.922  0.0333 -0.0148 -0.5387
 7256SOL    HW133227   2.764   2.386   1.883 -0.1907  0.3671 -1.5390
 7256SOL    HW233228   2.729   2.451   2.017  0.1373  1.1832 -0.4024
 7257SOL     OW33229   3.910   4.393   3.538 -0.4334  0.2051 -0.3600
 7257SOL    HW133230   4.000   4.421   3.520 -0.7883  1.4073 -0.2646
 7257SOL    HW233231   3.936   4.312   3.582  1.9890  1.1112 -0.0996
 7258SOL     OW33232   0.680   2.344   1.810 -0.0380  0.3735  0.0743
 7258SOL    HW133233   0.706   2.286   1.882  1.5332  0.1021 -0.7206
 7258SOL    HW233234   0.744   2.317   1.745 -0.5404 -1.5899  0.3816
 7259SOL     OW33235   2.605   4.337   3.496  0.6380  0.0137  0.1089
 7259SOL    HW133236   2.561   4.402   3.440  2.1605  0.7392 -0.2480
 7259SOL    HW233237   2.578   4.361   3.585 -1.1244  0.7473 -0.6234
 7260SOL     OW33238   1.159   3.995  13.550  0.3604 -0.0924  0.2046
 7260SOL    HW133239   1.138   3.970  13.640 -0.5469 -3.3941 -0.9414
 7260SOL    HW233240   1.253   4.000  13.564  0.1627 -2.6803  2.6124
 7261SOL     OW33241   3.682   1.856   4.204  0.0618 -0.3400 -0.4064
 7261SOL    HW133242   3.755   1.899   4.159 -0.0697  0.1674 -0.1396
 7261SOL    HW233243   3.713   1.766   4.208 -2.8122 -1.2857  0.7746
 7262SOL     OW33244   3.804   0.881  15.045 -0.9157  0.0866  0.4231
 7262SOL    HW133245   3.793   0.952  15.108  0.1908 -0.0861  0.8081
 7262SOL    HW233246   3.728   0.896  14.989 -0.6342 -0.6903 -0.1744
 7263SOL     OW33247   0.243   0.159   8.430 -0.3524 -0.0272  0.1843
 7263SOL    HW133248   0.296   0.130   8.505 -1.0670 -1.5384  0.1103
 7263SOL    HW233249   0.283   0.114   8.356 -0.3836  2.1614 -1.1784
 7264SOL     OW33250   0.556   4.684   7.239 -0.3518  0.0795 -0.0438
 7264SOL    HW133251   0.473   0.007   7.250  0.2603  1.3217 -0.6000
 7264SOL    HW233252   0.525   4.606   7.192 -1.9741  0.8554 -0.2570
 7265SOL     OW33253   4.480   3.241   6.533  0.8176 -0.1248  0.0655
 7265SOL    HW133254   4.448   3.168   6.480  0.3527  0.6734 -0.7508
 7265SOL    HW233255   4.557   3.265   6.481  1.0252  2.3366  1.4773
 7266SOL     OW33256   2.721   1.329   3.677  0.3563  0.4501 -0.0517
 7266SOL    HW133257   2.814   1.345   3.694  0.3732  1.0581 -0.7010
 7266SOL    HW233258   2.716   1.385   3.599  1.6381 -1.1935 -1.3115
 7267SOL     OW33259   2.064   1.492   2.136  0.4047  0.1047  0.1759
 7267SOL    HW133260   1.997   1.544   2.090  2.7159  1.2511 -1.8722
 7267SOL    HW233261   2.017   1.417   2.171 -1.0808  2.1823  2.6747
 7268SOL     OW33262   4.196   1.048   9.683  0.3444  0.2853  0.3401
 7268SOL    HW133263   4.172   1.120   9.742 -1.5155 -0.2199  0.2054
 7268SOL    HW233264   4.150   0.980   9.731 -0.1332  0.6529  0.4027
 7269SOL     OW33265   3.096   0.299   6.371 -0.7877  0.9781 -0.4662
 7269SOL    HW133266   3.160   0.246   6.420  0.7153  2.2964 -0.9865
 7269SOL    HW233267   3.138   0.383   6.392  3.1152 -0.0424 -4.0687
 7270SOL     OW33268   0.910   2.942   6.638 -0.3261 -0.6107  0.3580
 7270SOL    HW133269   0.876   3.030   6.647  0.4790 -0.0483 -2.0351
 7270SOL    HW233270   0.954   2.944   6.552  1.1616  0.9768  1.1632
 7271SOL     OW33271   1.375   3.842   1.660  0.0745 -0.0050 -0.6570
 7271SOL    HW133272   1.428   3.919   1.638  0.2376 -0.1453 -0.7488
 7271SOL    HW233273   1.359   3.813   1.570 -0.4412 -0.8464 -0.2910
 7272SOL     OW33274   1.958   2.129   6.207  0.6202  0.6124  0.3135
 7272SOL    HW133275   2.003   2.089   6.282  0.5506 -3.1051 -1.6520
 7272SOL    HW233276   1.880   2.075   6.218 -0.8545  2.5468 -0.7059
 7273SOL     OW33277   4.110   1.222   3.917 -0.4364  0.0758  0.6499
 7273SOL    HW133278   4.088   1.285   3.848 -0.5923 -1.4656 -0.7048
 7273SOL    HW233279   4.098   1.262   4.004  0.5015  2.5336 -0.3390
 7274SOL     OW33280   2.227   3.030   6.169 -0.1995  0.2506  0.1908
 7274SOL    HW133281   2.203   3.117   6.199  1.3290  0.1107  1.7943
 7274SOL    HW233282   2.149   3.002   6.120 -1.4721  0.0554  2.3550
 7275SOL     OW33283   3.436   1.111   9.283  0.6101 -0.0089  0.2654
 7275SOL    HW133284   3.526   1.078   9.281  1.1389  1.3483  1.8482
 7275SOL    HW233285   3.402   1.026   9.313  0.8630 -0.5129 -0.9044
 7276SOL     OW33286   0.166   2.896   2.153  0.2394  0.0425  0.5989
 7276SOL    HW133287   0.157   2.917   2.060 -1.0862 -0.2020  0.6709
 7276SOL    HW233288   0.250   2.850   2.150  0.5004  0.3869  2.1993
 7277SOL     OW33289   4.076   0.395   0.482  0.2619  0.4264 -0.4960
 7277SOL    HW133290   3.995   0.374   0.528  1.3777 -1.8313  0.4519
 7277SOL    HW233291   4.120   0.441   0.553 -0.4474 -0.0389  0.2472
 7278SOL     OW33292   3.075   1.326   7.315  0.0075 -0.3311 -0.0679
 7278SOL    HW133293   3.003   1.345   7.376  0.2499 -4.4561  1.5060
 7278SOL    HW233294   3.130   1.268   7.368 -0.6357 -0.3373  0.6075
 7279SOL     OW33295   2.395   4.021  11.776  0.3559 -0.1592  0.1147
 7279SOL    HW133296   2.453   4.079  11.825 -1.7926  1.3951  0.8600
 7279SOL    HW233297   2.369   3.952  11.836 -1.3334 -0.9805 -1.5516
 7280SOL     OW33298   1.342   0.619   9.513 -0.3723  0.1823 -0.3738
 7280SOL    HW133299   1.340   0.529   9.480 -1.2160 -0.0342  0.2600
 7280SOL    HW233300   1.423   0.656   9.477 -0.5448  0.0807 -0.8628
 7281SOL     OW33301   2.180   1.448  12.699 -0.4391  0.5109  0.1288
 7281SOL    HW133302   2.225   1.364  12.687  0.0895  0.4490  2.6830
 7281SOL    HW233303   2.203   1.467  12.789 -2.8031  0.3378  0.7803
 7282SOL     OW33304   2.877   4.395   4.879  0.1042 -0.1226  0.9007
 7282SOL    HW133305   2.856   4.383   4.787 -1.3684 -2.4768  1.5296
 7282SOL    HW233306   2.871   4.489   4.892 -0.0663 -0.3013  2.1148
 7283SOL     OW33307   3.207   3.391   8.077  0.5750  0.2271 -0.2088
 7283SOL    HW133308   3.297   3.371   8.102  0.3974 -0.6598 -0.2772
 7283SOL    HW233309   3.200   3.339   7.997  0.4148 -0.3233  0.1615
 7284SOL     OW33310   1.470   2.797   2.986 -0.0104  0.1909 -0.0900
 7284SOL    HW133311   1.514   2.725   2.941  0.6333  0.9332 -0.6325
 7284SOL    HW233312   1.523   2.815   3.064  2.1830  0.7848 -1.7375
 7285SOL     OW33313   0.252   1.293   8.100 -0.4724  0.3297 -0.0279
 7285SOL    HW133314   0.274   1.346   8.176 -1.8466  0.6709  0.1438
 7285SOL    HW233315   0.161   1.266   8.117 -0.0342 -2.4207 -1.8699
 7286SOL     OW33316   2.060   2.123   2.110  0.5904  0.1386 -0.0827
 7286SOL    HW133317   2.062   2.155   2.020 -0.1871  0.2173 -0.0762
 7286SOL    HW233318   2.099   2.038   2.088  1.4431  0.3674  0.5598
 7287SOL     OW33319   0.848   1.792  12.982 -0.0478  0.2756  0.7312
 7287SOL    HW133320   0.790   1.826  13.049  0.8266  1.8061  0.7065
 7287SOL    HW233321   0.812   1.704  12.966  1.7679 -0.2990 -0.2304
 7288SOL     OW33322   0.125   3.687   9.278  0.4649  0.0371  0.4204
 7288SOL    HW133323   0.060   3.641   9.331  1.2312 -2.2829 -0.6435
 7288SOL    HW233324   0.086   3.772   9.258 -1.8807 -1.0526  0.3337
 7289SOL     OW33325   1.239   2.213  12.790  0.1571  0.2469 -0.0702
 7289SOL    HW133326   1.329   2.239  12.769 -0.2626  0.9796 -0.9687
 7289SOL    HW233327   1.249   2.119  12.775 -2.5693 -0.0945  0.3799
 7290SOL     OW33328   3.225   2.454   1.734 -0.8923 -0.0944  0.2004
 7290SOL    HW133329   3.236   2.535   1.684 -0.1947 -0.0791  0.3829
 7290SOL    HW233330   3.313   2.445   1.770 -0.9524 -0.7006  0.2022
 7291SOL     OW33331   4.442   1.858  14.325  0.5062  0.2468 -0.4454
 7291SOL    HW133332   4.469   1.787  14.267 -3.2495 -1.3382 -0.2645
 7291SOL    HW233333   4.531   1.882  14.353  0.3414 -0.4955  0.7194
 7292SOL     OW33334   2.886   1.407   5.735 -0.0666  0.0343  0.2939
 7292SOL    HW133335   2.791   1.420   5.739 -0.0084  0.6706 -0.4138
 7292SOL    HW233336   2.900   1.467   5.662 -0.3942  1.0834  1.1071
 7293SOL     OW33337   3.491   2.735   7.888 -0.2316  0.1100 -0.0705
 7293SOL    HW133338   3.452   2.711   7.804 -0.9192  0.8096  0.0509
 7293SOL    HW233339   3.452   2.822   7.899  0.2464  0.4772 -1.3499
 7294SOL     OW33340   3.460   4.144   5.004  0.7079 -0.0369  0.3913
 7294SOL    HW133341   3.410   4.072   4.964  1.4588 -0.7792  0.7808
 7294SOL    HW233342   3.391   4.208   5.020 -0.5988 -0.6015 -2.9357
 7295SOL     OW33343   0.911   1.781   3.454  0.2145 -0.2745  0.0519
 7295SOL    HW133344   0.957   1.701   3.429 -1.4603 -1.5121  0.9270
 7295SOL    HW233345   0.822   1.745   3.454 -0.0629  0.4477 -1.5289
 7296SOL     OW33346   4.396   0.881   9.575  1.1350  0.0844 -0.3793
 7296SOL    HW133347   4.346   0.945   9.626  0.2252 -0.1389 -1.0071
 7296SOL    HW233348   4.485   0.911   9.593  1.1173 -0.6620  0.9803
 7297SOL     OW33349   0.325   0.396   5.290 -0.0303  0.9176 -0.4797
 7297SOL    HW133350   0.361   0.362   5.372 -2.4080 -0.9367 -0.1942
 7297SOL    HW233351   0.230   0.394   5.306  0.1776 -0.5909  0.5008
 7298SOL     OW33352   2.877   1.984   9.987 -0.0158 -0.2318 -0.3548
 7298SOL    HW133353   2.936   2.056  10.010  1.6618 -1.6262 -0.3123
 7298SOL    HW233354   2.923   1.933   9.920  0.6864 -0.6617  0.4510
 7299SOL     OW33355   4.170   0.351  14.722  0.1734  0.4228  0.0901
 7299SOL    HW133356   4.117   0.327  14.798  2.0137 -2.4180  0.4859
 7299SOL    HW233357   4.238   0.400  14.768 -3.3576  0.1396  5.5962
 7300SOL     OW33358   2.848   2.561   8.882 -0.1252 -0.1321  0.1256
 7300SOL    HW133359   2.886   2.560   8.971  0.8196 -4.7632 -0.3419
 7300SOL    HW233360   2.862   2.653   8.858 -2.8959  0.3060  0.2745
 7301SOL     OW33361   2.285   3.061   2.168  0.6539  0.1695 -0.1133
 7301SOL    HW133362   2.194   3.047   2.143  0.4776  2.5993 -0.8162
 7301SOL    HW233363   2.295   3.145   2.123  0.1758  0.7557  0.8829
 7302SOL     OW33364   1.166   3.894   3.872  0.3861  0.2011  0.5045
 7302SOL    HW133365   1.199   3.920   3.786  2.4080 -0.0006  1.2152
 7302SOL    HW233366   1.143   3.801   3.870  0.6753  0.1418 -0.3697
 7303SOL     OW33367   2.366   1.197  12.107  0.6310 -0.0620 -0.2119
 7303SOL    HW133368   2.454   1.188  12.143  0.5020  1.4543  0.5126
 7303SOL    HW233369   2.347   1.289  12.124  2.5830  0.3050 -0.0609
 7304SOL     OW33370   1.528   0.980   4.092 -0.0004  0.0168  0.0470
 7304SOL    HW133371   1.524   0.918   4.165 -2.2475 -0.5038 -0.5243
 7304SOL    HW233372   1.447   0.960   4.045 -0.3206  0.7486  0.2814
 7305SOL     OW33373   3.263   2.322   9.506 -0.2602 -0.5253 -0.4106
 7305SOL    HW133374   3.253   2.227   9.497  4.2915 -1.1640  1.4513
 7305SOL    HW233375   3.358   2.324   9.489 -0.3064  1.8246 -0.4523
 7306SOL     OW33376   0.087   0.771   3.694  0.1452 -0.6616  0.1977
 7306SOL    HW133377   0.027   0.708   3.653 -0.0158  0.6380 -1.5609
 7306SOL    HW233378   0.029   0.847   3.698 -0.1850 -0.9958  1.5931
 7307SOL     OW33379   4.220   4.235   5.840 -0.7152  0.3429  0.2867
 7307SOL    HW133380   4.222   4.318   5.791 -0.5465  1.0808  1.5467
 7307SOL    HW233381   4.301   4.203   5.800 -1.9397 -1.9376 -0.3541
 7308SOL     OW33382   2.012   0.137  16.764 -0.2542  0.0483  0.0769
 7308SOL    HW133383   2.018   0.115  16.671  0.9252 -0.8361  0.3477
 7308SOL    HW233384   1.920   0.123  16.783 -0.6869  1.2568 -1.1821
 7309SOL     OW33385   2.781   1.392  17.160 -0.1361  0.2726  0.1297
 7309SOL    HW133386   2.807   1.484  17.162  0.0442  0.1895  1.6255
 7309SOL    HW233387   2.765   1.365  17.251  1.1186  0.7969  0.5054
 7310SOL     OW33388   1.972   0.992  11.038  0.3786  0.2507  0.2924
 7310SOL    HW133389   2.038   1.044  11.083  1.4893  0.2324 -1.2937
 7310SOL    HW233390   1.898   1.011  11.096 -0.7337  0.6417 -1.2617
 7311SOL     OW33391   1.763   2.498  14.507  0.5000  0.1746 -0.3727
 7311SOL    HW133392   1.684   2.458  14.470  0.4402 -1.3328  1.3750
 7311SOL    HW233393   1.827   2.481  14.438  0.2315  1.0631 -0.8478
 7312SOL     OW33394   1.119   2.163   8.559  0.9137  0.4332  0.1010
 7312SOL    HW133395   1.141   2.070   8.561 -0.3307  0.1385  0.1544
 7312SOL    HW233396   1.154   2.184   8.473 -2.7048 -1.4919 -1.8365
 7313SOL     OW33397   3.001   1.853   4.593 -0.2664 -0.8182 -0.3706
 7313SOL    HW133398   3.030   1.814   4.675 -2.1405 -0.8519  0.2621
 7313SOL    HW233399   2.973   1.939   4.624 -0.4463 -0.7954 -0.5959
 7314SOL     OW33400   2.437   2.431  12.850  0.1493  0.2828  0.2404
 7314SOL    HW133401   2.457   2.521  12.876 -1.0062  0.8328 -0.7198
 7314SOL    HW233402   2.445   2.441  12.755 -0.4637  2.4011  0.4238
 7315SOL     OW33403   1.202   2.666   7.122 -0.4662  0.3296 -0.2395
 7315SOL    HW133404   1.229   2.585   7.079 -0.5647 -0.3197  0.9274
 7315SOL    HW233405   1.241   2.732   7.065  2.2337 -1.4016 -0.3755
 7316SOL     OW33406   3.483   2.262   2.296  0.2050  0.0115 -0.1125
 7316SOL    HW133407   3.415   2.310   2.250  0.3618 -0.4762 -0.8490
 7316SOL    HW233408   3.498   2.193   2.232  0.0076 -0.5846  0.4859
 7317SOL     OW33409   0.031   1.468   1.645 -0.6125  0.1319  0.1435
 7317SOL    HW133410   4.674   1.416   1.649 -0.2309 -0.2456  2.5585
 7317SOL    HW233411   0.097   1.408   1.679  1.4140  2.1628 -0.2165
 7318SOL     OW33412   2.319   1.753  13.090 -0.3310  0.8249 -0.2334
 7318SOL    HW133413   2.382   1.723  13.155 -0.6676 -0.1459 -0.3695
 7318SOL    HW233414   2.367   1.831  13.061 -1.4212  1.1755 -1.0984
 7319SOL     OW33415   4.568   3.495   5.652  0.2909 -0.3617 -0.3087
 7319SOL    HW133416   4.653   3.452   5.643 -0.1089 -0.7872 -2.1121
 7319SOL    HW233417   4.587   3.543   5.732  0.4668 -2.3819  0.8534
 7320SOL     OW33418   3.599   3.826   5.253  0.0856  0.1910 -0.4813
 7320SOL    HW133419   3.680   3.803   5.207  0.7732  1.3968  0.1412
 7320SOL    HW233420   3.540   3.819   5.178  1.2293 -0.7848 -1.2966
 7321SOL     OW33421   2.492   2.803   3.632  0.5422 -0.0979  0.5021
 7321SOL    HW133422   2.431   2.790   3.705  2.5828  0.6227  2.3399
 7321SOL    HW233423   2.517   2.714   3.609  1.7797  0.7410 -1.3653
 7322SOL     OW33424   2.397   4.011  13.521 -0.0572 -0.4958 -0.4535
 7322SOL    HW133425   2.355   4.019  13.606 -4.0474  1.6303 -2.6396
 7322SOL    HW233426   2.322   4.012  13.463 -0.9303  0.6026  0.6992
 7323SOL     OW33427   0.736   4.156  16.790  0.3151  0.4624  0.2045
 7323SOL    HW133428   0.708   4.092  16.724  1.0507 -0.8874  1.2076
 7323SOL    HW233429   0.654   4.205  16.801  0.5066  0.0362  3.3863
 7324SOL     OW33430   3.155   2.731  15.360 -0.2445 -0.3508 -0.0558
 7324SOL    HW133431   3.222   2.676  15.400  0.5130  0.8055  0.2489
 7324SOL    HW233432   3.195   2.818  15.355 -0.9968 -0.0438 -0.6676
 7325SOL     OW33433   0.355   3.142   4.067 -0.4490  0.6509 -0.0207
 7325SOL    HW133434   0.422   3.073   4.069 -0.7282  0.3613 -0.4979
 7325SOL    HW233435   0.321   3.132   4.156 -2.4871  0.2805 -0.8182
 7326SOL     OW33436   2.655   2.845   5.292  0.7944 -1.2340  0.1767
 7326SOL    HW133437   2.592   2.777   5.270 -0.7922  0.6090 -0.9851
 7326SOL    HW233438   2.735   2.793   5.283  0.6156 -1.4586 -0.1434
 7327SOL     OW33439   1.637   3.596   7.304 -0.8752 -0.6354  0.0976
 7327SOL    HW133440   1.698   3.553   7.364 -0.7298 -1.0387 -0.3411
 7327SOL    HW233441   1.644   3.690   7.323 -0.1481 -0.6212 -0.2589
 7328SOL     OW33442   3.670   3.615   9.687  0.3192 -0.2411  0.1662
 7328SOL    HW133443   3.731   3.688   9.683  0.5337 -0.4547 -0.5332
 7328SOL    HW233444   3.619   3.629   9.766  1.5193  0.2976  0.8273
 7329SOL     OW33445   3.351   4.394   8.851  0.8842 -0.3312  0.0754
 7329SOL    HW133446   3.422   4.365   8.794  1.5682  1.6473 -0.0973
 7329SOL    HW233447   3.394   4.477   8.874  0.3882 -0.8140  2.8067
 7330SOL     OW33448   2.441   2.393   8.430 -0.1959  0.6354  0.1802
 7330SOL    HW133449   2.416   2.305   8.456  0.2885  0.8763  1.4390
 7330SOL    HW233450   2.426   2.436   8.514  0.1056  0.2452  0.4318
 7331SOL     OW33451   3.014   1.128  14.367 -0.0875 -0.0760  0.3933
 7331SOL    HW133452   3.101   1.098  14.340 -0.6630 -1.3674 -0.0218
 7331SOL    HW233453   2.970   1.044  14.379 -0.8347  0.5854  2.2975
 7332SOL     OW33454   3.248   3.349  11.016 -0.1169  0.1521  0.3300
 7332SOL    HW133455   3.171   3.321  10.966 -0.3440  1.8019 -0.2412
 7332SOL    HW233456   3.316   3.353  10.948  0.3404  4.3651  1.0629
 7333SOL     OW33457   3.469   1.677   3.320 -0.0189 -0.3285  0.2363
 7333SOL    HW133458   3.425   1.644   3.398  2.6739 -0.4668  1.7186
 7333SOL    HW233459   3.392   1.665   3.266  0.0039 -1.0420  0.3631
 7334SOL     OW33460   1.506   1.751   6.341 -0.1372 -0.0606 -0.1812
 7334SOL    HW133461   1.509   1.833   6.389  0.6471 -1.8875  2.9470
 7334SOL    HW233462   1.539   1.777   6.255  1.0354  2.5280  1.0697
 7335SOL     OW33463   3.015   2.760  13.372 -0.0598  0.2565  0.5691
 7335SOL    HW133464   3.105   2.786  13.353 -0.4260 -0.3431 -2.0360
 7335SOL    HW233465   2.997   2.815  13.448  1.5395  0.0921  1.0728
 7336SOL     OW33466   0.002   0.672  13.337  0.4550 -0.2541  0.1826
 7336SOL    HW133467   0.006   0.679  13.433  0.5009 -1.2710  0.2535
 7336SOL    HW233468   0.090   0.645  13.309  0.5385 -0.8100  0.9699
 7337SOL     OW33469   2.946   4.402  16.073 -0.1498 -0.1145  0.0914
 7337SOL    HW133470   2.999   4.397  16.153 -0.6869  0.6530  0.4982
 7337SOL    HW233471   2.879   4.464  16.103 -0.4695 -0.3363 -0.1575
 7338SOL     OW33472   2.885   0.127  12.364 -0.1191  0.1536 -0.1292
 7338SOL    HW133473   2.933   0.152  12.444  0.2324  1.1599 -0.6548
 7338SOL    HW233474   2.892   0.032  12.379 -0.4982  0.0057 -0.8993
 7339SOL     OW33475   3.015   3.198  14.325 -0.2558 -0.2260 -0.1206
 7339SOL    HW133476   3.044   3.185  14.415  0.0179  1.6314  0.0643
 7339SOL    HW233477   2.998   3.112  14.285 -1.9742 -0.6909  1.6460
 7340SOL     OW33478   2.217   2.810   4.132  0.0588  0.0263  0.5165
 7340SOL    HW133479   2.175   2.831   4.216 -0.7818 -2.1928  0.6619
 7340SOL    HW233480   2.262   2.893   4.115  1.4826 -0.4809  1.7441
 7341SOL     OW33481   4.440   3.302  11.438 -0.3013  0.2033  0.6072
 7341SOL    HW133482   4.535   3.298  11.434 -0.4117 -1.2845 -0.4931
 7341SOL    HW233483   4.405   3.241  11.504 -0.1335  0.8717  1.3069
 7342SOL     OW33484   0.214   3.922  13.903  0.0792 -0.5233  0.5284
 7342SOL    HW133485   0.228   3.933  13.809 -0.2588  2.4947  0.8290
 7342SOL    HW233486   0.119   3.918  13.907  0.0097  0.0837 -0.5738
 7343SOL     OW33487   4.365   0.334  15.477  0.1569  0.1460 -1.0001
 7343SOL    HW133488   4.424   0.337  15.552 -1.3563  1.4922  0.1210
 7343SOL    HW233489   4.432   0.340  15.409  1.5123  2.4601  0.5604
 7344SOL     OW33490   1.283   1.867   4.546  0.0746  0.1357 -0.1473
 7344SOL    HW133491   1.270   1.788   4.599  2.5438 -1.7643 -2.4054
 7344SOL    HW233492   1.306   1.834   4.459  1.5388  1.8292 -0.4254
 7345SOL     OW33493   2.580   2.229   6.993  0.5501 -0.4284 -0.3206
 7345SOL    HW133494   2.629   2.187   7.064 -0.8599 -1.5114 -0.0080
 7345SOL    HW233495   2.605   2.322   6.990  1.1725 -0.6415 -1.9131
 7346SOL     OW33496   0.836   4.274   4.385 -0.4581  0.1379  0.0746
 7346SOL    HW133497   0.830   4.180   4.371 -1.9112  0.3761 -0.9259
 7346SOL    HW233498   0.747   4.306   4.366  0.0517  0.8715 -1.0561
 7347SOL     OW33499   2.418   3.935   2.326 -0.7570  0.4059  0.3169
 7347SOL    HW133500   2.340   3.989   2.315 -0.0957  0.9343 -1.8627
 7347SOL    HW233501   2.403   3.899   2.414  0.8499  1.1164  0.8731
 7348SOL     OW33502   3.224   4.486   7.633 -0.3233  0.3024  0.6260
 7348SOL    HW133503   3.307   4.519   7.599 -0.3172  0.7136  1.0420
 7348SOL    HW233504   3.237   4.394   7.610  0.5022  0.0287  2.1748
 7349SOL     OW33505   3.016   3.948   5.798  0.1652 -0.1829 -0.2906
 7349SOL    HW133506   3.046   3.885   5.863 -1.7382 -1.7241 -0.9142
 7349SOL    HW233507   3.000   4.024   5.855 -1.1755 -0.2908 -0.5220
 7350SOL     OW33508   4.241   2.254   0.633  0.2341 -0.7827  0.3609
 7350SOL    HW133509   4.320   2.219   0.674  0.7916  0.4760  0.3290
 7350SOL    HW233510   4.170   2.250   0.697 -0.0425 -0.4686  0.0731
 7351SOL     OW33511   4.094   0.203  14.529  0.5299  0.5076 -0.1808
 7351SOL    HW133512   4.105   0.287  14.574 -0.6909 -0.3665  1.7327
 7351SOL    HW233513   4.098   0.142  14.602  1.8305 -1.1182 -1.6162
 7352SOL     OW33514   3.097   3.783   3.683 -0.9657  0.5075  0.4520
 7352SOL    HW133515   3.159   3.713   3.705  0.3825  0.8677 -2.1687
 7352SOL    HW233516   3.157   3.857   3.692 -1.5601  1.0881 -0.3347
 7353SOL     OW33517   1.068   4.343   5.079 -0.2171 -0.2099 -0.1437
 7353SOL    HW133518   0.982   4.367   5.115  0.4340  2.4138 -0.3413
 7353SOL    HW233519   1.103   4.313   5.162 -1.7270  0.8756  0.8898
 7354SOL     OW33520   2.431   2.881   2.724  0.0947 -0.6848 -0.0370
 7354SOL    HW133521   2.452   2.904   2.634  0.9545  2.2434  0.9209
 7354SOL    HW233522   2.462   2.791   2.732 -0.2114 -0.8492 -0.7264
 7355SOL     OW33523   3.393   2.529   6.653  0.3776 -0.0740 -0.0529
 7355SOL    HW133524   3.397   2.457   6.716 -0.5402  0.2921  0.4318
 7355SOL    HW233525   3.343   2.594   6.703  1.7529  1.1452 -0.2499
 7356SOL     OW33526   2.870   1.867  17.538  0.8326  0.0209  0.0126
 7356SOL    HW133527   2.822   1.784  17.540 -0.0769  0.5763  0.5191
 7356SOL    HW233528   2.944   1.840  17.483  0.2840 -0.7140 -0.3701
 7357SOL     OW33529   2.332   3.586  10.756  0.3776  0.1948  0.4889
 7357SOL    HW133530   2.326   3.549  10.668  0.9748 -1.2559  1.0567
 7357SOL    HW233531   2.361   3.676  10.742 -0.2626  0.6649  2.1347
 7358SOL     OW33532   0.141   4.684  10.280 -0.1421  0.2579 -0.7022
 7358SOL    HW133533   0.066   4.626  10.288  0.4742 -0.6818 -1.6082
 7358SOL    HW233534   0.146   0.011  10.361  1.8448  2.2110 -2.0240
 7359SOL     OW33535   1.588   3.391  10.351 -0.1128  0.4534  0.5677
 7359SOL    HW133536   1.640   3.471  10.343 -0.9925  1.1797  2.1204
 7359SOL    HW233537   1.564   3.387  10.258 -0.8704 -0.4151  0.8080
 7360SOL     OW33538   2.556   4.506   7.313  0.0797 -0.7190  0.2047
 7360SOL    HW133539   2.507   4.556   7.247  0.6617 -1.5837 -0.8833
 7360SOL    HW233540   2.623   4.569   7.342  0.9407 -2.4688  2.0278
 7361SOL     OW33541   0.024   2.769   8.091  0.3996 -0.9264  0.7842
 7361SOL    HW133542   0.029   2.843   8.031  0.1045  0.5121  2.5161
 7361SOL    HW233543   4.719   2.816   8.170  0.5964 -1.6275  1.2736
 7362SOL     OW33544   4.474   4.309  14.776 -0.2973 -0.0529  0.4679
 7362SOL    HW133545   4.554   4.340  14.819 -0.6610 -0.3088  1.3391
 7362SOL    HW233546   4.433   4.393  14.752 -1.7263 -1.0124 -0.4621
 7363SOL     OW33547   1.037   4.404   3.208  0.3998  0.2971  0.4888
 7363SOL    HW133548   1.090   4.349   3.151  2.9685  4.5706 -1.2590
 7363SOL    HW233549   1.042   4.343   3.282 -2.2823 -0.1566  0.3014
 7364SOL     OW33550   0.136   3.515  10.422 -0.7281 -0.4865 -0.4382
 7364SOL    HW133551   0.220   3.513  10.376 -0.7234  0.7560 -0.4679
 7364SOL    HW233552   0.149   3.574  10.497  1.9328 -1.4416 -0.1243
 7365SOL     OW33553   1.496   1.925   7.239 -0.2702 -0.0041  0.1238
 7365SOL    HW133554   1.481   2.000   7.181  1.4938 -0.5087 -0.9811
 7365SOL    HW233555   1.482   1.868   7.164  0.2262 -3.0043  2.3484
 7366SOL     OW33556   3.274   1.354   5.453 -0.4085  0.1923  0.1483
 7366SOL    HW133557   3.365   1.360   5.484 -0.0726 -1.6659 -0.4815
 7366SOL    HW233558   3.248   1.446   5.457 -0.6935  0.0416  2.0444
 7367SOL     OW33559   2.265   2.688  15.908 -0.2305  0.5465  0.2095
 7367SOL    HW133560   2.175   2.664  15.885  0.4952 -0.8792 -1.1085
 7367SOL    HW233561   2.295   2.728  15.827 -0.5763  0.2928 -0.0458
 7368SOL     OW33562   3.517   2.027   2.133  0.2705 -0.3808 -0.4365
 7368SOL    HW133563   3.593   1.990   2.086  1.8325  0.0406  1.7567
 7368SOL    HW233564   3.452   1.985   2.076  1.4184 -1.5717 -0.8933
 7369SOL     OW33565   1.624   4.538  12.665 -0.4464 -0.3656  0.1138
 7369SOL    HW133566   1.678   4.593  12.722 -2.7947 -0.3842  2.3380
 7369SOL    HW233567   1.664   4.566  12.583 -1.8273 -0.3811 -0.5575
 7370SOL     OW33568   3.538   4.479   7.308  0.0509 -0.6520  0.0098
 7370SOL    HW133569   3.632   4.497   7.308 -0.3071  1.2243  0.2920
 7370SOL    HW233570   3.509   4.500   7.219  2.5900  2.8264 -0.0092
 7371SOL     OW33571   1.017   1.155   3.552 -0.0091 -0.1228  0.0224
 7371SOL    HW133572   0.963   1.122   3.480 -0.0722  1.9934 -0.9165
 7371SOL    HW233573   0.961   1.217   3.598  2.4491  0.7372  1.8387
 7372SOL     OW33574   3.987   4.622   5.971 -0.1130 -0.8534 -0.3507
 7372SOL    HW133575   4.016   4.584   5.888  2.4871 -2.0231  1.0946
 7372SOL    HW233576   4.061   4.600   6.027 -1.0292  1.2267  1.6351
 7373SOL     OW33577   3.706   1.465  12.233  0.0988 -0.1421  0.1065
 7373SOL    HW133578   3.659   1.393  12.191  1.0082 -0.2913 -0.6639
 7373SOL    HW233579   3.784   1.416  12.261  1.2876  1.6177 -0.0919
 7374SOL     OW33580   3.476   4.632  14.779 -0.1627 -0.0205  0.6879
 7374SOL    HW133581   3.467   4.552  14.832  1.9174 -0.5400  0.2348
 7374SOL    HW233582   3.505   4.695  14.845  0.1365 -1.0627  1.5469
 7375SOL     OW33583   4.255   0.268  15.158  0.7363  0.0878  0.2836
 7375SOL    HW133584   4.227   0.358  15.172 -0.2955 -0.3215  0.8688
 7375SOL    HW233585   4.265   0.233  15.247  0.2864 -0.9734 -0.0874
 7376SOL     OW33586   1.781   3.264  13.416  0.2485  0.1049  0.1853
 7376SOL    HW133587   1.840   3.332  13.384 -0.4149  0.0935 -1.0841
 7376SOL    HW233588   1.768   3.300  13.504 -1.3581 -0.1568  0.0556
 7377SOL     OW33589   0.363   4.137   9.394  0.4269  0.1305  0.2353
 7377SOL    HW133590   0.432   4.161   9.332  1.0088 -0.1777  0.7618
 7377SOL    HW233591   0.421   4.093   9.456  1.2123 -0.6511 -1.0499
 7378SOL     OW33592   0.875   3.244   6.714 -0.0142 -0.1738 -0.1250
 7378SOL    HW133593   0.805   3.272   6.774  1.8157  1.4291  1.2255
 7378SOL    HW233594   0.864   3.303   6.639 -1.0459  0.6651  0.6783
 7379SOL     OW33595   0.937   3.094   3.076  0.3329 -0.4674 -0.0057
 7379SOL    HW133596   0.885   3.037   3.132 -0.1363 -0.2121 -0.1873
 7379SOL    HW233597   1.003   3.030   3.047 -0.9313 -0.6912 -2.3523
 7380SOL     OW33598   2.047   4.114   6.838 -0.2029 -0.0527 -0.5253
 7380SOL    HW133599   2.038   4.199   6.881  0.1074 -1.1645  1.6940
 7380SOL    HW233600   2.101   4.072   6.905  1.9731  2.3357 -0.7804
 7381SOL     OW33601   3.225   3.618   7.124  0.4492  0.6294  0.0780
 7381SOL    HW133602   3.275   3.553   7.074 -0.9253 -0.5487  0.2278
 7381SOL    HW233603   3.162   3.650   7.060  0.5224  1.6925  0.5370
 7382SOL     OW33604   3.746   1.159   0.935 -0.3841  0.7154 -0.1586
 7382SOL    HW133605   3.832   1.160   0.894  0.4162  3.0001  1.5794
 7382SOL    HW233606   3.687   1.196   0.870  0.0616  0.5929 -0.6302
 7383SOL     OW33607   2.677   4.501  10.356  0.5590 -0.3015 -0.2582
 7383SOL    HW133608   2.760   4.494  10.403 -0.2737  2.3600  1.5492
 7383SOL    HW233609   2.700   4.538  10.270 -0.2480  3.6481  1.2524
 7384SOL     OW33610   0.365   0.303   3.657  0.2454 -0.4154 -0.0825
 7384SOL    HW133611   0.370   0.379   3.714  2.0006 -1.2761  0.9345
 7384SOL    HW233612   0.455   0.291   3.626 -0.3470 -1.7603 -1.2842
 7385SOL     OW33613   1.002   4.102   5.645 -0.3512  0.3236  0.2191
 7385SOL    HW133614   1.042   4.117   5.731  1.4801  0.2085 -0.6272
 7385SOL    HW233615   1.073   4.050   5.608  0.5778 -0.4798  3.1461
 7386SOL     OW33616   1.783   1.360   5.911 -0.1402 -0.2163  0.4216
 7386SOL    HW133617   1.749   1.288   5.856  0.4893  0.1338 -0.4336
 7386SOL    HW233618   1.771   1.436   5.854 -0.3810 -1.2590 -0.9222
 7387SOL     OW33619   3.721   3.103   8.072  0.1378  0.5790  0.1269
 7387SOL    HW133620   3.642   3.091   8.125  1.3604 -0.2913  1.7374
 7387SOL    HW233621   3.727   3.020   8.025 -0.1803  1.0004 -0.6756
 7388SOL     OW33622   3.756   4.065   2.313  0.0013 -0.2001 -0.4734
 7388SOL    HW133623   3.809   3.988   2.336  0.5732  0.9092  1.9755
 7388SOL    HW233624   3.760   4.115   2.395  0.3501 -1.4292  0.2749
 7389SOL     OW33625   2.708   1.370   7.086  0.5425 -0.1294 -0.5050
 7389SOL    HW133626   2.762   1.358   7.164  1.1334 -0.9070 -1.0503
 7389SOL    HW233627   2.639   1.423   7.127  2.3033  1.3185  0.6097
 7390SOL     OW33628   2.540   1.206   7.883  0.0086  0.1443  0.6586
 7390SOL    HW133629   2.471   1.240   7.940  0.1499 -0.0157  0.9214
 7390SOL    HW233630   2.540   1.279   7.821  3.0364  0.0735  0.5635
 7391SOL     OW33631   0.093   2.678   5.053  0.2424  0.0114  0.0963
 7391SOL    HW133632   0.110   2.656   5.145  1.9788 -1.5741 -0.5885
 7391SOL    HW233633   0.180   2.664   5.015  1.3830  2.0856  1.9517
 7392SOL     OW33634   2.197   1.192  14.823 -0.0439  0.0129  0.2304
 7392SOL    HW133635   2.178   1.144  14.904 -3.2681 -0.7038 -0.9071
 7392SOL    HW233636   2.289   1.168  14.819  0.3502  1.5983 -0.0814
 7393SOL     OW33637   4.484   3.514  10.035  0.0217 -0.7131 -0.5282
 7393SOL    HW133638   4.570   3.478  10.055  0.2460  0.6070  0.9308
 7393SOL    HW233639   4.465   3.581  10.101  2.4558  0.6233 -1.2033
 7394SOL     OW33640   3.931   1.578  12.502 -0.5742  0.1631 -0.1860
 7394SOL    HW133641   3.888   1.639  12.442  0.7795  0.2117 -1.1253
 7394SOL    HW233642   3.929   1.492  12.462 -0.1902 -0.2140  0.5921
 7395SOL     OW33643   3.676   2.950   5.386  0.2753  0.1533  0.4098
 7395SOL    HW133644   3.589   2.989   5.383  0.6263  1.0228  1.6895
 7395SOL    HW233645   3.684   2.930   5.479  2.2789  1.0384  0.4239
 7396SOL     OW33646   3.525   3.455   2.772  0.2233 -0.3204  0.1661
 7396SOL    HW133647   3.564   3.411   2.696 -2.5144 -0.1123 -1.3471
 7396SOL    HW233648   3.509   3.380   2.829 -0.9044 -1.2378 -1.3458
 7397SOL     OW33649   2.697   2.179  11.935  0.2770 -0.3871 -0.4812
 7397SOL    HW133650   2.781   2.133  11.935  0.2308 -0.4436  1.4063
 7397SOL    HW233651   2.630   2.110  11.940 -1.5527  1.5571  1.3043
 7398SOL     OW33652   0.064   1.828   7.145 -0.2681 -0.4093 -0.5042
 7398SOL    HW133653   0.055   1.738   7.116  3.1335 -0.5568 -1.1939
 7398SOL    HW233654   0.086   1.833   7.238 -1.2653 -0.4526 -0.2751
 7399SOL     OW33655   1.501   2.240   6.871  0.3326  0.3959 -0.3177
 7399SOL    HW133656   1.543   2.317   6.909  0.2988 -0.3037  1.1345
 7399SOL    HW233657   1.571   2.174   6.875  0.8298  0.9877  0.6528
 7400SOL     OW33658   0.756   3.659   5.744  0.3128 -0.1575  0.4820
 7400SOL    HW133659   0.695   3.696   5.807 -4.6179 -1.4236 -3.5453
 7400SOL    HW233660   0.696   3.639   5.672 -0.8370 -0.3468  1.4965
 7401SOL     OW33661   1.874   4.130  13.153 -0.3895  0.2675  0.1254
 7401SOL    HW133662   1.915   4.217  13.145  1.3685 -0.5827 -0.1841
 7401SOL    HW233663   1.811   4.139  13.224  0.3569 -1.4290  0.9805
 7402SOL     OW33664   2.984   0.677  11.702 -0.6553  0.0234 -0.5923
 7402SOL    HW133665   2.953   0.755  11.748  0.6311  0.5208 -0.5666
 7402SOL    HW233666   2.974   0.607  11.767 -1.8939  0.3318 -0.4591
 7403SOL     OW33667   2.908   0.203   8.036  0.0384  0.4944 -0.4115
 7403SOL    HW133668   2.889   0.126   8.090  1.6602 -0.0579 -0.6238
 7403SOL    HW233669   2.825   0.218   7.992  1.7081  3.0024 -2.7034
 7404SOL     OW33670   1.377   2.325   5.337  0.0702  0.4419  0.7519
 7404SOL    HW133671   1.471   2.306   5.334  0.4272  2.4869 -1.1320
 7404SOL    HW233672   1.371   2.409   5.383  0.1468  0.5935  0.4884
 7405SOL     OW33673   0.458   2.376   2.298  1.0234  0.1670 -0.2313
 7405SOL    HW133674   0.525   2.439   2.322  0.7187  0.3353  0.1760
 7405SOL    HW233675   0.508   2.294   2.295  0.4488 -0.2099  0.3963
 7406SOL     OW33676   1.987   2.499   6.986 -0.3886  0.1579  0.8921
 7406SOL    HW133677   2.004   2.460   7.072 -2.1001  0.1760  1.2569
 7406SOL    HW233678   2.060   2.474   6.931 -1.1589  0.4364 -0.2548
 7407SOL     OW33679   1.219   2.868   3.142  0.1481  0.0639  0.0723
 7407SOL    HW133680   1.237   2.787   3.094 -0.8355  1.5379 -2.7204
 7407SOL    HW233681   1.145   2.851   3.200  0.0034 -0.1348 -0.1729
 7408SOL     OW33682   4.085   2.046  10.729 -0.6969 -0.0600 -0.7562
 7408SOL    HW133683   4.097   1.986  10.803 -0.8674  1.4879  0.5103
 7408SOL    HW233684   4.152   2.109  10.754 -1.4755 -0.4974  2.4909
 7409SOL     OW33685   3.889   3.978   0.470 -0.2314  0.2193  0.1952
 7409SOL    HW133686   3.910   4.022   0.552  0.2378 -0.9278  0.6948
 7409SOL    HW233687   3.975   3.961   0.432  0.2618 -0.5898  1.6661
 7410SOL     OW33688   1.581   4.557  12.160 -0.2853 -0.0447 -0.5618
 7410SOL    HW133689   1.569   4.646  12.128  2.1097  1.6248  3.2403
 7410SOL    HW233690   1.489   4.533  12.169  0.0843 -0.4830  2.1022
 7411SOL     OW33691   0.090   3.627   8.599 -0.9228  0.3694 -0.3160
 7411SOL    HW133692   0.150   3.553   8.592 -0.8353  0.3540  0.5625
 7411SOL    HW233693   0.156   3.695   8.614 -0.1296 -0.0872 -1.7197
 7412SOL     OW33694   0.305   2.767  13.997  0.0958 -0.3027  0.7298
 7412SOL    HW133695   0.228   2.714  13.979  0.1098  0.8238 -2.5033
 7412SOL    HW233696   0.361   2.740  13.925  0.7883  1.6497  0.5359
 7413SOL     OW33697   3.581   0.241   7.419 -0.1455 -0.8349  0.5724
 7413SOL    HW133698   3.506   0.185   7.399 -0.3470  0.2295 -1.5688
 7413SOL    HW233699   3.534   0.312   7.464 -0.2119  0.9581 -2.3493
 7414SOL     OW33700   2.951   2.767  12.050  0.3564  0.3063 -0.2978
 7414SOL    HW133701   2.975   2.845  12.000  1.1159  0.4897  0.3507
 7414SOL    HW233702   2.864   2.788  12.083  0.3540 -1.1152  0.5694
 7415SOL     OW33703   3.813   0.113   4.297  0.6280 -0.0626 -0.7054
 7415SOL    HW133704   3.853   0.170   4.362 -1.7245  1.1970 -0.3624
 7415SOL    HW233705   3.885   0.062   4.258  1.6427  0.1462  0.8893
 7416SOL     OW33706   1.854   1.868   5.308  0.3126  0.0417 -0.3742
 7416SOL    HW133707   1.944   1.896   5.323  0.7337 -1.2623 -0.4588
 7416SOL    HW233708   1.803   1.937   5.350  0.8757 -0.8731  1.7837
 7417SOL     OW33709   2.330   0.542  11.803  0.0622  0.2158 -0.5669
 7417SOL    HW133710   2.345   0.514  11.713  1.9397 -1.3285  0.2177
 7417SOL    HW233711   2.356   0.462  11.850 -3.9842 -0.5302  0.3890
 7418SOL     OW33712   2.705   0.462   1.954  0.6042 -0.3493 -0.1381
 7418SOL    HW133713   2.786   0.440   1.999  1.1220 -0.7068 -1.2579
 7418SOL    HW233714   2.686   0.551   1.983  1.9050 -0.0261 -0.2829
 7419SOL     OW33715   2.086   0.679   8.321  0.2555 -0.6108  0.3138
 7419SOL    HW133716   2.053   0.626   8.248  0.1995  1.1915 -0.9573
 7419SOL    HW233717   2.026   0.661   8.393  0.5322  0.9716  0.9382
 7420SOL     OW33718   2.641   1.916   3.281  0.2640 -0.5305 -0.4142
 7420SOL    HW133719   2.547   1.935   3.282  1.0057  2.9485  1.5928
 7420SOL    HW233720   2.658   1.968   3.202 -0.1078 -0.7929 -0.6697
 7421SOL     OW33721   2.634   2.403   5.226  0.1882 -0.6718 -0.4540
 7421SOL    HW133722   2.709   2.388   5.168  0.0219 -1.1027 -0.5574
 7421SOL    HW233723   2.667   2.378   5.313 -0.0960  2.6907  0.6114
 7422SOL     OW33724   1.723   0.913   5.126 -0.2789  0.2860 -0.2745
 7422SOL    HW133725   1.809   0.896   5.165  0.1011 -1.5081 -1.8560
 7422SOL    HW233726   1.761   0.941   5.042 -0.1713  0.2953 -0.2235
 7423SOL     OW33727   3.120   2.275   0.718 -0.1451  0.2539  0.4117
 7423SOL    HW133728   3.196   2.237   0.673 -0.5752  0.8990 -0.8521
 7423SOL    HW233729   3.156   2.309   0.800  0.1221 -1.1000  0.8544
 7424SOL     OW33730   2.537   0.051   5.448  0.1840 -0.1118 -0.3229
 7424SOL    HW133731   2.512   0.142   5.428  1.6907  0.2379 -0.6634
 7424SOL    HW233732   2.582   0.015   5.371  0.3209  0.2377 -0.4072
 7425SOL     OW33733   4.082   1.785   2.105 -0.7102 -0.4211  0.1529
 7425SOL    HW133734   4.013   1.844   2.075 -0.5367 -0.3816 -0.1656
 7425SOL    HW233735   4.048   1.701   2.075  0.4015 -0.3451 -1.3069
 7426SOL     OW33736   4.455   0.836   6.129  0.5145  0.4982  0.3025
 7426SOL    HW133737   4.524   0.770   6.131  0.8755  0.8691 -0.0397
 7426SOL    HW233738   4.490   0.895   6.062 -2.5314 -0.2882 -1.9996
 7427SOL     OW33739   2.307   2.643  11.344 -0.0897  0.5891 -0.0017
 7427SOL    HW133740   2.366   2.708  11.382 -1.1689 -0.7332  3.9330
 7427SOL    HW233741   2.369   2.582  11.305 -0.7885  0.0281 -0.2363
 7428SOL     OW33742   4.401   4.665  11.337 -0.4130 -0.6699  0.1847
 7428SOL    HW133743   4.324   4.608  11.340 -1.1412  0.2965  0.1473
 7428SOL    HW233744   4.431   4.662  11.246 -1.2933  2.0467 -0.2063
 7429SOL     OW33745   0.447   3.920  11.532 -0.5380  0.1318  0.1610
 7429SOL    HW133746   0.420   3.928  11.440 -0.3744 -1.8401 -0.0627
 7429SOL    HW233747   0.506   3.996  11.534  0.7282 -0.8532  0.2535
 7430SOL     OW33748   2.271   2.509  16.907  1.1367 -0.4419  0.1980
 7430SOL    HW133749   2.303   2.569  16.839  0.5098 -1.5777 -1.0914
 7430SOL    HW233750   2.345   2.452  16.927  0.1322 -1.7269  0.2505
 7431SOL     OW33751   0.412   2.044  13.273  0.3597  1.2295  0.3916
 7431SOL    HW133752   0.436   1.991  13.196  2.3042  2.8171 -0.0949
 7431SOL    HW233753   0.496   2.084  13.293  0.3578  2.2406 -1.5493
 7432SOL     OW33754   0.196   1.443  17.375 -0.5200 -0.3002  0.1334
 7432SOL    HW133755   0.228   1.355  17.355 -1.9420  0.0394 -3.6966
 7432SOL    HW233756   0.110   1.447  17.333 -0.2953 -0.2736 -0.3196
 7433SOL     OW33757   1.744   1.483   5.686  0.3843 -0.5293 -0.6327
 7433SOL    HW133758   1.783   1.461   5.601 -1.0111 -0.0659 -1.4012
 7433SOL    HW233759   1.657   1.510   5.655 -0.1185 -1.1501  0.2606
 7434SOL     OW33760   4.038   2.554   9.185 -0.7969 -0.5335 -0.9227
 7434SOL    HW133761   4.119   2.595   9.155 -0.8936  0.8050  0.6483
 7434SOL    HW233762   4.069   2.477   9.232  0.9790  1.2897  0.8939
 7435SOL     OW33763   1.089   2.586   2.400  0.9884  0.4753  0.3026
 7435SOL    HW133764   1.117   2.517   2.460 -0.5524 -0.5636 -0.1633
 7435SOL    HW233765   1.001   2.563   2.372  0.3222 -0.1146  2.9095
 7436SOL     OW33766   1.929   2.556   8.113 -0.5438  0.4457  0.2210
 7436SOL    HW133767   1.906   2.563   8.020 -0.0234 -2.0450 -0.0977
 7436SOL    HW233768   1.841   2.535   8.144  0.3814  2.8242  4.4525
 7437SOL     OW33769   2.290   3.189   4.500  0.0701 -0.2745  0.8143
 7437SOL    HW133770   2.343   3.162   4.425 -0.7626 -1.1500  0.5346
 7437SOL    HW233771   2.285   3.283   4.483 -0.0706  0.0698  2.7406
 7438SOL     OW33772   4.706   4.357   6.290  0.0516 -0.0795 -0.1258
 7438SOL    HW133773   0.034   4.437   6.276 -1.5634  1.0388  0.3895
 7438SOL    HW233774   4.617   4.389   6.277  0.5142  0.5766 -1.7158
 7439SOL     OW33775   2.251   1.968   7.044  0.1577 -0.1256  0.2182
 7439SOL    HW133776   2.297   2.001   7.121 -0.2850 -1.0424  0.8740
 7439SOL    HW233777   2.261   2.052   7.000 -1.6799  0.3717  0.7693
 7440SOL     OW33778   1.714   3.002   6.770 -0.0524  0.4168  0.5707
 7440SOL    HW133779   1.763   2.955   6.837  0.1231 -0.1359  0.0505
 7440SOL    HW233780   1.731   3.089   6.804 -0.5259  0.0516  1.7359
 7441SOL     OW33781   4.042   1.890  16.464  0.2261  0.0639 -0.3345
 7441SOL    HW133782   3.992   1.969  16.484 -0.6950 -1.1098  2.0344
 7441SOL    HW233783   4.018   1.835  16.539  0.5963  2.4226  1.5293
 7442SOL     OW33784   4.408   1.827  11.346  0.3340  0.5212 -0.6387
 7442SOL    HW133785   4.403   1.806  11.439 -1.1180 -0.1980 -0.8789
 7442SOL    HW233786   4.380   1.744  11.308 -2.1036 -0.7224  3.9455
 7443SOL     OW33787   2.319   2.766   3.843  0.6463 -0.2280  0.0949
 7443SOL    HW133788   2.233   2.760   3.802  0.2131 -0.8829  1.1069
 7443SOL    HW233789   2.292   2.782   3.934  0.6407 -0.0350  0.0597
 7444SOL     OW33790   2.010   0.333  11.600 -0.2334 -0.7216 -0.7384
 7444SOL    HW133791   1.963   0.295  11.526 -3.0124  0.9804  0.1460
 7444SOL    HW233792   2.094   0.288  11.595 -0.4859 -1.3516  0.7216
 7445SOL     OW33793   2.660   2.284   8.978 -0.2390 -0.1704  0.5672
 7445SOL    HW133794   2.756   2.282   8.976 -0.1901  2.6284 -0.1750
 7445SOL    HW233795   2.646   2.192   8.959 -2.0558 -0.0057  1.1005
 7446SOL     OW33796   0.033   4.215   3.958  0.0800  0.1163 -0.0427
 7446SOL    HW133797   0.044   4.251   3.870 -3.6366 -1.8784 -1.3293
 7446SOL    HW233798   0.015   4.297   4.005  1.0417  0.8888 -1.0101
 7447SOL     OW33799   1.026   1.416  14.478  0.7536 -0.0143 -0.1091
 7447SOL    HW133800   1.100   1.472  14.458  0.1572 -0.2341 -2.8373
 7447SOL    HW233801   0.951   1.465  14.444 -0.0036  0.2532  1.9083
 7448SOL     OW33802   4.524   0.210  17.656 -0.2627 -0.9062  0.3153
 7448SOL    HW133803   4.450   0.177  17.604 -0.1865  0.3646 -0.6022
 7448SOL    HW233804   4.576   0.130  17.654  1.3011  0.2207 -3.2885
 7449SOL     OW33805   3.559   4.610   2.524 -0.2936  0.3237  0.6194
 7449SOL    HW133806   3.608   4.546   2.471  1.4964 -0.6632  3.4677
 7449SOL    HW233807   3.469   4.577   2.526 -0.1712 -0.1048 -0.9973
 7450SOL     OW33808   2.269   2.307   2.372  0.3470  0.4928 -0.5679
 7450SOL    HW133809   2.207   2.256   2.423 -0.0925  1.4152 -0.1685
 7450SOL    HW233810   2.222   2.319   2.289 -0.4621 -0.7918 -0.3014
 7451SOL     OW33811   0.673   3.326  11.773  0.3425  0.3571  0.0790
 7451SOL    HW133812   0.719   3.359  11.850 -1.5416  1.6454  0.6740
 7451SOL    HW233813   0.658   3.403  11.719 -0.4018  0.3045  0.1977
 7452SOL     OW33814   3.243   4.199   9.011  0.3648  0.0088  0.4541
 7452SOL    HW133815   3.226   4.290   8.984  2.0148 -0.0769 -0.8357
 7452SOL    HW233816   3.319   4.208   9.069  1.4465  0.5040 -1.0246
 7453SOL     OW33817   2.073   3.473   4.988 -0.1853 -0.0220  0.6112
 7453SOL    HW133818   2.025   3.395   4.961  0.3135 -0.3597  0.7052
 7453SOL    HW233819   2.006   3.541   4.999 -1.3924 -1.1841  0.3869
 7454SOL     OW33820   1.110   0.040  10.394 -0.2578 -0.2644 -0.3807
 7454SOL    HW133821   1.026   0.030  10.438  1.3772  0.9586  3.0003
 7454SOL    HW233822   1.090   0.017  10.303  1.8268 -0.0497 -0.8927
 7455SOL     OW33823   3.054   2.252   3.962 -0.0439 -0.5941 -0.2978
 7455SOL    HW133824   3.117   2.318   3.988  0.4192 -1.0317 -0.3082
 7455SOL    HW233825   3.083   2.215   3.878  1.2615  0.3109 -0.2377
 7456SOL     OW33826   0.892   3.634   6.174  0.3800 -0.6199  0.1864
 7456SOL    HW133827   0.863   3.641   6.265  0.6812  0.6376  0.1785
 7456SOL    HW233828   0.930   3.721   6.161  1.8387 -1.4650 -1.2239
 7457SOL     OW33829   3.323   3.605   3.683 -0.5862  0.6591  0.2709
 7457SOL    HW133830   3.405   3.559   3.667 -0.4742  1.6631 -2.0640
 7457SOL    HW233831   3.367   3.686   3.711  1.0141 -0.1685  0.1522
 7458SOL     OW33832   2.066   2.859   5.123  0.1663  0.4424 -0.6314
 7458SOL    HW133833   2.054   2.954   5.116  1.1745  0.5056 -1.5148
 7458SOL    HW233834   2.091   2.842   5.032  1.2268  0.0771 -0.2735
 7459SOL     OW33835   2.851   1.862   8.494  0.0967 -0.1422 -0.5688
 7459SOL    HW133836   2.768   1.909   8.490 -1.5186 -2.7469  2.3813
 7459SOL    HW233837   2.827   1.777   8.458 -1.2455  0.0172 -0.0757
 7460SOL     OW33838   0.858   0.132   4.521  0.2152  0.1916  0.1852
 7460SOL    HW133839   0.882   0.076   4.447 -1.0090 -0.5127  0.3072
 7460SOL    HW233840   0.815   0.193   4.461  0.6323  0.6452  0.3489
 7461SOL     OW33841   3.732   0.781   5.530 -0.0293  0.0030 -0.0513
 7461SOL    HW133842   3.759   0.840   5.600 -0.6985  0.1303  0.0979
 7461SOL    HW233843   3.640   0.776   5.552  0.7086 -1.1756  2.7146
 7462SOL     OW33844   1.339   4.232   1.725  0.0179  0.2112 -0.2482
 7462SOL    HW133845   1.265   4.245   1.785 -2.7751  0.9040 -3.8376
 7462SOL    HW233846   1.304   4.266   1.643  1.1741 -1.0929 -1.2846
 7463SOL     OW33847   1.764   2.911   8.184  0.7025  0.1436  0.0603
 7463SOL    HW133848   1.767   2.867   8.269  0.4489  0.0383  0.0139
 7463SOL    HW233849   1.856   2.919   8.159 -0.0576  1.2400 -2.3255
 7464SOL     OW33850   3.410   4.625   9.474 -0.1225 -0.0653 -0.1731
 7464SOL    HW133851   3.465   4.547   9.482  2.9587  2.1605  0.4742
 7464SOL    HW233852   3.380   4.626   9.383  0.6136  0.7963 -0.4108
 7465SOL     OW33853   1.467   4.723   4.703  0.5402  0.2658  0.9004
 7465SOL    HW133854   1.421   0.081   4.685  0.8810 -0.3962 -2.9190
 7465SOL    HW233855   1.488   0.023   4.794  0.2329  0.1463  0.9997
 7466SOL     OW33856   4.604   0.370   5.111  0.5603 -0.5509 -0.1922
 7466SOL    HW133857   4.592   0.414   5.195  0.9124  0.6759 -0.7690
 7466SOL    HW233858   4.697   0.384   5.096  1.0029 -3.0253  0.3179
 7467SOL     OW33859   1.771   3.860   4.315  0.1885 -0.5421 -0.4283
 7467SOL    HW133860   1.807   3.803   4.248  2.7556 -2.0712  2.2527
 7467SOL    HW233861   1.845   3.887   4.368 -0.0450 -2.9565  1.1403
 7468SOL     OW33862   1.536   3.220   6.245  0.3793 -0.0359  0.2841
 7468SOL    HW133863   1.492   3.230   6.160 -0.0135  0.0764  0.5016
 7468SOL    HW233864   1.617   3.170   6.230  0.7837  0.9962 -1.0370
 7469SOL     OW33865   4.469   1.071   2.172  0.0478 -0.5282  0.1461
 7469SOL    HW133866   4.399   1.098   2.113  0.5178 -1.4621 -0.8352
 7469SOL    HW233867   4.475   0.979   2.144 -0.1750 -0.1587 -1.0968
 7470SOL     OW33868   1.130   2.332  12.476 -0.2548  0.3001 -0.3841
 7470SOL    HW133869   1.173   2.417  12.467  2.3903 -1.0095 -0.2809
 7470SOL    HW233870   1.087   2.346  12.560 -2.1516 -2.1472 -0.9403
 7471SOL     OW33871   3.037   1.250   1.772 -0.3503  0.2354 -0.3154
 7471SOL    HW133872   3.012   1.159   1.787 -1.6279  0.6990  0.3711
 7471SOL    HW233873   3.012   1.264   1.681  1.2866  0.2136 -0.7671
 7472SOL     OW33874   3.640   0.778   4.366 -0.2242  0.2151  0.6957
 7472SOL    HW133875   3.618   0.788   4.458  2.4291 -0.1176  1.3747
 7472SOL    HW233876   3.574   0.835   4.326 -0.7467 -0.8000  0.1132
 7473SOL     OW33877   0.704   2.232   8.709  0.5874 -0.6177  0.2357
 7473SOL    HW133878   0.708   2.178   8.630  2.9131  0.3940 -0.3138
 7473SOL    HW233879   0.694   2.320   8.674 -1.7814 -0.1338  2.0556
 7474SOL     OW33880   3.497   4.440   3.790 -0.4481 -0.0217  0.0392
 7474SOL    HW133881   3.557   4.510   3.816 -0.6232  0.7073 -1.5207
 7474SOL    HW233882   3.569   4.402   3.740 -1.4211 -0.7126 -0.8281
 7475SOL     OW33883   1.568   1.282  13.982 -0.1055  0.0504  0.0169
 7475SOL    HW133884   1.580   1.328  13.899 -0.8056  1.1694  0.5306
 7475SOL    HW233885   1.540   1.192  13.965 -0.0146 -0.3394  1.9470
 7476SOL     OW33886   3.702   3.577   9.360 -0.4339 -0.1558 -0.1027
 7476SOL    HW133887   3.751   3.587   9.278 -0.9312 -0.6871 -0.4677
 7476SOL    HW233888   3.769   3.536   9.415  0.4800 -0.9966 -1.8420
 7477SOL     OW33889   2.547   3.261   6.592 -0.0752 -0.2984  0.1357
 7477SOL    HW133890   2.516   3.278   6.680  1.7760  0.2442  0.6858
 7477SOL    HW233891   2.638   3.242   6.616 -0.9118 -0.2672  3.2756
 7478SOL     OW33892   0.478   0.778   4.076  0.0063 -0.6719  0.1753
 7478SOL    HW133893   0.423   0.702   4.097  0.5821 -1.6671 -1.9275
 7478SOL    HW233894   0.412   0.831   4.032  0.1795 -0.4280  0.2147
 7479SOL     OW33895   3.713   0.037   1.853 -0.0319  0.3648  0.4672
 7479SOL    HW133896   3.765   0.083   1.919  0.2817  0.9264 -0.1697
 7479SOL    HW233897   3.668   0.106   1.804 -0.0790 -1.9064 -2.6710
 7480SOL     OW33898   3.126   1.229  11.909  0.1551  0.2888  0.3394
 7480SOL    HW133899   3.138   1.258  11.818  0.2640 -1.2164 -0.1395
 7480SOL    HW233900   3.207   1.259  11.949  0.2316  0.8005 -0.2037
 7481SOL     OW33901   0.334   4.188   1.257 -0.2316 -0.2869  0.4096
 7481SOL    HW133902   0.345   4.273   1.214  0.1481 -1.0658 -1.0301
 7481SOL    HW233903   0.285   4.224   1.331 -1.2101  0.8653 -0.7823
 7482SOL     OW33904   2.535   1.820  15.028  0.4133  0.0604  0.1297
 7482SOL    HW133905   2.560   1.909  15.051 -1.0876  0.6591 -0.5931
 7482SOL    HW233906   2.566   1.761  15.097  0.7257  1.7268  1.4254
 7483SOL     OW33907   2.533   1.674   6.609  0.0978 -0.7630 -0.5123
 7483SOL    HW133908   2.484   1.594   6.626 -3.6022  1.6836  0.3948
 7483SOL    HW233909   2.603   1.675   6.674 -1.9975  1.5986  1.7158
 7484SOL     OW33910   2.185   3.555   5.456  0.1918  0.1675 -0.2575
 7484SOL    HW133911   2.217   3.465   5.468  0.8504  0.2523 -1.4545
 7484SOL    HW233912   2.215   3.560   5.366 -2.0146  2.4761 -0.8718
 7485SOL     OW33913   4.249   0.149   3.224 -0.2443 -0.1252 -0.1203
 7485SOL    HW133914   4.203   0.176   3.144  0.6203  0.6992 -0.3334
 7485SOL    HW233915   4.179   0.098   3.266  1.0381 -0.5010  1.5365
 7486SOL     OW33916   2.317   0.816   7.012  0.1976  0.3322  0.2575
 7486SOL    HW133917   2.359   0.871   6.946 -1.4114 -1.1340 -2.0101
 7486SOL    HW233918   2.378   0.809   7.085  2.5054 -0.6768 -1.7938
 7487SOL     OW33919   2.276   2.433   6.063  0.3778  0.0759  0.1609
 7487SOL    HW133920   2.344   2.482   6.109  1.5581 -1.1586 -0.2609
 7487SOL    HW233921   2.202   2.429   6.124 -1.3083 -0.2810 -1.9070
 7488SOL     OW33922   3.855   3.169   3.014  0.1511  0.5679 -0.5030
 7488SOL    HW133923   3.914   3.241   3.033 -3.2830  3.2787 -0.0274
 7488SOL    HW233924   3.909   3.111   2.962  1.9592 -0.5319  2.5766
 7489SOL     OW33925   4.017   0.021   1.913  0.3698 -0.2749  0.0070
 7489SOL    HW133926   3.957   4.670   1.919  1.6900 -1.1487  2.2446
 7489SOL    HW233927   4.035   0.020   1.819 -0.3803 -0.6520 -0.1362
 7490SOL     OW33928   4.095   4.284   6.077  0.4165 -0.1145 -0.4961
 7490SOL    HW133929   4.131   4.260   5.992 -0.3577  0.7406 -1.0641
 7490SOL    HW233930   4.128   4.372   6.097 -0.8455  0.0110  1.0064
 7491SOL     OW33931   1.816   1.978   0.744 -0.3053 -0.1212  0.4586
 7491SOL    HW133932   1.746   1.964   0.807  0.2452 -2.0644  0.6503
 7491SOL    HW233933   1.889   1.955   0.802 -1.0431 -1.9246  0.6736
 7492SOL     OW33934   2.131   1.063   1.014 -0.5009 -0.1088  0.1858
 7492SOL    HW133935   2.181   0.990   0.979 -0.8825  0.6739 -1.9949
 7492SOL    HW233936   2.158   1.056   1.106 -1.3690  1.3387  0.5602
 7493SOL     OW33937   3.618   4.101   2.748 -0.1051 -0.4174 -0.3554
 7493SOL    HW133938   3.613   4.138   2.837 -0.9239 -0.8468 -0.2190
 7493SOL    HW233939   3.702   4.056   2.743 -0.1665 -0.6183  0.3740
 7494SOL     OW33940   0.030   0.735   8.859  0.1521 -0.2089  0.0194
 7494SOL    HW133941   0.084   0.679   8.914 -1.1481 -0.9866  0.5123
 7494SOL    HW233942   4.701   0.781   8.925 -0.5725 -1.0392  0.0304
 7495SOL     OW33943   4.662   0.378   0.526 -0.3210 -0.1151 -0.0399
 7495SOL    HW133944   0.022   0.377   0.478 -1.3719  0.7600 -1.8684
 7495SOL    HW233945   4.634   0.287   0.534  0.0500  0.0505  3.2389
 7496SOL     OW33946   2.259   2.600   5.091  0.3434 -0.3989 -0.2790
 7496SOL    HW133947   2.214   2.661   5.032  2.0833  0.6121 -0.5454
 7496SOL    HW233948   2.264   2.526   5.031  1.4055  0.1762 -0.8959
 7497SOL     OW33949   2.173   4.193   4.946 -0.0837 -0.3921  0.3327
 7497SOL    HW133950   2.246   4.210   4.886 -0.4949 -1.3432 -0.4427
 7497SOL    HW233951   2.105   4.167   4.884 -1.2992  0.5819  1.2543
 7498SOL     OW33952   0.792   0.204  10.710 -0.4627 -0.4200  0.5780
 7498SOL    HW133953   0.825   0.133  10.765  0.7332 -0.8380 -0.6795
 7498SOL    HW233954   0.713   0.222  10.761 -2.0484  0.2678 -2.1595
 7499SOL     OW33955   0.390   3.451  10.323  0.1634 -0.1623 -0.2218
 7499SOL    HW133956   0.467   3.497  10.288 -0.3373  2.1855  1.8092
 7499SOL    HW233957   0.390   3.380  10.259  0.7635  1.9846 -2.6062
 7500SOL     OW33958   3.244   1.452   1.358  0.2895 -0.1815 -0.4611
 7500SOL    HW133959   3.295   1.524   1.321 -0.4427  1.1692  1.1349
 7500SOL    HW233960   3.216   1.406   1.278 -0.3036 -0.4800 -0.0770
 7501SOL     OW33961   1.362   3.459   4.826 -0.4572 -0.1599  0.1664
 7501SOL    HW133962   1.331   3.454   4.916 -1.7453  1.8891 -0.1625
 7501SOL    HW233963   1.420   3.382   4.827  0.4724  0.5314 -0.3070
 7502SOL     OW33964   3.622   1.018   6.773  0.1830 -0.5606  0.4541
 7502SOL    HW133965   3.628   1.027   6.868 -0.5177 -1.7172  0.6110
 7502SOL    HW233966   3.700   0.973   6.740 -0.4069 -0.7357 -0.7154
 7503SOL     OW33967   2.670   2.114   7.226  0.9523 -0.2118  0.5905
 7503SOL    HW133968   2.671   2.164   7.308 -1.0817 -1.7541  1.5458
 7503SOL    HW233969   2.648   2.026   7.255  0.5697 -0.4725 -0.4943
 7504SOL     OW33970   3.781   1.459  14.998 -0.2663  0.0699 -0.1559
 7504SOL    HW133971   3.787   1.392  15.066  1.6593  1.4765  1.0457
 7504SOL    HW233972   3.725   1.528  15.034 -1.2837 -0.8746  0.0930
 7505SOL     OW33973   1.653   2.315   4.796  0.0073  0.3351  0.0856
 7505SOL    HW133974   1.747   2.330   4.808  0.1732 -1.9678  1.6424
 7505SOL    HW233975   1.655   2.238   4.739  1.0292  0.6466 -0.3152
 7506SOL     OW33976   0.507   1.878  11.980  0.0046  0.1235 -0.4028
 7506SOL    HW133977   0.550   1.813  11.924  0.4186  0.1726 -0.1451
 7506SOL    HW233978   0.474   1.924  11.903 -0.6015 -1.2881 -0.9834
 7507SOL     OW33979   1.633   3.057   1.236  0.2363  0.1711  0.6840
 7507SOL    HW133980   1.663   3.100   1.315 -1.1370 -0.6841  1.6679
 7507SOL    HW233981   1.718   3.024   1.204 -0.8177 -2.4405  0.5685
 7508SOL     OW33982   2.896   1.011  17.502 -0.0863  0.0338 -0.2724
 7508SOL    HW133983   2.811   1.046  17.476  0.4281  1.3660 -0.1971
 7508SOL    HW233984   2.889   0.917  17.488  0.7584  0.0227 -0.6644
 7509SOL     OW33985   0.694   0.253   4.341  0.6431  0.6349 -0.2145
 7509SOL    HW133986   0.614   0.227   4.387  0.9583 -1.7605 -1.0071
 7509SOL    HW233987   0.661   0.329   4.293  2.0186  1.2922 -0.0993
 7510SOL     OW33988   0.657   3.807   3.232  0.2339 -0.7097 -0.2134
 7510SOL    HW133989   0.589   3.740   3.234 -0.8885  0.4216 -0.9223
 7510SOL    HW233990   0.631   3.879   3.290 -0.6171 -2.5490  1.6754
 7511SOL     OW33991   0.293   0.522  12.338 -0.1389  0.1381 -0.9051
 7511SOL    HW133992   0.366   0.584  12.345 -1.4156  1.3526  1.6987
 7511SOL    HW233993   0.331   0.451  12.389 -1.2654  0.9013  1.0026
 7512SOL     OW33994   4.088   1.009  15.264 -0.8492  0.5353 -0.5491
 7512SOL    HW133995   3.995   1.028  15.276 -1.1356  0.3505 -2.5612
 7512SOL    HW233996   4.088   0.913  15.257  0.4453  0.4898  0.0443
 7513SOL     OW33997   3.343   3.466   6.950  0.0478  0.6391  0.0891
 7513SOL    HW133998   3.394   3.401   6.901 -2.4954 -1.3710  0.1445
 7513SOL    HW233999   3.298   3.520   6.885  1.2708 -0.6245 -1.8397
 7514SOL     OW34000   3.211   0.651  13.420  0.4590 -0.2652  0.3770
 7514SOL    HW134001   3.237   0.688  13.336 -0.2834  0.7896  0.6215
 7514SOL    HW234002   3.128   0.610  13.398  0.2366  0.2528  0.2520
 7515SOL     OW34003   3.243   1.680   7.894 -0.0363  0.4654  0.0608
 7515SOL    HW134004   3.237   1.723   7.980  1.9482  2.1159 -0.6137
 7515SOL    HW234005   3.151   1.669   7.872  0.0970 -0.7959  0.1545
 7516SOL     OW34006   2.932   4.435  13.308 -0.2851  0.1769  0.5429
 7516SOL    HW134007   3.006   4.391  13.267 -1.5867 -1.3849 -0.1295
 7516SOL    HW234008   2.869   4.364  13.308 -0.5224  0.3896  0.2660
 7517SOL     OW34009   0.591   1.336  10.763  0.0446 -0.0753 -0.1345
 7517SOL    HW134010   0.561   1.325  10.672  0.8890 -2.4352 -0.1530
 7517SOL    HW234011   0.532   1.274  10.806  0.0993  0.5337  0.7998
 7518SOL     OW34012   0.014   1.428   2.442 -0.2284 -0.3584 -1.1347
 7518SOL    HW134013   0.061   1.370   2.382  0.0846 -0.0502 -1.1900
 7518SOL    HW234014   4.686   1.366   2.493 -0.3185  0.3681 -0.3446
 7519SOL     OW34015   3.579   4.171   4.048 -0.2908  0.1574  0.0671
 7519SOL    HW134016   3.558   4.179   3.955  1.8189  0.9989 -0.3276
 7519SOL    HW234017   3.633   4.093   4.041 -0.7094 -0.0369 -1.0488
 7520SOL     OW34018   3.178   2.770   4.312  1.0108 -0.2267  0.4433
 7520SOL    HW134019   3.211   2.681   4.314  1.7917  0.0058 -2.6762
 7520SOL    HW234020   3.089   2.737   4.302  1.1975 -0.1714 -1.4107
 7521SOL     OW34021   2.318   4.608   2.441 -0.1094  0.6237  0.3131
 7521SOL    HW134022   2.272   4.691   2.440  0.8731  1.1683  0.2854
 7521SOL    HW234023   2.358   4.620   2.527  0.0081 -1.8360  0.6015
 7522SOL     OW34024   1.429   3.717   3.472  0.0044 -0.3487  0.5102
 7522SOL    HW134025   1.483   3.773   3.528  0.6431 -1.2785  0.8387
 7522SOL    HW234026   1.350   3.718   3.526  0.0362  0.2546  0.5407
 7523SOL     OW34027   0.604   2.747   5.089 -0.0185  0.2308 -0.5534
 7523SOL    HW134028   0.548   2.781   5.160  2.3761  4.6402 -0.7474
 7523SOL    HW234029   0.692   2.781   5.105  0.9093 -2.8367  0.8925
 7524SOL     OW34030   4.666   3.447   7.731 -0.6640  0.4925  0.4410
 7524SOL    HW134031   4.645   3.522   7.787 -3.6798  0.3005 -0.4365
 7524SOL    HW234032   4.650   3.486   7.645  0.9600 -1.3785 -0.7034
 7525SOL     OW34033   1.520   2.897   7.128  0.1178 -0.0954  0.1966
 7525SOL    HW134034   1.498   2.894   7.221  0.6405 -3.2465  0.2106
 7525SOL    HW234035   1.437   2.898   7.079 -0.2438 -0.4492  0.8015
 7526SOL     OW34036   2.013   2.937  12.276  0.2968 -0.7249  0.1292
 7526SOL    HW134037   1.957   2.926  12.199  1.6814 -0.2780 -0.9501
 7526SOL    HW234038   2.082   2.872  12.263  0.5811 -0.2196 -0.8788
 7527SOL     OW34039   0.809   3.543   2.990 -0.1927  0.0744 -0.3044
 7527SOL    HW134040   0.817   3.454   3.024 -0.7057 -0.5111 -1.7061
 7527SOL    HW234041   0.728   3.537   2.938  0.4474 -1.0023 -1.1703
 7528SOL     OW34042   4.354   2.888   0.605 -0.1428  0.1872  0.2024
 7528SOL    HW134043   4.291   2.960   0.615  0.8939  0.8819  1.7023
 7528SOL    HW234044   4.353   2.856   0.695  1.8827  1.8850  0.8280
 7529SOL     OW34045   3.931   0.240   7.915  0.0998 -0.2938  0.4758
 7529SOL    HW134046   3.920   0.328   7.951  0.6546  0.7127 -1.8188
 7529SOL    HW234047   3.945   0.183   7.991  1.1212 -1.9014 -0.9052
 7530SOL     OW34048   1.238   0.071   2.928  0.2189  0.3305  0.1098
 7530SOL    HW134049   1.187   4.714   2.915  0.1982  0.6381 -1.7185
 7530SOL    HW234050   1.252   0.114   2.844  1.0482  0.3206  0.2466
 7531SOL     OW34051   1.108   3.683   9.957 -0.2116  0.0880  0.1540
 7531SOL    HW134052   1.149   3.740  10.022  0.2507  2.4801 -2.2225
 7531SOL    HW234053   1.030   3.738   9.948  0.8517  1.0852 -2.9152
 7532SOL     OW34054   3.387   0.826   1.247  0.5225  0.1572  0.0723
 7532SOL    HW134055   3.448   0.811   1.319 -0.6138 -0.6815  0.8584
 7532SOL    HW234056   3.358   0.916   1.260  0.5806 -0.0765  1.7746
 7533SOL     OW34057   2.567   2.546   4.574 -0.0950 -0.2500 -0.4761
 7533SOL    HW134058   2.532   2.630   4.601 -0.6262 -0.2940 -1.0307
 7533SOL    HW234059   2.578   2.505   4.660 -0.8543  1.1654  0.2889
 7534SOL     OW34060   2.022   3.314   2.358  0.4175 -0.0922  0.4097
 7534SOL    HW134061   1.983   3.255   2.423  0.2664 -1.6326 -1.1055
 7534SOL    HW234062   2.102   3.321   2.410 -1.4737  2.0907  3.0902
 7535SOL     OW34063   2.638   2.944  16.343 -0.4284  0.1421 -0.4743
 7535SOL    HW134064   2.594   2.892  16.410  1.0068 -0.2136  0.2069
 7535SOL    HW234065   2.648   3.028  16.389  2.3620 -0.4136 -0.0413
 7536SOL     OW34066   1.816   1.306   1.686  0.2193 -0.3976 -0.7667
 7536SOL    HW134067   1.897   1.355   1.697 -0.2721  0.3907 -0.6875
 7536SOL    HW234068   1.799   1.276   1.776 -1.2314 -1.8473 -1.5167
 7537SOL     OW34069   3.849   0.157  12.942 -0.0279  0.0040  0.1443
 7537SOL    HW134070   3.800   0.076  12.956 -1.8312  0.9593 -0.7270
 7537SOL    HW234071   3.925   0.134  12.889  0.4825 -0.1969  0.9473
 7538SOL     OW34072   3.474   4.689   8.940 -0.5382 -0.4895 -0.2219
 7538SOL    HW134073   3.518   0.039   8.984 -0.5294 -0.4868 -0.2353
 7538SOL    HW234074   3.435   0.014   8.867  3.6732  2.5976 -0.4133
 7539SOL     OW34075   3.835   1.791   6.965 -0.3015 -0.3219  0.1567
 7539SOL    HW134076   3.872   1.799   6.877 -1.1277  0.0578 -0.1604
 7539SOL    HW234077   3.911   1.802   7.022 -0.7067  0.8245  0.4746
 7540SOL     OW34078   2.480   4.032   6.662  0.4396  0.3155 -0.6600
 7540SOL    HW134079   2.499   4.077   6.744  0.9979 -1.0773 -0.0198
 7540SOL    HW234080   2.395   4.069   6.637 -0.2279 -0.4978  0.4130
 7541SOL     OW34081   2.224   4.117   8.720  0.2758  0.1808 -0.3047
 7541SOL    HW134082   2.242   4.203   8.683 -0.4335  1.1095  1.5015
 7541SOL    HW234083   2.152   4.132   8.782  0.4800 -0.0320 -0.0164
 7542SOL     OW34084   1.583   2.186   1.387 -0.0332  0.5070  0.2459
 7542SOL    HW134085   1.498   2.143   1.377 -0.8953  2.3632 -0.4239
 7542SOL    HW234086   1.572   2.275   1.354 -1.6589  1.0089  2.1898
 7543SOL     OW34087   0.165   4.657   2.817  0.0869  0.0344 -0.2878
 7543SOL    HW134088   0.218   4.707   2.878  1.3730 -0.2147 -1.1877
 7543SOL    HW234089   0.228   4.595   2.780 -1.6108  0.2743 -3.6692
 7544SOL     OW34090   1.061   0.280   6.894  0.1905  0.2406 -0.2102
 7544SOL    HW134091   1.046   0.357   6.950  2.8981 -0.7815  1.9784
 7544SOL    HW234092   1.081   0.223   6.969  0.6467  0.3635 -0.2354
 7545SOL     OW34093   0.525   3.396   2.369 -0.4104 -0.5023 -0.3740
 7545SOL    HW134094   0.566   3.429   2.289  0.2184  0.1337  0.2084
 7545SOL    HW234095   0.434   3.422   2.356  0.8797  3.7423 -1.0171
 7546SOL     OW34096   2.828   1.057   8.733  0.2868 -0.0610  0.3589
 7546SOL    HW134097   2.912   1.014   8.748  0.7696  0.1838 -1.6639
 7546SOL    HW234098   2.793   1.064   8.822 -2.3298 -0.9575 -0.5775
 7547SOL     OW34099   0.219   0.605   9.061  0.3346  0.4608  0.0823
 7547SOL    HW134100   0.256   0.688   9.092  2.7105  0.4564 -2.6963
 7547SOL    HW234101   0.287   0.557   9.013 -0.4161  0.1706 -0.6920
 7548SOL     OW34102   1.551   4.665   2.986  0.2189 -0.1746  0.5113
 7548SOL    HW134103   1.509   4.685   3.069 -0.0025  0.1128  0.3307
 7548SOL    HW234104   1.638   4.649   3.023  0.2131 -0.7335  0.2938
 7549SOL     OW34105   3.199   2.429  10.829  0.0783  0.2145 -0.5525
 7549SOL    HW134106   3.139   2.480  10.883  0.2718  0.7999 -0.8901
 7549SOL    HW234107   3.284   2.453  10.866  1.3664 -2.1256 -1.9805
 7550SOL     OW34108   1.759   0.786  10.416 -0.0720 -0.2361  0.1178
 7550SOL    HW134109   1.816   0.713  10.440 -0.3046 -0.5856 -0.3974
 7550SOL    HW234110   1.813   0.863  10.433 -1.3235  1.1540 -2.1661
 7551SOL     OW34111   0.602   3.639   3.484 -0.1789  0.3363  0.4680
 7551SOL    HW134112   0.657   3.638   3.563  1.0694 -0.3387 -0.4095
 7551SOL    HW234113   0.636   3.572   3.425  0.8617  1.2512  0.0487
 7552SOL     OW34114   1.236   1.575   4.604 -0.1669  0.4946  0.2051
 7552SOL    HW134115   1.240   1.479   4.603 -0.6805  0.4561  1.3118
 7552SOL    HW234116   1.321   1.598   4.566 -0.5869  3.8225  1.2969
 7553SOL     OW34117   2.169   1.208   2.360  0.1572  0.4895 -0.4109
 7553SOL    HW134118   2.242   1.158   2.395  0.2835  1.5017  0.7511
 7553SOL    HW234119   2.158   1.267   2.434 -0.9601  0.0762 -0.2523
 7554SOL     OW34120   1.512   3.820   4.441  0.0589  0.2953  0.0286
 7554SOL    HW134121   1.595   3.829   4.395 -0.0476  1.6446  0.1108
 7554SOL    HW234122   1.517   3.728   4.468 -0.4888  0.1477 -0.3744
 7555SOL     OW34123   4.287   4.123   4.143 -0.0769  0.6630  0.0415
 7555SOL    HW134124   4.332   4.198   4.102  0.7457  0.1417 -0.0109
 7555SOL    HW234125   4.295   4.154   4.233 -1.3032 -1.4674  0.8627
 7556SOL     OW34126   1.867   2.557   9.136 -0.1201  0.4249  0.0011
 7556SOL    HW134127   1.813   2.632   9.160  3.1683  2.0204  2.4015
 7556SOL    HW234128   1.808   2.486   9.111 -0.1525  0.0932  1.0047
 7557SOL     OW34129   0.909   0.041  15.982  0.0127 -0.2038 -0.0071
 7557SOL    HW134130   0.836   0.035  15.921 -0.1055 -2.0430  0.2960
 7557SOL    HW234131   0.874   0.098  16.050 -1.2644 -0.8800 -0.0891
 7558SOL     OW34132   3.476   1.901   2.381  0.2813 -0.6025  0.1957
 7558SOL    HW134133   3.477   1.940   2.294  2.1486 -0.9443  0.0494
 7558SOL    HW234134   3.501   1.813   2.351 -1.3569 -0.3130 -1.9848
 7559SOL     OW34135   3.875   2.046   4.962  0.6903  0.3240 -0.3790
 7559SOL    HW134136   3.909   1.958   4.981  0.4963  0.0111 -1.4632
 7559SOL    HW234137   3.958   2.089   4.941  1.0642 -1.3873 -2.4899
 7560SOL     OW34138   2.203   0.730  10.335  0.2847 -0.0016  0.0240
 7560SOL    HW134139   2.289   0.701  10.366  0.7698  2.4083  0.9082
 7560SOL    HW234140   2.175   0.781  10.411 -1.8118 -1.2711  0.0890
 7561SOL     OW34141   4.475   1.986   3.869 -0.4963  0.1686  0.1276
 7561SOL    HW134142   4.426   1.967   3.948 -2.0560  1.0974 -0.6120
 7561SOL    HW234143   4.561   2.014   3.902  1.0712 -3.1540 -1.1841
 7562SOL     OW34144   2.485   4.312   2.084  0.1792  0.2909 -0.6141
 7562SOL    HW134145   2.519   4.298   2.173 -1.5870 -0.1081  0.0045
 7562SOL    HW234146   2.542   4.388   2.071  1.8995 -0.7385  0.8666
 7563SOL     OW34147   2.440   0.366  11.943 -0.0119 -0.7189  0.0179
 7563SOL    HW134148   2.466   0.274  11.947 -0.8661 -0.7785  4.3781
 7563SOL    HW234149   2.489   0.402  12.016 -1.6577  0.2460  0.6537
 7564SOL     OW34150   3.972   4.291   8.452 -0.0574 -0.0645  0.0487
 7564SOL    HW134151   4.056   4.268   8.492 -0.0299  0.0930  0.0809
 7564SOL    HW234152   3.997   4.275   8.361  2.1189 -0.0611  0.6434
 7565SOL     OW34153   1.776   4.177   0.567  0.0470  0.1385  0.3532
 7565SOL    HW134154   1.711   4.174   0.497  0.3541 -3.2764  0.2187
 7565SOL    HW234155   1.770   4.085   0.592 -1.2311 -0.3729 -1.8406
 7566SOL     OW34156   2.881   0.813   3.086  0.6590 -0.0969  0.5637
 7566SOL    HW134157   2.841   0.782   3.168 -0.5963  0.3623  0.1256
 7566SOL    HW234158   2.809   0.865   3.052  0.2269 -0.9360  0.2061
 7567SOL     OW34159   0.142   2.233   2.047 -0.0325  0.4578  0.3664
 7567SOL    HW134160   0.047   2.223   2.044  0.1207 -1.0070  0.3377
 7567SOL    HW234161   0.166   2.206   2.135 -1.2994 -0.9878  0.2724
 7568SOL     OW34162   2.263   0.347   2.840  0.4331 -0.0478 -0.0899
 7568SOL    HW134163   2.307   0.279   2.890  1.5001  1.0305  0.4252
 7568SOL    HW234164   2.280   0.312   2.752  0.6015 -0.9231  0.2884
 7569SOL     OW34165   0.462   4.396   5.982 -0.2603  0.5240  0.2797
 7569SOL    HW134166   0.447   4.477   5.933 -2.2530  0.8629  1.4436
 7569SOL    HW234167   0.390   4.349   5.942 -1.4848  1.9209  0.8459
 7570SOL     OW34168   1.683   1.595  17.134 -0.4914  0.2225  0.1075
 7570SOL    HW134169   1.720   1.681  17.112  0.5676 -0.2264  0.1655
 7570SOL    HW234170   1.746   1.558  17.196 -1.1549 -1.3886 -0.1959
 7571SOL     OW34171   2.589   0.934   8.675  0.0879 -0.0544 -0.4717
 7571SOL    HW134172   2.596   0.857   8.731 -0.1388  1.2452  1.3512
 7571SOL    HW234173   2.675   0.974   8.687 -0.9008  2.0314 -0.3745
 7572SOL     OW34174   2.812   3.010   2.181 -0.5236  0.7442 -0.2481
 7572SOL    HW134175   2.895   2.968   2.158 -1.5044 -1.6477  0.5864
 7572SOL    HW234176   2.777   2.971   2.261  1.5416 -2.4871 -0.8985
 7573SOL     OW34177   4.332   1.024   7.251 -0.7912 -0.2957  0.0445
 7573SOL    HW134178   4.379   0.943   7.232 -1.6825 -1.1544  1.5394
 7573SOL    HW234179   4.369   1.091   7.193 -0.6420 -0.8347 -0.4840
 7574SOL     OW34180   1.850   0.865  10.082  0.4172 -0.1276  0.0633
 7574SOL    HW134181   1.924   0.803  10.083  0.0150 -0.6102  0.1589
 7574SOL    HW234182   1.884   0.924  10.149 -1.5067  1.5359 -0.4559
 7575SOL     OW34183   0.132   4.603  11.829  0.1874  0.2700  0.3597
 7575SOL    HW134184   0.135   4.689  11.787  1.0439 -0.0927 -0.3228
 7575SOL    HW234185   0.081   4.550  11.768  1.3911  0.7711 -1.0875
 7576SOL     OW34186   0.991   0.748   3.697 -0.3753  0.3960 -0.5530
 7576SOL    HW134187   1.059   0.811   3.670  0.5112 -0.0096  0.7336
 7576SOL    HW234188   0.981   0.782   3.785 -1.3568 -1.0121 -0.1222
 7577SOL     OW34189   4.100   2.811   5.479 -0.1199 -0.5957  0.1118
 7577SOL    HW134190   4.064   2.735   5.524  0.5135 -0.0994  1.4479
 7577SOL    HW234191   4.124   2.866   5.554  0.8206  0.9085 -1.2817
 7578SOL     OW34192   3.638   0.193   4.898  0.3103 -0.2278 -0.1692
 7578SOL    HW134193   3.577   0.218   4.828  0.6691  2.9301  0.6312
 7578SOL    HW234194   3.726   0.209   4.863  0.2087 -3.2379 -1.7490
 7579SOL     OW34195   2.684   0.824   8.081  0.2114  0.3759 -0.0856
 7579SOL    HW134196   2.721   0.902   8.122 -1.3896  2.1081 -1.9703
 7579SOL    HW234197   2.590   0.837   8.092  0.0907 -0.0069 -0.6411
 7580SOL     OW34198   3.079   3.799   4.980 -0.2887 -0.1741  0.3903
 7580SOL    HW134199   3.016   3.867   4.954 -0.7021 -0.2689  1.1488
 7580SOL    HW234200   3.127   3.804   4.897  0.5705 -0.3875  0.8735
 7581SOL     OW34201   1.772   1.612   3.509  0.3081  0.2327  0.3795
 7581SOL    HW134202   1.727   1.695   3.493  0.9722  0.0209 -2.5892
 7581SOL    HW234203   1.729   1.554   3.447 -0.6654 -0.3103  1.5656
 7582SOL     OW34204   2.115   0.211   0.931  0.7376  0.3586  0.4522
 7582SOL    HW134205   2.086   0.284   0.986  0.3694  0.1687  0.5119
 7582SOL    HW234206   2.210   0.203   0.940  0.6667 -0.8567  0.0528
 7583SOL     OW34207   3.897   3.948   0.941 -0.2842  0.0787  0.3212
 7583SOL    HW134208   3.934   3.885   1.002 -1.5064 -2.2183 -1.2898
 7583SOL    HW234209   3.971   4.000   0.910  0.1014  0.5750  2.0762
 7584SOL     OW34210   1.026   3.998   2.640 -0.2011 -0.3987 -0.2783
 7584SOL    HW134211   1.116   4.026   2.624 -0.0992  1.0388  2.8009
 7584SOL    HW234212   1.013   3.940   2.565 -1.7165  0.6781 -0.8675
 7585SOL     OW34213   2.786   0.542   5.434  0.2397 -0.1770  0.5885
 7585SOL    HW134214   2.771   0.609   5.500 -0.5700 -1.1486  1.3923
 7585SOL    HW234215   2.778   0.589   5.351 -0.0096 -2.1739 -0.5224
 7586SOL     OW34216   3.916   0.502   9.257  0.0784 -0.0126  0.4487
 7586SOL    HW134217   3.932   0.584   9.302  1.5875  0.9181 -1.7957
 7586SOL    HW234218   3.979   0.503   9.185 -0.3672 -0.4932  0.0445
 7587SOL     OW34219   2.301   2.643   0.028  0.0974 -0.1076  0.4443
 7587SOL    HW134220   2.224   2.696   0.010  1.3378  1.6372  0.2431
 7587SOL    HW234221   2.370   2.697  17.683 -0.1553  1.0392  1.5797
 7588SOL     OW34222   3.563   1.287   5.492 -0.1106  0.2541 -0.7351
 7588SOL    HW134223   3.637   1.332   5.532 -0.9977  1.0191  0.0169
 7588SOL    HW234224   3.538   1.228   5.563 -0.0555 -0.9905 -1.7481
 7589SOL     OW34225   2.207   2.403  17.391  0.4126  0.2480 -0.0072
 7589SOL    HW134226   2.290   2.380  17.433  0.4725  0.3063 -0.0935
 7589SOL    HW234227   2.230   2.448  17.310  0.6713 -0.6522 -0.4362
 7590SOL     OW34228   1.172   0.810  15.673  0.5497 -0.0009 -0.2443
 7590SOL    HW134229   1.123   0.892  15.681 -0.4021 -0.6535  0.5068
 7590SOL    HW234230   1.202   0.789  15.761 -1.2046 -0.8906  0.1296
 7591SOL     OW34231   2.208   0.454  12.093 -0.2547  0.2533 -0.3018
 7591SOL    HW134232   2.203   0.363  12.123  2.5581  0.4161  0.7306
 7591SOL    HW234233   2.285   0.453  12.036  1.4546  0.3063  1.9570
 7592SOL     OW34234   0.202   4.660  15.832 -0.3457 -0.2502 -0.3819
 7592SOL    HW134235   0.182   4.579  15.785 -1.4516  0.1200 -0.5386
 7592SOL    HW234236   0.290   4.678  15.799 -0.6852 -0.9915 -1.6799
 7593SOL     OW34237   2.700   3.280   3.064 -0.8340 -0.1931  0.1948
 7593SOL    HW134238   2.782   3.272   3.014  1.0334  0.0197  3.2200
 7593SOL    HW234239   2.713   3.366   3.103  2.1393 -0.2025 -0.7674
 7594SOL     OW34240   4.109   4.673   7.200 -0.7487 -0.0034  0.0822
 7594SOL    HW134241   4.157   4.652   7.120  2.2859 -1.2623  2.2020
 7594SOL    HW234242   4.066   4.590   7.219  0.7907 -0.3402  2.2211
 7595SOL     OW34243   2.150   1.725  14.488 -0.1234  0.1439  0.1624
 7595SOL    HW134244   2.242   1.752  14.485  0.2398 -1.2184 -0.7930
 7595SOL    HW234245   2.112   1.812  14.473  2.1924  1.0967 -0.1460
 7596SOL     OW34246   3.311   4.322  13.852 -0.1164  0.4775 -0.4524
 7596SOL    HW134247   3.379   4.387  13.834  2.5208 -1.6453  1.8016
 7596SOL    HW234248   3.230   4.372  13.847 -0.5111 -0.1655 -0.5273
 7597SOL     OW34249   0.556   1.778   2.529 -0.6715 -0.0917  0.0696
 7597SOL    HW134250   0.518   1.810   2.611  1.4410  0.1991  0.9433
 7597SOL    HW234251   0.525   1.689   2.547  2.3096 -1.5969 -2.2052
 7598SOL     OW34252   3.822   3.964   5.681 -0.1651  0.2568 -0.6787
 7598SOL    HW134253   3.807   4.040   5.737 -0.6942 -0.3471 -0.0035
 7598SOL    HW234254   3.767   3.985   5.605  1.4129  1.8025 -1.4034
 7599SOL     OW34255   1.440   1.939   5.620  0.2746  0.3702  0.1761
 7599SOL    HW134256   1.377   2.008   5.601 -0.4156 -0.5677 -0.8978
 7599SOL    HW234257   1.387   1.860   5.615 -1.3989  1.5336 -0.1746
 7600SOL     OW34258   3.086   1.233   8.014  0.2602  0.2343 -0.1278
 7600SOL    HW134259   3.002   1.248   8.057 -0.9378  0.2671 -2.4774
 7600SOL    HW234260   3.134   1.306   8.051  1.0878 -1.4268  2.1266
 7601SOL     OW34261   0.703   4.127   8.225 -0.4495 -0.5963  0.4409
 7601SOL    HW134262   0.624   4.172   8.254  1.1287  1.9685  0.7209
 7601SOL    HW234263   0.754   4.204   8.202 -1.7236  0.0413 -0.2160
 7602SOL     OW34264   1.618   0.584   2.087  0.3756  0.2841  0.1494
 7602SOL    HW134265   1.618   0.580   1.991  0.3789 -0.0779  0.1630
 7602SOL    HW234266   1.677   0.658   2.098  1.7855 -0.6832 -0.8971
 7603SOL     OW34267   0.780   0.110   8.093  0.5141  0.0626 -0.2685
 7603SOL    HW134268   0.768   0.055   8.016 -3.0631  1.7094 -0.9041
 7603SOL    HW234269   0.845   0.175   8.067 -0.8749  1.4253 -0.3276
 7604SOL     OW34270   4.037   3.606   2.107  0.5487  0.5609  0.3587
 7604SOL    HW134271   4.024   3.644   2.020 -0.7346  0.4291  0.5013
 7604SOL    HW234272   4.030   3.513   2.088  0.5276  0.9232 -1.3700
 7605SOL     OW34273   3.877   3.985   7.056 -0.6400 -0.3511  0.1224
 7605SOL    HW134274   3.905   3.942   6.975  0.7390  2.2884 -0.7939
 7605SOL    HW234275   3.912   3.922   7.118  0.7160  0.4051  0.1290
 7606SOL     OW34276   0.835   1.805   2.456 -0.0853 -0.5167 -0.7740
 7606SOL    HW134277   0.837   1.756   2.538 -0.0044  1.4253  0.3859
 7606SOL    HW234278   0.741   1.821   2.445 -0.2932 -0.9998  0.3982
 7607SOL     OW34279   2.242   1.546  16.105  0.3149 -0.5973  0.0812
 7607SOL    HW134280   2.248   1.530  16.200  1.1343  4.2452  0.8137
 7607SOL    HW234281   2.277   1.634  16.099 -1.7965  0.1460 -1.4037
 7608SOL     OW34282   4.274   2.137   6.160 -0.5951 -0.1852  0.1546
 7608SOL    HW134283   4.204   2.177   6.211 -2.3267 -3.6457  0.4737
 7608SOL    HW234284   4.349   2.160   6.215 -0.3861  1.0387 -0.6452
 7609SOL     OW34285   2.411   3.283   6.856  0.1945 -0.0377 -0.0676
 7609SOL    HW134286   2.414   3.359   6.915 -0.2924  0.3816 -0.5940
 7609SOL    HW234287   2.390   3.206   6.909 -0.7803 -0.3388 -0.9039
 7610SOL     OW34288   1.108   3.269   5.958 -0.0505  0.1612 -0.3552
 7610SOL    HW134289   1.029   3.321   5.951  0.3348  1.0972  2.1317
 7610SOL    HW234290   1.141   3.318   6.033  0.6921 -2.0722  0.7771
 7611SOL     OW34291   1.167   1.816   8.298 -0.0063 -0.7533 -0.2714
 7611SOL    HW134292   1.203   1.797   8.211 -1.2803  1.6419 -1.2983
 7611SOL    HW234293   1.106   1.743   8.314 -0.9195  0.3265  1.1513
 7612SOL     OW34294   3.112   2.657   8.542 -0.8165 -0.3796  0.4624
 7612SOL    HW134295   3.160   2.671   8.460 -1.8083 -1.4429 -0.3100
 7612SOL    HW234296   3.040   2.613   8.497  0.3236 -1.4397 -0.3373
 7613SOL     OW34297   2.990   1.088  10.383  0.1257  0.5089  0.2200
 7613SOL    HW134298   2.960   1.091  10.292  1.8562 -1.9571 -0.4361
 7613SOL    HW234299   3.018   0.997  10.391  1.8698  1.0578  0.2624
 7614SOL     OW34300   2.282   3.359  16.812  0.4549  0.3249 -0.2663
 7614SOL    HW134301   2.341   3.431  16.788  1.6985 -0.8711 -0.8077
 7614SOL    HW234302   2.197   3.403  16.805  0.9327  1.1611 -0.8987
 7615SOL     OW34303   3.394   3.800   5.456  0.3794 -0.1152  0.0270
 7615SOL    HW134304   3.449   3.825   5.381  0.1469 -1.9448 -0.7508
 7615SOL    HW234305   3.464   3.759   5.507 -0.5962  1.1376  2.3707
 7616SOL     OW34306   0.152   4.523   9.222  0.2173 -0.0010  0.0338
 7616SOL    HW134307   0.160   4.456   9.290 -0.4005  0.3315  0.4364
 7616SOL    HW234308   0.208   4.591   9.260 -1.6174  1.1052  0.7204
 7617SOL     OW34309   4.555   4.429   0.948 -0.3243 -0.2640  0.0374
 7617SOL    HW134310   4.522   4.381   1.025 -0.7482  1.9358  1.2107
 7617SOL    HW234311   4.521   4.518   0.958 -0.6994 -0.3947 -0.0445
 7618SOL     OW34312   0.689   0.438   3.482  0.0119  0.3465 -0.4302
 7618SOL    HW134313   0.767   0.489   3.503  0.5191  0.6943 -3.1330
 7618SOL    HW234314   0.685   0.440   3.387 -0.5376 -1.6048 -0.4512
 7619SOL     OW34315   2.349   2.030   3.582 -0.3665  0.0108 -0.8445
 7619SOL    HW134316   2.303   2.046   3.664 -0.3268  0.3062 -0.8817
 7619SOL    HW234317   2.307   1.951   3.547 -0.1271 -1.4084  2.0617
 7620SOL     OW34318   2.697   4.341   6.030 -0.4563  0.2156  0.2972
 7620SOL    HW134319   2.745   4.420   6.006 -0.3589 -0.2058 -0.8970
 7620SOL    HW234320   2.690   4.358   6.124 -1.2319  0.8534  0.1219
 7621SOL     OW34321   2.530   3.804   0.546  0.3311  0.1095 -0.0996
 7621SOL    HW134322   2.547   3.800   0.640  0.5781  2.3741 -0.0567
 7621SOL    HW234323   2.609   3.763   0.512 -0.4069  0.1489 -1.8497
 7622SOL     OW34324   3.138   4.314   1.244  0.5376  0.0457 -0.6990
 7622SOL    HW134325   3.129   4.362   1.162 -0.1408 -3.2594 -2.5709
 7622SOL    HW234326   3.232   4.307   1.262  0.8926  0.0062 -2.5680
 7623SOL     OW34327   0.484   0.234   7.487  0.2380  0.4707  0.5413
 7623SOL    HW134328   0.410   0.266   7.538  1.7648  0.5733  2.7242
 7623SOL    HW234329   0.523   0.187   7.561  1.6772  0.6485 -0.1071
 7624SOL     OW34330   1.582   0.289   6.015  0.0660  0.4570 -0.2068
 7624SOL    HW134331   1.549   0.259   5.930 -1.4817  2.5326 -0.3518
 7624SOL    HW234332   1.501   0.294   6.064  1.8431  2.0817  2.5627
 7625SOL     OW34333   3.027   0.844   3.614 -0.2173  0.0464  0.3465
 7625SOL    HW134334   3.015   0.939   3.610 -1.4499 -0.1974 -1.6675
 7625SOL    HW234335   2.937   0.823   3.640 -0.2083 -2.9553 -2.0779
 7626SOL     OW34336   2.172   1.145   4.858  0.4664  0.6770 -0.0850
 7626SOL    HW134337   2.237   1.207   4.892 -0.2565  1.1014  0.5256
 7626SOL    HW234338   2.211   1.130   4.772  0.2574  0.1324 -0.0830
 7627SOL     OW34339   1.753   1.526   3.759  0.4744  1.0588 -0.3699
 7627SOL    HW134340   1.780   1.565   3.675 -2.9905  2.9563 -0.5920
 7627SOL    HW234341   1.795   1.441   3.745  1.0795  1.2922  0.0609
 7628SOL     OW34342   2.901   4.314  13.856  0.2811  0.0798  0.1527
 7628SOL    HW134343   2.949   4.267  13.788 -0.6244  0.1875 -0.5526
 7628SOL    HW234344   2.953   4.279  13.929  1.4215  0.8663 -0.2797
 7629SOL     OW34345   3.747   4.238   3.786 -0.2529  0.9085  0.0379
 7629SOL    HW134346   3.792   4.305   3.838  1.1427 -0.2945  0.4167
 7629SOL    HW234347   3.812   4.168   3.779 -0.7143  0.9178 -3.9947
 7630SOL     OW34348   1.188   3.142  16.825 -0.1171  0.2117 -0.3672
 7630SOL    HW134349   1.170   3.141  16.730 -0.5120  2.6528 -0.3265
 7630SOL    HW234350   1.103   3.108  16.854  0.6921 -0.7462  0.8696
 7631SOL     OW34351   3.349   2.571   7.182 -0.3998  0.1459 -0.5632
 7631SOL    HW134352   3.349   2.497   7.121 -0.9497 -0.4650  0.1861
 7631SOL    HW234353   3.358   2.646   7.122  0.8300  0.6086  0.2038
 7632SOL     OW34354   0.039   3.374   9.084 -0.2372  0.6042  0.4214
 7632SOL    HW134355   0.009   3.295   9.039 -0.9354  1.3755 -0.4466
 7632SOL    HW234356   4.703   3.434   9.039  1.2990  1.6139 -0.2596
 7633SOL     OW34357   3.405   1.481   4.062 -0.4498 -0.4537  0.6372
 7633SOL    HW134358   3.472   1.430   4.108  0.5290 -2.1189 -2.6374
 7633SOL    HW234359   3.402   1.567   4.103 -0.1537 -0.6565  1.0893
 7634SOL     OW34360   1.274   2.478   8.553 -0.0372 -0.2273  0.2494
 7634SOL    HW134361   1.241   2.462   8.641 -0.9027 -0.7256 -0.1601
 7634SOL    HW234362   1.309   2.393   8.526  2.6036  0.2045  2.3384
 7635SOL     OW34363   2.269   2.331  16.516  0.7267 -0.2284 -0.2620
 7635SOL    HW134364   2.343   2.271  16.508  0.2375 -0.6193 -1.8540
 7635SOL    HW234365   2.211   2.280  16.573  0.8881  1.8034  1.7160
 7636SOL     OW34366   1.279   3.998   2.073 -0.7661 -0.2513 -0.2113
 7636SOL    HW134367   1.188   4.021   2.089 -1.1065 -2.6737  1.3119
 7636SOL    HW234368   1.264   3.928   2.009 -0.9028  1.5045 -2.1309
 7637SOL     OW34369   3.322   4.048   5.303  0.0063  0.4745  0.3827
 7637SOL    HW134370   3.332   4.003   5.386  0.4198  1.7555  1.0194
 7637SOL    HW234371   3.307   3.972   5.246  0.3245 -0.4268  1.5225
 7638SOL     OW34372   4.655   2.896   6.874  0.1957  0.1092 -0.1752
 7638SOL    HW134373   4.629   2.967   6.817  1.7116  0.7814 -0.0164
 7638SOL    HW234374   0.004   2.858   6.825  0.9150  0.8930  0.2751
 7639SOL     OW34375   3.325   0.781   5.779 -0.5669  0.1014  0.5354
 7639SOL    HW134376   3.272   0.744   5.849 -0.9208  2.2584  1.3977
 7639SOL    HW234377   3.330   0.876   5.774 -1.1942  0.2342  2.6344
 7640SOL     OW34378   1.880   2.685   5.965 -0.4643  1.1043 -0.4072
 7640SOL    HW134379   1.867   2.591   5.955  0.1083  1.1761 -1.9101
 7640SOL    HW234380   1.795   2.728   5.955 -2.2182 -2.7552 -2.1606
 7641SOL     OW34381   4.695   1.435   7.994 -0.1635  0.8315 -0.3134
 7641SOL    HW134382   4.630   1.393   7.937  1.5298  0.1538 -1.7387
 7641SOL    HW234383   0.031   1.468   7.926  1.0931  2.2209  1.4702
 7642SOL     OW34384   0.778   1.428   1.764 -0.3017 -0.0532 -0.1295
 7642SOL    HW134385   0.805   1.338   1.746 -2.0541 -0.3539 -1.2478
 7642SOL    HW234386   0.775   1.431   1.860  3.9825  2.0376 -0.0938
 7643SOL     OW34387   1.714   0.855   6.909 -0.4234 -0.0919 -0.1464
 7643SOL    HW134388   1.651   0.824   6.975 -1.3182  1.1863 -0.4072
 7643SOL    HW234389   1.796   0.818   6.941  0.0666  0.2426 -1.0327
 7644SOL     OW34390   2.091   3.672   7.781 -0.8114  0.1486  0.0741
 7644SOL    HW134391   2.166   3.726   7.808 -0.7186 -0.2663  0.6471
 7644SOL    HW234392   2.095   3.612   7.855  3.2668 -0.6156 -0.7160
 7645SOL     OW34393   1.768   1.713   9.836 -0.3232 -0.4567  0.6606
 7645SOL    HW134394   1.798   1.751   9.753  1.2842 -0.1769  1.3664
 7645SOL    HW234395   1.717   1.641   9.799 -0.2359 -0.2210  0.0785
 7646SOL     OW34396   0.188   4.480   5.672  0.2276  0.1788  0.1280
 7646SOL    HW134397   0.095   4.462   5.688  0.1175 -1.9668 -2.8645
 7646SOL    HW234398   0.219   4.454   5.759 -1.1443 -0.8576  0.3036
 7647SOL     OW34399   2.878   1.357   2.679  0.4078  1.2403  0.0688
 7647SOL    HW134400   2.930   1.391   2.751  1.7306  0.4125 -0.5048
 7647SOL    HW234401   2.814   1.300   2.722  2.2891 -1.3848 -0.6861
 7648SOL     OW34402   2.891   0.741  17.009 -0.4849 -0.3831  0.2876
 7648SOL    HW134403   2.834   0.793  17.065  0.9410  0.9583  0.4743
 7648SOL    HW234404   2.896   0.656  17.054 -1.4075 -0.7366 -0.2753
 7649SOL     OW34405   3.701   1.207   2.377  0.0139  0.0458  0.3817
 7649SOL    HW134406   3.788   1.177   2.352  0.0917  0.1740  0.4989
 7649SOL    HW234407   3.702   1.300   2.354  0.1440 -0.1593 -0.4491
 7650SOL     OW34408   2.107   2.885   4.429  0.3989  0.2517  0.0988
 7650SOL    HW134409   2.108   2.790   4.427  0.8618  0.2285  1.9429
 7650SOL    HW234410   2.078   2.913   4.516  2.3807  1.6635  0.3179
 7651SOL     OW34411   0.822   1.025  10.980 -0.5224 -0.5759  0.1776
 7651SOL    HW134412   0.798   1.113  10.952  1.7079 -0.0572 -0.1077
 7651SOL    HW234413   0.785   1.021  11.068  0.8287 -1.1915  0.7297
 7652SOL     OW34414   3.757   0.393   1.587 -0.1304  0.2303 -0.2328
 7652SOL    HW134415   3.687   0.328   1.598 -0.6404  0.8322  0.0608
 7652SOL    HW234416   3.833   0.338   1.606 -1.0364 -0.7879  0.4107
 7653SOL     OW34417   3.063   0.664   6.214 -0.2604 -0.1185 -0.5178
 7653SOL    HW134418   3.037   0.644   6.303  0.2692  0.2437 -0.2791
 7653SOL    HW234419   3.141   0.721   6.219  1.3516 -2.1915 -1.9974
 7654SOL     OW34420   1.934   1.543   0.555 -0.3794  0.3095  0.3503
 7654SOL    HW134421   1.962   1.451   0.560 -0.5798  0.3202  1.8097
 7654SOL    HW234422   1.998   1.584   0.496 -0.7066 -1.2477 -1.0686
 7655SOL     OW34423   3.574   0.801  16.016  0.2946 -0.6854  0.2065
 7655SOL    HW134424   3.641   0.792  15.949  0.8252 -2.9312  1.0363
 7655SOL    HW234425   3.534   0.888  16.010  1.7789 -0.0053  0.2017
 7656SOL     OW34426   3.266   0.403  16.486 -0.5949 -0.0388  0.1659
 7656SOL    HW134427   3.347   0.391  16.438 -0.9788  3.1110 -1.2771
 7656SOL    HW234428   3.252   0.314  16.518  0.1090 -0.3097 -0.2828
 7657SOL     OW34429   0.960   1.076   7.533 -0.2411 -0.3511 -0.0897
 7657SOL    HW134430   0.981   1.107   7.445 -0.9313 -0.3652 -0.2615
 7657SOL    HW234431   0.889   1.137   7.550  0.0046 -0.3954  1.0716
 7658SOL     OW34432   3.377   1.946   5.061  0.1483  0.1035  0.1497
 7658SOL    HW134433   3.329   2.028   5.069  0.8125  0.4949  0.1257
 7658SOL    HW234434   3.459   1.981   5.026 -0.0735  0.5591  0.0892
 7659SOL     OW34435   2.357   2.513  16.113 -0.1694 -0.1986 -0.9506
 7659SOL    HW134436   2.283   2.458  16.137 -0.8899  1.7237  1.2453
 7659SOL    HW234437   2.323   2.551  16.031 -3.6173 -0.9668  0.1174
 7660SOL     OW34438   4.388   2.413   5.161 -0.0301  0.1506 -0.1966
 7660SOL    HW134439   4.449   2.474   5.119 -0.8147  1.6837  0.8997
 7660SOL    HW234440   4.450   2.370   5.219 -0.9016  1.2001  1.4949
 7661SOL     OW34441   0.782   1.025   2.599 -0.1103  0.2259  0.2217
 7661SOL    HW134442   0.837   0.947   2.604 -1.4186 -0.7316 -0.7094
 7661SOL    HW234443   0.842   1.096   2.575  1.0281 -0.1628  1.8827
 7662SOL     OW34444   4.458   3.698   5.839 -0.2337  0.1462  1.1205
 7662SOL    HW134445   4.441   3.748   5.918  1.6345 -0.0557  1.6489
 7662SOL    HW234446   4.413   3.617   5.863 -0.6541 -0.1728 -0.7076
 7663SOL     OW34447   2.326   4.405   3.037 -0.5293  0.1011 -0.0349
 7663SOL    HW134448   2.241   4.432   3.072 -0.3490  0.7182 -0.0802
 7663SOL    HW234449   2.341   4.318   3.073  0.4792  1.2776  2.3432
 7664SOL     OW34450   1.605   4.425   6.038 -0.7667  0.4988  0.2051
 7664SOL    HW134451   1.689   4.425   6.084 -1.5704  1.0995  1.6924
 7664SOL    HW234452   1.548   4.394   6.108 -1.7600  1.0207 -0.3791
 7665SOL     OW34453   1.895   3.502   6.379  0.1724  0.9292 -0.1135
 7665SOL    HW134454   1.922   3.569   6.316 -2.1610  1.4236 -0.5907
 7665SOL    HW234455   1.908   3.544   6.464  0.1003 -0.8089  0.7559
 7666SOL     OW34456   0.301   0.483   9.627 -0.3094  0.0895 -0.0158
 7666SOL    HW134457   0.224   0.428   9.640 -0.3938  0.2438  0.1304
 7666SOL    HW234458   0.290   0.545   9.699 -0.9809  0.1553 -0.1745
 7667SOL     OW34459   0.562   0.252   6.019  0.3309  0.2996  0.5027
 7667SOL    HW134460   0.520   0.335   6.001  3.5362  1.8233  0.0082
 7667SOL    HW234461   0.655   0.269   6.002  0.5871 -1.5244  0.0482
 7668SOL     OW34462   0.699   2.370   7.880 -0.3295 -0.2478 -0.1025
 7668SOL    HW134463   0.754   2.309   7.830 -0.4011 -0.7713  0.4524
 7668SOL    HW234464   0.687   2.316   7.958  2.3282 -1.1010 -0.2724
 7669SOL     OW34465   3.594   1.449   6.065  0.1118 -0.2532 -0.0617
 7669SOL    HW134466   3.654   1.380   6.093  1.3118  0.4279 -0.9486
 7669SOL    HW234467   3.531   1.440   6.136 -0.3804 -0.2706 -0.4997
 7670SOL     OW34468   4.515   1.074  17.161  0.1362  0.3930 -0.3462
 7670SOL    HW134469   4.514   0.988  17.118 -0.3914 -0.1353  0.7192
 7670SOL    HW234470   4.575   1.073  17.235  1.6929 -0.4497 -1.6224
 7671SOL     OW34471   2.018   3.717   6.797 -0.2036  0.6478  0.3175
 7671SOL    HW134472   1.940   3.662   6.792  0.2249  0.1337 -0.7583
 7671SOL    HW234473   2.014   3.778   6.723  1.3610 -0.3793 -0.6169
 7672SOL     OW34474   3.951   1.047   7.588 -0.6444 -0.2839 -0.3610
 7672SOL    HW134475   3.881   1.039   7.653  1.5857 -1.1106  1.9485
 7672SOL    HW234476   3.984   1.137   7.596  0.7667 -0.8800  0.5814
 7673SOL     OW34477   0.626   2.056   5.552  0.4128  0.1757  0.1492
 7673SOL    HW134478   0.646   2.046   5.459  0.1928 -0.6818  0.1912
 7673SOL    HW234479   0.713   2.059   5.592  0.0571  1.0851  0.8672
 7674SOL     OW34480   3.992   0.509  13.265 -0.5528 -0.1506 -0.1156
 7674SOL    HW134481   3.933   0.459  13.209 -0.6447  1.9050 -1.8806
 7674SOL    HW234482   4.053   0.550  13.203 -1.2809 -1.8315 -1.9462
 7675SOL     OW34483   3.669   3.332   8.778  0.4224  0.3022  0.4965
 7675SOL    HW134484   3.757   3.365   8.756 -0.1640  0.9498 -0.9085
 7675SOL    HW234485   3.679   3.239   8.757 -1.2702  0.2960 -0.2799
 7676SOL     OW34486   3.965   2.484  17.473  0.2805 -0.2138 -0.2411
 7676SOL    HW134487   3.966   2.550  17.543 -1.7611  0.8361 -1.2052
 7676SOL    HW234488   3.874   2.488  17.443  0.6699  0.2628 -1.3489
 7677SOL     OW34489   0.608   2.410   5.375  0.3968  0.3068  0.7636
 7677SOL    HW134490   0.537   2.405   5.311 -0.1702 -1.0049  1.4873
 7677SOL    HW234491   0.581   2.466   5.448 -1.6655 -0.3231  0.4949
 7678SOL     OW34492   0.469   4.144   4.508  0.2021  0.0223 -0.4655
 7678SOL    HW134493   0.459   4.193   4.590 -1.2343 -0.7383 -0.1697
 7678SOL    HW234494   0.542   4.192   4.469 -0.3599  3.2169  2.3747
 7679SOL     OW34495   2.384   3.266   5.942  0.4423  0.7663  0.7867
 7679SOL    HW134496   2.472   3.289   5.914  0.5424 -1.5907 -0.9234
 7679SOL    HW234497   2.355   3.183   5.903  2.6311  0.1489  0.5146
 7680SOL     OW34498   4.493   2.736  13.049 -0.1324  0.2309 -0.5176
 7680SOL    HW134499   4.408   2.740  13.005 -1.1192  1.4670  1.4567
 7680SOL    HW234500   4.547   2.702  12.978  0.2923 -1.8822  0.8261
 7681SOL     OW34501   4.720   3.085  12.508  0.4089  0.0966  0.5701
 7681SOL    HW134502   4.674   3.041  12.579 -3.1260  0.8006 -1.2809
 7681SOL    HW234503   0.053   3.141  12.561 -2.7893  0.2106  3.7923
 7682SOL     OW34504   2.331   0.350   5.882 -0.1763  0.0120  0.3934
 7682SOL    HW134505   2.338   0.441   5.908 -1.2636  0.2284 -0.0728
 7682SOL    HW234506   2.408   0.337   5.827 -0.5608 -0.9207  0.0605
 7683SOL     OW34507   3.062   4.111   4.146  0.8500 -0.0838  0.0156
 7683SOL    HW134508   3.081   4.018   4.153  0.9133 -0.0069  0.7933
 7683SOL    HW234509   3.147   4.150   4.126 -0.7762  2.8435 -1.3458
 7684SOL     OW34510   0.520   0.266   2.840  0.5273  0.0478  0.0536
 7684SOL    HW134511   0.584   0.326   2.879  0.2473  0.5510 -0.2475
 7684SOL    HW234512   0.549   0.251   2.750 -0.8511 -0.7079 -0.2550
 7685SOL     OW34513   4.290   0.315   4.758  0.4313  0.4063 -0.1186
 7685SOL    HW134514   4.382   0.287   4.752  0.1794 -0.3041 -0.6457
 7685SOL    HW234515   4.256   0.294   4.671 -0.8236 -2.4766  1.0618
 7686SOL     OW34516   1.675   0.718   2.329  0.4047 -0.4350 -0.3788
 7686SOL    HW134517   1.582   0.710   2.352 -0.3136  1.1835 -2.7906
 7686SOL    HW234518   1.706   0.638   2.371  0.1426 -1.2296 -1.7035
 7687SOL     OW34519   3.576   2.893   2.438 -0.0123 -0.9453 -0.1026
 7687SOL    HW134520   3.483   2.904   2.418  0.5657  0.6303 -1.8939
 7687SOL    HW234521   3.574   2.916   2.531 -1.4231  0.6727 -0.5362
 7688SOL     OW34522   3.762   0.430   6.195  1.0263 -0.1728 -0.4638
 7688SOL    HW134523   3.667   0.442   6.187  0.9948  0.2773  0.6017
 7688SOL    HW234524   3.771   0.411   6.288  0.2002 -1.5962 -0.6858
 7689SOL     OW34525   3.765   3.384   8.103  0.2072  0.0511 -0.0124
 7689SOL    HW134526   3.742   3.293   8.087  1.0529  0.0989 -1.4396
 7689SOL    HW234527   3.823   3.393   8.027 -0.0518 -0.2942 -0.2484
 7690SOL     OW34528   4.538   1.320  17.475 -0.2533 -0.3078  0.2497
 7690SOL    HW134529   4.581   1.353  17.396 -2.1749  3.1896  0.6383
 7690SOL    HW234530   4.502   1.233  17.461  0.2176 -0.7001  1.4507
 7691SOL     OW34531   0.398   0.647   5.506 -0.9077 -0.1346 -0.2867
 7691SOL    HW134532   0.372   0.555   5.500 -4.4653  0.9711 -1.5604
 7691SOL    HW234533   0.393   0.679   5.416  0.3624  0.2427 -0.2367
 7692SOL     OW34534   1.983   3.667   4.612  0.2232 -0.3046 -0.1814
 7692SOL    HW134535   2.077   3.688   4.605  0.1139  0.8356  1.6733
 7692SOL    HW234536   1.951   3.753   4.639  1.1741 -0.0892  0.2923
 7693SOL     OW34537   3.314   2.707   6.429  0.3214  0.3376  0.7471
 7693SOL    HW134538   3.279   2.786   6.470 -1.7421 -1.0309  1.6460
 7693SOL    HW234539   3.368   2.678   6.502 -0.7490 -0.4780  1.2296
 7694SOL     OW34540   0.700   3.332  15.759 -0.1293  0.2466  0.1691
 7694SOL    HW134541   0.761   3.392  15.802 -1.1429  0.3389  1.4731
 7694SOL    HW234542   0.636   3.390  15.718 -0.2766 -1.8593 -2.5925
 7695SOL     OW34543   2.075   0.454   3.423 -0.5184 -0.3162 -0.2729
 7695SOL    HW134544   2.090   0.496   3.508 -0.0492 -0.1251 -0.4531
 7695SOL    HW234545   2.151   0.483   3.373 -1.2180  2.5416  0.2945
 7696SOL     OW34546   3.187   1.159   4.318  0.0743  0.5080 -0.3141
 7696SOL    HW134547   3.189   1.247   4.281  0.3130  1.3285  1.6555
 7696SOL    HW234548   3.118   1.120   4.265  0.6928 -0.9266 -0.0644
 7697SOL     OW34549   3.480   2.424  11.695 -0.3501 -0.6035 -0.0219
 7697SOL    HW134550   3.536   2.372  11.752 -0.6325  0.9714  1.6842
 7697SOL    HW234551   3.536   2.456  11.625 -0.1302  1.2428  0.9955
 7698SOL     OW34552   3.113   4.335   7.257  0.0754 -0.4062 -0.2834
 7698SOL    HW134553   3.143   4.318   7.168 -0.6810  0.0177 -0.6219
 7698SOL    HW234554   3.175   4.403   7.281 -1.2629  0.6556  0.2062
 7699SOL     OW34555   1.751   3.271   1.054  0.1041  0.2542  0.6154
 7699SOL    HW134556   1.687   3.224   1.108 -1.3235  0.7767 -0.6271
 7699SOL    HW234557   1.764   3.345   1.114  3.8230 -0.9498  1.3055
 7700SOL     OW34558   2.850   1.759   7.474  0.1478 -0.4111 -0.3419
 7700SOL    HW134559   2.849   1.834   7.534  2.7519  0.5571 -1.5245
 7700SOL    HW234560   2.939   1.764   7.441  0.1941 -0.8402 -0.2789
 7701SOL     OW34561   2.312   4.257   7.041  0.7686  0.7913  0.1762
 7701SOL    HW134562   2.306   4.256   7.136  3.0762  2.3021  0.3315
 7701SOL    HW234563   2.257   4.180   7.026  0.0975  1.1015  1.0436
 7702SOL     OW34564   1.370   2.281   3.583 -0.3752 -0.4248  0.0783
 7702SOL    HW134565   1.321   2.246   3.657  0.2791 -1.8863 -0.1844
 7702SOL    HW234566   1.299   2.328   3.539 -1.3389  1.2107  3.3457
 7703SOL     OW34567   0.028   2.145   8.225  0.0442  0.1988 -0.3451
 7703SOL    HW134568   0.091   2.189   8.168 -0.0753 -1.7878 -1.9910
 7703SOL    HW234569   4.695   2.096   8.165  2.2806 -2.2021 -0.4675
 7704SOL     OW34570   3.774   3.679   8.982  0.1028  0.4830 -0.5193
 7704SOL    HW134571   3.698   3.624   9.000  1.9119 -1.8967 -0.0167
 7704SOL    HW234572   3.746   3.770   8.984  0.9422  0.8047 -2.7972
 7705SOL     OW34573   2.535   4.190   2.324  0.2821  0.4963  0.1469
 7705SOL    HW134574   2.563   4.176   2.415  1.6711  1.4497 -0.1430
 7705SOL    HW234575   2.480   4.112   2.311  2.6032 -1.2984  1.1441
 7706SOL     OW34576   2.189   1.156   6.879 -0.5515  0.0510 -0.7544
 7706SOL    HW134577   2.240   1.169   6.959 -1.2875  4.1731 -0.9698
 7706SOL    HW234578   2.150   1.241   6.860  1.3618  0.8501 -1.0513
 7707SOL     OW34579   4.035   2.126  11.378 -0.6113  0.1016 -0.4029
 7707SOL    HW134580   4.123   2.126  11.339 -0.3536  0.0470  0.1735
 7707SOL    HW234581   4.018   2.032  11.383 -1.0986  0.2946  1.7369
 7708SOL     OW34582   3.318   0.964   4.647  0.0358 -0.6429  0.0675
 7708SOL    HW134583   3.237   1.015   4.640  0.7854  0.4976 -0.2576
 7708SOL    HW234584   3.304   0.901   4.577 -2.6994  0.0974 -0.0507
 7709SOL     OW34585   0.621   1.625  15.842 -0.6264 -0.4623  0.0928
 7709SOL    HW134586   0.703   1.676  15.841 -1.2103  0.5022  1.4478
 7709SOL    HW234587   0.576   1.669  15.914 -0.8433 -3.7349  1.9309
 7710SOL     OW34588   2.614   3.644   4.495 -0.0661 -0.0607 -0.5100
 7710SOL    HW134589   2.618   3.597   4.579  2.3032 -1.4385 -1.4072
 7710SOL    HW234590   2.618   3.573   4.431  1.2588  1.7996 -2.4755
 7711SOL     OW34591   4.079   1.810  11.657 -0.3613 -0.0446  0.1546
 7711SOL    HW134592   4.116   1.764  11.733  0.2312 -0.4704 -0.3922
 7711SOL    HW234593   4.067   1.733  11.601 -0.4535 -0.2941  0.5164
 7712SOL     OW34594   3.462   1.825   5.719  0.5641  0.5155  0.0526
 7712SOL    HW134595   3.424   1.911   5.702  0.2759  0.0912 -1.5024
 7712SOL    HW234596   3.547   1.850   5.756  2.4042 -2.4021 -2.1769
 7713SOL     OW34597   0.274   1.970   8.301  0.0237  0.2327  0.4320
 7713SOL    HW134598   0.198   2.004   8.252  1.8104  1.5819 -1.4084
 7713SOL    HW234599   0.232   1.930   8.377 -2.4438  0.7734 -0.6127
 7714SOL     OW34600   2.853   1.031   6.117 -0.1468  0.1947  0.6433
 7714SOL    HW134601   2.848   1.031   6.213 -0.8573  1.5589  0.6092
 7714SOL    HW234602   2.807   1.109   6.087  2.8349  0.2245 -3.7672
 7715SOL     OW34603   4.556   0.044  15.547  0.4264  0.1170 -0.1676
 7715SOL    HW134604   4.574   0.061  15.454 -0.5492 -1.4632 -0.6542
 7715SOL    HW234605   4.595   0.123  15.582 -0.4738  0.5918 -0.2497
 7716SOL     OW34606   4.621   4.251   0.512 -0.0743 -0.0979 -0.5803
 7716SOL    HW134607   4.606   4.261   0.606 -1.3627 -1.8985 -0.6016
 7716SOL    HW234608   4.563   4.177   0.495 -2.3585  1.5813 -0.1023
 7717SOL     OW34609   4.103   3.970   3.472 -0.1136 -0.0209 -0.3763
 7717SOL    HW134610   4.151   4.047   3.439 -1.3810  0.8640 -0.1581
 7717SOL    HW234611   4.180   3.930   3.513  0.6162  2.1080  0.3732
 7718SOL     OW34612   3.160   1.814   2.902 -0.6556 -0.5883  0.6494
 7718SOL    HW134613   3.150   1.910   2.897 -0.0541 -0.5702 -0.2005
 7718SOL    HW234614   3.255   1.812   2.889 -0.8895 -1.4611 -0.8879
 7719SOL     OW34615   1.886   1.394  11.451 -0.3770  0.5835  0.3016
 7719SOL    HW134616   1.960   1.362  11.503 -0.7058 -0.1520  0.3156
 7719SOL    HW234617   1.876   1.481  11.488  0.4343  0.7974  0.0236
 7720SOL     OW34618   3.974   0.033   9.215 -0.3276 -0.3332  0.4039
 7720SOL    HW134619   4.032   0.071   9.281  0.6367  0.0512 -0.6708
 7720SOL    HW234620   3.909   0.103   9.221  1.4222  1.3426 -0.1063
 7721SOL     OW34621   3.196   1.524  17.358  0.9382  0.7461  0.5334
 7721SOL    HW134622   3.143   1.590  17.402 -0.1126  0.5536 -0.4442
 7721SOL    HW234623   3.276   1.577  17.360  0.5292  1.4106 -0.5596
 7722SOL     OW34624   1.211   1.506   3.025  0.1322 -0.0588 -0.5930
 7722SOL    HW134625   1.131   1.455   3.018 -1.2215  1.9235  0.6335
 7722SOL    HW234626   1.216   1.535   2.934 -0.6645 -0.7934 -0.8671
 7723SOL     OW34627   2.496   2.780   8.616  0.4015  0.1729 -0.1228
 7723SOL    HW134628   2.477   2.763   8.708 -0.9335 -2.5725 -0.9122
 7723SOL    HW234629   2.581   2.825   8.618  0.3927  0.2585 -1.9049
 7724SOL     OW34630   1.014   0.031   8.715  0.1580  0.1081 -0.0259
 7724SOL    HW134631   0.982   4.692   8.781 -1.1908  0.4423 -0.3540
 7724SOL    HW234632   1.017   4.696   8.639  0.7234 -1.6307  1.3233
 7725SOL     OW34633   3.291   1.868  17.021 -0.2821  0.4012 -0.1550
 7725SOL    HW134634   3.238   1.814  17.079  0.6003 -0.0566  0.2220
 7725SOL    HW234635   3.373   1.849  17.068  1.0493  2.1778 -1.7429
 7726SOL     OW34636   0.710   1.310   8.347  0.1146 -0.1789  0.0380
 7726SOL    HW134637   0.678   1.229   8.388  5.3594 -1.7393  1.0511
 7726SOL    HW234638   0.778   1.332   8.411 -0.6700  0.0973  0.7852
 7727SOL     OW34639   1.206   3.178   5.275 -0.1411 -0.2132 -0.1277
 7727SOL    HW134640   1.165   3.264   5.278  1.2649  0.5300 -2.3931
 7727SOL    HW234641   1.272   3.187   5.343 -1.8760  1.3379  1.3469
 7728SOL     OW34642   1.684   0.289  11.676  0.0031  0.4218  0.7592
 7728SOL    HW134643   1.638   0.223  11.728  2.3105  0.3353  2.7086
 7728SOL    HW234644   1.708   0.223  11.611 -2.3438  0.9003 -0.5890
 7729SOL     OW34645   0.832   2.866   6.357 -0.1519 -0.3084  0.4413
 7729SOL    HW134646   0.799   2.955   6.348 -0.3270 -0.2842  1.2925
 7729SOL    HW234647   0.761   2.831   6.410  0.5695 -2.1358  0.2185
 7730SOL     OW34648   3.152   1.849   4.918  0.2376 -0.0999  0.1394
 7730SOL    HW134649   3.156   1.913   4.847  1.7310 -1.5939 -1.1285
 7730SOL    HW234650   3.245   1.847   4.943 -0.0304 -0.3167  1.1059
 7731SOL     OW34651   3.673   2.645   4.897 -0.0496 -0.5976 -0.0601
 7731SOL    HW134652   3.704   2.608   4.814  2.2657 -0.0307  0.5346
 7731SOL    HW234653   3.731   2.720   4.912  0.2920 -1.0205  0.7510
 7732SOL     OW34654   0.551   2.221   4.388  1.0869  0.6229 -0.1316
 7732SOL    HW134655   0.547   2.169   4.308 -0.2547 -0.7935  0.8498
 7732SOL    HW234656   0.467   2.193   4.425  1.1531  0.8550  0.1925
 7733SOL     OW34657   0.342   3.819   4.904 -0.3242 -0.1507 -0.0583
 7733SOL    HW134658   0.372   3.896   4.856 -0.2293 -1.1596 -1.6189
 7733SOL    HW234659   0.410   3.753   4.891 -0.4318 -0.7401  2.2795
 7734SOL     OW34660   4.133   0.524  15.243 -0.2036  0.5404  0.1738
 7734SOL    HW134661   4.116   0.598  15.185  1.4042  1.6127  1.0659
 7734SOL    HW234662   4.050   0.481  15.266  1.2084 -0.6692  2.9897
 7735SOL     OW34663   4.059   0.063   6.415 -0.0985 -0.0780 -0.4240
 7735SOL    HW134664   4.113   0.061   6.494 -0.9413  3.7456  0.2749
 7735SOL    HW234665   4.107   0.130   6.367 -1.4686  0.4813 -1.0320
 7736SOL     OW34666   1.790   0.032   0.610 -0.1963  0.4612  0.5292
 7736SOL    HW134667   1.779   4.661   0.602  0.1140  0.5626 -0.9946
 7736SOL    HW234668   1.826   0.052   0.524  0.3289 -1.8536  0.2251
 7737SOL     OW34669   2.371   1.167   6.578 -0.3394  0.0184 -0.7384
 7737SOL    HW134670   2.283   1.201   6.563  0.3314  1.4939 -1.2808
 7737SOL    HW234671   2.388   1.208   6.662  0.1671  0.2230 -0.9431
 7738SOL     OW34672   3.286   0.406  12.670 -0.7647 -0.2544  0.2833
 7738SOL    HW134673   3.229   0.376  12.599 -0.1187 -0.2905 -0.2215
 7738SOL    HW234674   3.258   0.498  12.666  0.1439 -0.1494 -3.6128
 7739SOL     OW34675   4.277   2.801   3.399 -0.2044  0.3129 -0.0740
 7739SOL    HW134676   4.216   2.824   3.329 -1.1196 -0.0338  0.6099
 7739SOL    HW234677   4.313   2.715   3.376 -1.8207 -0.6106  0.8834
 7740SOL     OW34678   0.381   0.725   3.068  0.0594  0.0843 -0.6784
 7740SOL    HW134679   0.329   0.724   3.149 -0.7341 -1.7024 -1.2178
 7740SOL    HW234680   0.362   0.636   3.039  2.6663 -0.8516  0.4738
 7741SOL     OW34681   3.088   0.835   1.223 -0.1746  0.1993 -0.7865
 7741SOL    HW134682   3.109   0.867   1.310  0.3410 -0.9684 -0.4892
 7741SOL    HW234683   3.171   0.801   1.189  0.9304  0.3123  1.8087
 7742SOL     OW34684   3.351   3.748  13.231  0.5074  0.0895 -0.2628
 7742SOL    HW134685   3.375   3.655  13.230  2.0711  0.5497 -3.0431
 7742SOL    HW234686   3.421   3.794  13.186  2.0299 -1.3004  0.6939
 7743SOL     OW34687   2.850   3.672   4.145 -0.0559 -0.1441 -0.1944
 7743SOL    HW134688   2.933   3.691   4.103  0.5224 -3.1397 -0.3863
 7743SOL    HW234689   2.877   3.584   4.172 -1.9593 -0.1447  1.7752
 7744SOL     OW34690   0.483   0.832   2.846  0.0844 -0.2378 -0.3887
 7744SOL    HW134691   0.446   0.812   2.931 -2.9553  0.1226 -1.6158
 7744SOL    HW234692   0.470   0.749   2.801 -1.3215  0.4253 -1.2215
 7745SOL     OW34693   3.649   2.620   5.781  0.2313  0.1667  0.2380
 7745SOL    HW134694   3.568   2.586   5.821 -0.3518  0.5585 -0.5956
 7745SOL    HW234695   3.715   2.591   5.843  1.4100 -0.9697 -1.5597
 7746SOL     OW34696   1.910   4.238   5.886 -0.2248 -0.1258 -0.3019
 7746SOL    HW134697   1.839   4.175   5.897  0.0524 -0.2587  0.6709
 7746SOL    HW234698   1.905   4.294   5.963  4.7881 -2.0210  1.4082
 7747SOL     OW34699   2.255   1.005   2.023 -1.0436  0.1708 -0.2652
 7747SOL    HW134700   2.321   1.061   1.980  0.2983 -0.6152  0.7898
 7747SOL    HW234701   2.270   0.916   1.992 -1.4791 -0.5439  1.6131
 7748SOL     OW34702   4.133   3.691  13.885 -0.2814 -0.0537 -0.3786
 7748SOL    HW134703   4.138   3.638  13.805  1.5536 -0.0003 -0.2923
 7748SOL    HW234704   4.180   3.633  13.944 -0.4268 -2.0805 -2.2564
 7749SOL     OW34705   0.525   4.281   4.747 -0.3706  0.0080 -0.6148
 7749SOL    HW134706   0.489   4.354   4.797 -0.1024  0.7601 -1.5393
 7749SOL    HW234707   0.608   4.259   4.789 -1.0157  0.1332  0.7394
 7750SOL     OW34708   4.106   2.338   4.028 -0.0753  0.9474  0.1444
 7750SOL    HW134709   4.114   2.409   3.965  2.1748 -1.1255 -1.8881
 7750SOL    HW234710   4.011   2.334   4.019 -0.1146  0.0582  0.8498
 7751SOL     OW34711   3.046   3.869   2.272  0.1557 -0.3740 -0.4047
 7751SOL    HW134712   3.079   3.863   2.182 -0.0947  1.6467 -0.6124
 7751SOL    HW234713   3.100   3.797   2.305 -2.1198 -1.9935 -0.2004
 7752SOL     OW34714   0.633   2.232   0.984  0.1937  0.0762 -0.3209
 7752SOL    HW134715   0.694   2.306   0.985  1.1462 -0.7065 -0.2678
 7752SOL    HW234716   0.684   2.179   1.046  1.4835  3.1044  1.2335
 7753SOL     OW34717   0.479   3.488  10.568 -0.6016  0.0319  0.1203
 7753SOL    HW134718   0.564   3.516  10.534 -0.4026  0.2387  0.8020
 7753SOL    HW234719   0.442   3.461  10.484 -0.5877 -3.8242  1.3153
 7754SOL     OW34720   3.227   1.016   5.639 -0.0077  0.6680  0.4917
 7754SOL    HW134721   3.155   0.955   5.655 -0.3035  0.9489  0.2275
 7754SOL    HW234722   3.176   1.092   5.612 -0.7000  0.3269  0.8498
 7755SOL     OW34723   3.186   2.474   7.750  0.0144 -0.2067  0.3594
 7755SOL    HW134724   3.210   2.495   7.840  0.7780 -0.0650  0.1196
 7755SOL    HW234725   3.255   2.522   7.705  1.8618 -4.2275 -1.1361
 7756SOL     OW34726   4.637   1.290   4.222 -0.0504  0.3131 -0.1533
 7756SOL    HW134727   4.706   1.231   4.190 -0.0700 -0.2018  0.7446
 7756SOL    HW234728   4.593   1.309   4.139  0.4726  0.6800 -0.3419
 7757SOL     OW34729   4.599   4.314   5.620 -0.1471  0.6206  0.1571
 7757SOL    HW134730   4.550   4.251   5.674 -0.6785 -1.0584 -2.2814
 7757SOL    HW234731   4.553   4.396   5.636 -0.8784  0.2781 -0.1850
 7758SOL     OW34732   2.380   0.013   8.773  0.6911 -0.3324 -0.0074
 7758SOL    HW134733   2.377   4.660   8.714  0.1123 -0.4237  0.1419
 7758SOL    HW234734   2.379   0.083   8.709  0.8342 -0.6761 -0.3864
 7759SOL     OW34735   2.980   0.235   1.991 -0.1610 -0.0170 -0.2974
 7759SOL    HW134736   3.068   0.272   1.989  0.1001 -0.4653  2.6791
 7759SOL    HW234737   2.970   0.214   1.899  0.0283  0.5670 -0.4511
 7760SOL     OW34738   1.469   1.018   7.209 -0.2709 -0.3509  0.0537
 7760SOL    HW134739   1.476   1.002   7.304 -0.8669 -1.9583 -0.1769
 7760SOL    HW234740   1.384   0.987   7.178 -0.7388  0.2736  0.6994
 7761SOL     OW34741   2.907   3.997   3.396  0.2103 -0.2794 -0.2193
 7761SOL    HW134742   2.904   3.991   3.301 -0.2698 -0.3776 -0.1994
 7761SOL    HW234743   2.942   4.084   3.415  0.1367 -0.4930  0.9081
 7762SOL     OW34744   0.283   2.017  12.370  0.0223  0.1713 -0.1493
 7762SOL    HW134745   0.314   2.063  12.292 -0.0448 -0.1629 -0.3725
 7762SOL    HW234746   0.336   1.938  12.357 -1.6515 -1.0976  0.7731
 7763SOL     OW34747   1.809   3.947  15.223 -0.0848 -0.6617 -0.4833
 7763SOL    HW134748   1.902   3.966  15.233 -0.1435 -0.5685 -0.1202
 7763SOL    HW234749   1.817   3.865  15.174  1.4165 -0.6616 -0.2335
 7764SOL     OW34750   1.670   0.834   1.335 -0.1795 -0.2927  0.3143
 7764SOL    HW134751   1.665   0.886   1.254 -1.5960 -1.7347 -0.5404
 7764SOL    HW234752   1.600   0.873   1.387  1.0817  1.2443  0.8195
 7765SOL     OW34753   3.084   4.239  11.685 -0.5007  0.2813  0.1876
 7765SOL    HW134754   3.027   4.174  11.727  1.2171  0.7667  3.2821
 7765SOL    HW234755   3.056   4.261  11.596  0.8823  2.1583  0.2056
 7766SOL     OW34756   1.959   2.563   1.003  0.5922  0.4933 -0.1397
 7766SOL    HW134757   2.023   2.543   1.071  0.5851  1.5799  0.1761
 7766SOL    HW234758   1.891   2.498   1.020 -0.1967  0.8850 -1.7526
 7767SOL     OW34759   4.065   2.757   4.968 -0.1753 -0.5419  0.0766
 7767SOL    HW134760   3.987   2.738   4.915 -1.3575  0.4227  1.4802
 7767SOL    HW234761   4.045   2.730   5.058  3.4075 -0.9208  0.7612
 7768SOL     OW34762   2.411   4.185   4.756 -0.3417  0.2684  0.4271
 7768SOL    HW134763   2.462   4.103   4.753  1.5010  1.4535 -0.5383
 7768SOL    HW234764   2.465   4.246   4.806  0.8993 -0.0066 -0.5822
 7769SOL     OW34765   1.927   3.131   0.901 -0.1178  0.4521  0.7726
 7769SOL    HW134766   1.879   3.173   0.972  1.6750  0.1208  2.1867
 7769SOL    HW234767   2.009   3.107   0.944  0.8800 -1.0115 -1.9442
 7770SOL     OW34768   3.769   3.654   8.690  0.2509  0.0457  0.6391
 7770SOL    HW134769   3.829   3.726   8.670  0.8248 -0.6229 -0.0590
 7770SOL    HW234770   3.767   3.656   8.785 -0.6500 -0.6765  0.6290
 7771SOL     OW34771   1.660   1.013   2.008  0.5897  0.0294 -0.1254
 7771SOL    HW134772   1.666   1.065   2.088 -0.2275  1.1074 -0.7616
 7771SOL    HW234773   1.724   1.061   1.955  1.4385 -1.4568 -0.4271
 7772SOL     OW34774   3.278   1.896   4.516 -0.6821 -0.2814  0.2961
 7772SOL    HW134775   3.271   1.800   4.509 -1.4636 -0.2248  0.2707
 7772SOL    HW234776   3.194   1.938   4.499  0.1440  0.5353 -1.7336
 7773SOL     OW34777   2.074   3.140   5.269 -0.0170  0.0193  0.3437
 7773SOL    HW134778   2.122   3.165   5.190  1.3054  1.2366  1.5564
 7773SOL    HW234779   1.990   3.114   5.232  0.3527  0.3187 -0.6970
 7774SOL     OW34780   3.095   4.553   4.107  0.3477  0.2392 -0.2870
 7774SOL    HW134781   3.112   4.576   4.015  0.6863  0.5927 -0.1359
 7774SOL    HW234782   3.158   4.482   4.120 -0.5444 -0.5189 -0.0780
 7775SOL     OW34783   1.866   1.870   1.188  0.0871 -0.8793  0.1259
 7775SOL    HW134784   1.846   1.948   1.137  1.1622 -0.6246  0.0939
 7775SOL    HW234785   1.943   1.903   1.235 -1.7603 -0.2284  2.6697
 7776SOL     OW34786   1.992   0.015  16.515 -0.0881  0.5088  0.9713
 7776SOL    HW134787   1.925   0.012  16.447  0.1429 -1.7722  0.8551
 7776SOL    HW234788   2.068   4.723  16.459  0.2286 -2.6548  2.2791
 7777SOL     OW34789   1.103   1.574   0.563  0.3660  0.1809 -0.2740
 7777SOL    HW134790   1.177   1.520   0.538  0.0995 -0.5244  0.4542
 7777SOL    HW234791   1.107   1.562   0.658  2.1278  2.3374 -0.0709
 7778SOL     OW34792   3.497   0.236   7.109  0.2806 -0.7677  0.0742
 7778SOL    HW134793   3.511   0.272   7.021 -0.9878 -1.9754 -0.6314
 7778SOL    HW234794   3.582   0.194   7.123  1.0187  1.5023  2.3392
 7779SOL     OW34795   1.750   0.269   8.370  0.2125 -0.1753 -0.6803
 7779SOL    HW134796   1.730   0.246   8.461 -0.2403 -1.1066 -1.0154
 7779SOL    HW234797   1.835   0.314   8.376 -0.8676  1.6122  0.9992
 7780SOL     OW34798   2.028   4.059   7.252  0.2277  0.1364 -0.4871
 7780SOL    HW134799   2.039   3.981   7.306  1.9634 -2.1940 -4.2671
 7780SOL    HW234800   2.023   4.130   7.317 -1.0104  0.8284 -1.3483
 7781SOL     OW34801   0.988   2.714   8.799 -0.1853 -0.0757 -0.3672
 7781SOL    HW134802   0.949   2.744   8.717 -1.4659  1.1337  0.6749
 7781SOL    HW234803   1.005   2.800   8.838 -0.7331 -1.0683  2.0681
 7782SOL     OW34804   3.516   3.796   3.726  0.3056  0.3125 -0.4964
 7782SOL    HW134805   3.548   3.838   3.806 -0.9173  0.6660 -0.1943
 7782SOL    HW234806   3.597   3.746   3.719  1.5624  2.3790 -0.8274
 7783SOL     OW34807   3.887   1.964   7.302  0.3660 -0.7551 -0.2049
 7783SOL    HW134808   3.800   1.962   7.262  0.1652 -0.1173  0.1877
 7783SOL    HW234809   3.947   1.967   7.228  0.6873 -2.3626 -0.0062
 7784SOL     OW34810   3.935   0.586   2.238  0.1275 -0.0099 -0.6343
 7784SOL    HW134811   3.850   0.613   2.271  0.2861  0.3238 -0.5026
 7784SOL    HW234812   3.934   0.649   2.166 -1.6908 -2.1003 -2.4354
 7785SOL     OW34813   1.544   1.241   3.623  0.3832  0.6405 -0.4010
 7785SOL    HW134814   1.537   1.151   3.656  2.1078  0.0909 -1.4873
 7785SOL    HW234815   1.458   1.248   3.583  0.0260  0.6081  0.3788
 7786SOL     OW34816   3.345   2.136   0.387 -0.0204 -0.3783 -0.1633
 7786SOL    HW134817   3.347   2.230   0.404  1.3585 -0.9577  2.8903
 7786SOL    HW234818   3.257   2.124   0.353  0.7499 -1.7929 -1.6415
 7787SOL     OW34819   4.285   2.371   8.613 -0.1969 -0.0649  0.2543
 7787SOL    HW134820   4.336   2.371   8.694  0.9056 -0.8768 -0.4382
 7787SOL    HW234821   4.195   2.391   8.637 -0.5385 -0.7036 -0.5026
 7788SOL     OW34822   0.597   1.094   8.465 -0.3908 -0.0338  0.6114
 7788SOL    HW134823   0.506   1.096   8.493 -0.8989  0.5299 -1.1222
 7788SOL    HW234824   0.628   1.098   8.556  1.1011  0.3739  0.0900
 7789SOL     OW34825   3.711   1.609  17.637 -0.1431  0.5323  0.6497
 7789SOL    HW134826   3.691   1.557   0.021 -1.3216  0.9660  0.6363
 7789SOL    HW234827   3.807   1.611  17.646 -0.1164  0.9001  0.2687
 7790SOL     OW34828   2.942   1.377   3.227  0.0106 -0.2776 -0.4998
 7790SOL    HW134829   2.858   1.423   3.223 -0.2664 -0.5769  1.8186
 7790SOL    HW234830   2.909   1.296   3.267 -0.3774  0.2631  0.2800
 7791SOL     OW34831   2.248   3.665   2.823 -0.3169 -0.1447 -0.0895
 7791SOL    HW134832   2.277   3.578   2.851  0.7311  0.3560  0.3892
 7791SOL    HW234833   2.154   3.668   2.841  0.1292 -0.9713  2.3270
 7792SOL     OW34834   0.545   0.546  17.249  0.4520 -0.3859 -0.2100
 7792SOL    HW134835   0.530   0.519  17.340  1.9814 -1.0816 -0.1668
 7792SOL    HW234836   0.633   0.508  17.242  1.3163  1.1089  2.4308
 7793SOL     OW34837   2.775   0.296   9.905 -0.1630  0.7370  0.4418
 7793SOL    HW134838   2.725   0.219   9.877  0.5400 -0.9760  3.9388
 7793SOL    HW234839   2.811   0.265   9.988  0.0400 -0.4847 -0.1067
 7794SOL     OW34840   0.506   0.894   6.289  0.3077 -0.0034  0.7836
 7794SOL    HW134841   0.584   0.841   6.306  0.7947  1.0826  2.0299
 7794SOL    HW234842   0.511   0.962   6.357 -3.6272 -0.0293  1.0643
 7795SOL     OW34843   1.580   2.903   6.240 -0.8900 -0.1512  0.6686
 7795SOL    HW134844   1.569   2.813   6.271 -1.6843 -1.0255 -2.1741
 7795SOL    HW234845   1.637   2.945   6.304  2.3430 -0.4354 -2.0017
 7796SOL     OW34846   4.322   1.955  16.413 -0.0332  0.0658 -0.3212
 7796SOL    HW134847   4.234   1.916  16.412 -0.4560  1.0048  3.1553
 7796SOL    HW234848   4.328   1.960  16.508  0.6749 -1.3824 -0.2803
 7797SOL     OW34849   2.440   2.044  17.201 -0.4325  0.5963  0.0412
 7797SOL    HW134850   2.457   1.971  17.259  0.8342 -0.1299 -1.2665
 7797SOL    HW234851   2.527   2.080  17.187  1.3533 -3.1610  1.6343
 7798SOL     OW34852   3.542   0.372   3.313 -0.6612  0.3372  0.3084
 7798SOL    HW134853   3.553   0.277   3.311  0.0751  0.4019  1.0010
 7798SOL    HW234854   3.561   0.400   3.403 -1.4986  2.4808 -0.1974
 7799SOL     OW34855   3.564   4.164   3.014  0.0238 -0.2010 -0.4035
 7799SOL    HW134856   3.487   4.130   3.060  0.6291 -0.8240  0.1409
 7799SOL    HW234857   3.607   4.205   3.089 -1.9405  1.4278 -0.1708
 7800SOL     OW34858   2.704   2.272   7.443  0.0101 -0.6816  0.2324
 7800SOL    HW134859   2.665   2.352   7.409  1.5784  0.8223  1.9166
 7800SOL    HW234860   2.669   2.265   7.532 -2.8306 -0.6183 -0.8909
 7801SOL     OW34861   0.134   2.336   4.361 -0.1721 -0.0602  0.2098
 7801SOL    HW134862   0.208   2.350   4.302 -1.2486  1.2296 -0.8178
 7801SOL    HW234863   0.185   2.307   4.437  1.0084  0.3083 -0.4465
 7802SOL     OW34864   0.605   2.696  15.473  0.5525 -0.0523  0.0036
 7802SOL    HW134865   0.651   2.658  15.399 -1.0150 -3.0938  0.5867
 7802SOL    HW234866   0.515   2.671  15.450  0.5540 -2.1177  2.2503
 7803SOL     OW34867   3.525   3.236   1.269 -0.2062  0.0793 -0.6111
 7803SOL    HW134868   3.471   3.269   1.341 -0.2942 -0.1066 -0.5920
 7803SOL    HW234869   3.584   3.310   1.253  0.0073  0.4047  1.7346
 7804SOL     OW34870   3.512   3.470  16.543  0.0475 -0.4150 -0.1063
 7804SOL    HW134871   3.534   3.544  16.600  2.1071 -0.6884 -0.5633
 7804SOL    HW234872   3.420   3.451  16.564  0.0731 -1.5333 -1.0523
 7805SOL     OW34873   2.851   1.658  17.197  0.2468 -0.5191 -0.2816
 7805SOL    HW134874   2.939   1.672  17.164 -1.0431 -0.9171 -3.8789
 7805SOL    HW234875   2.819   1.747  17.179 -0.7713 -0.6975  0.6147
 7806SOL     OW34876   1.353   0.368  10.010 -0.4633 -0.5970 -0.3238
 7806SOL    HW134877   1.418   0.421   9.964 -1.5569 -0.0294 -1.2302
 7806SOL    HW234878   1.335   0.430  10.081  0.1810  1.5184 -1.9848
 7807SOL     OW34879   1.105   0.465   5.254  0.3099 -0.2666  0.3742
 7807SOL    HW134880   1.030   0.496   5.202  0.8707  0.0573 -0.2329
 7807SOL    HW234881   1.162   0.439   5.182 -0.9993 -1.2926 -0.2899
 7808SOL     OW34882   0.833   1.730   4.306 -0.1374 -0.2597 -0.4353
 7808SOL    HW134883   0.800   1.717   4.217 -1.8675  1.4350 -0.0501
 7808SOL    HW234884   0.914   1.779   4.289 -0.2829  0.0592 -0.2088
 7809SOL     OW34885   0.020   3.359   3.165  0.4065  0.4143 -0.4834
 7809SOL    HW134886   0.039   3.326   3.253  2.3572  1.4499 -0.5325
 7809SOL    HW234887   0.103   3.386   3.127  0.5487 -0.3921 -0.7517
 7810SOL     OW34888   3.328   3.822  13.836  0.2866  0.0564 -0.1072
 7810SOL    HW134889   3.280   3.753  13.790  0.7730 -0.6229  0.4164
 7810SOL    HW234890   3.319   3.903  13.785 -0.7856 -0.5518 -0.8713
 7811SOL     OW34891   2.895   4.612   5.481 -0.0171  0.1139  0.5170
 7811SOL    HW134892   2.875   4.705   5.472  0.1036 -0.0113 -1.1422
 7811SOL    HW234893   2.990   4.620   5.477  0.1043 -1.2862  0.5629
 7812SOL     OW34894   1.501   2.563   5.918 -0.0015  0.0325  0.4318
 7812SOL    HW134895   1.443   2.595   5.849 -0.7692  0.2478  1.1791
 7812SOL    HW234896   1.549   2.643   5.941  1.3120 -0.4770 -0.5449
 7813SOL     OW34897   3.917   2.547   7.624 -0.4389 -0.3346 -0.5339
 7813SOL    HW134898   3.827   2.522   7.603 -0.2516  0.3023 -2.0882
 7813SOL    HW234899   3.973   2.483   7.580  2.7830  1.3443  1.0673
 7814SOL     OW34900   3.808   3.189   9.065  0.3999  0.1643 -0.2432
 7814SOL    HW134901   3.792   3.216   9.155  0.3837  0.7748 -0.4316
 7814SOL    HW234902   3.717   3.185   9.035 -0.0431  0.0261  1.1090
 7815SOL     OW34903   3.351   3.561  11.181  0.3444  0.3966 -0.0252
 7815SOL    HW134904   3.306   3.499  11.124 -0.8355 -0.2154  1.5905
 7815SOL    HW234905   3.284   3.629  11.190  0.6583  0.6459  0.4503
 7816SOL     OW34906   4.208   3.846   4.478  0.3392 -0.1519 -0.4631
 7816SOL    HW134907   4.227   3.913   4.542  0.5295 -0.6402 -0.0088
 7816SOL    HW234908   4.149   3.780   4.515  1.4486 -1.8822 -1.7288
 7817SOL     OW34909   2.433   2.544  16.481 -0.4601 -0.2354  0.2036
 7817SOL    HW134910   2.358   2.489  16.504 -0.5027 -1.4359 -2.7515
 7817SOL    HW234911   2.465   2.483  16.415 -1.8695 -0.9210  0.1569
 7818SOL     OW34912   2.431   2.825   7.799  0.5449  0.6708 -0.2660
 7818SOL    HW134913   2.495   2.760   7.773 -0.5436 -0.1989 -0.7604
 7818SOL    HW234914   2.408   2.796   7.887  0.2424  0.7819 -0.3071
 7819SOL     OW34915   0.621   3.528   2.134 -0.0863  0.4195 -0.4777
 7819SOL    HW134916   0.610   3.614   2.174  2.8254  1.1986 -1.3240
 7819SOL    HW234917   0.569   3.539   2.055 -1.2971 -1.2539  0.0967
 7820SOL     OW34918   4.687   2.760   5.897  0.8170 -0.2936  0.1046
 7820SOL    HW134919   4.677   2.855   5.908  3.4033  0.1429 -1.2369
 7820SOL    HW234920   0.060   2.760   5.900  0.7902 -0.8235  0.9690
 7821SOL     OW34921   1.899   4.540   2.758 -0.5707  0.3463  0.3539
 7821SOL    HW134922   1.908   4.449   2.786  0.9522  1.2402  2.7856
 7821SOL    HW234923   1.853   4.520   2.676  2.8205  1.0894 -1.7531
 7822SOL     OW34924   4.581   4.126   9.178 -0.4050  0.0911  0.5128
 7822SOL    HW134925   4.636   4.147   9.254  3.2774 -0.4060 -1.9984
 7822SOL    HW234926   4.505   4.185   9.178 -0.7616 -0.3910  1.9431
 7823SOL     OW34927   2.650   0.824   4.158  0.1812 -0.3545  0.1122
 7823SOL    HW134928   2.585   0.754   4.167  0.0490 -0.4783 -1.9236
 7823SOL    HW234929   2.723   0.778   4.116  1.6529  1.1752  1.0255
 7824SOL     OW34930   1.070   4.583   3.629 -0.5778 -0.2605 -0.5787
 7824SOL    HW134931   1.147   4.526   3.628 -1.9708 -2.1069 -2.2145
 7824SOL    HW234932   1.016   4.537   3.565 -1.9944  0.9242 -0.2597
 7825SOL     OW34933   1.222   0.332  12.475 -0.5287  0.5743  0.1024
 7825SOL    HW134934   1.304   0.289  12.451 -1.2789 -0.7008 -0.1606
 7825SOL    HW234935   1.226   0.344  12.570  0.0212  2.7370 -0.1944
 7826SOL     OW34936   3.559   2.349   9.470 -0.0624  0.0057  0.0260
 7826SOL    HW134937   3.613   2.426   9.451 -2.8155  2.0999  0.7165
 7826SOL    HW234938   3.615   2.275   9.448 -0.7110 -0.7350  0.9025
 7827SOL     OW34939   0.722   2.598   1.950  0.0905 -0.4673 -0.0454
 7827SOL    HW134940   0.664   2.660   1.906  1.1276  1.5107  1.4207
 7827SOL    HW234941   0.723   2.525   1.887 -1.7949 -0.7216  0.2201
 7828SOL     OW34942   1.940   1.524   8.157 -0.3037 -0.7503 -0.7416
 7828SOL    HW134943   1.861   1.472   8.172  0.4031 -1.6115 -0.0085
 7828SOL    HW234944   1.909   1.607   8.192  1.3848 -0.8113  0.9200
 7829SOL     OW34945   2.611   4.696   2.648  0.0951 -0.2020  0.5826
 7829SOL    HW134946   2.630   0.006   2.560  0.5784 -1.9521  0.0166
 7829SOL    HW234947   2.601   4.601   2.635  0.0068 -0.3615  1.7713
 7830SOL     OW34948   3.384   0.247   4.196 -0.7329  0.4468 -0.0016
 7830SOL    HW134949   3.451   0.183   4.172 -0.9387  0.7797 -1.4875
 7830SOL    HW234950   3.321   0.215   4.131 -0.8064 -1.9347  1.2487
 7831SOL     OW34951   3.013   2.268   6.645 -0.0315 -0.3519  0.0990
 7831SOL    HW134952   2.998   2.177   6.670 -4.9013 -0.0311 -1.7642
 7831SOL    HW234953   2.921   2.288   6.663 -0.6795 -0.9951 -2.5542
 7832SOL     OW34954   3.297   2.500  16.771  0.4026  0.5288  0.3070
 7832SOL    HW134955   3.326   2.420  16.816 -0.6811  0.0778  0.2185
 7832SOL    HW234956   3.354   2.495  16.695  1.5403 -2.1506  1.3120
 7833SOL     OW34957   1.784   4.539   7.614  0.8732 -0.0137 -0.7009
 7833SOL    HW134958   1.725   4.525   7.540 -1.4280  1.3596  0.8435
 7833SOL    HW234959   1.748   4.612   7.665 -0.7093 -1.0101 -0.3919
 7834SOL     OW34960   3.778   4.002   9.869 -0.1227 -0.2039  0.2857
 7834SOL    HW134961   3.839   4.067   9.837 -0.2436  0.5107  1.5260
 7834SOL    HW234962   3.713   4.059   9.910 -0.7974  0.2088 -1.3563
 7835SOL     OW34963   3.236   2.890   3.342  0.6549 -0.2355 -0.4930
 7835SOL    HW134964   3.154   2.840   3.336  0.4183 -0.0147  0.8674
 7835SOL    HW234965   3.262   2.911   3.252 -0.7879  0.1974 -0.8033
 7836SOL     OW34966   3.357   3.234   8.318  0.0322 -0.3040  0.1685
 7836SOL    HW134967   3.370   3.256   8.410  0.4873  1.2868 -0.2711
 7836SOL    HW234968   3.399   3.310   8.277 -0.2599  0.5602  1.4687
 7837SOL     OW34969   4.186   3.993   2.436 -0.1899 -0.4742  0.2085
 7837SOL    HW134970   4.165   4.045   2.358 -1.1689  0.2299  0.9326
 7837SOL    HW234971   4.168   3.909   2.395 -0.9844 -0.1210 -0.1831
 7838SOL     OW34972   4.250   2.438  10.891 -0.0599 -0.0424  0.7358
 7838SOL    HW134973   4.290   2.509  10.841  1.0031 -1.2758 -0.1495
 7838SOL    HW234974   4.175   2.492  10.917  0.4206  0.2960  1.4042
 7839SOL     OW34975   4.522   1.595   7.712  0.1301  0.0258 -0.2971
 7839SOL    HW134976   4.563   1.512   7.690  0.1905  0.5416 -2.2135
 7839SOL    HW234977   4.485   1.567   7.795  1.7258 -0.2101  0.3393
 7840SOL     OW34978   0.973   2.255   6.665 -0.0113  0.6173 -0.2547
 7840SOL    HW134979   0.886   2.226   6.640 -0.7134 -1.4279  4.6205
 7840SOL    HW234980   1.015   2.259   6.579  0.7519  0.7500  0.1240
 7841SOL     OW34981   3.294   1.155   3.942  0.5594  0.9838  0.0893
 7841SOL    HW134982   3.230   1.084   3.935  0.6408  1.1964 -2.7651
 7841SOL    HW234983   3.361   1.112   3.890  0.9930  0.9455  0.6810
 7842SOL     OW34984   3.175   4.057   8.492 -0.2579  0.4617 -0.1582
 7842SOL    HW134985   3.111   4.032   8.558  1.0545 -0.6638  0.6787
 7842SOL    HW234986   3.189   3.977   8.441  0.0316  0.1578  0.3971
 7843SOL     OW34987   3.368   3.429   6.547 -0.3289  0.2170  0.3422
 7843SOL    HW134988   3.375   3.350   6.601  1.3031  0.0676 -0.1004
 7843SOL    HW234989   3.437   3.484   6.585 -1.8587  1.3488  1.5130
 7844SOL     OW34990   3.669   2.754   4.346 -0.2903 -0.5133 -0.1401
 7844SOL    HW134991   3.635   2.826   4.293 -2.0492 -1.1014  0.2112
 7844SOL    HW234992   3.590   2.720   4.388 -1.1530  2.6661  0.7766
 7845SOL     OW34993   2.533   0.399   2.704 -0.7610  0.8620  0.2788
 7845SOL    HW134994   2.570   0.479   2.741 -1.2837 -0.0114  2.7145
 7845SOL    HW234995   2.585   0.326   2.739 -1.0872  1.1914  1.4368
 7846SOL     OW34996   4.338   2.538   3.717 -0.4591 -0.3322 -0.3042
 7846SOL    HW134997   4.287   2.526   3.637 -0.6625 -0.7344 -0.1126
 7846SOL    HW234998   4.303   2.467   3.771 -4.2592  0.9887 -1.0867
 7847SOL     OW34999   0.104   0.293  12.251  0.4253  0.0372 -0.0435
 7847SOL    HW135000   0.048   0.356  12.205  0.4722  0.0685 -0.0568
 7847SOL    HW235001   0.192   0.325  12.233  0.2004  1.1463  0.7564
 7848SOL     OW35002   0.741   3.236   2.479  0.2763 -0.1119  0.0473
 7848SOL    HW135003   0.732   3.248   2.574 -1.9672 -0.4631 -0.1305
 7848SOL    HW235004   0.658   3.272   2.447 -0.1724 -0.6169  0.6312
 7849SOL     OW35005   3.119   2.106   0.235  0.0418  0.0189  0.1608
 7849SOL    HW135006   3.051   2.151   0.285  0.8693  0.6550  0.7018
 7849SOL    HW235007   3.071   2.075   0.158 -0.5326  2.4229 -0.4521
 7850SOL     OW35008   3.619   0.626   4.639  0.4155  0.3515 -0.0653
 7850SOL    HW135009   3.598   0.568   4.565  2.4968  0.1681 -0.4951
 7850SOL    HW235010   3.533   0.643   4.678  0.4939  0.4349  0.0708
 7851SOL     OW35011   1.959   2.619   4.172 -0.0217  0.1232 -0.1567
 7851SOL    HW135012   1.903   2.547   4.146 -0.8625 -0.2228  2.6760
 7851SOL    HW235013   1.917   2.694   4.129  0.5832 -0.1048 -1.1360
 7852SOL     OW35014   2.210   0.159   7.784 -0.3682  0.3469  0.1101
 7852SOL    HW135015   2.166   0.080   7.754 -0.1472  0.1579  0.2877
 7852SOL    HW235016   2.261   0.181   7.705 -2.0056  1.0402 -0.7592
 7853SOL     OW35017   1.769   4.057   4.122  0.0370  0.2310 -0.5063
 7853SOL    HW135018   1.738   3.991   4.185 -0.3208  0.4402 -0.4625
 7853SOL    HW235019   1.778   4.125   4.189 -2.3299  1.6937 -1.6475
 7854SOL     OW35020   0.020   2.394  12.953  0.6640 -0.4255  0.5165
 7854SOL    HW135021   0.048   2.336  12.882 -0.7804  1.2618 -1.3957
 7854SOL    HW235022   0.084   2.381  13.023  1.2639 -0.4036 -0.0288
 7855SOL     OW35023   0.210   2.201   5.855 -0.2570  0.0633  0.0087
 7855SOL    HW135024   0.275   2.131   5.849  0.1487  0.5783 -1.4664
 7855SOL    HW235025   0.246   2.270   5.799  0.7170 -1.9550 -1.8279
 7856SOL     OW35026   3.079   2.936  15.600  0.1897  0.9258 -0.0251
 7856SOL    HW135027   3.122   2.960  15.518  1.4520  0.7103  0.5715
 7856SOL    HW235028   3.036   2.852  15.584  1.9747 -0.1144  0.5354
 7857SOL     OW35029   4.378   1.413   5.429 -0.1492  0.4138 -0.3331
 7857SOL    HW135030   4.365   1.456   5.344 -0.7657  1.4115  0.2672
 7857SOL    HW235031   4.334   1.476   5.486  0.4489  0.8614 -0.3674
 7858SOL     OW35032   3.603   4.068  10.069 -0.3098  0.3517 -0.2027
 7858SOL    HW135033   3.658   4.008  10.120 -1.5434 -1.8663 -1.4798
 7858SOL    HW235034   3.600   4.137  10.135 -0.3528 -0.2072  0.3848
 7859SOL     OW35035   3.055   0.845  17.292  0.4063 -0.2487  0.3283
 7859SOL    HW135036   3.106   0.772  17.259  0.9165 -1.0214  2.8449
 7859SOL    HW235037   2.999   0.798  17.353  2.0441 -2.9336 -0.2524
 7860SOL     OW35038   4.613   3.144  13.343  0.0690 -0.2792  0.0786
 7860SOL    HW135039   4.601   3.059  13.299 -0.4466  0.0920 -0.5020
 7860SOL    HW235040   4.634   3.114  13.431 -0.4842 -0.2165  0.2319
 7861SOL     OW35041   2.749   3.494   8.804  0.0952 -0.4129  0.0556
 7861SOL    HW135042   2.725   3.587   8.807 -0.1603 -0.4216 -1.8420
 7861SOL    HW235043   2.679   3.463   8.862 -0.1611  0.0813  0.0141
 7862SOL     OW35044   0.957   1.355   2.964  0.6756 -0.2036 -0.0859
 7862SOL    HW135045   0.932   1.319   3.049 -0.8596  0.2982 -0.3270
 7862SOL    HW235046   0.932   1.286   2.902 -0.3269 -0.0727  0.1726
 7863SOL     OW35047   0.407   1.945   8.042 -0.2646  0.0399  0.0428
 7863SOL    HW135048   0.373   1.966   8.129 -1.3071 -1.4803  0.0074
 7863SOL    HW235049   0.344   1.885   8.002  0.6198 -0.5136 -0.5262
 7864SOL     OW35050   4.367   1.295   2.552  0.7378  0.1146 -0.1109
 7864SOL    HW135051   4.416   1.365   2.595 -2.8056  2.9297 -0.6622
 7864SOL    HW235052   4.285   1.340   2.531  0.3622 -0.2168  0.6576
 7865SOL     OW35053   4.186   3.287   6.185 -0.4847 -0.3450  0.1036
 7865SOL    HW135054   4.108   3.343   6.191 -0.0530 -0.0530  2.6643
 7865SOL    HW235055   4.156   3.219   6.244 -0.1963 -0.7433 -0.2083
 7866SOL     OW35056   1.209   0.380   6.042  0.3313  0.2771 -0.2249
 7866SOL    HW135057   1.182   0.471   6.056  0.1047  0.3966 -1.4337
 7866SOL    HW235058   1.278   0.381   6.109 -0.8088 -0.3823  0.9477
 7867SOL     OW35059   3.453   2.494   1.867 -0.0978 -0.1761  0.5119
 7867SOL    HW135060   3.509   2.499   1.945 -1.0167  0.2612  1.1354
 7867SOL    HW235061   3.514   2.546   1.814  1.8462 -2.3247  0.6280
 7868SOL     OW35062   4.481   0.589   1.327  0.1825  0.1635 -0.4909
 7868SOL    HW135063   4.396   0.586   1.282  0.6108 -0.1745 -1.2737
 7868SOL    HW235064   4.507   0.674   1.293 -0.1428  0.5564  0.2529
 7869SOL     OW35065   0.175   0.870   1.700 -0.3144  0.3011 -0.6176
 7869SOL    HW135066   0.141   0.925   1.630  0.5589 -0.0252 -1.2956
 7869SOL    HW235067   0.179   0.790   1.648 -0.0788  0.7024 -1.2236
 7870SOL     OW35068   4.014   3.660   0.944 -0.1165  0.0817  0.1949
 7870SOL    HW135069   4.038   3.691   0.857 -1.4033  2.7728  0.7896
 7870SOL    HW235070   4.087   3.602   0.968  2.8099  2.3035 -3.3165
 7871SOL     OW35071   3.488   4.106   3.645  0.4816 -0.2825 -0.2071
 7871SOL    HW135072   3.566   4.133   3.692  1.9070  0.4419 -3.0183
 7871SOL    HW235073   3.542   4.067   3.576 -0.2928 -1.3293 -0.2403
 7872SOL     OW35074   4.451   2.711   2.129 -0.0154  0.3958 -0.2445
 7872SOL    HW135075   4.451   2.790   2.075 -0.5031  1.2035  0.9416
 7872SOL    HW235076   4.366   2.668   2.124  0.1661 -0.1898  1.4101
 7873SOL     OW35077   0.884   3.516   8.922  0.0831 -0.1063  0.0032
 7873SOL    HW135078   0.900   3.450   8.855 -0.5593 -0.5978  0.3365
 7873SOL    HW235079   0.954   3.581   8.914  0.1505 -0.1262  0.3983
 7874SOL     OW35080   2.099   1.025   0.464 -0.2565  0.3219  0.2875
 7874SOL    HW135081   2.172   0.963   0.460 -0.3782  0.1922  0.0182
 7874SOL    HW235082   2.026   0.966   0.482 -0.1318 -0.4942 -1.8620
 7875SOL     OW35083   1.228   1.478   5.075 -0.6069  0.1252 -0.7209
 7875SOL    HW135084   1.282   1.479   4.997 -0.7109  0.1318 -0.7933
 7875SOL    HW235085   1.290   1.483   5.148 -0.6410 -1.8637 -0.5707
 7876SOL     OW35086   1.815   1.117   3.252  0.2193  0.2779  0.2877
 7876SOL    HW135087   1.800   1.091   3.161  2.6624  0.7037 -0.2275
 7876SOL    HW235088   1.731   1.158   3.272 -0.2518 -1.5730  2.1109
 7877SOL     OW35089   3.413   1.187  11.301  0.3964  0.2539  0.1100
 7877SOL    HW135090   3.348   1.119  11.317  1.2673 -1.0664 -2.0296
 7877SOL    HW235091   3.415   1.242  11.380  2.1944  1.3316 -0.6756
 7878SOL     OW35092   0.892   2.842  13.487  0.1782  0.5741 -0.2230
 7878SOL    HW135093   0.968   2.886  13.450  0.6967  0.6065  0.8711
 7878SOL    HW235094   0.927   2.759  13.522 -1.0386 -0.7108 -2.0501
 7879SOL     OW35095   3.857   0.025   8.942  0.0292 -0.1675 -0.3005
 7879SOL    HW135096   3.892   4.712   9.023  0.0730  1.6983  0.4930
 7879SOL    HW235097   3.762   0.028   8.952  0.4280  2.2106  2.4835
 7880SOL     OW35098   2.742   4.633   8.571  0.4108  0.9738 -0.1738
 7880SOL    HW135099   2.817   4.585   8.537  0.2818 -0.0667  1.0346
 7880SOL    HW235100   2.760   0.001   8.547  2.7337  0.4369 -0.4089
 7881SOL     OW35101   1.870   0.096   2.751  0.0088  0.3048  0.3415
 7881SOL    HW135102   1.868   0.138   2.837 -1.3919  0.4506  0.2378
 7881SOL    HW235103   1.864   0.004   2.777 -0.5419  0.7590  1.8608
 7882SOL     OW35104   2.638   3.019   5.064 -0.2881  0.1968 -0.0772
 7882SOL    HW135105   2.704   2.970   5.112  0.7634  1.3619 -0.3427
 7882SOL    HW235106   2.657   3.110   5.089 -0.8026  0.1721  0.4090
 7883SOL     OW35107   3.023   0.123   7.789 -0.0463 -0.0546  0.2290
 7883SOL    HW135108   2.979   0.171   7.859 -1.0632 -0.7073  0.0350
 7883SOL    HW235109   3.106   0.102   7.832  0.7762 -0.8108 -1.7505
 7884SOL     OW35110   1.313   1.450  14.595 -0.0211 -0.2304 -0.5488
 7884SOL    HW135111   1.371   1.512  14.640  0.2646  0.9465 -2.5781
 7884SOL    HW235112   1.288   1.505  14.521  0.4556 -1.5424 -1.6831
 7885SOL     OW35113   1.198   0.391  11.651  0.8257  0.5250  0.2654
 7885SOL    HW135114   1.150   0.471  11.671 -1.2080 -0.3359 -1.2501
 7885SOL    HW235115   1.161   0.374  11.565  1.2475  0.0392  0.1768
 7886SOL     OW35116   1.169   3.520   7.630 -0.1202 -0.6742  0.4001
 7886SOL    HW135117   1.243   3.561   7.585 -0.2175 -0.5048  0.3939
 7886SOL    HW235118   1.098   3.581   7.609  1.2356  0.6380 -0.4277
 7887SOL     OW35119   2.333   2.142   8.509 -0.4190 -0.1536  0.4219
 7887SOL    HW135120   2.294   2.121   8.424 -0.5493  2.8470 -0.2651
 7887SOL    HW235121   2.264   2.109   8.567  0.9511 -1.1468  1.4871
 7888SOL     OW35122   1.677   3.148  10.448 -0.6730  0.1119  0.5229
 7888SOL    HW135123   1.612   3.086  10.414 -0.7980  0.4432  0.1561
 7888SOL    HW235124   1.646   3.234  10.420 -0.0029 -0.0513 -0.7002
 7889SOL     OW35125   3.948   2.003   9.902  0.1973 -0.1155  0.0973
 7889SOL    HW135126   3.939   1.913   9.871 -0.4916  0.0014 -0.0400
 7889SOL    HW235127   3.995   1.983   9.984 -0.9944 -1.0915  0.5344
 7890SOL     OW35128   4.325   4.577   6.329  0.6642  0.1992 -0.0198
 7890SOL    HW135129   4.284   4.567   6.415  1.8388 -1.4665  0.3411
 7890SOL    HW235130   4.394   4.630   6.368  0.2161 -0.5967  1.8469
 7891SOL     OW35131   4.335   2.950   4.921  0.6039  0.8278  0.6256
 7891SOL    HW135132   4.286   2.924   4.843  1.2417 -1.2237  0.9230
 7891SOL    HW235133   4.294   3.035   4.936 -2.6589 -0.7243  0.5278
 7892SOL     OW35134   1.934   3.921   6.005  0.6978  0.0349 -0.7809
 7892SOL    HW135135   2.001   3.985   5.981  0.8044  0.4593  0.6691
 7892SOL    HW235136   1.913   3.900   5.914  1.3311 -0.1181 -0.8906
 7893SOL     OW35137   1.089   2.625  16.740 -0.2978 -0.0865  0.1131
 7893SOL    HW135138   1.050   2.675  16.668  1.0562  0.5232 -0.2032
 7893SOL    HW235139   1.071   2.681  16.815 -3.9916  2.6971 -2.8422
 7894SOL     OW35140   1.107   3.692   8.865  0.0767 -0.2103  0.0866
 7894SOL    HW135141   1.143   3.660   8.782  0.3171 -0.0872  0.1445
 7894SOL    HW235142   1.160   3.769   8.887  1.4678 -0.5495 -2.0271
 7895SOL     OW35143   3.797   2.282   3.604  0.0321  0.0418 -0.6307
 7895SOL    HW135144   3.888   2.313   3.601  0.4471 -1.0192  1.0310
 7895SOL    HW235145   3.800   2.190   3.578 -1.4924  0.2348 -1.5371
 7896SOL     OW35146   3.220   3.595   8.610 -0.3032  0.4530  0.1522
 7896SOL    HW135147   3.170   3.536   8.554 -0.6275 -1.5179  2.5405
 7896SOL    HW235148   3.294   3.612   8.552 -1.2684  1.7578 -0.6881
 7897SOL     OW35149   2.156   4.550   3.188  0.3665 -0.1135  0.1026
 7897SOL    HW135150   2.116   4.601   3.259 -0.7709 -0.8660 -0.0025
 7897SOL    HW235151   2.088   4.555   3.120  2.0855 -1.9841 -1.7529
 7898SOL     OW35152   1.884   4.291   1.992 -0.2559 -0.2565  0.3808
 7898SOL    HW135153   1.888   4.196   1.986  1.2411 -0.1794  0.3096
 7898SOL    HW235154   1.816   4.313   1.929 -0.6515 -0.8303  0.6059
 7899SOL     OW35155   1.405   3.276   0.379  0.0549 -0.2543 -0.1117
 7899SOL    HW135156   1.470   3.265   0.310 -1.2030 -0.1118 -1.3187
 7899SOL    HW235157   1.470   3.309   0.442  0.0274 -0.5106  0.0520
 7900SOL     OW35158   1.421   0.564  11.099 -0.2440 -0.0918  0.2228
 7900SOL    HW135159   1.336   0.521  11.089 -0.7879  1.2652 -0.9934
 7900SOL    HW235160   1.408   0.648  11.056  1.4583 -0.4045 -0.8823
 7901SOL     OW35161   0.702   0.673  11.412 -0.0831 -0.3983  0.2861
 7901SOL    HW135162   0.638   0.726  11.366 -1.8222 -3.1793 -0.4648
 7901SOL    HW235163   0.637   0.643  11.476 -1.2697 -2.1099 -1.7234
 7902SOL     OW35164   0.283   2.905   8.423 -0.0870  0.0657 -0.1194
 7902SOL    HW135165   0.349   2.883   8.489 -0.7287 -1.3162  0.0698
 7902SOL    HW235166   0.218   2.835   8.421 -1.3768  1.2430  1.1605
 7903SOL     OW35167   3.410   3.070   7.121 -0.0820  0.2078 -0.0140
 7903SOL    HW135168   3.472   3.122   7.070 -2.1730  2.3003 -0.3992
 7903SOL    HW235169   3.343   3.137   7.133  0.7588  1.5198 -2.6814
 7904SOL     OW35170   4.320   2.384  11.296 -0.1779  0.5639 -0.0421
 7904SOL    HW135171   4.367   2.361  11.215  2.1123  0.8662  1.2061
 7904SOL    HW235172   4.306   2.296  11.329 -1.5836  0.3116 -1.3265
 7905SOL     OW35173   0.780   1.946   3.097 -0.3731  0.0981 -0.2764
 7905SOL    HW135174   0.773   2.041   3.083 -0.1544  0.1770  0.1269
 7905SOL    HW235175   0.743   1.948   3.186 -2.5985  0.2957 -1.2059
 7906SOL     OW35176   3.841   1.632   2.135  0.1902  0.6555 -0.2158
 7906SOL    HW135177   3.872   1.621   2.225 -1.6046 -0.2445  0.3052
 7906SOL    HW235178   3.821   1.542   2.109  2.3541  0.4267 -1.0731
 7907SOL     OW35179   3.820   1.822   3.230  0.1428 -0.1384  0.0251
 7907SOL    HW135180   3.855   1.757   3.290  1.6833  0.0697 -0.6366
 7907SOL    HW235181   3.890   1.823   3.164  0.5355 -0.2137  0.4407
 7908SOL     OW35182   4.417   3.021   8.789 -0.1643  0.3869 -0.1851
 7908SOL    HW135183   4.452   2.933   8.773 -2.8718 -0.4444 -1.6764
 7908SOL    HW235184   4.326   2.995   8.771 -0.7122  2.0064  0.2718
 7909SOL     OW35185   2.107   3.331  16.431 -0.3813  0.7351  0.1969
 7909SOL    HW135186   2.018   3.363  16.417 -0.4447 -0.1823 -1.4513
 7909SOL    HW235187   2.162   3.394  16.383 -0.7396 -0.9789 -2.4292
 7910SOL     OW35188   3.662   1.155  16.291 -0.6046 -0.2455 -0.1208
 7910SOL    HW135189   3.608   1.109  16.356  0.2449  0.5224  1.1144
 7910SOL    HW235190   3.595   1.157  16.222  0.3359 -0.5054 -1.0285
 7911SOL     OW35191   3.195   2.771   8.082 -0.0896 -0.0298 -0.0767
 7911SOL    HW135192   3.248   2.823   8.021  1.2372  0.1552  1.2292
 7911SOL    HW235193   3.113   2.818   8.072 -0.1420  0.4072  2.3547
 7912SOL     OW35194   2.516   4.108   3.829 -0.0748  0.0822  0.2396
 7912SOL    HW135195   2.583   4.072   3.771 -1.6649 -0.9093 -0.9744
 7912SOL    HW235196   2.440   4.118   3.772 -0.1878  0.9119  0.5291
 7913SOL     OW35197   1.934   1.023   2.337 -0.6034 -0.4346  0.5272
 7913SOL    HW135198   1.957   0.958   2.404  3.8115  0.1567 -0.3810
 7913SOL    HW235199   2.001   1.089   2.359 -1.1111  0.5122 -0.7671
 7914SOL     OW35200   2.925   4.520  10.499 -0.3118  0.2797  0.2257
 7914SOL    HW135201   2.864   4.526  10.573 -0.3560 -1.7508  0.3602
 7914SOL    HW235202   2.994   4.470  10.542  1.9834  1.6080 -1.9839
 7915SOL     OW35203   4.221   2.495   3.230 -0.0413  0.3502 -0.1815
 7915SOL    HW135204   4.240   2.411   3.189 -0.4961  0.4702 -0.6310
 7915SOL    HW235205   4.270   2.561   3.181  1.4212  0.5582  1.5150
 7916SOL     OW35206   2.179   1.051  15.071  0.0070  0.2928  0.1547
 7916SOL    HW135207   2.193   1.092  15.156  0.9212  0.0856  0.1081
 7916SOL    HW235208   2.230   0.973  15.094  0.3235  0.3263 -0.4444
 7917SOL     OW35209   3.702   0.121   8.140 -0.7310  0.2953  0.1196
 7917SOL    HW135210   3.674   0.033   8.165 -1.4102  0.4967  0.0845
 7917SOL    HW235211   3.746   0.141   8.223 -0.8052 -1.2176  0.5275
 7918SOL     OW35212   4.633   3.081   6.682  0.2541 -0.3829  0.7324
 7918SOL    HW135213   4.571   3.152   6.665  2.5061  1.7964  1.6282
 7918SOL    HW235214   4.687   3.073   6.604 -1.4151  1.4547 -0.5806
 7919SOL     OW35215   0.903   2.970  16.347 -0.0687 -1.0725  0.1544
 7919SOL    HW135216   0.831   2.983  16.286 -1.3030 -0.8610  1.6585
 7919SOL    HW235217   0.965   2.924  16.291 -1.6915 -2.5014 -0.4528
 7920SOL     OW35218   0.851   1.073   6.860 -0.6546 -0.3146  0.1925
 7920SOL    HW135219   0.872   0.988   6.899  2.1603  0.4719  0.3797
 7920SOL    HW235220   0.761   1.090   6.887 -0.1412 -1.5359  2.6708
 7921SOL     OW35221   2.747   2.254   0.369  0.1708  0.7284 -0.1475
 7921SOL    HW135222   2.832   2.218   0.392 -1.2550 -1.7528  1.2235
 7921SOL    HW235223   2.763   2.348   0.376  1.2359  0.3868  1.8518
 7922SOL     OW35224   2.886   4.114   5.480  0.6197 -0.3308  0.0923
 7922SOL    HW135225   2.852   4.148   5.562 -3.0572 -0.0764 -1.5244
 7922SOL    HW235226   2.958   4.173   5.456 -1.6135  3.2013  2.1970
 7923SOL     OW35227   0.977   3.361   5.292  0.1278  0.3281  0.4294
 7923SOL    HW135228   0.979   3.418   5.368 -0.0721  1.8251 -0.6910
 7923SOL    HW235229   0.899   3.308   5.308  1.0658 -0.8278  1.1669
 7924SOL     OW35230   3.199   0.759   3.402 -0.2686 -0.0592  0.1407
 7924SOL    HW135231   3.188   0.789   3.312  2.1045 -3.2761 -1.2264
 7924SOL    HW235232   3.126   0.800   3.450 -2.4162 -4.8413  0.9814
 7925SOL     OW35233   3.279   4.032   4.834 -0.2609  0.2583  0.0288
 7925SOL    HW135234   3.233   4.114   4.854  0.9761  0.9298  0.1051
 7925SOL    HW235235   3.221   3.984   4.774 -0.9328  0.1284  0.7765
 7926SOL     OW35236   3.407   2.593   4.310  0.0341 -0.4675 -0.4357
 7926SOL    HW135237   3.492   2.551   4.324 -0.4571 -0.5531  2.1499
 7926SOL    HW235238   3.387   2.584   4.217 -0.3622 -0.0747 -0.3863
 7927SOL     OW35239   4.493   1.491   3.582  0.8263 -0.0114 -0.0198
 7927SOL    HW135240   4.496   1.549   3.658 -0.3974 -1.1934  0.9349
 7927SOL    HW235241   4.570   1.505   3.527  0.3706  0.9367 -0.4148
 7928SOL     OW35242   1.122   3.155   5.665 -0.4982 -0.3365 -0.0924
 7928SOL    HW135243   1.059   3.223   5.690 -1.1133 -0.8780 -0.1707
 7928SOL    HW235244   1.205   3.202   5.672 -0.2681 -0.9018  0.8981
 7929SOL     OW35245   2.817   0.019   6.347 -0.1108 -0.0004 -0.1713
 7929SOL    HW135246   2.738   4.697   6.377  0.1963  0.3402  1.1341
 7929SOL    HW235247   2.830   0.089   6.411  0.8002  0.8455 -1.2753
 7930SOL     OW35248   1.392   0.352   4.333 -0.2151  0.6028  0.0842
 7930SOL    HW135249   1.433   0.359   4.419 -0.6293 -2.4927  0.5453
 7930SOL    HW235250   1.302   0.383   4.342 -0.6063 -1.4743  3.1727
 7931SOL     OW35251   1.144   3.038  16.575  0.5442  0.1242  0.3184
 7931SOL    HW135252   1.055   3.004  16.578  0.2110  0.9330 -0.4086
 7931SOL    HW235253   1.179   2.968  16.521 -2.7913 -0.0794 -1.5296
 7932SOL     OW35254   2.125   4.246   7.789 -0.4628 -0.2068 -0.2210
 7932SOL    HW135255   2.052   4.248   7.727 -1.5082  0.3997  1.0350
 7932SOL    HW235256   2.183   4.314   7.752  2.9216 -2.1150  1.5719
 7933SOL     OW35257   2.863   4.373   7.310  0.1685 -0.6858  0.3703
 7933SOL    HW135258   2.950   4.352   7.275 -0.2253 -0.4008 -0.7907
 7933SOL    HW235259   2.899   4.403   7.394 -0.4939  1.1521 -0.0076
 7934SOL     OW35260   0.830   0.366   2.574  0.1139  0.0383 -0.2298
 7934SOL    HW135261   0.914   0.328   2.547 -0.2707  0.8507 -2.5623
 7934SOL    HW235262   0.869   0.439   2.623  0.3808 -1.4170  1.7264
 7935SOL     OW35263   2.054   2.177  10.348 -0.3541  0.9711 -0.3021
 7935SOL    HW135264   2.064   2.086  10.320 -1.1036  0.3564  1.4294
 7935SOL    HW235265   1.967   2.200  10.313 -1.3888  0.1713  1.7370
 7936SOL     OW35266   2.174   4.618   4.189 -0.1819  0.3575  0.2496
 7936SOL    HW135267   2.091   4.638   4.233 -0.3193  1.9192 -0.7163
 7936SOL    HW235268   2.138   4.561   4.122 -3.3645  1.5926  0.9076
 7937SOL     OW35269   3.009   1.682   5.284  0.2822  0.2742 -0.0560
 7937SOL    HW135270   2.986   1.635   5.204  0.9459 -0.5449  0.2305
 7937SOL    HW235271   3.004   1.775   5.262 -0.0927  0.9537  2.9677
 7938SOL     OW35272   2.011   4.339   3.420 -0.0644 -0.3965 -0.0244
 7938SOL    HW135273   1.942   4.279   3.449 -0.9986  1.4130  1.4496
 7938SOL    HW235274   1.968   4.424   3.432  0.3365  0.0055 -1.4244
 7939SOL     OW35275   4.028   2.020  17.169  0.2280  0.3800 -0.7030
 7939SOL    HW135276   3.993   2.105  17.144  0.8990  1.2343  1.2223
 7939SOL    HW235277   4.046   2.054  17.257  0.4698 -1.0673 -0.1862
 7940SOL     OW35278   3.733   2.865   7.925  0.3709 -0.0606  0.2317
 7940SOL    HW135279   3.653   2.820   7.901 -1.9016  4.4486 -0.6923
 7940SOL    HW235280   3.772   2.862   7.838  0.1531 -1.5121  0.1846
 7941SOL     OW35281   1.350   3.855  14.970 -0.1973  0.3387  0.4035
 7941SOL    HW135282   1.417   3.886  15.032 -0.1088  1.9197 -0.4859
 7941SOL    HW235283   1.298   3.807  15.035  0.1456  1.7330  1.7063
 7942SOL     OW35284   4.009   0.703   9.429 -0.4411 -0.2576 -0.4564
 7942SOL    HW135285   3.927   0.753   9.436 -0.6632 -0.4095 -2.0571
 7942SOL    HW235286   4.014   0.669   9.518 -0.0249 -2.5002 -1.3449
 7943SOL     OW35287   0.075   0.735   5.226  0.4623  0.4301  0.2842
 7943SOL    HW135288   0.071   0.645   5.194 -1.8998 -0.2623  2.4656
 7943SOL    HW235289   0.119   0.777   5.153  2.0828 -0.2993  0.8324
 7944SOL     OW35290   2.553   2.101  16.395  0.3182 -0.0536  0.2209
 7944SOL    HW135291   2.555   2.193  16.371 -1.7325  0.8090  3.3804
 7944SOL    HW235292   2.566   2.115  16.489  1.3462 -0.3224  0.1231
 7945SOL     OW35293   2.850   2.674   2.344  0.1008 -0.6634 -0.4156
 7945SOL    HW135294   2.860   2.681   2.249 -1.2192 -1.2932 -0.6046
 7945SOL    HW235295   2.763   2.634   2.352 -0.3420  0.5523  0.8866
 7946SOL     OW35296   1.894   4.283  13.520  0.0043 -0.2569  0.0019
 7946SOL    HW135297   1.882   4.378  13.516  1.6140 -0.0576  0.0324
 7946SOL    HW235298   1.813   4.252  13.480 -0.1973  0.9107 -0.4993
 7947SOL     OW35299   0.506   4.015  12.257 -0.1037  0.2290  0.4960
 7947SOL    HW135300   0.480   4.102  12.226 -0.5356 -1.0771 -2.8885
 7947SOL    HW235301   0.529   4.026  12.349  1.1897 -0.0322  0.1997
 7948SOL     OW35302   2.731   2.935  13.246 -0.5811 -0.7084  0.0348
 7948SOL    HW135303   2.715   2.908  13.156  1.6879  1.3483 -0.9818
 7948SOL    HW235304   2.654   2.901  13.292 -0.9143  0.0169  0.0184
 7949SOL     OW35305   1.497   4.458   3.539 -0.6574  0.8865  0.2212
 7949SOL    HW135306   1.475   4.457   3.632  1.2085  0.1249  0.6755
 7949SOL    HW235307   1.419   4.485   3.491 -0.8609  2.3694  1.4067
 7950SOL     OW35308   3.886   1.054   2.185  0.3345  0.1173  0.1998
 7950SOL    HW135309   3.840   1.125   2.140  0.8243 -0.4593 -1.2148
 7950SOL    HW235310   3.955   1.036   2.121  2.0560  1.4094  1.6650
 7951SOL     OW35311   1.255   1.282   7.293  0.3083 -0.0982  0.6893
 7951SOL    HW135312   1.326   1.310   7.351  1.3443 -0.1431 -0.5606
 7951SOL    HW235313   1.254   1.189   7.315  1.2017 -0.3202 -0.2293
 7952SOL     OW35314   2.005   1.863   9.137 -0.0729  0.6647  0.2377
 7952SOL    HW135315   1.970   1.790   9.188 -2.2403  1.2433 -0.4096
 7952SOL    HW235316   2.036   1.922   9.206  0.6544 -1.4315  1.6723
 7953SOL     OW35317   2.803   2.153  14.925  0.7348  0.2424  0.2387
 7953SOL    HW135318   2.835   2.191  14.844 -1.4075  1.9214  0.1902
 7953SOL    HW235319   2.886   2.117  14.958  0.4376  0.1171  0.8507
 7954SOL     OW35320   1.954   0.397   7.558  0.3273  0.6785  0.3205
 7954SOL    HW135321   1.981   0.389   7.649  1.7997 -0.6925 -0.2326
 7954SOL    HW235322   1.906   0.480   7.551 -1.6899 -0.3108  2.4354
 7955SOL     OW35323   4.002   2.392  10.136  0.6010 -0.1277  0.0355
 7955SOL    HW135324   4.068   2.332  10.101 -1.0904 -1.4584 -0.9191
 7955SOL    HW235325   3.937   2.387  10.065 -1.2235 -2.7284  1.8896
 7956SOL     OW35326   4.133   0.736   6.917 -0.2194  0.2073  0.1352
 7956SOL    HW135327   4.050   0.722   6.963  0.1465 -0.4821  0.5874
 7956SOL    HW235328   4.196   0.687   6.970  1.4083  1.1694 -0.9547
 7957SOL     OW35329   2.396   2.643   7.403 -0.2449  0.4393  1.0115
 7957SOL    HW135330   2.349   2.654   7.320  1.5345 -0.2137 -0.0743
 7957SOL    HW235331   2.333   2.687   7.461 -0.7566  1.1163 -0.0554
 7958SOL     OW35332   1.148   1.145   8.322  0.1874  0.2877  0.1451
 7958SOL    HW135333   1.206   1.094   8.379 -0.4169 -0.6586 -0.0838
 7958SOL    HW235334   1.207   1.205   8.277 -1.0020  1.9774  0.8442
 7959SOL     OW35335   2.881   1.662  16.144 -0.7949 -0.0785 -0.2771
 7959SOL    HW135336   2.788   1.639  16.142 -0.8089 -0.1170  0.6808
 7959SOL    HW235337   2.906   1.598  16.211  0.1517  2.3397  1.6822
 7960SOL     OW35338   3.513   2.025   7.867 -0.1844  0.0195 -0.4635
 7960SOL    HW135339   3.499   2.074   7.948 -1.6990 -2.6944  0.9243
 7960SOL    HW235340   3.587   1.975   7.900 -0.6217 -0.5529 -0.3492
 7961SOL     OW35341   2.303   1.986   9.070 -0.6735 -0.3251 -0.2040
 7961SOL    HW135342   2.258   2.002   9.153  2.0543 -0.3039  1.2983
 7961SOL    HW235343   2.351   2.068   9.057  0.7453 -1.0947  0.2133
 7962SOL     OW35344   3.722   3.028   0.843 -0.2101  0.2717 -0.0580
 7962SOL    HW135345   3.709   3.123   0.834 -0.4618  0.1715 -0.7502
 7962SOL    HW235346   3.690   3.013   0.932 -1.3747  0.5697 -0.4242
 7963SOL     OW35347   3.224   1.229   5.933 -0.8243  0.2518 -0.0143
 7963SOL    HW135348   3.143   1.232   5.883 -0.9606  1.4871  0.2817
 7963SOL    HW235349   3.288   1.190   5.874 -0.4181  2.0452 -0.7687
 7964SOL     OW35350   3.810   0.136   7.379 -0.1240  0.0589 -0.6305
 7964SOL    HW135351   3.850   0.217   7.348 -0.4689  0.5764  0.3132
 7964SOL    HW235352   3.724   0.166   7.406 -0.0757 -0.5044  0.1407
 7965SOL     OW35353   1.124   3.635   8.255 -0.2985  0.2662  0.5073
 7965SOL    HW135354   1.192   3.676   8.200 -2.4024  1.5614 -1.1361
 7965SOL    HW235355   1.173   3.565   8.297 -1.3048  0.0279  1.2728
 7966SOL     OW35356   4.637   4.470   6.608  0.4947  0.1617  0.2205
 7966SOL    HW135357   4.554   4.480   6.561 -0.4205 -1.1064  1.5698
 7966SOL    HW235358   4.593   4.441   6.688 -1.6392  0.3104 -0.8771
 7967SOL     OW35359   2.818   2.219   5.917  0.5257  0.0731  0.5704
 7967SOL    HW135360   2.723   2.212   5.920  0.3473  1.7735 -0.9917
 7967SOL    HW235361   2.837   2.254   6.004  1.1122  2.3332 -0.4722
 7968SOL     OW35362   2.368   2.710   0.993 -0.1336  0.4294  0.1110
 7968SOL    HW135363   2.289   2.714   0.938 -1.2208  2.5583  1.8044
 7968SOL    HW235364   2.417   2.789   0.971  1.1010 -0.3493  0.1125
 7969SOL     OW35365   2.886   1.256   8.561  0.4172 -0.2605 -0.2273
 7969SOL    HW135366   2.858   1.190   8.624  0.9374 -0.1603  0.1103
 7969SOL    HW235367   2.807   1.289   8.518  0.7427  1.2806  0.3547
 7970SOL     OW35368   3.736   4.030   8.354  0.2794 -0.0836  0.2165
 7970SOL    HW135369   3.642   4.028   8.368  0.0611 -0.0127 -1.2881
 7970SOL    HW235370   3.774   3.992   8.433 -0.3193  1.1154  1.0848
 7971SOL     OW35371   0.155   0.939   7.713  0.4694 -0.0575 -0.0528
 7971SOL    HW135372   0.113   0.984   7.787  1.8638 -1.0495  1.3430
 7971SOL    HW235373   0.146   0.850   7.745  1.2642  0.0551  0.4944
 7972SOL     OW35374   1.391   1.939   1.736  0.2377 -0.0851  0.3199
 7972SOL    HW135375   1.374   2.028   1.766 -0.9400 -0.2509  0.1241
 7972SOL    HW235376   1.485   1.947   1.718  0.2774  0.1413  0.6242
 7973SOL     OW35377   4.345   3.427   4.042 -0.2296 -0.5895 -0.2534
 7973SOL    HW135378   4.262   3.463   4.071  0.9253  1.5712  0.3375
 7973SOL    HW235379   4.411   3.486   4.078 -2.2406  0.8763  0.9941
 7974SOL     OW35380   2.500   3.939   6.229 -0.0073 -0.0106 -0.1780
 7974SOL    HW135381   2.565   3.968   6.293 -0.7594 -0.7746  0.9249
 7974SOL    HW235382   2.515   4.000   6.156  0.7589  0.1680  0.1333
 7975SOL     OW35383   0.239   2.025   2.237  0.6143 -0.3024  0.7259
 7975SOL    HW135384   0.324   2.007   2.276  1.2874 -0.7248 -0.9492
 7975SOL    HW235385   0.262   2.017   2.145  1.0129 -1.6836  0.9435
 7976SOL     OW35386   1.101   0.987  14.006  0.0296  0.3961 -0.3014
 7976SOL    HW135387   1.197   0.987  14.014 -0.0354  0.4243  0.4834
 7976SOL    HW235388   1.080   0.896  13.987  0.1193  0.0360  1.3558
 7977SOL     OW35389   4.342   3.800   9.137 -0.3084 -0.0392  0.0691
 7977SOL    HW135390   4.376   3.726   9.188 -0.3484  0.1351  0.3450
 7977SOL    HW235391   4.374   3.768   9.052  2.9124  0.4688  1.0727
 7978SOL     OW35392   2.021   0.149   6.687 -0.1152  0.5972 -0.3096
 7978SOL    HW135393   2.001   0.092   6.613  1.6265  0.5820 -0.7805
 7978SOL    HW235394   2.070   0.220   6.645 -1.1288  0.3856 -1.8376
 7979SOL     OW35395   2.164   0.145   2.114 -0.8876  0.1771  0.2240
 7979SOL    HW135396   2.190   0.236   2.131  1.4128 -0.2488 -0.9842
 7979SOL    HW235397   2.240   0.095   2.142 -1.3016 -0.2556  0.5646
 7980SOL     OW35398   4.306   1.115  12.254 -0.0979  0.1123  0.5732
 7980SOL    HW135399   4.384   1.158  12.290 -0.4029 -0.7988  2.3249
 7980SOL    HW235400   4.268   1.086  12.337 -1.4152  1.0122  0.2686
 7981SOL     OW35401   0.311   3.520  17.641  0.2411 -0.0179  0.0171
 7981SOL    HW135402   0.326   3.450   0.009 -0.2132  0.3832  0.5798
 7981SOL    HW235403   0.391   3.511  17.591 -0.0199 -1.4356 -0.1332
 7982SOL     OW35404   2.520   4.582   6.133 -0.4681  0.4485 -0.8611
 7982SOL    HW135405   2.457   4.509   6.132 -1.0014  0.8884  1.1461
 7982SOL    HW235406   2.472   4.651   6.088 -1.3702  0.5301  0.2442
 7983SOL     OW35407   1.905   3.947   6.469 -0.0118  0.2170 -0.4418
 7983SOL    HW135408   1.870   3.899   6.394 -1.9476 -0.4869  0.8972
 7983SOL    HW235409   1.859   3.905   6.543  0.4865 -0.0469 -0.2777
 7984SOL     OW35410   0.093   0.334   6.685  0.1230  0.2671  0.8143
 7984SOL    HW135411   0.048   0.317   6.602 -0.7934  2.6052  0.8283
 7984SOL    HW235412   0.145   0.411   6.662 -1.0924  0.6818 -0.5951
 7985SOL     OW35413   1.990   2.868   5.779 -0.2510 -0.3551 -0.0178
 7985SOL    HW135414   2.067   2.891   5.831 -0.2346 -0.3607 -0.0398
 7985SOL    HW235415   1.954   2.792   5.825  0.6629 -1.4968 -1.1853
 7986SOL     OW35416   2.150   3.866   1.873 -0.6471 -0.4502 -0.3208
 7986SOL    HW135417   2.209   3.920   1.925 -1.2413 -0.1963  0.0905
 7986SOL    HW235418   2.200   3.794   1.834 -2.4808 -3.1375  2.2694
 7987SOL     OW35419   4.551   3.927   4.388  0.2881  0.7621  0.8101
 7987SOL    HW135420   4.544   3.915   4.293  3.1164 -2.0747  0.9464
 7987SOL    HW235421   4.540   4.022   4.396  0.8532  0.9025 -0.0231
 7988SOL     OW35422   3.159   1.111  10.684  0.1731 -0.2296 -0.5817
 7988SOL    HW135423   3.244   1.070  10.699  0.0507 -0.3340 -0.1949
 7988SOL    HW235424   3.171   1.143  10.594  0.5290 -1.1421 -0.8586
 7989SOL     OW35425   0.405   2.264   7.607 -0.0521 -0.3327 -0.4089
 7989SOL    HW135426   0.422   2.356   7.591 -0.4866 -0.0353  0.8243
 7989SOL    HW235427   0.485   2.223   7.573  0.7931  0.5943  0.4485
 7990SOL     OW35428   0.441   4.400  12.678  0.3450 -0.3776 -0.1749
 7990SOL    HW135429   0.355   4.425  12.714  0.3861 -0.8557  0.2662
 7990SOL    HW235430   0.437   4.407  12.583  1.7847  0.4191 -0.1855
 7991SOL     OW35431   0.314   1.926   3.399  0.2803 -0.6159  0.3624
 7991SOL    HW135432   0.245   1.876   3.355  1.2427  1.6628 -3.7129
 7991SOL    HW235433   0.263   2.006   3.413  1.6170  0.1580  0.8306
 7992SOL     OW35434   0.360   3.283   0.143  0.1056  0.4748  0.2779
 7992SOL    HW135435   0.381   3.226   0.216  2.4776 -0.0381 -0.8036
 7992SOL    HW235436   0.446   3.283   0.100 -1.3541 -0.6032 -2.6033
 7993SOL     OW35437   3.772   3.198   5.614 -0.3130  0.2326  0.8876
 7993SOL    HW135438   3.755   3.107   5.638 -0.1703 -0.1704 -0.5027
 7993SOL    HW235439   3.697   3.246   5.650  0.0718  1.5287 -0.0329
 7994SOL     OW35440   4.005   4.027   5.991 -0.2427  0.4069 -0.0139
 7994SOL    HW135441   4.087   4.045   5.945  0.1295 -0.9856  0.0880
 7994SOL    HW235442   3.944   4.087   5.949 -1.1691  0.5181  1.4648
 7995SOL     OW35443   0.274   3.602   3.446 -0.4862  0.0506 -0.2809
 7995SOL    HW135444   0.365   3.574   3.452  0.1716  2.6342  1.8093
 7995SOL    HW235445   0.227   3.533   3.494 -1.4076 -0.7476 -2.3073
 7996SOL     OW35446   3.694   1.887  11.258 -0.0699 -0.4388  0.1308
 7996SOL    HW135447   3.703   1.947  11.184 -1.9848 -0.7108 -0.3246
 7996SOL    HW235448   3.610   1.916  11.294 -0.2277 -1.1073  0.3028
 7997SOL     OW35449   2.142   0.983   5.413 -0.4834  0.5731 -0.6293
 7997SOL    HW135450   2.169   1.015   5.500 -2.5562  0.7202 -0.0412
 7997SOL    HW235451   2.228   0.984   5.371  0.7170 -1.3549  1.7496
 7998SOL     OW35452   3.206   3.667  13.453  0.0435  0.4573  0.4676
 7998SOL    HW135453   3.234   3.733  13.389  0.2017  0.0511  0.1196
 7998SOL    HW235454   3.279   3.607  13.443 -1.1123 -0.5733 -2.0044
 7999SOL     OW35455   1.713   2.434   1.040  0.2948 -0.2114  0.5057
 7999SOL    HW135456   1.635   2.427   1.094  0.1559 -1.3701  0.1366
 7999SOL    HW235457   1.687   2.504   0.981 -2.4203  0.6818  2.7700
 8000SOL     OW35458   1.001   3.445   9.921  0.5994 -0.1564 -0.6387
 8000SOL    HW135459   0.917   3.483   9.948  0.6373 -0.4357 -0.1326
 8000SOL    HW235460   1.052   3.526   9.922 -1.4601  1.0664  4.0843
 8001SOL     OW35461   3.859   2.872   8.364  0.2565  0.2922  0.2060
 8001SOL    HW135462   3.846   2.805   8.298  0.9167 -0.5513  0.9285
 8001SOL    HW235463   3.858   2.810   8.437 -0.2627  1.5531  1.2664
 8002SOL     OW35464   1.048   0.665   7.505 -0.0229 -0.3252 -0.1338
 8002SOL    HW135465   0.995   0.672   7.584 -0.2910  0.6063 -0.3935
 8002SOL    HW235466   0.990   0.717   7.450  2.8477 -0.2466 -3.0902
 8003SOL     OW35467   4.336   2.151   5.069  0.0499 -0.0843 -0.1661
 8003SOL    HW135468   4.360   2.155   4.976  0.7142 -0.2655 -0.0025
 8003SOL    HW235469   4.354   2.240   5.099  1.0730 -0.3994  0.1521
 8004SOL     OW35470   2.116   4.238  15.472  0.4377  0.2265  0.1001
 8004SOL    HW135471   2.119   4.143  15.484  3.3157  0.2556 -0.3860
 8004SOL    HW235472   2.156   4.233  15.385  0.1035 -1.9815  0.0805
 8005SOL     OW35473   0.501   1.286   2.094 -0.1863  0.2008 -0.5758
 8005SOL    HW135474   0.519   1.209   2.040 -1.7335  1.6386 -3.0923
 8005SOL    HW235475   0.435   1.333   2.045 -0.3571 -0.4273 -0.9476
 8006SOL     OW35476   1.908   2.091  13.880 -0.3564  0.1615 -0.2353
 8006SOL    HW135477   1.823   2.093  13.836  0.3004  1.8384 -1.4299
 8006SOL    HW235478   1.953   2.052  13.805 -0.0934  0.3036 -0.1502
 8007SOL     OW35479   3.714   3.214  11.548  0.3689 -0.2730 -0.1482
 8007SOL    HW135480   3.704   3.275  11.475  1.4576 -1.2939 -1.1687
 8007SOL    HW235481   3.655   3.254  11.611 -0.7066 -3.6236  1.0137
 8008SOL     OW35482   0.228   2.632  14.493 -0.3120  0.1066  0.1501
 8008SOL    HW135483   0.147   2.610  14.446 -0.1631 -1.5738  0.6865
 8008SOL    HW235484   0.292   2.616  14.423  1.0126 -0.4594  1.4964
 8009SOL     OW35485   4.246   1.115  11.294 -0.2667  0.0953  0.2130
 8009SOL    HW135486   4.266   1.198  11.337 -0.9727 -0.0536  0.8283
 8009SOL    HW235487   4.223   1.049  11.359  0.9185 -1.6161 -1.1165
 8010SOL     OW35488   0.016   0.352   6.946  0.2518 -0.5958  0.2190
 8010SOL    HW135489   0.029   0.336   6.852 -1.1240  2.4626 -0.4911
 8010SOL    HW235490   0.034   0.446   6.947  0.6169 -0.6525 -1.2292
 8011SOL     OW35491   4.449   4.112  12.888 -0.0759  0.0626 -0.2492
 8011SOL    HW135492   4.428   4.179  12.952  1.2889  0.8850 -0.6630
 8011SOL    HW235493   4.372   4.055  12.893  1.1871 -1.6849 -0.4168
 8012SOL     OW35494   1.227   1.740   3.374 -0.3538  0.2676 -0.4494
 8012SOL    HW135495   1.154   1.680   3.359  1.0130 -1.4074 -0.4076
 8012SOL    HW235496   1.254   1.766   3.286  0.6378 -2.0679 -0.8370
 8013SOL     OW35497   4.236   1.082  17.212  0.0344 -0.0151  0.0436
 8013SOL    HW135498   4.259   1.020  17.281  0.3146 -1.5284 -1.4135
 8013SOL    HW235499   4.323   1.112  17.184 -0.1880 -0.6902 -1.3999
 8014SOL     OW35500   1.323   3.677  10.387 -0.5167  0.7928 -0.1096
 8014SOL    HW135501   1.282   3.732  10.453 -0.1218  0.7905  0.1424
 8014SOL    HW235502   1.398   3.726  10.353  1.3805 -2.0301 -0.0167
 8015SOL     OW35503   3.482   2.459   7.930  0.2138  0.2759 -0.0314
 8015SOL    HW135504   3.500   2.553   7.923  0.4298  0.2810  0.5609
 8015SOL    HW235505   3.471   2.440   8.023 -0.0222 -2.4308 -0.6192
 8016SOL     OW35506   1.636   4.008  16.084  0.3335  0.0998 -0.1410
 8016SOL    HW135507   1.545   4.029  16.107  0.1223 -1.4912  0.4669
 8016SOL    HW235508   1.671   4.096  16.097  2.6733 -1.1271  1.8672
 8017SOL     OW35509   1.082   0.759   0.632  0.1387  0.3342  0.1727
 8017SOL    HW135510   1.044   0.743   0.719  1.6238  0.9794  0.9419
 8017SOL    HW235511   1.107   0.673   0.599  4.3484  0.8413  1.9622
 8018SOL     OW35512   2.213   2.733   8.738 -0.4568 -0.2371 -0.0362
 8018SOL    HW135513   2.175   2.808   8.693  3.7301  1.9795  0.1715
 8018SOL    HW235514   2.186   2.749   8.828 -1.3121  2.0839 -0.7273
 8019SOL     OW35515   2.742   3.875   9.841 -0.6073  0.3190 -0.1388
 8019SOL    HW135516   2.678   3.839   9.779  1.0048  0.3911 -1.8299
 8019SOL    HW235517   2.749   3.803   9.904 -0.0208  0.6260  0.1487
 8020SOL     OW35518   4.668   2.971   1.479 -0.2975 -0.1800  0.4305
 8020SOL    HW135519   0.007   2.902   1.502  2.3028  1.5310 -1.5183
 8020SOL    HW235520   4.692   2.994   1.389 -0.9728  0.3571  0.3905
 8021SOL     OW35521   1.679   2.524  15.033  0.2897  0.0097 -0.5719
 8021SOL    HW135522   1.619   2.598  15.035 -0.4203 -0.5296 -1.5977
 8021SOL    HW235523   1.706   2.516  14.941  0.5898 -0.0798 -0.4758
 8022SOL     OW35524   4.554   2.749   6.499 -0.1918 -0.5668  0.0839
 8022SOL    HW135525   4.504   2.678   6.540  0.7346  0.1758  2.4849
 8022SOL    HW235526   4.524   2.722   6.412 -0.9747 -4.0246  1.4150
 8023SOL     OW35527   0.005   1.041   3.823  0.0181 -0.5026  0.0750
 8023SOL    HW135528   4.705   1.089   3.744 -1.4528 -3.2480 -1.1706
 8023SOL    HW235529   4.643   1.044   3.866  0.5058  0.6457  0.9687
 8024SOL     OW35530   0.212   3.988   8.789  0.2310 -0.3880 -0.1484
 8024SOL    HW135531   0.141   3.987   8.853 -0.8592  0.2706 -1.3517
 8024SOL    HW235532   0.285   4.027   8.838 -1.4277  0.8262  1.3635
 8025SOL     OW35533   4.612   1.201   9.487 -0.1239  0.1165 -0.1442
 8025SOL    HW135534   4.539   1.251   9.522 -1.1877 -0.8477 -0.9725
 8025SOL    HW235535   4.609   1.131   9.553  1.3338 -0.5996 -0.8260
 8026SOL     OW35536   2.110   2.176   2.560 -0.3125 -0.3654  0.3186
 8026SOL    HW135537   2.083   2.156   2.650 -5.0595  2.2594 -0.4861
 8026SOL    HW235538   2.034   2.224   2.528 -0.5298 -1.5590 -0.9702
 8027SOL     OW35539   0.217   0.255  16.621  0.3913  0.2702  0.8391
 8027SOL    HW135540   0.171   0.289  16.544 -0.3529 -0.0406  1.1465
 8027SOL    HW235541   0.243   0.335  16.666 -0.1617  0.0715  1.5046
 8028SOL     OW35542   3.070   2.106   8.399  0.2280 -0.4648 -0.6578
 8028SOL    HW135543   3.093   2.161   8.474 -0.1217  0.7419 -1.4489
 8028SOL    HW235544   3.067   2.013   8.424 -2.7873 -0.0038  0.7315
 8029SOL     OW35545   4.615   1.027   5.209 -0.0825  0.1006 -0.7108
 8029SOL    HW135546   4.658   1.111   5.192  1.5594 -0.6409 -0.2490
 8029SOL    HW235547   4.590   0.992   5.124  0.4947 -0.1329 -0.7875
 8030SOL     OW35548   1.712   3.628   5.968  0.9259  0.0971 -0.2573
 8030SOL    HW135549   1.741   3.557   6.025  1.4495 -1.7316 -2.8253
 8030SOL    HW235550   1.682   3.573   5.896 -0.3184  2.1500 -1.2907
 8031SOL     OW35551   2.122   1.881   5.225 -0.2757 -0.0015  0.3097
 8031SOL    HW135552   2.160   1.797   5.254 -1.8848 -1.3502 -1.4864
 8031SOL    HW235553   2.156   1.892   5.137  0.9649 -0.6580  0.7013
 8032SOL     OW35554   0.191   1.371   7.798 -0.2921 -0.1998  0.5499
 8032SOL    HW135555   0.256   1.440   7.785  0.9259 -1.5057 -0.2196
 8032SOL    HW235556   0.244   1.294   7.778 -2.8993 -1.6874 -0.6017
 8033SOL     OW35557   2.020   3.939   2.365 -0.1084  0.1895  0.5038
 8033SOL    HW135558   1.958   3.996   2.318 -2.3688 -1.7827  1.0805
 8033SOL    HW235559   1.993   3.961   2.454  2.0668 -0.0648  1.2274
 8034SOL     OW35560   1.327   4.493   5.466  0.2531  0.1327 -0.1184
 8034SOL    HW135561   1.330   4.432   5.540  2.8278 -0.0616 -0.3795
 8034SOL    HW235562   1.380   4.564   5.505 -2.0406  1.0655  1.2753
 8035SOL     OW35563   3.122   0.069   2.492  0.5309  0.5127 -0.7239
 8035SOL    HW135564   3.038   0.028   2.472 -0.4496  1.2629  1.7913
 8035SOL    HW235565   3.182   0.004   2.456 -0.3882 -1.6395  1.5888
 8036SOL     OW35566   1.289   0.484   7.092 -0.1040 -0.7306  0.0005
 8036SOL    HW135567   1.258   0.404   7.135 -0.5647 -1.3786 -1.5491
 8036SOL    HW235568   1.265   0.554   7.153 -1.7372  0.1284 -1.6190
 8037SOL     OW35569   4.691   0.795   1.920  0.0638  0.0187 -1.2791
 8037SOL    HW135570   4.644   0.723   1.878 -0.1706 -0.2110 -0.6186
 8037SOL    HW235571   0.053   0.793   1.876 -0.6668 -0.8220 -2.6756
 8038SOL     OW35572   0.445   1.788  12.240  0.1055  0.3286 -0.1535
 8038SOL    HW135573   0.382   1.755  12.175  0.3922 -3.7700  1.6201
 8038SOL    HW235574   0.502   1.826  12.173  0.2811 -2.7010 -1.7414
 8039SOL     OW35575   0.344   4.554  10.491  0.2431  0.7279 -0.2250
 8039SOL    HW135576   0.274   4.567  10.428 -0.5798 -0.4280  0.4650
 8039SOL    HW235577   0.282   4.545  10.564  0.6233 -0.7639 -0.0901
 8040SOL     OW35578   1.161   0.515  15.649 -0.2058 -0.1086 -0.1879
 8040SOL    HW135579   1.244   0.468  15.651  0.0339  0.3549  1.0235
 8040SOL    HW235580   1.198   0.604  15.645 -0.3853  0.0764  2.0118
 8041SOL     OW35581   3.932   3.465  16.255 -0.0786  0.0363  0.5185
 8041SOL    HW135582   3.942   3.414  16.175 -0.2111 -0.0366  0.5482
 8041SOL    HW235583   3.879   3.401  16.303  0.9257 -1.0637  0.1832
 8042SOL     OW35584   0.199   1.344  10.656  0.4614 -0.3400  0.3433
 8042SOL    HW135585   0.181   1.437  10.648 -0.6561 -0.5353  0.5793
 8042SOL    HW235586   0.130   1.322  10.719 -1.0465 -0.6244 -1.4026
 8043SOL     OW35587   1.514   3.681  10.145  0.2250 -0.3560 -0.4574
 8043SOL    HW135588   1.433   3.731  10.156  0.8255  1.0690 -2.7138
 8043SOL    HW235589   1.521   3.687  10.050  0.5298 -0.0398 -0.4129
 8044SOL     OW35590   2.768   1.861   7.018  0.1189 -0.1222  0.1589
 8044SOL    HW135591   2.862   1.863   7.034  0.2319 -0.2581 -0.4689
 8044SOL    HW235592   2.732   1.849   7.106  2.4094 -2.0952  0.8220
 8045SOL     OW35593   2.843   2.201   0.740 -0.1568 -0.1010 -0.0961
 8045SOL    HW135594   2.827   2.218   0.647 -0.8302  0.3681  0.1076
 8045SOL    HW235595   2.937   2.220   0.737  0.4102 -2.6164  2.2972
 8046SOL     OW35596   4.615   0.608  15.439 -0.0948 -0.0164 -0.6614
 8046SOL    HW135597   4.634   0.630  15.348 -1.2917 -1.5300 -1.2703
 8046SOL    HW235598   4.702   0.631  15.471 -0.2881 -0.9007  0.4866
 8047SOL     OW35599   3.340   2.132   2.967 -0.4926  0.1110  0.1978
 8047SOL    HW135600   3.349   2.039   2.988 -0.9636  0.3082  1.2797
 8047SOL    HW235601   3.308   2.128   2.877 -1.4662 -1.7981  0.6347
 8048SOL     OW35602   0.834   2.065   9.452 -0.3828 -0.0916 -0.3206
 8048SOL    HW135603   0.827   2.051   9.358 -1.4431  3.1036 -0.7298
 8048SOL    HW235604   0.855   1.975   9.476  3.2564  1.2226  1.3195
 8049SOL     OW35605   0.359   2.577  16.357 -0.7014 -0.2260 -0.3412
 8049SOL    HW135606   0.408   2.583  16.439 -2.8870  1.2518  0.8523
 8049SOL    HW235607   0.435   2.589  16.299  0.0049 -0.3913  0.5642
 8050SOL     OW35608   0.944   1.179   1.705 -0.4467  0.4550  0.1524
 8050SOL    HW135609   1.035   1.205   1.717  0.4609 -3.8446  2.2854
 8050SOL    HW235610   0.934   1.202   1.612  0.8406  0.5873  0.0422
 8051SOL     OW35611   1.077   1.929   5.292 -0.0341  0.3673  0.1394
 8051SOL    HW135612   1.141   1.878   5.241 -1.6009 -0.2296 -1.2146
 8051SOL    HW235613   1.023   1.967   5.224 -0.3389  0.5945  0.5072
 8052SOL     OW35614   2.227   1.563  10.689 -0.5700  0.8031 -0.3305
 8052SOL    HW135615   2.145   1.602  10.659 -1.2525  1.1758  2.0326
 8052SOL    HW235616   2.266   1.530  10.609  3.0256  3.0384  0.4965
 8053SOL     OW35617   2.601   2.805   6.894  0.0725 -0.1163 -0.3714
 8053SOL    HW135618   2.683   2.823   6.939  0.2241 -0.6861 -0.4220
 8053SOL    HW235619   2.615   2.858   6.816 -0.4687 -2.0465 -1.7798
 8054SOL     OW35620   2.580   1.596   9.802  0.3571  0.5733 -0.2629
 8054SOL    HW135621   2.498   1.612   9.754  0.0562 -0.8094 -0.1965
 8054SOL    HW235622   2.616   1.682   9.822 -2.2950  1.5315  0.3727
 8055SOL     OW35623   0.273   1.059   4.355 -0.1346 -0.3479  0.1431
 8055SOL    HW135624   0.204   1.062   4.288 -0.9719  2.2840  1.1365
 8055SOL    HW235625   0.259   0.973   4.393  0.4367  0.0461  1.2456
 8056SOL     OW35626   0.264   2.056   7.661 -0.0541 -0.8708  0.1785
 8056SOL    HW135627   0.311   2.000   7.598  0.3789  0.1364 -0.3996
 8056SOL    HW235628   0.310   2.138   7.645 -0.2103 -0.6848  0.6830
 8057SOL     OW35629   0.035   0.833  16.261  0.5200 -0.2931 -0.3169
 8057SOL    HW135630   0.005   0.923  16.251 -0.6563 -0.8114 -1.3814
 8057SOL    HW235631   0.033   0.837  16.356  0.5199  3.2499 -0.4568
 8058SOL     OW35632   4.583   0.580   4.647  0.3163 -0.3803 -0.0596
 8058SOL    HW135633   4.530   0.530   4.709 -1.1867  0.8356 -0.3572
 8058SOL    HW235634   4.642   0.631   4.702  0.7161 -0.6293 -0.2577
 8059SOL     OW35635   1.982   1.523   1.773  0.9020  0.5972 -0.3376
 8059SOL    HW135636   1.957   1.568   1.693 -0.3372  0.5332  0.0135
 8059SOL    HW235637   1.933   1.562   1.845  0.7206 -4.3636  2.2034
 8060SOL     OW35638   4.083   3.870  17.477 -0.2018 -0.1980  0.1906
 8060SOL    HW135639   4.076   3.798  17.539 -3.2091  0.2744  0.4127
 8060SOL    HW235640   4.031   3.940  17.516 -2.2868 -2.4139  1.4120
 8061SOL     OW35641   4.177   2.511   3.520  0.3145 -0.0917 -0.0761
 8061SOL    HW135642   4.158   2.605   3.517  1.3419  0.1094 -0.4488
 8061SOL    HW235643   4.113   2.472   3.461 -0.6562  0.6054  0.5228
 8062SOL     OW35644   3.037   0.461   7.480  0.3458 -0.1381 -0.2537
 8062SOL    HW135645   3.018   0.523   7.410  0.3890  2.1731  1.7871
 8062SOL    HW235646   2.950   0.420   7.488 -0.6344  2.0072  0.0765
 8063SOL     OW35647   2.862   3.505   3.153 -0.3315 -0.1708 -0.1304
 8063SOL    HW135648   2.957   3.508   3.140 -0.4382  1.1817 -0.6254
 8063SOL    HW235649   2.848   3.590   3.194  0.9889  1.7147 -3.4901
 8064SOL     OW35650   3.758   4.111   1.126  0.3556 -0.2718 -0.5928
 8064SOL    HW135651   3.819   4.079   1.060 -2.1679 -3.2590 -1.4784
 8064SOL    HW235652   3.820   4.117   1.198 -0.5898 -0.3678  0.2395
 8065SOL     OW35653   1.180   1.422   3.687 -0.3933  0.7632 -1.1211
 8065SOL    HW135654   1.211   1.512   3.697 -0.5813  0.5853  1.0644
 8065SOL    HW235655   1.105   1.419   3.746  0.1293 -0.0509 -0.4835
 8066SOL     OW35656   3.770   4.416  13.014  0.1341  0.1982 -0.2717
 8066SOL    HW135657   3.772   4.497  13.064  2.0036  1.6998 -2.7939
 8066SOL    HW235658   3.860   4.384  13.025 -0.4338 -0.7571  1.6796
 8067SOL     OW35659   2.342   3.588  14.937 -0.6438  0.7432  0.1060
 8067SOL    HW135660   2.296   3.601  15.020 -2.5119  1.1104 -0.9762
 8067SOL    HW235661   2.328   3.496  14.914 -1.0594  0.3959  1.7752
 8068SOL     OW35662   0.323   2.978  11.073  0.2404 -0.1520 -0.5976
 8068SOL    HW135663   0.332   2.973  11.168 -0.5494 -0.7221 -0.5571
 8068SOL    HW235664   0.244   2.928  11.055  1.5678 -1.7233 -2.0502
 8069SOL     OW35665   3.148   2.088   6.913  0.1329  0.4114 -0.3346
 8069SOL    HW135666   3.123   2.021   6.977  0.1740  1.6082  0.9296
 8069SOL    HW235667   3.088   2.060   6.844  2.7217 -3.2049 -1.1043
 8070SOL     OW35668   3.816   2.634  14.191  0.1611  0.4307  0.0794
 8070SOL    HW135669   3.902   2.595  14.205 -0.4696 -1.2640 -0.8495
 8070SOL    HW235670   3.787   2.663  14.277 -0.1063 -0.7961  0.4024
 8071SOL     OW35671   0.062   0.599   9.315  0.1238  0.5111 -0.3961
 8071SOL    HW135672   0.118   0.525   9.339  1.7474  2.0576  0.5690
 8071SOL    HW235673   0.122   0.649   9.261  0.9711  0.9393  0.9554
 8072SOL     OW35674   2.351   3.147   2.442 -0.1911  0.0754 -0.4115
 8072SOL    HW135675   2.433   3.196   2.451  0.0218 -0.4411  0.4147
 8072SOL    HW235676   2.353   3.124   2.349 -0.2563 -1.9021  0.0924
 8073SOL     OW35677   0.245   3.208   6.162  0.2063 -0.3067  0.0445
 8073SOL    HW135678   0.271   3.298   6.143  1.7624 -0.2715  2.2994
 8073SOL    HW235679   0.155   3.225   6.190  1.3560  1.7044  2.4926
 8074SOL     OW35680   4.344   0.582   7.053 -0.1996  0.6481 -0.5394
 8074SOL    HW135681   4.359   0.520   7.124 -1.7490  1.0620  0.1476
 8074SOL    HW235682   4.344   0.522   6.978 -1.9356  2.7000 -2.1858
 8075SOL     OW35683   1.262   2.064   8.793 -0.0356  0.1935  0.0728
 8075SOL    HW135684   1.207   2.109   8.728  2.1441  1.0027 -1.2000
 8075SOL    HW235685   1.262   2.110   8.877  1.2492  0.7021 -0.2067
 8076SOL     OW35686   3.571   2.409   9.753 -0.2260  0.0979 -0.3397
 8076SOL    HW135687   3.510   2.380   9.686  2.4079 -0.7212 -2.3834
 8076SOL    HW235688   3.531   2.492   9.781  0.0992  0.0331  0.3093
 8077SOL     OW35689   2.615   4.540  15.818  0.4889 -0.0956  0.0721
 8077SOL    HW135690   2.631   4.610  15.882 -0.5668  1.4832 -1.4101
 8077SOL    HW235691   2.704   4.503  15.814  0.9933  1.1929 -0.4473
 8078SOL     OW35692   2.927   3.740   4.501  0.2269  0.3464 -0.2965
 8078SOL    HW135693   2.858   3.703   4.446 -0.4556 -0.0867  0.8667
 8078SOL    HW235694   2.942   3.666   4.558 -1.7646  0.5340  0.4537
 8079SOL     OW35695   0.322   1.599   3.687  0.5138  0.0643 -0.3342
 8079SOL    HW135696   0.247   1.614   3.630  1.0088 -0.4587 -1.1315
 8079SOL    HW235697   0.390   1.653   3.646 -1.8330  3.0678 -0.2302
 8080SOL     OW35698   1.645   3.055   9.974  0.7310  0.1033 -0.2745
 8080SOL    HW135699   1.691   2.985  10.020  2.7189  1.5545 -0.0562
 8080SOL    HW235700   1.604   3.009   9.901  1.4854 -2.6212  1.0299
 8081SOL     OW35701   0.093   0.520   5.048  0.2947  0.4239 -0.3856
 8081SOL    HW135702   0.047   0.577   4.986 -1.8795 -1.1270 -0.2113
 8081SOL    HW235703   0.181   0.518   5.010  0.0358  0.7561 -1.0016
 8082SOL     OW35704   2.617   1.829   5.720  0.5695 -0.5012  0.3356
 8082SOL    HW135705   2.692   1.834   5.779 -0.5678 -0.1407  1.7515
 8082SOL    HW235706   2.595   1.921   5.709 -0.2717 -0.8661 -1.0015
 8083SOL     OW35707   1.187   2.627   3.004 -1.2338  0.3273  0.3734
 8083SOL    HW135708   1.244   2.551   3.015  0.0332  1.1861 -0.2953
 8083SOL    HW235709   1.097   2.601   3.025 -1.9968  1.9020 -0.9559
 8084SOL     OW35710   2.769   1.643   3.253  0.3949 -0.2426  0.5731
 8084SOL    HW135711   2.843   1.667   3.198 -0.0090 -1.2784 -0.4093
 8084SOL    HW235712   2.728   1.728   3.268  2.2901  1.1096 -1.8428
 8085SOL     OW35713   4.095   2.204  14.861 -0.2582  0.5911 -0.0163
 8085SOL    HW135714   4.162   2.265  14.832 -1.4587  2.4485  1.0794
 8085SOL    HW235715   4.131   2.174  14.945  1.0509  0.7156 -0.5390
 8086SOL     OW35716   3.047   1.572   9.734  0.3339 -0.0659  0.1988
 8086SOL    HW135717   3.100   1.649   9.755  1.3007 -1.1455  1.6752
 8086SOL    HW235718   3.030   1.532   9.819  1.2413 -0.3918  0.2229
 8087SOL     OW35719   3.744   3.110   1.523 -0.7066 -0.4676  0.7750
 8087SOL    HW135720   3.756   3.051   1.448  2.1936  0.4610  0.5212
 8087SOL    HW235721   3.734   3.044   1.592  3.8563  0.4500  2.2819
 8088SOL     OW35722   1.214   1.025   4.743 -0.1667  0.2334  0.0778
 8088SOL    HW135723   1.158   0.988   4.812  0.9299 -1.8799 -0.1760
 8088SOL    HW235724   1.148   1.071   4.691 -0.7622  0.3445  0.9238
 8089SOL     OW35725   3.965   0.664  15.066 -0.4063  0.1927  0.4608
 8089SOL    HW135726   3.983   0.635  14.977  1.4097 -1.7237  1.4500
 8089SOL    HW235727   3.943   0.756  15.049  0.2474 -0.1248 -2.0088
 8090SOL     OW35728   3.868   1.604   3.413 -0.5054  0.4691  0.5003
 8090SOL    HW135729   3.827   1.606   3.499 -0.5514 -0.3237  0.5023
 8090SOL    HW235730   3.934   1.537   3.429  1.1893  1.9679 -0.2948
 8091SOL     OW35731   1.775   0.272   8.661 -0.6892  0.1632  0.0181
 8091SOL    HW135732   1.774   0.254   8.755 -0.4437  1.1059  0.2081
 8091SOL    HW235733   1.869   0.255   8.653 -1.2735 -1.8453 -2.5809
 8092SOL     OW35734   3.813   4.027   7.829  1.1631 -0.0131 -0.2455
 8092SOL    HW135735   3.843   3.986   7.910  2.6537 -1.1717 -1.3826
 8092SOL    HW235736   3.767   4.108   7.851 -0.4220 -0.9410 -0.1225
 8093SOL     OW35737   4.430   0.763   5.489  0.2286 -0.2556  0.2991
 8093SOL    HW135738   4.475   0.680   5.505 -0.5048 -0.5579  0.8266
 8093SOL    HW235739   4.341   0.736   5.514 -0.3271 -0.0683 -1.4959
 8094SOL     OW35740   4.364   3.972   7.797 -0.1933 -0.5109 -0.0755
 8094SOL    HW135741   4.389   3.919   7.721 -2.1831 -1.8148  0.1562
 8094SOL    HW235742   4.446   3.985   7.843  0.8389 -0.1313 -2.0397
 8095SOL     OW35743   1.851   0.549   7.883  0.1943  0.1206 -0.0943
 8095SOL    HW135744   1.875   0.457   7.875  0.4483  0.2680 -1.1211
 8095SOL    HW235745   1.759   0.536   7.909  0.5156 -3.5011 -0.7703
 8096SOL     OW35746   2.463   2.503   9.288 -0.3494  0.0216  0.3497
 8096SOL    HW135747   2.403   2.525   9.359  0.1841  0.7186  0.5790
 8096SOL    HW235748   2.476   2.583   9.237  2.9172  0.4422  1.8894
 8097SOL     OW35749   1.854   2.981  13.009 -0.0093  0.3190  0.0253
 8097SOL    HW135750   1.891   2.906  12.962 -1.0365 -0.9247  1.2035
 8097SOL    HW235751   1.831   2.930  13.087 -0.6820  0.2512 -0.2120
 8098SOL     OW35752   4.164   3.431   5.371  0.0714 -0.1303 -0.3364
 8098SOL    HW135753   4.094   3.495   5.356  0.3340  0.1384 -0.4053
 8098SOL    HW235754   4.200   3.420   5.283 -0.4528  2.2029 -0.8271
 8099SOL     OW35755   1.226   0.938  15.401 -0.3706  0.4148 -1.2261
 8099SOL    HW135756   1.254   0.866  15.457  0.1299 -1.2827 -3.6667
 8099SOL    HW235757   1.277   1.013  15.432 -0.4749 -0.1374  0.2631
 8100SOL     OW35758   1.245   0.925   2.415  0.5131 -0.1827 -0.4099
 8100SOL    HW135759   1.246   0.931   2.511 -1.8606 -0.1211 -0.3816
 8100SOL    HW235760   1.167   0.874   2.394  0.1666 -0.6251  1.9111
 8101SOL     OW35761   3.864   4.464   4.104  0.6607 -0.3110  0.9914
 8101SOL    HW135762   3.900   4.376   4.095 -2.1181 -1.2839 -0.7179
 8101SOL    HW235763   3.929   4.503   4.162 -0.1439 -0.1301  1.7854
 8102SOL     OW35764   0.664   3.785   5.167  0.5781 -0.5283 -0.2078
 8102SOL    HW135765   0.746   3.742   5.142  0.9813  0.5299 -0.6660
 8102SOL    HW235766   0.614   3.751   5.092  2.4131  1.8119 -2.4733
 8103SOL     OW35767   3.377   3.899  12.884  0.8849  0.1802 -0.4950
 8103SOL    HW135768   3.420   3.823  12.923  3.2309  1.4623 -0.5683
 8103SOL    HW235769   3.297   3.858  12.851 -0.0238 -1.2315  3.4849
 8104SOL     OW35770   0.091   0.417   3.092 -0.7939 -0.9671 -0.2666
 8104SOL    HW135771   0.156   0.422   3.021  0.4305  0.1565  0.9344
 8104SOL    HW235772   0.014   0.427   3.035  0.2891  2.7431 -1.0910
 8105SOL     OW35773   3.262   0.585  16.046 -0.1569 -0.3783 -0.3051
 8105SOL    HW135774   3.335   0.570  15.986  1.2942 -1.9952  1.8774
 8105SOL    HW235775   3.201   0.514  16.025 -0.1975 -0.1954 -0.8008
 8106SOL     OW35776   2.887   4.059   2.378 -0.1176 -0.1849 -0.0925
 8106SOL    HW135777   2.949   3.989   2.356  1.9877  1.6586  0.0715
 8106SOL    HW235778   2.829   4.053   2.302 -2.2217  3.4065  1.2663
 8107SOL     OW35779   3.068   1.933   5.174  0.1741  0.1063  0.3412
 8107SOL    HW135780   3.131   1.915   5.104  0.2603  0.0856  0.4242
 8107SOL    HW235781   3.067   2.029   5.178  1.3290  0.2484 -2.8731
 8108SOL     OW35782   1.183   3.388   1.636  0.1134 -0.0195  0.3219
 8108SOL    HW135783   1.201   3.310   1.584 -1.8263  0.1735 -0.6666
 8108SOL    HW235784   1.236   3.382   1.715  0.5236  0.9004  0.1155
 8109SOL     OW35785   0.709   4.436  14.959 -0.3077 -0.3410  0.1267
 8109SOL    HW135786   0.779   4.427  15.024  1.0054  2.3057 -0.9493
 8109SOL    HW235787   0.636   4.396  15.008 -1.0639 -2.5618 -2.8163
 8110SOL     OW35788   3.100   2.161   9.236 -0.2564 -1.1324 -0.0647
 8110SOL    HW135789   3.082   2.080   9.188 -1.4644 -1.3439  0.7569
 8110SOL    HW235790   3.010   2.179   9.263 -0.6641 -0.0217 -2.1996
 8111SOL     OW35791   2.190   0.041  16.055  0.4179 -0.5232 -0.4666
 8111SOL    HW135792   2.193   0.136  16.065  0.1458 -0.8714  2.9061
 8111SOL    HW235793   2.103   0.033  16.017 -0.1954 -0.8267  0.9941
 8112SOL     OW35794   2.552   0.451   1.693  0.1542 -0.2045 -0.3626
 8112SOL    HW135795   2.604   0.413   1.622  1.4338  1.2829 -0.2424
 8112SOL    HW235796   2.616   0.460   1.764 -0.7044 -0.8952  0.5002
 8113SOL     OW35797   3.240   1.414   3.838  0.0034 -0.2183  0.0348
 8113SOL    HW135798   3.278   1.462   3.911  2.6099 -1.1115 -0.7438
 8113SOL    HW235799   3.252   1.324   3.869  1.9105  0.1515  0.3590
 8114SOL     OW35800   0.941   2.136   3.676  0.1608  0.3221  0.0103
 8114SOL    HW135801   0.936   2.106   3.585  3.1108 -0.4650  0.1021
 8114SOL    HW235802   1.025   2.183   3.674  0.6640 -0.5540  0.9275
 8115SOL     OW35803   2.194   2.496   8.137  0.2860 -0.3095  0.3972
 8115SOL    HW135804   2.205   2.424   8.199 -1.2786 -0.1511  0.8558
 8115SOL    HW235805   2.099   2.499   8.138  0.2423 -1.8289  0.3654
 8116SOL     OW35806   2.926   1.269   1.516 -0.2891  0.9483  0.0496
 8116SOL    HW135807   2.903   1.361   1.509  0.8359  1.1107 -1.5441
 8116SOL    HW235808   3.006   1.276   1.464 -3.2794 -0.0856 -4.6846
 8117SOL     OW35809   4.229   4.214   8.544  0.2529 -0.2727  0.4782
 8117SOL    HW135810   4.266   4.133   8.509 -2.0016 -1.2129  0.2951
 8117SOL    HW235811   4.262   4.202   8.633 -0.5714 -0.1227  0.8001
 8118SOL     OW35812   2.206   3.288   7.332  0.2916  0.6807  0.4187
 8118SOL    HW135813   2.155   3.346   7.389 -1.3610 -1.3632  1.0273
 8118SOL    HW235814   2.191   3.204   7.374 -0.4193  0.0369 -1.1230
 8119SOL     OW35815   2.538   4.467   7.798 -0.1615  0.1112 -0.0784
 8119SOL    HW135816   2.518   4.379   7.832 -1.7295  0.8096  0.7657
 8119SOL    HW235817   2.590   4.437   7.723 -0.6392 -1.6017  0.2618
 8120SOL     OW35818   1.750   2.533   7.547 -0.1006 -0.8829 -0.1709
 8120SOL    HW135819   1.688   2.511   7.478  0.0248  2.7523 -1.4140
 8120SOL    HW235820   1.772   2.619   7.512  1.9250 -1.5464 -0.5068
 8121SOL     OW35821   0.107   2.053   6.535 -0.2260 -0.3931 -0.2283
 8121SOL    HW135822   0.044   2.096   6.593  1.0338  2.4120 -0.9721
 8121SOL    HW235823   0.165   1.994   6.583 -1.1497 -0.8585  0.3381
 8122SOL     OW35824   3.109   3.333  16.812  0.4249 -0.0041  0.3221
 8122SOL    HW135825   3.199   3.313  16.837 -0.0342 -2.6788 -0.1090
 8122SOL    HW235826   3.100   3.422  16.845 -2.1267 -0.6096  1.2664
 8123SOL     OW35827   2.552   0.210   5.753  0.6985 -0.6051  0.0351
 8123SOL    HW135828   2.617   0.276   5.729 -0.0568  0.3939  0.7383
 8123SOL    HW235829   2.604   0.150   5.807  0.1867 -0.1183  1.0695
 8124SOL     OW35830   4.225   3.691   3.135  0.0991 -0.2754 -0.1453
 8124SOL    HW135831   4.308   3.647   3.115  1.3059  1.0234  2.0447
 8124SOL    HW235832   4.171   3.654   3.065  1.5240 -0.0741 -1.3760
 8125SOL     OW35833   2.489   1.773   8.374 -0.0785 -0.3527  0.3054
 8125SOL    HW135834   2.583   1.759   8.369 -0.2198 -1.5364  1.0345
 8125SOL    HW235835   2.466   1.747   8.463 -2.9533  0.7555 -0.1020
 8126SOL     OW35836   1.529   1.779   2.943 -0.0868  0.3722 -0.3650
 8126SOL    HW135837   1.472   1.756   3.016  3.7120 -1.6191  1.9393
 8126SOL    HW235838   1.563   1.690   2.932 -1.9613 -0.4173  0.2239
 8127SOL     OW35839   1.333   0.156   2.685  0.3411 -0.6155  0.4207
 8127SOL    HW135840   1.397   0.089   2.707  1.9489  0.4987 -0.8896
 8127SOL    HW235841   1.294   0.110   2.611 -0.9047  0.5311  0.3686
 8128SOL     OW35842   3.072   0.401   5.421 -0.2169  0.4461  0.2952
 8128SOL    HW135843   3.005   0.470   5.419 -2.2555 -1.5317  0.7294
 8128SOL    HW235844   3.115   0.419   5.504  0.4405  0.7324 -0.1075
 8129SOL     OW35845   3.953   2.733  11.817  0.3587 -0.4899  0.0560
 8129SOL    HW135846   3.885   2.691  11.870 -0.6482  1.4642  0.3180
 8129SOL    HW235847   3.961   2.668  11.747 -0.0318 -0.8150  0.3155
 8130SOL     OW35848   3.263   4.187   2.317  0.5714 -0.2145  0.0384
 8130SOL    HW135849   3.283   4.148   2.403  1.7685  0.4891  0.0904
 8130SOL    HW235850   3.258   4.108   2.264 -1.6778 -0.4767  0.6721
 8131SOL     OW35851   3.914   1.436   9.120  0.0725  0.4971 -0.1018
 8131SOL    HW135852   3.930   1.363   9.180  1.2708 -1.7595 -3.1450
 8131SOL    HW235853   3.948   1.409   9.034  2.0110  2.3122  0.1086
 8132SOL     OW35854   4.588   0.197   9.429 -0.5755 -0.6226 -0.4215
 8132SOL    HW135855   4.629   0.152   9.355  0.3547  0.6862 -0.6847
 8132SOL    HW235856   4.607   0.141   9.504 -0.0382 -0.5598 -0.5115
 8133SOL     OW35857   1.002   0.936   4.898 -0.5101 -0.0425  0.3026
 8133SOL    HW135858   0.964   0.943   4.986 -0.9236 -3.6843  0.4399
 8133SOL    HW235859   0.937   0.992   4.856  0.2351 -1.0623 -2.2033
 8134SOL     OW35860   3.767   4.390   2.749 -0.3114  1.2229 -0.3017
 8134SOL    HW135861   3.681   4.403   2.789 -0.2624  0.6577 -0.0078
 8134SOL    HW235862   3.742   4.323   2.685  1.2796 -1.5318  1.9512
 8135SOL     OW35863   2.043   1.551   4.068  0.3764  0.4165 -0.2617
 8135SOL    HW135864   2.118   1.517   4.115 -1.9223 -1.9617  1.6522
 8135SOL    HW235865   2.096   1.551   3.988 -1.0492 -0.4153 -1.2019
 8136SOL     OW35866   3.356   2.570  15.450 -0.0566  0.9150 -0.0653
 8136SOL    HW135867   3.422   2.583  15.381 -0.7054  0.1092 -0.8329
 8136SOL    HW235868   3.375   2.482  15.482 -1.2343  1.7858  3.0339
 8137SOL     OW35869   1.262   1.491   7.566  0.1620  0.2371  0.1891
 8137SOL    HW135870   1.347   1.506   7.524  0.8048  1.2898  1.8811
 8137SOL    HW235871   1.283   1.428   7.635 -1.3420 -0.6015 -0.1249
 8138SOL     OW35872   4.723   0.709   4.832 -0.1471  0.3316 -0.1754
 8138SOL    HW135873   0.093   0.710   4.810 -0.0282  0.6359  0.3589
 8138SOL    HW235874   4.696   0.799   4.816 -0.1618  0.4903  0.7656
 8139SOL     OW35875   3.582   1.088   0.133  0.6529 -0.4659  0.4543
 8139SOL    HW135876   3.653   1.045   0.086  1.5754  0.6153  0.8603
 8139SOL    HW235877   3.608   1.086   0.225 -0.8429 -0.1700  0.8842
 8140SOL     OW35878   1.071   2.047  11.549 -0.6888  0.4975  0.1148
 8140SOL    HW135879   1.161   2.018  11.565 -0.3012  1.2928 -0.6531
 8140SOL    HW235880   1.058   1.994  11.471 -2.8806 -1.3687  1.7472
 8141SOL     OW35881   2.662   2.422   2.201 -0.1993  0.2583 -0.1664
 8141SOL    HW135882   2.647   2.353   2.266 -1.5135 -0.2064 -0.9723
 8141SOL    HW235883   2.585   2.478   2.208 -0.2037 -0.1382  2.8716
 8142SOL     OW35884   2.334   3.046   5.784  0.2253 -0.2750 -0.8457
 8142SOL    HW135885   2.412   3.075   5.736  1.5105 -1.4734  0.5486
 8142SOL    HW235886   2.279   3.022   5.709 -1.7986  1.3363  0.1385
 8143SOL     OW35887   2.580   2.648  15.165  0.1673 -0.4609 -0.0040
 8143SOL    HW135888   2.673   2.670  15.167  0.3245 -1.2127  1.2060
 8143SOL    HW235889   2.565   2.671  15.074  1.0307  0.1621  0.0049
 8144SOL     OW35890   1.408   1.519   8.138 -0.1998 -0.5358  0.4102
 8144SOL    HW135891   1.319   1.507   8.105  0.2856 -0.8147 -0.8193
 8144SOL    HW235892   1.409   1.450   8.204  2.2582 -0.8333  0.0531
 8145SOL     OW35893   1.922   4.322   5.201  0.1325  0.1817 -0.1947
 8145SOL    HW135894   1.980   4.250   5.226 -0.7727 -0.0922  1.1264
 8145SOL    HW235895   1.930   4.390   5.268 -1.3431  0.4595 -0.3017
 8146SOL     OW35896   0.420   4.262   3.605  0.8470  0.3708 -0.2817
 8146SOL    HW135897   0.363   4.339   3.602  1.2785  0.8160  3.2373
 8146SOL    HW235898   0.510   4.290   3.621  0.2180  0.5248  2.9521
 8147SOL     OW35899   2.960   0.462   6.769 -0.5835  0.1414 -0.0424
 8147SOL    HW135900   2.967   0.454   6.864 -1.9885  0.8582  0.1246
 8147SOL    HW235901   3.040   0.510   6.750  0.9515 -1.6872  1.8569
 8148SOL     OW35902   2.436   1.667   0.138 -0.1688  0.1098  0.3598
 8148SOL    HW135903   2.404   1.643   0.225 -2.7673 -0.4264 -0.7377
 8148SOL    HW235904   2.448   1.578   0.105 -0.5523  0.0776  0.2980
 8149SOL     OW35905   2.048   3.133   8.145 -0.1749 -0.0408 -0.1874
 8149SOL    HW135906   2.136   3.155   8.114 -0.1464 -0.6572 -0.5453
 8149SOL    HW235907   2.066   3.067   8.212 -2.0810  0.0122  0.3861
 8150SOL     OW35908   2.802   0.106  17.125 -0.3312 -0.2723  0.1306
 8150SOL    HW135909   2.740   0.036  17.143  0.7185 -1.0631  0.6607
 8150SOL    HW235910   2.804   0.155  17.208 -0.8197 -2.8701  1.6681
 8151SOL     OW35911   3.579   4.495  15.193  0.1151 -0.0581 -0.0379
 8151SOL    HW135912   3.498   4.464  15.152  0.2675 -1.0679  0.4197
 8151SOL    HW235913   3.608   4.417  15.239  0.1119 -0.5236 -0.8104
 8152SOL     OW35914   4.590   0.075  13.046  0.0478 -0.1716 -0.0477
 8152SOL    HW135915   4.503   0.113  13.037  0.0645 -0.6749 -2.2824
 8152SOL    HW235916   4.640   0.156  13.032  0.6358 -0.1886  1.9552
 8153SOL     OW35917   3.052   0.156   4.738  0.0522  0.0808  0.0368
 8153SOL    HW135918   3.067   0.134   4.830  0.3314 -1.9784 -0.4953
 8153SOL    HW235919   3.044   0.069   4.700  1.2639  0.5652 -1.3273
 8154SOL     OW35920   2.309   0.002   2.719  0.1510  0.4229 -0.1053
 8154SOL    HW135921   2.378   4.697   2.779  1.2818  0.9961 -1.1335
 8154SOL    HW235922   2.257   4.644   2.715  0.4298  0.2459 -0.1662
 8155SOL     OW35923   0.514   1.991   7.159  0.0178 -0.0176  0.5514
 8155SOL    HW135924   0.442   2.045   7.191 -1.7670 -2.8577  1.3537
 8155SOL    HW235925   0.458   1.939   7.102 -1.8238  0.2350  2.1288
 8156SOL     OW35926   1.504   2.836   6.802 -0.8426 -0.3178 -0.3668
 8156SOL    HW135927   1.581   2.892   6.789 -1.1336  0.7016  2.2032
 8156SOL    HW235928   1.441   2.908   6.813 -1.0220 -0.4897 -0.2840
 8157SOL     OW35929   0.988   4.470   8.072  0.4407  0.2653 -0.6475
 8157SOL    HW135930   0.897   4.451   8.093  0.2009 -0.7921 -2.6388
 8157SOL    HW235931   1.019   4.385   8.042  0.6042  0.2961 -0.5643
 8158SOL     OW35932   0.322   1.846   3.044 -0.4418 -0.1731 -0.2924
 8158SOL    HW135933   0.263   1.841   3.120  0.3443  0.0437  0.3314
 8158SOL    HW235934   0.273   1.865   2.964  1.2375  0.3840 -1.1834
 8159SOL     OW35935   2.528   0.804  15.363  0.3988 -0.1059  0.1763
 8159SOL    HW135936   2.534   0.731  15.302  0.6247 -1.1208  1.4283
 8159SOL    HW235937   2.616   0.841  15.360  0.3632 -0.1104 -1.3053
 8160SOL     OW35938   0.697   2.014   0.113 -0.3626 -0.0593 -0.3199
 8160SOL    HW135939   0.719   1.961   0.190 -2.7884 -1.8752 -0.8871
 8160SOL    HW235940   0.612   2.040   0.148  0.0430  0.9040 -0.0659
 8161SOL     OW35941   1.694   3.007   1.890 -0.1805 -0.3452  0.1173
 8161SOL    HW135942   1.763   3.026   1.826 -1.2044 -1.4703 -1.2800
 8161SOL    HW235943   1.696   3.084   1.948  0.3257 -0.9447  0.9115
 8162SOL     OW35944   4.248   3.405   6.476 -0.4620 -0.1213 -0.4266
 8162SOL    HW135945   4.309   3.472   6.445  0.7690 -1.6753 -1.4131
 8162SOL    HW235946   4.310   3.343   6.514  0.1553  0.0289 -1.1895
 8163SOL     OW35947   3.808   3.075   9.665  0.5726  0.0389 -0.7003
 8163SOL    HW135948   3.891   3.051   9.708  0.4495 -0.7362 -0.9025
 8163SOL    HW235949   3.819   3.170   9.661  0.5363  0.0791  0.0978
 8164SOL     OW35950   2.726   4.666   0.731  0.1276 -0.0161  0.0423
 8164SOL    HW135951   2.655   0.006   0.717 -0.0654 -0.5742 -1.5126
 8164SOL    HW235952   2.801   4.717   0.762 -0.5267 -0.2480  2.0186
 8165SOL     OW35953   0.244   1.163   7.596  0.3880 -0.8307 -0.5362
 8165SOL    HW135954   0.195   1.087   7.627  1.8266 -1.5714 -0.0773
 8165SOL    HW235955   0.327   1.117   7.587  1.0603  0.2132  0.3251
 8166SOL     OW35956   0.720   3.346   3.784  0.3286 -0.5463  0.3389
 8166SOL    HW135957   0.729   3.429   3.736 -3.2039 -0.7597 -0.7068
 8166SOL    HW235958   0.760   3.284   3.722  1.4111  1.0292 -0.5431
 8167SOL     OW35959   3.824   3.914   4.633 -0.5313  0.2895  0.0777
 8167SOL    HW135960   3.856   3.980   4.572  1.1057  0.9562  1.6509
 8167SOL    HW235961   3.789   3.952   4.714  1.9158  1.0830  0.7753
 8168SOL     OW35962   1.246   0.558  14.569  0.2419 -0.6238 -0.4849
 8168SOL    HW135963   1.316   0.497  14.549  0.0184 -0.4600 -1.8167
 8168SOL    HW235964   1.195   0.559  14.488 -1.8723 -0.1764  0.8514
 8169SOL     OW35965   1.246   3.742   2.637 -0.1288  0.0554  0.6948
 8169SOL    HW135966   1.160   3.758   2.599  0.9410  0.5825 -1.4777
 8169SOL    HW235967   1.245   3.648   2.655  0.8578 -0.5917 -2.6824
 8170SOL     OW35968   0.492   0.088  11.974  0.4197  0.1710  0.2711
 8170SOL    HW135969   0.426   0.023  11.999  0.4216 -0.9338 -2.5716
 8170SOL    HW235970   0.566   0.028  11.966 -1.2701 -2.1936  2.2781
 8171SOL     OW35971   1.678   2.568   1.554 -0.3681 -0.5818  0.2168
 8171SOL    HW135972   1.648   2.571   1.645  0.8171  1.0252  0.5537
 8171SOL    HW235973   1.713   2.656   1.537 -1.7234  0.4397  2.7507
 8172SOL     OW35974   0.238   0.508  14.348 -0.3005  0.3688  0.2523
 8172SOL    HW135975   0.267   0.551  14.267 -1.2223 -1.2102 -0.9182
 8172SOL    HW235976   0.195   0.425  14.327 -2.3600  1.2801  0.9613
 8173SOL     OW35977   0.915   4.357   7.297  0.4007 -0.8106 -0.2190
 8173SOL    HW135978   0.941   4.292   7.362  2.0261 -0.4624 -0.5073
 8173SOL    HW235979   0.826   4.388   7.315  0.9880  0.1589  1.0427
 8174SOL     OW35980   3.713   4.574   3.898  0.1364 -0.3019 -0.0692
 8174SOL    HW135981   3.775   4.540   3.962  0.0671 -0.7451 -0.2392
 8174SOL    HW235982   3.763   4.597   3.819  0.2759 -0.6574 -0.0829
 8175SOL     OW35983   0.966   2.629   5.817  0.2110  0.1342 -0.4566
 8175SOL    HW135984   1.024   2.553   5.811 -0.1358 -0.1741  0.1870
 8175SOL    HW235985   1.019   2.702   5.785 -2.4641  1.4917 -1.8148
 8176SOL     OW35986   0.064   4.628   3.447  0.4489  0.3638 -0.3285
 8176SOL    HW135987   4.696   4.622   3.418  0.8667  2.4355 -2.0550
 8176SOL    HW235988   0.098   4.707   3.405  1.8656  0.4363  0.9668
 8177SOL     OW35989   0.900   1.569   2.797  0.3473 -0.3920 -0.1938
 8177SOL    HW135990   0.915   1.512   2.872 -1.1160  1.1100  1.2481
 8177SOL    HW235991   0.851   1.508   2.742 -1.3033 -1.2524  2.2026
 8178SOL     OW35992   2.978   3.571   8.034  0.2501 -0.0003 -0.1434
 8178SOL    HW135993   3.001   3.642   7.975  0.8299  0.8906  1.1649
 8178SOL    HW235994   3.042   3.504   8.009  0.6536  0.0160  0.8468
 8179SOL     OW35995   1.106   3.067   4.008  0.1206 -1.2127 -0.1433
 8179SOL    HW135996   1.038   3.134   4.007  1.8398  0.5275  0.2433
 8179SOL    HW235997   1.163   3.110   4.072 -0.5303 -0.1048 -0.3041
 8180SOL     OW35998   1.929   3.708   4.182 -0.3033 -0.4334 -0.4043
 8180SOL    HW135999   1.978   3.642   4.231  0.8233  1.1370  0.5884
 8180SOL    HW236000   1.910   3.663   4.100 -1.7763 -1.9361  0.7629
 8181SOL     OW36001   4.259   4.551   6.587  0.0166  0.1066 -0.5489
 8181SOL    HW136002   4.296   4.463   6.595 -0.6176 -0.2664 -1.7087
 8181SOL    HW236003   4.172   4.525   6.619  0.2335  3.5018  2.7748
 8182SOL     OW36004   1.316   3.062   8.797  0.0556  0.3136  0.4467
 8182SOL    HW136005   1.393   3.112   8.770 -0.6678  1.3301  0.2736
 8182SOL    HW236006   1.349   2.974   8.779  0.0537  0.9798 -2.7170
 8183SOL     OW36007   1.799   0.489   3.798 -0.2696  0.2222 -0.2068
 8183SOL    HW136008   1.848   0.532   3.728 -3.3775  1.7097 -1.4394
 8183SOL    HW236009   1.787   0.565   3.855  4.1418 -0.2329  1.3332
 8184SOL     OW36010   2.885   2.693   4.716  0.6164 -0.2324  0.4234
 8184SOL    HW136011   2.972   2.707   4.679  0.4373  2.0129  0.8071
 8184SOL    HW236012   2.840   2.673   4.634  0.1090  0.4516  0.5372
 8185SOL     OW36013   3.657   0.664   1.628  0.5138 -0.3212  0.2446
 8185SOL    HW136014   3.631   0.669   1.720  0.6189  0.6799  0.2289
 8185SOL    HW236015   3.697   0.577   1.629  0.4879 -0.3862 -2.3899
 8186SOL     OW36016   2.856   2.132   5.663  0.2301  0.2421 -0.1334
 8186SOL    HW136017   2.944   2.096   5.651 -0.4145 -0.8779 -1.4899
 8186SOL    HW236018   2.850   2.160   5.754  2.3361 -2.4984  0.8576
 8187SOL     OW36019   4.389   3.932   2.608  0.7600 -0.0629  0.6608
 8187SOL    HW136020   4.321   3.899   2.666 -1.4373  1.5187 -0.9945
 8187SOL    HW236021   4.343   3.985   2.543  1.7103 -0.3043 -0.1998
 8188SOL     OW36022   3.467   4.094   0.006 -0.5410 -0.3932 -0.4422
 8188SOL    HW136023   3.445   4.172   0.057  4.3009  0.4469  0.3983
 8188SOL    HW236024   3.477   4.040   0.084 -3.2323 -2.1364 -1.3298
 8189SOL     OW36025   0.854   2.607  15.762 -0.8680  0.5283 -0.4449
 8189SOL    HW136026   0.869   2.517  15.791 -0.6846  0.8724  0.5183
 8189SOL    HW236027   0.759   2.607  15.777 -0.5729 -3.6008  1.4750
 8190SOL     OW36028   3.623   2.109   0.376  0.0702 -0.4490  0.3891
 8190SOL    HW136029   3.530   2.113   0.396 -0.1192  1.7074 -0.8983
 8190SOL    HW236030   3.654   2.039   0.434  0.6453 -1.3507 -1.0125
 8191SOL     OW36031   3.143   0.258   2.677  0.2608  0.4831  0.1325
 8191SOL    HW136032   3.131   0.192   2.609 -0.3518  1.6949 -0.9199
 8191SOL    HW236033   3.090   0.224   2.750  1.3162  1.3800  1.3258
 8192SOL     OW36034   0.527   1.389  16.769 -0.0071  0.8703 -0.4949
 8192SOL    HW136035   0.615   1.370  16.802  0.4454  2.2552 -0.8930
 8192SOL    HW236036   0.553   1.462  16.713  1.6475  1.4597  1.0301
 8193SOL     OW36037   3.711   0.327   2.373  0.1627  0.0708  0.2434
 8193SOL    HW136038   3.733   0.330   2.467 -0.2920 -0.4611  0.3674
 8193SOL    HW236039   3.641   0.262   2.380 -0.2353  0.2450 -2.3163
 8194SOL     OW36040   1.791   0.396   1.629  0.3429 -0.5177  0.5415
 8194SOL    HW136041   1.838   0.407   1.711 -1.6519 -2.2017  1.9337
 8194SOL    HW236042   1.748   0.481   1.628  2.0643  0.3268 -1.8466
 8195SOL     OW36043   1.629   3.117   7.682  0.4050 -0.5604 -0.4411
 8195SOL    HW136044   1.551   3.064   7.697  0.8147 -1.3428 -1.1113
 8195SOL    HW236045   1.621   3.180   7.754 -2.4914 -0.0392 -1.1870
 8196SOL     OW36046   0.235   2.603   3.731 -0.2700 -0.5569 -0.0892
 8196SOL    HW136047   0.197   2.655   3.803  1.2598  0.8422 -0.2970
 8196SOL    HW236048   0.240   2.519   3.777  1.3877 -0.0111  0.7182
 8197SOL     OW36049   3.432   3.925   6.737 -0.5619  0.0152  0.5145
 8197SOL    HW136050   3.381   3.940   6.816 -2.8940 -2.2340 -0.5424
 8197SOL    HW236051   3.506   3.878   6.775  1.1602  1.7307 -0.7194
 8198SOL     OW36052   1.182   3.883   8.096 -0.2561 -0.3090 -0.3083
 8198SOL    HW136053   1.127   3.867   8.172 -0.3820 -0.6834 -0.4755
 8198SOL    HW236054   1.168   3.800   8.050 -0.2293 -1.9500  2.6820
 8199SOL     OW36055   4.230   0.576   5.327 -0.3666 -0.1631  0.3763
 8199SOL    HW136056   4.193   0.664   5.324 -0.5930 -0.3785 -3.9328
 8199SOL    HW236057   4.218   0.549   5.418 -1.6120 -1.0262 -0.0480
 8200SOL     OW36058   1.147   0.896  11.296  0.2265  0.1103  0.4474
 8200SOL    HW136059   1.157   0.872  11.388 -0.7189  0.4192  0.6333
 8200SOL    HW236060   1.203   0.972  11.281  0.0323  0.2379  0.3722
 8201SOL     OW36061   0.912   0.765  11.181 -0.9687  0.5644  0.1053
 8201SOL    HW136062   0.930   0.680  11.222  2.7539  0.6667 -1.3307
 8201SOL    HW236063   0.967   0.822  11.234 -2.2214  0.8111  1.1467
 8202SOL     OW36064   2.415   2.546   4.854  0.1493  0.4705 -0.2598
 8202SOL    HW136065   2.424   2.638   4.827  2.1262  0.2467 -0.3741
 8202SOL    HW236066   2.506   2.517   4.866  0.0363  0.5292  0.7030
 8203SOL     OW36067   3.823   2.646   7.265 -0.0700 -0.2612  0.0188
 8203SOL    HW136068   3.844   2.738   7.284 -0.8710  0.2397 -1.4933
 8203SOL    HW236069   3.905   2.598   7.260 -2.3607 -4.2459  1.1272
 8204SOL     OW36070   2.213   2.980   6.758 -0.1269 -0.3552 -0.4236
 8204SOL    HW136071   2.125   2.946   6.744 -0.7078  0.8435  0.2971
 8204SOL    HW236072   2.220   3.050   6.693 -0.2695  1.3116  1.3864
 8205SOL     OW36073   1.320   4.542   8.089  0.4501  0.8852 -0.0404
 8205SOL    HW136074   1.365   4.552   8.173 -0.7597 -1.8766  0.9309
 8205SOL    HW236075   1.303   4.635   8.072 -0.1155  0.3742 -2.2415
 8206SOL     OW36076   1.773   0.755   3.935 -0.2713 -0.3951 -0.8360
 8206SOL    HW136077   1.838   0.818   3.904 -0.8265  0.3809 -0.4342
 8206SOL    HW236078   1.691   0.782   3.895 -1.8322 -3.4452  0.2868
 8207SOL     OW36079   0.344   2.601  11.551 -0.6904 -0.4187  0.2640
 8207SOL    HW136080   0.414   2.628  11.492  0.6595 -0.0603  2.0253
 8207SOL    HW236081   0.377   2.513  11.570  1.5405  0.2439 -0.5298
 8208SOL     OW36082   0.480   3.950   5.573  0.1166 -0.0108  0.1059
 8208SOL    HW136083   0.467   4.045   5.565  1.7448  0.1303 -0.8284
 8208SOL    HW236084   0.575   3.950   5.569  0.0476 -2.4441 -1.9169
 8209SOL     OW36085   3.690   4.199  11.364 -0.4475 -0.6542  0.1088
 8209SOL    HW136086   3.677   4.183  11.457  0.5304  2.5102  0.8042
 8209SOL    HW236087   3.679   4.109  11.335 -1.3808 -0.4828 -0.0855
 8210SOL     OW36088   2.648   2.025   6.821 -0.2597 -0.6300  0.0390
 8210SOL    HW136089   2.693   1.976   6.890 -3.4721 -0.9317  1.9233
 8210SOL    HW236090   2.643   2.110   6.865  1.1025 -0.9730  0.8456
 8211SOL     OW36091   0.313   4.704   9.311  0.4652 -0.5530 -0.3232
 8211SOL    HW136092   0.295   0.062   9.359 -0.8440 -1.9549  1.5255
 8211SOL    HW236093   0.364   4.663   9.380  1.8613 -0.8077 -1.5127
 8212SOL     OW36094   4.264   3.424   0.864 -0.0796 -0.1775  0.1086
 8212SOL    HW136095   4.353   3.389   0.862  0.8543  2.2578 -0.6624
 8212SOL    HW236096   4.277   3.472   0.945 -0.2562 -0.7224  0.4541
 8213SOL     OW36097   0.331   0.162   7.279  0.6956  0.2759 -0.6414
 8213SOL    HW136098   0.398   0.171   7.346 -1.3042 -1.4325  1.5846
 8213SOL    HW236099   0.361   0.235   7.223  2.6639  0.7840  1.0861
 8214SOL     OW36100   3.785   0.052   7.723 -0.1274  0.1891 -0.0487
 8214SOL    HW136101   3.748   0.136   7.695  1.7129  0.3054 -2.1290
 8214SOL    HW236102   3.842   0.085   7.792  0.2616  1.7289 -1.0953
 8215SOL     OW36103   2.360   1.462  17.348  0.3316 -0.2119 -1.0697
 8215SOL    HW136104   2.312   1.420  17.277  0.2313 -1.6212 -0.1599
 8215SOL    HW236105   2.416   1.387  17.368 -0.3877 -0.2178  0.8830
 8216SOL     OW36106   1.084   0.361  12.953 -0.1360  0.1529 -0.5963
 8216SOL    HW136107   1.153   0.357  12.887  1.4174  0.9047  0.9769
 8216SOL    HW236108   1.012   0.311  12.915  0.0992 -2.0890  1.9279
 8217SOL     OW36109   1.133   2.757   1.077 -0.8059  0.1786 -0.4631
 8217SOL    HW136110   1.203   2.696   1.103 -1.3291  0.3223  1.2753
 8217SOL    HW236111   1.150   2.812   1.154 -2.7339  2.0713 -1.4161
 8218SOL     OW36112   3.067   4.240   6.352 -0.4428  0.1726 -0.1411
 8218SOL    HW136113   2.978   4.245   6.317 -0.4182  1.3692 -0.0341
 8218SOL    HW236114   3.089   4.333   6.358  0.7885 -0.1940  1.1273
 8219SOL     OW36115   2.528   1.748   4.340  0.0282  0.2973 -0.4290
 8219SOL    HW136116   2.617   1.713   4.345 -0.1974 -0.2981 -0.5704
 8219SOL    HW236117   2.552   1.838   4.360 -1.3090  0.8408 -1.2732
 8220SOL     OW36118   2.156   1.462   7.444 -0.8657 -0.3071 -0.0133
 8220SOL    HW136119   2.164   1.376   7.402 -1.4562 -1.4703  2.2647
 8220SOL    HW236120   2.076   1.492   7.399 -0.6146  1.6034  0.8156
 8221SOL     OW36121   0.234   4.008   5.171 -0.4611 -0.5405 -0.1087
 8221SOL    HW136122   0.271   4.096   5.181 -1.3047 -0.2265  0.2104
 8221SOL    HW236123   0.264   3.965   5.251  1.3575 -0.9607 -0.9912
 8222SOL     OW36124   2.757   4.627  13.225  0.0019 -0.6378 -0.0310
 8222SOL    HW136125   2.816   4.560  13.259  1.1058  0.4514  0.1882
 8222SOL    HW236126   2.742   4.684  13.301  0.6655  1.9303 -1.8191
 8223SOL     OW36127   2.831   4.211   1.591  0.0289  0.0578  0.5225
 8223SOL    HW136128   2.774   4.266   1.538  0.7166 -0.6722 -0.9670
 8223SOL    HW236129   2.889   4.173   1.525  0.0062 -0.0072  0.5400
 8224SOL     OW36130   1.082   1.377   2.236 -0.1441 -1.1402 -0.0711
 8224SOL    HW136131   1.170   1.414   2.240 -0.3643 -0.3737 -1.7622
 8224SOL    HW236132   1.115   1.288   2.229  1.1338 -0.7626  1.0736
 8225SOL     OW36133   3.081   1.837   6.242 -0.1660 -0.0904 -0.1777
 8225SOL    HW136134   3.092   1.798   6.154 -1.0151 -0.2346 -0.2169
 8225SOL    HW236135   3.120   1.767   6.295 -0.4615 -0.6565 -0.7033
 8226SOL     OW36136   3.813   2.867   4.865  0.2780 -0.2724 -0.4594
 8226SOL    HW136137   3.782   2.912   4.943  1.4925 -1.1252  0.5176
 8226SOL    HW236138   3.885   2.922   4.833  0.3402  0.0406  0.2388
 8227SOL     OW36139   2.425   4.691   1.172  0.2588 -0.4412 -0.1637
 8227SOL    HW136140   2.369   4.717   1.098  0.3165 -0.5733 -0.2544
 8227SOL    HW236141   2.380   0.019   1.240  0.6688  0.4962 -0.5942
 8228SOL     OW36142   0.943   0.568   8.241 -0.1804 -0.4356  0.7946
 8228SOL    HW136143   0.952   0.662   8.255  1.2483 -0.2766 -1.1981
 8228SOL    HW236144   0.864   0.559   8.188  2.2700  1.7806 -3.2452
 8229SOL     OW36145   1.400   3.626   6.822 -0.0741  0.6766  0.5705
 8229SOL    HW136146   1.429   3.631   6.913  1.4542 -1.1962  0.1804
 8229SOL    HW236147   1.307   3.622   6.844  0.3047 -2.5172  1.5681
 8230SOL     OW36148   0.113   2.786  11.055  0.4047  0.1024 -0.0599
 8230SOL    HW136149   0.105   2.795  11.150 -0.3036 -1.5657  0.0380
 8230SOL    HW236150   0.024   2.773  11.023  1.0812 -1.6917 -1.1607
 8231SOL     OW36151   1.978   0.952   5.978 -0.1685  0.3882  0.0623
 8231SOL    HW136152   1.898   0.902   5.962 -0.5624  1.9991 -2.9525
 8231SOL    HW236153   2.020   0.895   6.043 -0.1014  1.4072  0.9042
 8232SOL     OW36154   1.206   2.915   7.686 -0.0453  0.2790 -0.0991
 8232SOL    HW136155   1.254   2.881   7.762 -2.9477 -2.8597  0.3209
 8232SOL    HW236156   1.130   2.857   7.679 -0.9734  1.2924  1.4743
 8233SOL     OW36157   3.054   2.247   1.651 -0.2548 -0.1968  0.4142
 8233SOL    HW136158   2.975   2.242   1.705 -0.6636 -0.7771 -0.2487
 8233SOL    HW236159   3.086   2.329   1.690  2.1311 -0.9550  0.0370
 8234SOL     OW36160   1.293   1.343   4.063 -0.0946  0.7054 -0.2062
 8234SOL    HW136161   1.200   1.326   4.075  0.1088 -0.4840 -0.2885
 8234SOL    HW236162   1.336   1.315   4.144 -0.2734 -0.1589 -0.4112
 8235SOL     OW36163   2.006   1.556   6.085 -0.4558  0.0128  0.2883
 8235SOL    HW136164   2.086   1.606   6.065 -0.3914 -0.2841 -0.1886
 8235SOL    HW236165   2.005   1.498   6.010 -1.0142 -0.6299  0.7926
 8236SOL     OW36166   4.603   1.699   2.349  0.0024 -0.2238  0.0454
 8236SOL    HW136167   4.522   1.666   2.312 -0.7025 -0.7191  2.0426
 8236SOL    HW236168   4.662   1.630   2.318 -1.7837 -1.6159 -0.2342
 8237SOL     OW36169   1.165   3.138   0.409  0.5312 -0.0517  0.1507
 8237SOL    HW136170   1.107   3.203   0.448  2.7195  1.6213  0.6336
 8237SOL    HW236171   1.235   3.195   0.379  0.2298 -0.0490 -0.5510
 8238SOL     OW36172   2.052   0.980  10.750  0.5764  0.6134  0.0435
 8238SOL    HW136173   1.987   1.040  10.713  1.1366  0.1901 -1.6205
 8238SOL    HW236174   2.010   0.977  10.836  1.1861  0.8392  0.3475
 8239SOL     OW36175   1.251   1.744  17.636 -0.4460 -0.1330  0.3614
 8239SOL    HW136176   1.277   1.835  17.653  1.3720 -0.9350  1.8552
 8239SOL    HW236177   1.226   1.747  17.544  0.2437  2.0878  0.2374
 8240SOL     OW36178   1.752   2.556  10.302 -0.1184  0.0772 -0.1661
 8240SOL    HW136179   1.758   2.573  10.397  1.6258  0.9525 -0.4351
 8240SOL    HW236180   1.671   2.509  10.282  0.1537 -0.5258  0.1560
 8241SOL     OW36181   4.373   1.297  11.468 -0.3412  0.0553  0.7084
 8241SOL    HW136182   4.373   1.213  11.513  1.4805  0.0354  0.6638
 8241SOL    HW236183   4.415   1.346  11.538  1.2261 -0.4464  0.1140
 8242SOL     OW36184   3.429   1.227  16.553  0.0009  0.2906 -0.8976
 8242SOL    HW136185   3.520   1.197  16.563  0.1496  0.1805 -2.5995
 8242SOL    HW236186   3.437   1.305  16.607 -1.7484 -0.8400  0.9744
 8243SOL     OW36187   1.716   4.597  17.277 -0.4003 -0.3001  0.1137
 8243SOL    HW136188   1.648   4.636  17.222  1.2087  1.4759 -0.6193
 8243SOL    HW236189   1.687   4.636  17.360  1.2682  0.9480  0.1221
 8244SOL     OW36190   0.763   2.394   6.437  0.0581  0.1096 -0.0504
 8244SOL    HW136191   0.674   2.407   6.403 -0.1267 -0.2445  0.2982
 8244SOL    HW236192   0.760   2.333   6.511  1.0163  1.1116  0.8076
 8245SOL     OW36193   1.130   4.297  14.925 -0.0626  0.7026 -0.0690
 8245SOL    HW136194   1.091   4.328  14.844  0.1174 -0.1411 -0.4747
 8245SOL    HW236195   1.217   4.268  14.896  0.2095  2.5715 -1.1037
 8246SOL     OW36196   4.176   1.793   9.747  0.1613  0.0146  0.8980
 8246SOL    HW136197   4.271   1.806   9.747 -0.0163  1.3777 -0.6841
 8246SOL    HW236198   4.149   1.856   9.681  0.5575 -1.3638 -0.5742
 8247SOL     OW36199   0.290   2.328  10.659 -0.4506  0.5410  0.4195
 8247SOL    HW136200   0.267   2.337  10.567 -0.7768  1.3803  0.5825
 8247SOL    HW236201   0.291   2.423  10.676  1.6502  1.0575 -2.6811
 8248SOL     OW36202   1.853   1.466   4.797  0.0143 -0.3611 -0.5702
 8248SOL    HW136203   1.918   1.449   4.729 -0.0529  0.3836 -0.8238
 8248SOL    HW236204   1.905   1.508   4.866 -0.7330  1.8574 -1.3545
 8249SOL     OW36205   0.909   3.062   8.116 -0.2535  0.2751  0.4543
 8249SOL    HW136206   0.834   3.057   8.175 -0.5147 -0.5532  0.0511
 8249SOL    HW236207   0.898   2.979   8.068 -0.5318 -0.6486  2.1005
 8250SOL     OW36208   3.715   0.423   2.786 -0.2323 -0.2235  0.2385
 8250SOL    HW136209   3.697   0.504   2.833  1.0177 -0.6944  1.5392
 8250SOL    HW236210   3.633   0.419   2.736  0.0536  0.5478 -0.2852
 8251SOL     OW36211   1.382   0.246  16.035  0.3658  0.2471 -0.4452
 8251SOL    HW136212   1.413   0.322  15.986 -0.4338  1.2403  0.5831
 8251SOL    HW236213   1.291   0.273  16.040  0.4189  0.4030 -0.3113
 8252SOL     OW36214   0.552   2.642  16.182 -0.0483  0.2086  0.1079
 8252SOL    HW136215   0.502   2.642  16.100  1.2193 -0.7211 -0.6614
 8252SOL    HW236216   0.625   2.696  16.151  1.9155 -3.2105 -1.1245
 8253SOL     OW36217   0.140   1.214  12.599 -0.0035 -0.2144 -0.0234
 8253SOL    HW136218   0.191   1.208  12.518 -2.8254 -0.8484 -1.7728
 8253SOL    HW236219   0.107   1.302  12.581  0.4896 -0.0894 -0.3235
 8254SOL     OW36220   3.950   3.368   6.530  0.1190 -0.1209  0.7846
 8254SOL    HW136221   3.922   3.286   6.488 -0.8664 -0.6460  2.4696
 8254SOL    HW236222   4.043   3.373   6.508 -0.0989 -0.0598 -0.1491
 8255SOL     OW36223   3.241   3.219   3.926  0.5500  0.0097  0.6871
 8255SOL    HW136224   3.165   3.168   3.954 -0.0511 -0.3674 -1.6253
 8255SOL    HW236225   3.280   3.143   3.882 -0.0387 -0.1946  0.5159
 8256SOL     OW36226   2.489   2.167   0.353 -0.2785  0.1412 -0.6572
 8256SOL    HW136227   2.490   2.125   0.438  0.9492  3.3245  0.9159
 8256SOL    HW236228   2.584   2.178   0.345 -0.6556  2.7245 -1.8494
 8257SOL     OW36229   2.655   1.394   3.111  0.0616 -0.6105  0.1927
 8257SOL    HW136230   2.636   1.346   3.192  0.1832 -0.4391  0.3229
 8257SOL    HW236231   2.584   1.457   3.122  1.6411  1.0897  0.6228
 8258SOL     OW36232   1.578   2.418   3.065  0.6488 -0.4111  0.1482
 8258SOL    HW136233   1.588   2.483   2.995 -2.8044 -1.1928 -1.1064
 8258SOL    HW236234   1.567   2.480   3.137  0.3790 -0.1678 -0.1002
 8259SOL     OW36235   4.655   2.951   7.484 -0.5757  0.0836 -0.4390
 8259SOL    HW136236   4.587   2.890   7.512  1.3300 -0.2426  3.3899
 8259SOL    HW236237   4.670   2.923   7.393 -1.7716  0.5254 -0.7813
 8260SOL     OW36238   2.397   4.457   6.548  0.1441  0.1148 -0.1588
 8260SOL    HW136239   2.326   4.445   6.484  1.0034 -3.9078 -0.3830
 8260SOL    HW236240   2.363   4.394   6.611  0.0336  1.6415  1.3076
 8261SOL     OW36241   0.667   3.944   3.937  0.4570 -0.2005 -0.1933
 8261SOL    HW136242   0.595   3.956   3.875  0.9359  0.8911 -0.5270
 8261SOL    HW236243   0.654   4.024   3.987 -0.0897 -0.8790  0.7554
 8262SOL     OW36244   0.976   0.372   3.969  0.2809 -0.3906 -0.3289
 8262SOL    HW136245   0.972   0.286   4.011 -1.2698 -0.7130 -1.1552
 8262SOL    HW236246   1.064   0.395   3.999  0.1885  1.0788 -1.2045
 8263SOL     OW36247   3.132   0.849   9.106  0.5623  0.3718 -0.0804
 8263SOL    HW136248   3.213   0.834   9.155  0.6116 -1.9574 -0.8898
 8263SOL    HW236249   3.069   0.819   9.171  3.1490 -2.4710  1.1074
 8264SOL     OW36250   4.269   4.228   7.761  0.5689  0.1951 -0.0537
 8264SOL    HW136251   4.316   4.147   7.779  0.3867  0.0166 -0.3715
 8264SOL    HW236252   4.184   4.188   7.740  0.2958 -1.2192  3.7903
 8265SOL     OW36253   2.272   1.393  14.129  0.7651 -0.4356  0.0484
 8265SOL    HW136254   2.274   1.453  14.055  2.4650 -0.9734 -0.3563
 8265SOL    HW236255   2.188   1.348  14.121 -0.1207  1.1822  0.4499
 8266SOL     OW36256   4.385   2.158  10.727 -0.1920 -0.1515  0.3085
 8266SOL    HW136257   4.379   2.132  10.635 -0.3804  1.2828 -0.0917
 8266SOL    HW236258   4.369   2.253  10.734 -0.5054 -0.1084 -1.0509
 8267SOL     OW36259   3.121   3.315  13.516 -0.4931 -0.2245  0.1886
 8267SOL    HW136260   3.137   3.228  13.552 -0.0760 -1.3217 -2.5945
 8267SOL    HW236261   3.212   3.345  13.518  0.3188 -2.8129  1.6802
 8268SOL     OW36262   4.054   3.180   5.462  0.0762  0.3936  0.0840
 8268SOL    HW136263   3.998   3.139   5.396  1.6124  1.7908 -2.0954
 8268SOL    HW236264   4.076   3.266   5.426 -1.6701 -0.0118 -1.9544
 8269SOL     OW36265   3.493   2.183   7.128  0.2124 -0.0030 -0.1702
 8269SOL    HW136266   3.423   2.224   7.078  0.3820  0.2774 -0.1738
 8269SOL    HW236267   3.566   2.236   7.096  1.0506 -0.0574  1.6411
 8270SOL     OW36268   1.372   0.772  13.795  0.7409  0.4493  0.0316
 8270SOL    HW136269   1.304   0.706  13.791  1.2742 -0.0305 -1.4927
 8270SOL    HW236270   1.400   0.768  13.703 -1.6330 -1.3687 -0.6065
 8271SOL     OW36271   2.444   3.512  16.106  0.1266 -0.0444  0.8349
 8271SOL    HW136272   2.473   3.513  16.015  0.9851  1.8247  1.1403
 8271SOL    HW236273   2.502   3.444  16.142 -0.6817 -1.4316 -0.5068
 8272SOL     OW36274   2.068   0.693   0.445 -0.1466  0.1641  0.0984
 8272SOL    HW136275   2.009   0.755   0.489 -0.4020 -0.0956  0.1175
 8272SOL    HW236276   2.009   0.674   0.373  2.0847 -0.7902 -1.4652
 8273SOL     OW36277   1.314   2.125  12.501 -0.1450 -0.2370 -0.2436
 8273SOL    HW136278   1.270   2.210  12.498 -1.9751 -1.1172  1.8332
 8273SOL    HW236279   1.394   2.149  12.548  0.4175 -0.6913 -0.9746
 8274SOL     OW36280   1.258   2.405   2.629 -0.0975  0.4720 -0.0198
 8274SOL    HW136281   1.275   2.375   2.719 -0.5893 -1.5964 -0.6129
 8274SOL    HW236282   1.307   2.486   2.617 -0.6748  1.3570  3.3422
 8275SOL     OW36283   2.210   4.346  12.221  0.1008  0.3228  0.1283
 8275SOL    HW136284   2.236   4.277  12.161 -1.4150 -0.8423  0.8100
 8275SOL    HW236285   2.245   4.319  12.306  1.4774 -0.6473 -0.7575
 8276SOL     OW36286   1.583   0.525   4.608  0.3621 -0.8165  0.3057
 8276SOL    HW136287   1.670   0.506   4.644  0.5022  1.3267  1.1040
 8276SOL    HW236288   1.564   0.616   4.629 -1.9388 -1.0120 -0.8928
 8277SOL     OW36289   2.102   1.386   8.506 -0.1423 -0.1557  0.2430
 8277SOL    HW136290   2.168   1.423   8.564  0.8123 -1.0730 -0.2509
 8277SOL    HW236291   2.019   1.429   8.525 -0.7767 -1.6141  0.7358
 8278SOL     OW36292   1.202   3.343   3.727 -0.2667  0.1403 -0.3397
 8278SOL    HW136293   1.276   3.359   3.785 -0.4174 -1.1828  0.2273
 8278SOL    HW236294   1.230   3.254   3.701 -1.3912  0.2303 -1.8736
 8279SOL     OW36295   3.238   3.105   1.389  0.2820 -0.3585 -0.1816
 8279SOL    HW136296   3.161   3.121   1.334 -0.4589 -0.8397  0.7257
 8279SOL    HW236297   3.218   3.179   1.447  2.2276  1.7128 -2.1342
 8280SOL     OW36298   1.862   4.275   7.004 -0.4188  0.2407 -0.1081
 8280SOL    HW136299   1.902   4.288   7.090  2.1254  1.4773 -1.4419
 8280SOL    HW236300   1.828   4.363   6.989 -2.3137 -0.3054  1.0168
 8281SOL     OW36301   2.656   0.283   7.974 -0.1921  0.6889 -0.4088
 8281SOL    HW136302   2.592   0.217   7.949 -0.3674  1.6089 -2.4460
 8281SOL    HW236303   2.601   0.320   8.043 -0.9118 -0.2332 -0.4999
 8282SOL     OW36304   3.312   4.063  11.577  0.2295  0.2898 -0.2612
 8282SOL    HW136305   3.237   4.111  11.612  0.9539  1.0476  0.2651
 8282SOL    HW236306   3.375   4.134  11.567  1.0515 -0.6208 -1.5025
 8283SOL     OW36307   0.855   1.586   6.494  0.2664 -0.5431  0.0058
 8283SOL    HW136308   0.934   1.591   6.440  0.7551 -0.5653  0.7206
 8283SOL    HW236309   0.799   1.645   6.444  0.7058 -1.0817 -1.1360
 8284SOL     OW36310   1.170   2.162   8.014  0.4536  0.0337 -0.2331
 8284SOL    HW136311   1.239   2.226   7.998  0.4326  0.3333  0.8614
 8284SOL    HW236312   1.207   2.088   7.967 -0.8459 -0.5440 -0.3451
 8285SOL     OW36313   3.078   2.078  17.306  0.3409  0.5797 -0.5256
 8285SOL    HW136314   3.096   2.158  17.355  0.3131  0.9155 -1.0626
 8285SOL    HW236315   3.129   2.101  17.228 -1.5166  0.3027 -1.8219
 8286SOL     OW36316   1.489   0.364   7.765  0.8404  0.4192  0.5718
 8286SOL    HW136317   1.516   0.373   7.673  1.3350  2.2573  0.9097
 8286SOL    HW236318   1.408   0.317   7.743  1.5617 -0.6808  0.2257
 8287SOL     OW36319   0.903   3.487   5.937  0.0389  0.1648  0.3078
 8287SOL    HW136320   0.924   3.540   6.015 -0.1464 -0.7437  0.9738
 8287SOL    HW236321   0.884   3.566   5.885  1.4447 -0.3660 -0.9975
 8288SOL     OW36322   1.042   1.016   9.017  0.1866 -0.0073  0.6187
 8288SOL    HW136323   1.114   1.069   9.053  0.8566  0.3717 -1.2241
 8288SOL    HW236324   1.085   0.932   9.030  0.0831 -0.2196 -0.3576
 8289SOL     OW36325   2.683   4.094  13.510  0.1302 -0.5136  0.0309
 8289SOL    HW136326   2.602   4.069  13.554  0.8158 -2.4672  0.2038
 8289SOL    HW236327   2.661   4.165  13.449  0.4061 -0.3324  0.1438
 8290SOL     OW36328   4.480   1.939  11.081 -0.1053  0.5925 -0.6933
 8290SOL    HW136329   4.529   2.021  11.077  0.5548  0.3283  1.7261
 8290SOL    HW236330   4.511   1.896  11.161 -0.9686  0.5130 -0.4036
 8291SOL     OW36331   2.467   1.956  13.013  0.6011  0.6913  0.0028
 8291SOL    HW136332   2.447   2.028  12.954  1.0320 -1.5603 -2.8631
 8291SOL    HW236333   2.523   2.003  13.075  0.7019  0.5292  0.0359
 8292SOL     OW36334   1.296   0.037   8.417  0.3116 -0.1245  0.4034
 8292SOL    HW136335   1.267   4.674   8.447 -0.9683  0.4544  0.8538
 8292SOL    HW236336   1.247   0.102   8.468  1.1333 -1.1317  2.4684
 8293SOL     OW36337   2.739   3.022   3.269 -0.3581  0.1767  0.2996
 8293SOL    HW136338   2.699   3.101   3.306  0.2496  0.7362 -0.2360
 8293SOL    HW236339   2.817   3.066   3.235 -1.7179  3.1017  0.9220
 8294SOL     OW36340   1.424   4.441   8.708  0.0211  0.3980 -0.0937
 8294SOL    HW136341   1.514   4.435   8.741 -0.1527 -1.4671  0.0176
 8294SOL    HW236342   1.433   4.528   8.668 -1.2071  0.6952  0.2774
 8295SOL     OW36343   1.936   2.482  16.090  0.1515  0.4889 -0.1617
 8295SOL    HW136344   1.938   2.505  16.183 -0.2952 -1.3181  0.2872
 8295SOL    HW236345   1.845   2.491  16.061 -0.6175  1.1702  2.4634
 8296SOL     OW36346   0.109   1.303   9.371 -0.2318  0.2164 -0.4230
 8296SOL    HW136347   0.154   1.338   9.447 -0.1740 -2.4937  0.7759
 8296SOL    HW236348   0.031   1.263   9.409 -1.3651  2.3606 -0.4986
 8297SOL     OW36349   4.155   0.440   9.483 -0.1822  0.3435  0.6209
 8297SOL    HW136350   4.128   0.519   9.436  1.3288  0.1384 -0.5972
 8297SOL    HW236351   4.250   0.447   9.490  0.0442  0.4385 -2.5214
 8298SOL     OW36352   2.276   1.478   4.937 -0.1513  0.1492  0.0203
 8298SOL    HW136353   2.263   1.458   4.845 -0.5412 -3.0047  0.7595
 8298SOL    HW236354   2.186   1.508   4.948 -0.1477  0.1357  0.0882
 8299SOL     OW36355   1.399   3.073   6.464 -0.2055  0.0660  0.4948
 8299SOL    HW136356   1.420   3.141   6.400  0.2048 -0.5129  0.0189
 8299SOL    HW236357   1.489   3.042   6.455 -0.9524 -2.1669  0.6288
 8300SOL     OW36358   2.613   1.120   1.462 -0.4076  0.2060 -0.3847
 8300SOL    HW136359   2.578   1.172   1.390 -0.6064 -1.9942 -1.8653
 8300SOL    HW236360   2.701   1.103   1.428 -1.1449 -0.5753 -1.8704
 8301SOL     OW36361   2.180   1.863  10.360  0.6198 -0.7847  0.1862
 8301SOL    HW136362   2.266   1.821  10.361 -0.7545 -3.6045  0.0645
 8301SOL    HW236363   2.141   1.849  10.446 -0.3397  1.9860  0.1806
 8302SOL     OW36364   4.608   2.890   2.563 -0.3310 -0.3293 -0.4287
 8302SOL    HW136365   4.521   2.854   2.580 -0.0696 -1.4371 -1.3914
 8302SOL    HW236366   4.620   2.891   2.468  0.5512  1.1246 -0.3045
 8303SOL     OW36367   2.059   1.205   6.516  0.4975  0.3823  0.4756
 8303SOL    HW136368   2.027   1.293   6.537  0.3672  0.9177 -1.9664
 8303SOL    HW236369   2.020   1.201   6.429  0.3643 -0.2715  0.5692
 8304SOL     OW36370   4.476   1.459   6.393 -0.6119  0.1644 -0.3629
 8304SOL    HW136371   4.563   1.423   6.414 -0.4386 -0.2408 -1.7700
 8304SOL    HW236372   4.459   1.388   6.332 -0.4317 -0.3794  0.2240
 8305SOL     OW36373   0.417   0.997  14.857 -0.1670 -0.4561 -0.5822
 8305SOL    HW136374   0.447   0.957  14.938  0.5184  1.2255 -0.0106
 8305SOL    HW236375   0.504   1.028  14.833 -0.2196 -0.1258 -0.3409
 8306SOL     OW36376   2.615   4.466   6.787  0.6094  0.1747  0.1212
 8306SOL    HW136377   2.606   4.558   6.764 -0.0761 -0.2317 -1.1955
 8306SOL    HW236378   2.523   4.441   6.781  0.7591  0.1574 -2.0633
 8307SOL     OW36379   2.674   2.412   7.880  0.2974 -0.3559  0.0271
 8307SOL    HW136380   2.768   2.426   7.876  0.4427 -1.2238  0.2755
 8307SOL    HW236381   2.649   2.398   7.972 -3.8884 -0.4258 -1.1011
 8308SOL     OW36382   1.317   1.269   1.174 -0.0709  0.2381  0.5688
 8308SOL    HW136383   1.274   1.186   1.194  0.8441 -0.3776  0.0110
 8308SOL    HW236384   1.411   1.256   1.162 -0.3024 -0.7012 -0.2597
 8309SOL     OW36385   4.719   1.881  16.085  1.0007 -0.3034  0.2354
 8309SOL    HW136386   4.673   1.926  16.155  1.9077  0.1532  0.5451
 8309SOL    HW236387   0.084   1.918  16.089 -0.6698  3.4407  2.0040
 8310SOL     OW36388   0.872   0.860   3.178 -0.3157  0.0059 -0.1532
 8310SOL    HW136389   0.897   0.774   3.143  0.7857  0.1394  0.3367
 8310SOL    HW236390   0.784   0.845   3.213  0.6233  1.0785  2.6452
 8311SOL     OW36391   4.251   2.389   8.302  0.2382 -0.0044 -0.4541
 8311SOL    HW136392   4.310   2.448   8.254 -0.5516  1.8213  0.8126
 8311SOL    HW236393   4.289   2.390   8.390  0.5376 -1.1253 -0.5698
 8312SOL     OW36394   2.673   2.189   9.868  0.1999  0.5057  0.3512
 8312SOL    HW136395   2.664   2.270   9.817  4.1910  0.7041 -0.0352
 8312SOL    HW236396   2.696   2.133   9.795  0.1660 -1.5877  1.9489
 8313SOL     OW36397   2.460   3.495   6.230  0.0760  0.0629  0.2459
 8313SOL    HW136398   2.502   3.410   6.218 -2.0486 -0.9930  0.1599
 8313SOL    HW236399   2.405   3.498   6.152 -1.1579 -1.4262  1.0285
 8314SOL     OW36400   2.406   0.929   3.234 -0.1461 -0.4257 -0.2428
 8314SOL    HW136401   2.390   0.996   3.300  0.0750 -0.1656 -0.4535
 8314SOL    HW236402   2.419   0.849   3.285  1.1462 -0.7636 -1.1069
 8315SOL     OW36403   2.006   3.348   7.812  0.3567  0.3567 -0.1691
 8315SOL    HW136404   2.047   3.388   7.888  0.3763 -2.0838  1.0714
 8315SOL    HW236405   1.937   3.415   7.806 -1.1922 -1.3950 -2.1020
 8316SOL     OW36406   0.210   1.949   9.253  0.1020  0.0801  0.0504
 8316SOL    HW136407   0.178   1.864   9.222  1.5919 -0.4928  0.0935
 8316SOL    HW236408   0.299   1.915   9.264  0.0277 -1.1825 -3.2692
 8317SOL     OW36409   1.546   2.409   2.050  0.4201  0.1599 -0.5764
 8317SOL    HW136410   1.630   2.442   2.018  0.0328  0.8289 -0.9070
 8317SOL    HW236411   1.548   2.453   2.136  1.4226 -0.7850 -0.1193
 8318SOL     OW36412   2.437   4.313   9.567  0.4510  0.0517  0.0070
 8318SOL    HW136413   2.521   4.300   9.612 -0.6269 -1.1291  1.6730
 8318SOL    HW236414   2.457   4.269   9.485  1.9671 -1.7341  1.3340
 8319SOL     OW36415   3.291   2.646   2.594 -0.3668  0.5985  0.5142
 8319SOL    HW136416   3.268   2.713   2.529  0.1301  0.3627  0.0933
 8319SOL    HW236417   3.284   2.563   2.546  1.2901  0.3544  0.6983
 8320SOL     OW36418   0.925   0.357   8.421  0.0020  0.2600  0.2727
 8320SOL    HW136419   0.941   0.422   8.490 -1.4150  0.2526  0.6021
 8320SOL    HW236420   0.892   0.411   8.350 -0.2418  1.7675  1.5159
 8321SOL     OW36421   4.643   1.793   6.675 -0.3406  0.2158 -0.0318
 8321SOL    HW136422   4.671   1.714   6.630  1.2003 -0.2734  1.7889
 8321SOL    HW236423   4.552   1.765   6.671 -0.2701  0.1677 -1.2149
 8322SOL     OW36424   0.110   1.542   6.217 -0.7123 -0.2846 -0.1917
 8322SOL    HW136425   0.137   1.550   6.126 -0.1862  1.5312  0.1053
 8322SOL    HW236426   0.139   1.453   6.233  1.9698  0.2525 -2.0282
 8323SOL     OW36427   0.277   4.590  15.109 -0.6960 -0.2726  0.3067
 8323SOL    HW136428   0.277   4.677  15.150 -1.9973  0.2408 -0.8206
 8323SOL    HW236429   0.191   4.551  15.124 -0.7923  0.1869  0.9433
 8324SOL     OW36430   4.214   4.327   0.398 -0.6110 -0.0558  0.1514
 8324SOL    HW136431   4.241   4.367   0.480 -2.5134  0.0930  0.6990
 8324SOL    HW236432   4.120   4.333   0.411 -0.9775 -2.3121 -1.5115
 8325SOL     OW36433   3.549   2.268   5.270 -0.1792 -0.3797  0.2061
 8325SOL    HW136434   3.611   2.290   5.339  0.3502  2.7541 -1.2802
 8325SOL    HW236435   3.516   2.355   5.249 -1.1778 -1.2544 -1.9017
 8326SOL     OW36436   3.309   0.166  14.957  0.2811 -0.5978  0.0711
 8326SOL    HW136437   3.284   0.083  14.916 -0.9722 -0.2795  0.1918
 8326SOL    HW236438   3.344   0.125  15.036  0.3205 -0.1649  0.2755
 8327SOL     OW36439   0.467   2.352  11.570 -0.0741 -0.2545 -0.0333
 8327SOL    HW136440   0.535   2.322  11.509 -0.3752 -0.1838 -0.4077
 8327SOL    HW236441   0.495   2.297  11.643 -0.4424  1.3786  1.3030
 8328SOL     OW36442   3.157   0.003  16.333 -0.4313  0.5906  0.4401
 8328SOL    HW136443   3.228   4.663  16.346 -0.2050  0.6045 -0.7422
 8328SOL    HW236444   3.192   0.033  16.249 -2.5379  0.6073 -0.4241
 8329SOL     OW36445   3.515   4.069  13.346  0.2677  0.1341 -0.0911
 8329SOL    HW136446   3.535   4.150  13.298  1.0330  1.1642  1.9457
 8329SOL    HW236447   3.426   4.046  13.319  0.2615 -1.0004  0.9031
 8330SOL     OW36448   0.766   1.305  14.629  0.0016  0.0458  0.3376
 8330SOL    HW136449   0.758   1.377  14.566 -2.4967 -0.5334 -0.0221
 8330SOL    HW236450   0.821   1.350  14.693 -1.6627  1.7458  0.6122
 8331SOL     OW36451   2.378   0.329  11.270 -0.1125 -0.1920 -0.6565
 8331SOL    HW136452   2.353   0.379  11.193  2.0629 -0.5926 -1.6111
 8331SOL    HW236453   2.360   0.240  11.239  0.1846 -1.0345  1.5892
 8332SOL     OW36454   4.431   0.182  11.513 -0.0889  0.0164 -0.3028
 8332SOL    HW136455   4.461   0.132  11.589 -0.3855 -3.1336 -2.2391
 8332SOL    HW236456   4.422   0.109  11.451  2.8740 -0.1956 -0.5002
 8333SOL     OW36457   1.010   2.057  15.855  0.4055 -0.3324  0.4547
 8333SOL    HW136458   0.989   1.998  15.782 -0.1764 -0.3904  0.6694
 8333SOL    HW236459   1.055   1.996  15.912  1.0807  0.0071  0.2919
 8334SOL     OW36460   1.925   2.727   1.978 -0.2539 -0.2440 -0.2566
 8334SOL    HW136461   2.002   2.687   1.938  1.5895  3.5488 -0.4986
 8334SOL    HW236462   1.949   2.820   1.986 -0.0579 -0.5439  2.8268
 8335SOL     OW36463   2.115   0.961  10.486  0.1759  0.0894 -0.1588
 8335SOL    HW136464   2.166   1.038  10.512  1.6114 -2.1185  3.5752
 8335SOL    HW236465   2.068   0.953  10.569 -0.5527 -2.0658 -0.7728
 8336SOL     OW36466   1.545   4.320   3.048 -0.2666  0.4239  0.1858
 8336SOL    HW136467   1.559   4.332   3.142 -3.4295  1.1905  0.5641
 8336SOL    HW236468   1.542   4.227   3.028 -0.4243  0.8935 -1.9935
 8337SOL     OW36469   2.378   1.068   2.480 -0.0346  0.5847 -0.2871
 8337SOL    HW136470   2.453   1.009   2.482 -0.4189  0.2458  3.0173
 8337SOL    HW236471   2.376   1.101   2.569 -1.0189  2.0791 -0.8754
 8338SOL     OW36472   0.041   3.629   6.753  0.1671  0.1567 -0.3322
 8338SOL    HW136473   0.029   3.554   6.812 -1.1901  0.3305 -0.3850
 8338SOL    HW236474   4.684   3.679   6.770  0.5064  0.4490  0.4224
 8339SOL     OW36475   2.713   4.469   8.079  0.2210 -0.7378 -0.4315
 8339SOL    HW136476   2.784   4.446   8.019  2.0153  1.1125  0.9947
 8339SOL    HW236477   2.705   4.382   8.118 -2.7223 -1.0498 -1.7337
 8340SOL     OW36478   3.154   3.708   5.400  0.4774 -0.0529 -0.2159
 8340SOL    HW136479   3.097   3.758   5.458 -0.4569 -1.0498 -0.2877
 8340SOL    HW236480   3.242   3.744   5.414  0.6933 -0.3313 -0.8274
 8341SOL     OW36481   0.216   3.971   5.886  0.2434  0.1935  0.3748
 8341SOL    HW136482   0.251   3.909   5.822  0.9302  1.3239 -0.3509
 8341SOL    HW236483   0.122   3.956   5.878  0.2724 -0.0633  0.5299
 8342SOL     OW36484   1.747   1.322  15.328 -0.7313  0.1425 -0.1457
 8342SOL    HW136485   1.800   1.274  15.264  2.0463  1.8645  0.8862
 8342SOL    HW236486   1.774   1.283  15.411 -2.6138  0.1199  0.4622
 8343SOL     OW36487   0.686   4.224   2.995  0.1484  0.0430 -0.4234
 8343SOL    HW136488   0.757   4.160   3.002  0.2772  0.5320  2.7353
 8343SOL    HW236489   0.699   4.269   2.911 -2.1527  3.1591  0.9116
 8344SOL     OW36490   1.586   0.098  17.147  0.6554 -0.0992 -0.9262
 8344SOL    HW136491   1.594   0.185  17.108 -1.6837  0.3034 -0.5304
 8344SOL    HW236492   1.500   0.115  17.185  1.4401  2.0113 -0.1481
 8345SOL     OW36493   2.853   2.153   3.266 -0.1194  0.2012 -0.3136
 8345SOL    HW136494   2.905   2.074   3.276  0.3992  0.7578  1.3303
 8345SOL    HW236495   2.881   2.211   3.337  1.8244  1.3362 -2.0139
 8346SOL     OW36496   0.606   2.110   7.511 -0.0203  0.1138  0.1061
 8346SOL    HW136497   0.651   2.141   7.432 -0.6609 -0.2815 -0.4106
 8346SOL    HW236498   0.633   2.018   7.510 -0.4499 -0.0211  1.1462
 8347SOL     OW36499   1.960   1.019  10.262 -0.2507 -0.3717 -0.7882
 8347SOL    HW136500   1.971   1.114  10.259 -1.1591 -0.1842  1.8150
 8347SOL    HW236501   2.012   0.999  10.339 -1.1585 -1.5434 -0.4742
 8348SOL     OW36502   3.375   0.901   7.047  0.1930 -0.5031 -0.2527
 8348SOL    HW136503   3.429   0.873   7.121  0.4732  1.3374  0.2379
 8348SOL    HW236504   3.367   0.992   7.075 -0.5703 -0.7303  0.2388
 8349SOL     OW36505   1.728   1.505   7.644  0.1126  0.2079  0.3357
 8349SOL    HW136506   1.698   1.536   7.729  1.7216 -0.9168  1.3111
 8349SOL    HW236507   1.692   1.417   7.651 -0.0239  0.1740 -0.7900
 8350SOL     OW36508   0.215   4.109   4.116  0.1236 -0.3373 -0.3306
 8350SOL    HW136509   0.127   4.075   4.136  0.7565 -0.2669  2.6555
 8350SOL    HW236510   0.192   4.161   4.039 -1.9350 -1.5384 -0.5235
 8351SOL     OW36511   2.768   4.235   8.697 -0.6190 -0.2340  0.6246
 8351SOL    HW136512   2.688   4.186   8.676 -0.0875 -0.3393 -1.1467
 8351SOL    HW236513   2.730   4.312   8.739  0.5902  0.2072  0.8820
 8352SOL     OW36514   3.769   0.123   6.329  0.8705 -0.2590 -0.7320
 8352SOL    HW136515   3.836   0.098   6.392 -1.0215 -2.6873  0.3197
 8352SOL    HW236516   3.688   0.104   6.377  0.3719  0.6768 -1.2084
 8353SOL     OW36517   4.639   3.170   5.166 -0.2409  0.2825 -0.0020
 8353SOL    HW136518   4.638   3.106   5.095  1.7810 -0.5785  0.7600
 8353SOL    HW236519   4.693   3.243   5.136 -1.4670 -0.2794 -3.5093
 8354SOL     OW36520   2.099   1.910   4.566  0.3271 -0.3590  0.3140
 8354SOL    HW136521   2.082   1.999   4.598  0.1341 -0.0177 -0.7343
 8354SOL    HW236522   2.178   1.903   4.621  1.2078  0.4421 -0.8443
 8355SOL     OW36523   2.746   3.655   5.920 -0.1424  0.4341 -1.3188
 8355SOL    HW136524   2.659   3.695   5.921  0.2432  1.2277 -0.0028
 8355SOL    HW236525   2.787   3.660   6.006 -1.9314 -1.8549 -0.3492
 8356SOL     OW36526   4.247   3.392   9.347 -0.1765  0.1095 -0.0483
 8356SOL    HW136527   4.202   3.309   9.333  0.1618  0.4056 -2.9640
 8356SOL    HW236528   4.306   3.359   9.414  0.3133  1.7920  0.3523
 8357SOL     OW36529   1.472   0.728   6.238  0.3099  0.0412  0.5099
 8357SOL    HW136530   1.441   0.764   6.322 -1.0411  0.0882 -0.0093
 8357SOL    HW236531   1.546   0.787   6.229 -0.6525  1.3943  1.3519
 8358SOL     OW36532   2.382   0.594   2.034 -0.2719 -0.2067  0.4326
 8358SOL    HW136533   2.379   0.547   1.950 -0.7920  0.5354  0.0369
 8358SOL    HW236534   2.468   0.633   2.014  0.8322 -3.2034 -0.7204
 8359SOL     OW36535   4.589   1.669   6.245 -0.5807 -0.2053  1.2843
 8359SOL    HW136536   4.546   1.599   6.294  1.7168 -1.6308  1.2272
 8359SOL    HW236537   4.680   1.640   6.243 -1.5519 -3.1750  0.4674
 8360SOL     OW36538   0.916   3.265   7.877 -0.7434 -0.3818 -0.3231
 8360SOL    HW136539   0.933   3.212   7.956  0.9676 -1.3145 -1.3140
 8360SOL    HW236540   1.002   3.304   7.861 -1.8231  1.9697 -0.3197
 8361SOL     OW36541   2.219   0.453   3.969 -0.3496  0.3116 -0.4470
 8361SOL    HW136542   2.205   0.383   4.033  1.7441 -0.6223 -0.9794
 8361SOL    HW236543   2.153   0.519   3.987 -1.7554 -1.2601  0.1668
 8362SOL     OW36544   2.224   3.998   7.575 -0.0632  0.5643 -0.0178
 8362SOL    HW136545   2.193   4.009   7.665 -2.2147  0.0429 -0.7055
 8362SOL    HW236546   2.138   3.983   7.535 -0.0622  1.4710 -0.3518
 8363SOL     OW36547   2.877   2.715   2.073  0.2914 -0.5740  0.4994
 8363SOL    HW136548   2.809   2.719   2.006 -0.5149  0.1427  1.3604
 8363SOL    HW236549   2.929   2.792   2.051 -0.1019 -0.4433  0.0331
 8364SOL     OW36550   2.434   3.606   7.555 -0.0187  0.1248 -0.0697
 8364SOL    HW136551   2.488   3.532   7.527  2.7452  0.7368  3.6212
 8364SOL    HW236552   2.425   3.656   7.473 -1.9337  1.9666  1.2757
 8365SOL     OW36553   3.717   1.614  16.931 -0.2373  0.4913 -0.0846
 8365SOL    HW136554   3.793   1.670  16.922  0.9198 -0.8201  1.4284
 8365SOL    HW236555   3.754   1.526  16.943 -1.7504 -0.1560 -0.1244
 8366SOL     OW36556   1.267   4.565   7.679  0.0951 -0.3605  0.1486
 8366SOL    HW136557   1.333   4.608   7.733  0.0112  1.9663 -1.5900
 8366SOL    HW236558   1.190   4.595   7.728  1.8089 -0.1782  2.7636
 8367SOL     OW36559   2.955   1.174   7.575 -0.1026 -0.1465  0.0447
 8367SOL    HW136560   2.997   1.209   7.654 -1.0809 -0.6901  0.8071
 8367SOL    HW236561   2.937   1.084   7.603 -2.3877  0.1006 -0.6062
 8368SOL     OW36562   3.117   1.859  11.703 -0.4492  0.3948  0.0493
 8368SOL    HW136563   3.138   1.883  11.613 -1.2790 -1.2365 -0.5846
 8368SOL    HW236564   3.053   1.793  11.675  1.1653 -0.3412 -1.8676
 8369SOL     OW36565   0.684   0.691  10.639 -0.3504  0.9916  0.4331
 8369SOL    HW136566   0.719   0.603  10.628 -2.8036 -0.1380  1.8059
 8369SOL    HW236567   0.751   0.750  10.604  1.6167 -1.9877 -0.7984
 8370SOL     OW36568   2.800   0.773   5.596 -0.0083 -0.1018  0.6360
 8370SOL    HW136569   2.817   0.867   5.599 -0.3078 -0.1147  2.3993
 8370SOL    HW236570   2.830   0.738   5.680 -0.4944 -2.2212 -0.0571
 8371SOL     OW36571   3.093   0.382  17.647  0.3288  0.5693 -0.6414
 8371SOL    HW136572   3.048   0.325  17.585 -0.5684 -2.1357  2.4605
 8371SOL    HW236573   3.159   0.423  17.592  0.1247  1.2563 -0.3752
 8372SOL     OW36574   1.361   1.275   6.329  0.2271  1.1713  0.6224
 8372SOL    HW136575   1.354   1.351   6.271  0.7125  1.1238  0.4995
 8372SOL    HW236576   1.456   1.273   6.338  0.2705 -1.2311 -0.3498
 8373SOL     OW36577   1.106   2.048  16.966  0.1422 -0.1587 -0.0983
 8373SOL    HW136578   1.086   2.006  17.049  1.5281  0.4796  0.5548
 8373SOL    HW236579   1.201   2.038  16.964  0.2258  0.4499  1.0824
 8374SOL     OW36580   2.510   1.191   6.213  0.3931  0.0805 -0.0303
 8374SOL    HW136581   2.516   1.233   6.299 -1.3133  0.2731 -0.0050
 8374SOL    HW236582   2.443   1.126   6.235  0.1083 -0.6690 -3.1238
 8375SOL     OW36583   3.341   2.910   4.969  0.3802  0.4619  0.4148
 8375SOL    HW136584   3.291   2.981   5.008  2.1853  1.0794  1.6027
 8375SOL    HW236585   3.410   2.967   4.934  0.3204  0.1790 -0.1624
 8376SOL     OW36586   0.212   2.506  14.785  0.2048 -0.5590  0.1160
 8376SOL    HW136587   0.201   2.463  14.700 -0.2273 -1.8735  0.8346
 8376SOL    HW236588   0.180   2.591  14.753  1.1383 -0.1762  0.2010
 8377SOL     OW36589   4.154   2.598  10.221  0.5420  0.4681 -0.1743
 8377SOL    HW136590   4.210   2.585  10.145 -0.1665 -0.3185 -0.5585
 8377SOL    HW236591   4.082   2.538  10.202  1.2253 -0.4958  0.2979
 8378SOL     OW36592   4.125   0.903   6.699  0.9407  0.4815  0.3101
 8378SOL    HW136593   4.167   0.838   6.756  1.0778 -0.9645 -1.4405
 8378SOL    HW236594   4.171   0.982   6.727 -0.2544  1.6248 -0.9619
 8379SOL     OW36595   4.655   2.031   1.833 -0.5717  0.0674 -0.2732
 8379SOL    HW136596   4.701   1.953   1.802  0.1179 -0.0460  1.0112
 8379SOL    HW236597   4.703   2.106   1.798 -0.3582  0.6670  1.2922
 8380SOL     OW36598   3.459   1.545   2.619  0.1424 -0.2043 -0.2437
 8380SOL    HW136599   3.502   1.604   2.557  0.8330  0.8637  1.2640
 8380SOL    HW236600   3.478   1.467   2.566  1.3285 -0.8477  1.1176
 8381SOL     OW36601   1.798   1.177  14.262 -0.1509 -0.6155 -0.2135
 8381SOL    HW136602   1.815   1.083  14.275  1.6340 -0.0263  1.7131
 8381SOL    HW236603   1.886   1.214  14.258 -0.2224 -0.5034 -0.7708
 8382SOL     OW36604   1.745   3.583  10.244 -0.2956  0.4221  0.1339
 8382SOL    HW136605   1.793   3.556  10.166 -0.0720 -1.7878  1.0275
 8382SOL    HW236606   1.675   3.634  10.205  0.1756  0.5324 -0.5724
 8383SOL     OW36607   1.017   1.032   1.202  0.0480 -0.6410  0.8491
 8383SOL    HW136608   0.929   1.029   1.164  0.3900  0.4651  0.0107
 8383SOL    HW236609   1.013   1.125   1.223  1.0032  0.0486 -2.1105
 8384SOL     OW36610   3.877   2.022   6.129 -0.2732  0.1156 -0.1075
 8384SOL    HW136611   3.907   1.935   6.155 -1.3217 -0.1500  0.2041
 8384SOL    HW236612   3.802   2.038   6.187  0.3502 -0.3592  0.8344
 8385SOL     OW36613   1.326   0.197   7.310  0.6151  0.2204 -0.0095
 8385SOL    HW136614   1.363   0.273   7.355 -0.4480  0.3972  0.5619
 8385SOL    HW236615   1.315   0.139   7.385 -0.2310 -1.4607 -1.4296
 8386SOL     OW36616   4.628   4.459   3.991  0.1963  0.2505 -0.5608
 8386SOL    HW136617   4.586   4.480   3.908 -0.7352  1.4111  0.2146
 8386SOL    HW236618   4.686   4.535   3.998 -0.4257  0.7670 -0.9972
 8387SOL     OW36619   1.436   3.847  14.210 -0.4837 -0.1417  0.1299
 8387SOL    HW136620   1.505   3.789  14.243 -0.3739 -0.0701  0.0288
 8387SOL    HW236621   1.356   3.798  14.230 -1.1480  1.6468  1.7243
 8388SOL     OW36622   0.320   2.679   7.412 -0.3466  0.7641  0.3307
 8388SOL    HW136623   0.337   2.610   7.348  1.6449  1.1144  0.4893
 8388SOL    HW236624   0.389   2.660   7.475  0.3100  1.0481 -0.3050
 8389SOL     OW36625   2.761   4.328   3.887  0.4777 -0.0410 -0.2415
 8389SOL    HW136626   2.783   4.391   3.956 -2.0799  0.6160 -0.0416
 8389SOL    HW236627   2.804   4.375   3.815 -0.8947  0.9341 -0.4284
 8390SOL     OW36628   4.380   0.264  12.280 -0.5381 -0.3910  0.0529
 8390SOL    HW136629   4.425   0.193  12.235 -0.4561 -1.1400  1.3245
 8390SOL    HW236630   4.458   0.313  12.305 -3.2250  1.9019  3.7982
 8391SOL     OW36631   4.056   4.196   3.651  0.2136  0.3443 -0.4274
 8391SOL    HW136632   4.148   4.170   3.645 -0.4578 -1.6397 -2.0390
 8391SOL    HW236633   4.019   4.108   3.659 -0.9678  0.7164 -1.8476
 8392SOL     OW36634   0.449   0.343   8.823 -0.0123 -0.3396  0.3989
 8392SOL    HW136635   0.471   0.278   8.891  1.5358 -0.2083  0.0182
 8392SOL    HW236636   0.535   0.384   8.824 -0.4715  0.6214 -2.6298
 8393SOL     OW36637   1.252   1.939  12.754 -0.2111 -0.0167  0.2085
 8393SOL    HW136638   1.204   1.915  12.675 -1.8884 -0.2970  1.3188
 8393SOL    HW236639   1.206   1.885  12.818 -0.2784  1.2481  1.2455
 8394SOL     OW36640   2.627   4.416   2.594 -0.3725  0.4615  0.3720
 8394SOL    HW136641   2.712   4.393   2.555 -0.3840  3.8607 -1.5827
 8394SOL    HW236642   2.625   4.346   2.659  3.1429 -0.6073 -0.6664
 8395SOL     OW36643   2.329   3.362   6.464 -0.7972  0.2937 -0.1525
 8395SOL    HW136644   2.405   3.328   6.511 -1.0655  0.1545  0.1828
 8395SOL    HW236645   2.370   3.400   6.386  0.2778 -0.4065  0.0883
 8396SOL     OW36646   2.966   0.249   0.669 -0.0950 -0.3987  0.6312
 8396SOL    HW136647   3.041   0.299   0.702 -0.5083  0.2741  0.5707
 8396SOL    HW236648   3.000   0.243   0.580  0.4864 -0.3144  0.8483
 8397SOL     OW36649   4.450   1.870   3.271 -0.4050 -0.0633  0.0906
 8397SOL    HW136650   4.470   1.881   3.364  0.9944  1.5422 -0.3923
 8397SOL    HW236651   4.355   1.874   3.269 -0.2474  3.0805 -1.0433
 8398SOL     OW36652   3.249   1.090   8.587 -0.0668 -0.7557 -0.0898
 8398SOL    HW136653   3.271   1.083   8.494  0.0768 -1.0811 -0.0306
 8398SOL    HW236654   3.157   1.112   8.579  0.5141  0.8398 -2.3131
 8399SOL     OW36655   3.322   1.966  13.488 -0.2351  0.6032  0.0602
 8399SOL    HW136656   3.250   1.903  13.482 -1.3738  1.9036  0.1536
 8399SOL    HW236657   3.287   2.033  13.429 -2.8102  0.5017  1.4758
 8400SOL     OW36658   4.438   1.058  12.898 -0.3266 -0.1753  0.2952
 8400SOL    HW136659   4.383   1.019  12.829  0.0505 -0.3715  0.1071
 8400SOL    HW236660   4.481   0.980  12.931  0.2659 -0.4757 -1.1854
 8401SOL     OW36661   4.505   0.155   6.165  0.8573 -0.3111 -0.1411
 8401SOL    HW136662   4.486   0.248   6.154  1.1040 -0.1034  1.1562
 8401SOL    HW236663   4.528   0.132   6.075 -0.4720  0.9303 -0.7921
 8402SOL     OW36664   4.197   2.868   8.748 -0.3827  0.3731  0.0133
 8402SOL    HW136665   4.233   2.838   8.664  2.6500 -1.0357  1.8257
 8402SOL    HW236666   4.107   2.883   8.720 -0.2088  0.8544 -0.2902
 8403SOL     OW36667   1.949   2.907  16.698 -0.2757  0.3028 -0.5160
 8403SOL    HW136668   1.916   2.995  16.681 -2.8106 -0.5596 -0.0113
 8403SOL    HW236669   1.873   2.863  16.735  0.2475 -0.6619 -0.5720
 8404SOL     OW36670   0.630   2.496   8.953  0.2313 -0.0864  0.1516
 8404SOL    HW136671   0.710   2.547   8.961  0.5827 -0.5269 -0.6099
 8404SOL    HW236672   0.632   2.479   8.859  0.7423  2.6852 -0.3429
 8405SOL     OW36673   2.665   0.411  13.282 -0.2960  0.1039 -0.1245
 8405SOL    HW136674   2.598   0.389  13.347 -2.0775  0.3442 -1.8854
 8405SOL    HW236675   2.632   0.367  13.204 -0.3597  0.6849 -0.4256
 8406SOL     OW36676   0.010   1.496   6.793  0.1633 -0.4036  0.2530
 8406SOL    HW136677   0.047   1.408   6.795 -1.1126 -0.9594 -0.6035
 8406SOL    HW236678   0.080   1.546   6.752 -1.8076  0.6629 -1.7863
 8407SOL     OW36679   0.667   3.056   5.075 -0.1526 -0.6494 -0.1776
 8407SOL    HW136680   0.660   3.017   4.988 -1.0894 -1.2295  0.1592
 8407SOL    HW236681   0.759   3.035   5.095 -0.2453 -0.8595  0.0336
 8408SOL     OW36682   3.037   2.693   5.558  0.0411  0.0916  0.2382
 8408SOL    HW136683   3.016   2.786   5.560 -3.5167 -0.7090  0.8893
 8408SOL    HW236684   3.126   2.695   5.523  0.2660 -1.1794  0.7157
 8409SOL     OW36685   3.248   4.338   5.135 -0.2790 -0.1454 -0.9087
 8409SOL    HW136686   3.191   4.296   5.071 -0.4834  1.0769 -1.5312
 8409SOL    HW236687   3.231   4.269   5.199 -1.4149  1.7351  0.8311
 8410SOL     OW36688   4.086   2.858   1.225  0.0307  0.1652 -0.2885
 8410SOL    HW136689   4.069   2.875   1.132  0.5441 -2.6628 -0.9090
 8410SOL    HW236690   4.182   2.851   1.222  0.0867  1.0640 -0.5017
 8411SOL     OW36691   2.365   1.674   8.580  0.1181 -0.0192  0.2323
 8411SOL    HW136692   2.366   1.578   8.575 -2.3487 -0.0504 -0.0155
 8411SOL    HW236693   2.282   1.691   8.625  0.4092 -1.3931  1.2969
 8412SOL     OW36694   1.024   2.306   2.489 -0.4433  0.1331 -0.4615
 8412SOL    HW136695   1.108   2.300   2.534 -0.9145  0.1359  0.4163
 8412SOL    HW236696   0.986   2.221   2.513  1.1121  0.0663  1.7080
 8413SOL     OW36697   2.649   1.667   1.544 -0.1202 -0.0927  0.3158
 8413SOL    HW136698   2.676   1.612   1.618  1.4545 -0.4257 -0.5037
 8413SOL    HW236699   2.584   1.613   1.500 -0.3353 -1.1897  1.9574
 8414SOL     OW36700   2.916   2.051   4.096  0.0270 -0.0549 -0.6930
 8414SOL    HW136701   2.986   1.991   4.073 -0.0869 -1.2133  1.8842
 8414SOL    HW236702   2.953   2.134   4.068  0.0098  0.2366  0.1502
 8415SOL     OW36703   3.663   3.974   3.480 -0.5076  0.1638  0.1633
 8415SOL    HW136704   3.754   3.963   3.510 -0.1154 -0.1277 -1.1374
 8415SOL    HW236705   3.656   3.903   3.415 -1.9454  0.6253 -0.1901
 8416SOL     OW36706   0.608   1.453   2.393 -0.0419  0.0808 -0.4895
 8416SOL    HW136707   0.688   1.472   2.345  0.9304 -1.3456  0.5478
 8416SOL    HW236708   0.592   1.362   2.365 -0.3863 -0.8666  2.8232
 8417SOL     OW36709   3.826   2.986   1.283 -0.2618  0.8087 -0.3546
 8417SOL    HW136710   3.917   2.979   1.256 -0.1086 -0.1126  0.4213
 8417SOL    HW236711   3.801   2.894   1.278  0.5863  0.5682 -0.0943
 8418SOL     OW36712   2.044   2.488   6.222  0.1919  0.0999  0.0552
 8418SOL    HW136713   1.955   2.514   6.244 -0.0503 -1.8946  1.4747
 8418SOL    HW236714   2.078   2.575   6.201 -0.0114  0.4302  1.1209
 8419SOL     OW36715   0.951   3.462   2.611  0.5080  0.0596  0.1229
 8419SOL    HW136716   1.027   3.451   2.553  1.7483  1.1965  1.5143
 8419SOL    HW236717   0.960   3.382   2.663  1.0576 -0.6532 -1.0740
 8420SOL     OW36718   2.421   4.246   1.811  0.6206 -0.2875 -0.1519
 8420SOL    HW136719   2.439   4.287   1.895  0.2978 -1.6610  0.5769
 8420SOL    HW236720   2.383   4.318   1.760 -0.4284  0.5737  1.8232
 8421SOL     OW36721   2.048   0.560   8.071  0.0701 -0.0929  0.1345
 8421SOL    HW136722   1.972   0.569   8.014  0.6601  1.9297 -0.3292
 8421SOL    HW236723   2.069   0.466   8.074 -1.7059 -0.4987 -0.4955
 8422SOL     OW36724   3.053   3.482   1.434  0.0581  0.3126 -0.2898
 8422SOL    HW136725   2.975   3.440   1.469  1.2068 -0.4544  1.3647
 8422SOL    HW236726   3.075   3.548   1.500 -1.8299  0.3032  0.3491
 8423SOL     OW36727   1.253   3.854  10.114 -0.3576  0.4918 -0.4335
 8423SOL    HW136728   1.199   3.919  10.159 -0.9401  0.1910 -0.6955
 8423SOL    HW236729   1.325   3.907  10.082  0.7371 -1.6267 -1.5092
 8424SOL     OW36730   2.948   4.453   5.272  0.0723  0.7343 -0.5519
 8424SOL    HW136731   2.915   4.503   5.346  1.6054  1.1296 -0.1301
 8424SOL    HW236732   3.011   4.392   5.310 -2.6540 -0.4363  2.0636
 8425SOL     OW36733   4.286   3.685   4.833 -0.6824  0.0835  0.4133
 8425SOL    HW136734   4.351   3.721   4.893 -0.7067  0.2973  0.3139
 8425SOL    HW236735   4.345   3.657   4.763 -1.3823  1.7736 -0.8732
 8426SOL     OW36736   2.728   0.842   6.906  0.3378  0.4336 -0.1744
 8426SOL    HW136737   2.729   0.767   6.965  0.6491  0.9178  0.4434
 8426SOL    HW236738   2.726   0.915   6.969  1.2887  0.7851 -0.5426
 8427SOL     OW36739   3.381   3.801  14.994 -0.0476 -0.2049  0.1909
 8427SOL    HW136740   3.398   3.787  15.087 -1.0022 -1.2352  0.2088
 8427SOL    HW236741   3.416   3.888  14.977 -1.7140  0.7213  1.5287
 8428SOL     OW36742   0.933   3.541   2.244  0.3737 -0.3257 -0.5046
 8428SOL    HW136743   0.841   3.548   2.220  0.0324  2.2134  1.5365
 8428SOL    HW236744   0.979   3.617   2.208  0.2217 -0.7885 -1.6717
 8429SOL     OW36745   4.085   2.085  11.699 -0.4068 -0.2488 -0.3273
 8429SOL    HW136746   4.003   2.055  11.658  0.9543 -2.3582 -1.4950
 8429SOL    HW236747   4.144   2.015  11.674 -0.4584 -0.9796  1.6118
 8430SOL     OW36748   0.569   3.801   4.346 -0.2536  0.0495  0.3719
 8430SOL    HW136749   0.560   3.734   4.414 -0.6973 -0.7424 -0.4573
 8430SOL    HW236750   0.515   3.776   4.271 -0.1609 -0.4769  0.4780
 8431SOL     OW36751   3.406   0.609   9.182 -0.1639 -0.3341 -0.5111
 8431SOL    HW136752   3.335   0.550   9.207  0.1730 -0.2349  0.6888
 8431SOL    HW236753   3.486   0.555   9.182  0.2655  0.2992 -1.7597
 8432SOL     OW36754   1.043   2.155   5.886  0.4360 -0.2154 -0.3938
 8432SOL    HW136755   0.995   2.082   5.925  0.7068 -0.6151 -0.8179
 8432SOL    HW236756   0.965   2.210   5.877 -0.6531 -1.5105  1.1817
 8433SOL     OW36757   1.257   3.775  13.131  0.0903 -0.0794 -0.2869
 8433SOL    HW136758   1.185   3.736  13.180 -1.7284  1.1559 -1.9712
 8433SOL    HW236759   1.281   3.702  13.074 -3.8849 -2.5799  1.2726
 8434SOL     OW36760   4.145   0.810   5.016  0.0686  0.2990  0.3133
 8434SOL    HW136761   4.177   0.726   4.982 -1.4332 -0.2567  0.2547
 8434SOL    HW236762   4.071   0.819   4.955 -0.8039 -2.7281  0.8862
 8435SOL     OW36763   4.704   0.310  16.420  0.4105 -0.5504  0.0137
 8435SOL    HW136764   4.706   0.235  16.360  0.7064 -0.5815  0.0653
 8435SOL    HW236765   4.614   0.299  16.451 -0.2051 -0.3989 -1.7148
 8436SOL     OW36766   2.792   1.425   6.694 -0.0341  0.1106 -0.2777
 8436SOL    HW136767   2.836   1.417   6.610 -1.5589 -2.8908 -0.7753
 8436SOL    HW236768   2.778   1.519   6.709  0.5050  0.2300 -0.5482
 8437SOL     OW36769   2.825   0.070   7.004  0.1414  0.0556 -0.2223
 8437SOL    HW136770   2.797   0.158   6.980 -1.9471 -0.4032  0.4884
 8437SOL    HW236771   2.805   0.015   6.929  0.6649  0.8461 -0.9416
 8438SOL     OW36772   1.822   3.139   5.131 -0.2979  0.4629  0.0415
 8438SOL    HW136773   1.791   3.051   5.114 -2.2422  0.9330  1.1395
 8438SOL    HW236774   1.759   3.176   5.193 -0.5914  1.2076 -0.6945
 8439SOL     OW36775   2.353   0.091  14.606 -0.0076 -0.1449  0.0284
 8439SOL    HW136776   2.370   0.119  14.516  2.1441 -0.0193  0.4701
 8439SOL    HW236777   2.348   0.177  14.647 -0.1387  0.0039 -0.3035
 8440SOL     OW36778   3.697   3.310   2.584  0.7167  0.1975  0.5285
 8440SOL    HW136779   3.751   3.233   2.600  0.4886 -0.0904 -0.0759
 8440SOL    HW236780   3.731   3.331   2.497 -0.8473  0.7302  0.0478
 8441SOL     OW36781   3.098   0.297  11.698  0.2719  0.5759  0.3034
 8441SOL    HW136782   3.100   0.231  11.767 -2.1792  0.4290  0.2329
 8441SOL    HW236783   3.043   0.362  11.741 -0.1807 -0.4277  1.2392
 8442SOL     OW36784   1.299   3.091   3.646 -0.3443 -0.2424 -0.2286
 8442SOL    HW136785   1.233   3.022   3.632 -0.9335  0.3863 -0.5346
 8442SOL    HW236786   1.339   3.101   3.560 -0.6943  3.3802  0.0394
 8443SOL     OW36787   4.186   0.062  14.321  0.0378 -0.3427 -0.1543
 8443SOL    HW136788   4.152   0.137  14.370  0.3599  0.3868 -1.0441
 8443SOL    HW236789   4.186   0.002  14.396 -1.9518 -0.1771 -0.0161
 8444SOL     OW36790   3.749   1.388   4.821  0.3016 -0.4566  0.6203
 8444SOL    HW136791   3.801   1.468   4.827  1.2504 -0.8730 -2.1841
 8444SOL    HW236792   3.684   1.416   4.886  0.1171  1.1335 -0.2471
 8445SOL     OW36793   3.954   1.169   6.235  0.8378 -0.6914 -0.3314
 8445SOL    HW136794   3.990   1.257   6.228 -2.0928  0.1279 -5.2630
 8445SOL    HW236795   3.965   1.154   6.328  0.9454 -0.6907 -0.3435
 8446SOL     OW36796   2.576   4.365  13.450  0.2829 -0.2640  0.2484
 8446SOL    HW136797   2.481   4.358  13.462  0.6038 -1.0765  2.2275
 8446SOL    HW236798   2.590   4.431  13.518  1.5433  0.0485 -0.3140
 8447SOL     OW36799   1.884   1.653   2.019 -0.4359 -0.1732  0.3219
 8447SOL    HW136800   1.820   1.584   2.007  0.3598 -1.0432  1.0695
 8447SOL    HW236801   1.838   1.735   2.039 -0.9621 -0.5761  0.7362
 8448SOL     OW36802   4.053   1.494   8.494  0.1594 -0.3835  0.2200
 8448SOL    HW136803   3.972   1.491   8.544  0.2901 -1.9785  0.3465
 8448SOL    HW236804   4.117   1.447   8.549  1.9473  2.0492  0.2010
 8449SOL     OW36805   0.256   1.170   7.029  0.1004  0.2804  0.5829
 8449SOL    HW136806   0.176   1.199   7.073 -2.4021 -3.2024 -1.5851
 8449SOL    HW236807   0.288   1.103   7.090 -1.2333 -0.4004  0.5367
 8450SOL     OW36808   0.424   1.255   7.898  0.3845  0.2777 -0.3601
 8450SOL    HW136809   0.350   1.269   7.958  0.8804 -0.6928  0.4907
 8450SOL    HW236810   0.494   1.287   7.954 -0.8084 -2.2852  2.6375
 8451SOL     OW36811   2.756   0.845   4.993  0.8803  0.3582  0.4658
 8451SOL    HW136812   2.760   0.783   4.920  0.1889  2.0002 -0.9594
 8451SOL    HW236813   2.798   0.915   4.942  1.6792  1.7699  3.0767
 8452SOL     OW36814   2.751   0.493   2.274 -0.0722 -0.2164  0.6195
 8452SOL    HW136815   2.841   0.517   2.294 -0.6105  1.3664  1.1238
 8452SOL    HW236816   2.724   0.582   2.253  3.5793  0.6903 -0.2599
 8453SOL     OW36817   3.460   0.844   6.639  0.1107  0.0162 -0.3123
 8453SOL    HW136818   3.378   0.869   6.682 -0.0152  0.5966 -0.8830
 8453SOL    HW236819   3.523   0.900   6.684  2.2940 -0.8952 -2.1876
 8454SOL     OW36820   1.109   3.358   4.783 -0.1556  0.0669 -0.4079
 8454SOL    HW136821   1.201   3.386   4.785 -0.6570  1.8039 -1.0655
 8454SOL    HW236822   1.066   3.418   4.722 -0.0497  3.0579  2.4591
 8455SOL     OW36823   1.091   2.845  11.892 -0.4584  0.4994 -0.1470
 8455SOL    HW136824   1.128   2.875  11.975  0.3122 -0.7572 -0.0286
 8455SOL    HW236825   1.000   2.827  11.914 -0.1906 -0.7630 -0.0805
 8456SOL     OW36826   4.506   1.208   6.312 -0.0892 -0.0464  0.1903
 8456SOL    HW136827   4.542   1.173   6.231 -2.9498 -0.4913 -0.8754
 8456SOL    HW236828   4.449   1.133   6.330 -0.2435 -0.1547 -0.7339
 8457SOL     OW36829   2.799   2.930   3.530  0.8534  0.7385  0.1318
 8457SOL    HW136830   2.780   2.950   3.438 -2.5559  0.6629  0.8011
 8457SOL    HW236831   2.806   3.019   3.565  0.4985  0.5239  0.7496
 8458SOL     OW36832   3.925   4.310   7.982  0.0157  0.5440  0.2112
 8458SOL    HW136833   3.903   4.239   8.043 -0.9516 -0.3361 -1.1405
 8458SOL    HW236834   3.853   4.370   8.002 -0.0949  0.3299  0.4548
 8459SOL     OW36835   3.628   0.841   8.341 -0.0320  0.5200 -0.5599
 8459SOL    HW136836   3.637   0.802   8.428  0.1552 -1.1514 -1.3185
 8459SOL    HW236837   3.566   0.913   8.355  0.5313  0.8374  0.2911
 8460SOL     OW36838   1.981   4.358   0.353  0.4717 -0.3966 -0.3885
 8460SOL    HW136839   2.031   4.415   0.295 -0.4560 -0.7072 -1.4788
 8460SOL    HW236840   1.936   4.301   0.291 -0.1587 -0.4835  0.1402
 8461SOL     OW36841   1.578   2.855  14.328 -0.0885 -0.5082 -0.8618
 8461SOL    HW136842   1.599   2.764  14.305  0.9673  0.0354 -2.0687
 8461SOL    HW236843   1.585   2.851  14.423  2.2526  1.6833 -0.9370
 8462SOL     OW36844   2.118   4.339  17.179 -0.8402  0.1554 -0.1885
 8462SOL    HW136845   2.061   4.262  17.183  0.1602 -0.5868  0.0103
 8462SOL    HW236846   2.110   4.356  17.086  0.4442  0.4565 -0.2476
 8463SOL     OW36847   2.747   4.570  10.679 -0.1232  0.3797  0.1729
 8463SOL    HW136848   2.781   4.596  10.764  0.3528  0.7912 -0.1414
 8463SOL    HW236849   2.659   4.610  10.679 -0.4813 -0.3782 -1.9769
 8464SOL     OW36850   3.291   3.437   4.193 -0.0281 -0.1406 -0.4019
 8464SOL    HW136851   3.321   3.410   4.279  0.1435  2.3132  0.3179
 8464SOL    HW236852   3.350   3.386   4.137  0.7804  1.1459 -0.7530
 8465SOL     OW36853   2.294   4.272   3.445  0.0274 -0.4509  0.1721
 8465SOL    HW136854   2.334   4.351   3.410 -0.5546 -0.3392 -0.2270
 8465SOL    HW236855   2.202   4.281   3.424  0.0409  0.8760  0.6972
 8466SOL     OW36856   3.699   0.949  17.106 -0.3282 -0.4280 -0.2949
 8466SOL    HW136857   3.744   0.969  17.188  0.0859  0.3062 -0.7016
 8466SOL    HW236858   3.769   0.976  17.046 -1.8302 -2.5232 -2.9858
 8467SOL     OW36859   2.590   0.576  11.249 -0.3576 -0.2374  0.1019
 8467SOL    HW136860   2.625   0.491  11.278  0.9753  0.1931 -0.2343
 8467SOL    HW236861   2.502   0.578  11.286 -0.2255  1.7025  0.2727
 8468SOL     OW36862   2.231   0.076   3.750 -0.5251 -0.1900  0.0180
 8468SOL    HW136863   2.219   0.170   3.766 -0.1600  0.2297 -2.1794
 8468SOL    HW236864   2.177   0.040   3.821  0.5034  1.0707  1.4396
 8469SOL     OW36865   0.982   3.253   2.766 -0.1748 -0.0218 -0.0418
 8469SOL    HW136866   0.989   3.167   2.724  0.4495 -1.1636  2.4190
 8469SOL    HW236867   1.046   3.251   2.837 -0.6382 -0.9260  0.3448
 8470SOL     OW36868   4.643   4.397  13.347 -0.5130  0.3524 -0.2089
 8470SOL    HW136869   4.608   4.432  13.265  1.2347  0.5630 -0.8748
 8470SOL    HW236870   4.623   4.461  13.415 -0.4235 -0.1898  0.3211
 8471SOL     OW36871   1.961   0.768   6.829  0.0645  0.2538  0.4084
 8471SOL    HW136872   2.050   0.739   6.849  0.1310  0.7230  0.7923
 8471SOL    HW236873   1.999   0.845   6.786 -1.0071  1.1127  0.9930
 8472SOL     OW36874   3.136   3.563   3.453  0.1444  0.1056  0.6469
 8472SOL    HW136875   3.186   3.640   3.481  1.4922 -0.9369  1.1460
 8472SOL    HW236876   3.125   3.514   3.535  1.8326  0.0097  0.8277
 8473SOL     OW36877   0.875   0.200   2.829 -0.1962  0.3728 -0.2145
 8473SOL    HW136878   0.859   0.255   2.753  2.0668 -0.3657 -1.2070
 8473SOL    HW236879   0.949   0.247   2.868  0.3041 -0.1662 -0.5203
 8474SOL     OW36880   3.894   2.243   8.558  0.0637  0.0396  0.1007
 8474SOL    HW136881   3.924   2.330   8.582  1.9963  0.2921 -3.1842
 8474SOL    HW236882   3.965   2.194   8.599 -0.4876  0.1613  1.1982
 8475SOL     OW36883   1.536   4.025   3.017  0.3301 -0.1327  1.1974
 8475SOL    HW136884   1.484   3.971   2.957  0.0908 -0.7990  2.0188
 8475SOL    HW236885   1.532   3.972   3.096  0.4892 -1.3052  0.4110
 8476SOL     OW36886   0.734   2.524   8.690 -0.0931 -0.1064  0.5530
 8476SOL    HW136887   0.818   2.567   8.674 -0.0068  0.1755  1.7572
 8476SOL    HW236888   0.675   2.574   8.634  1.7779  0.0132 -1.2984
 8477SOL     OW36889   2.323   1.576   7.245 -0.2225  0.0168 -0.5931
 8477SOL    HW136890   2.279   1.536   7.320  1.0819 -2.4447 -1.1427
 8477SOL    HW236891   2.332   1.666   7.277  0.8543 -1.5602  3.6054
 8478SOL     OW36892   0.463   1.281   5.979 -0.7073  0.2246 -0.0680
 8478SOL    HW136893   0.496   1.366   5.948 -4.1048  2.3090  1.9220
 8478SOL    HW236894   0.521   1.258   6.052 -0.1842  0.8239 -0.2901
 8479SOL     OW36895   3.539   0.098  13.865 -0.3795 -0.3725  0.0077
 8479SOL    HW136896   3.618   0.152  13.874 -0.6716  0.2505 -1.1868
 8479SOL    HW236897   3.521   0.079  13.957  1.3785  3.2796  1.1292
 8480SOL     OW36898   4.131   3.442   4.830 -0.5018 -0.0633 -0.3081
 8480SOL    HW136899   4.069   3.446   4.902 -1.8955  1.6436 -1.5882
 8480SOL    HW236900   4.185   3.521   4.843 -2.2196  1.0519 -0.0162
 8481SOL     OW36901   3.089   4.129   1.971  0.3772 -0.2823 -0.2805
 8481SOL    HW136902   3.015   4.180   2.005  1.5366  1.0725  0.2348
 8481SOL    HW236903   3.060   4.113   1.881 -2.5694  2.3363  0.1835
 8482SOL     OW36904   2.425   4.014   1.708 -0.3445  0.1251  0.3652
 8482SOL    HW136905   2.421   4.103   1.742  0.4445  0.2167  0.2198
 8482SOL    HW236906   2.355   3.970   1.757 -0.9081 -0.6915 -1.1795
 8483SOL     OW36907   3.704   1.904   8.004 -0.8524 -0.4489  0.1863
 8483SOL    HW136908   3.795   1.931   7.988 -2.0165  2.1149 -2.0885
 8483SOL    HW236909   3.704   1.905   8.100 -0.2693 -1.1701  0.1915
 8484SOL     OW36910   1.264   3.037  16.106 -0.0872  0.5961  0.1308
 8484SOL    HW136911   1.202   3.006  16.040  0.5762 -2.0221  0.7692
 8484SOL    HW236912   1.332   3.072  16.049 -1.3453 -1.0459 -2.3487
 8485SOL     OW36913   2.654   1.789   2.533 -0.2917  0.6410 -0.0781
 8485SOL    HW136914   2.559   1.783   2.523 -0.4216 -0.8911  1.8873
 8485SOL    HW236915   2.681   1.714   2.588 -2.4115  0.4064  0.6469
 8486SOL     OW36916   0.594   1.861   1.032  0.1036 -0.6113 -0.1699
 8486SOL    HW136917   0.527   1.831   0.969 -0.2779 -0.5029  0.1828
 8486SOL    HW236918   0.594   1.954   1.013  0.9860 -0.5424  0.1935
 8487SOL     OW36919   3.574   2.667   9.076  0.1622 -0.2081 -0.3123
 8487SOL    HW136920   3.662   2.630   9.091 -0.0645 -1.4150 -1.9632
 8487SOL    HW236921   3.560   2.647   8.983  0.6957 -0.0800 -0.4242
 8488SOL     OW36922   3.539   1.617   2.890  0.1567 -0.6916  0.3066
 8488SOL    HW136923   3.483   1.575   2.955  2.1184 -0.4324  2.1385
 8488SOL    HW236924   3.522   1.585   2.801 -1.3931  0.6088  0.1273
 8489SOL     OW36925   3.704   4.545   5.980 -0.3376 -0.7170 -1.0604
 8489SOL    HW136926   3.796   4.566   5.990 -0.1141 -2.2706  0.1450
 8489SOL    HW236927   3.707   4.509   5.891 -0.2040  0.6521 -1.6115
 8490SOL     OW36928   2.033   2.166   1.118 -0.6495  0.1567 -0.9562
 8490SOL    HW136929   2.068   2.190   1.204  0.3517 -1.5535 -0.8807
 8490SOL    HW236930   1.941   2.186   1.138 -0.3766  2.4467 -2.0241
 8491SOL     OW36931   3.334   4.583   9.202 -0.8488  0.3024  0.1805
 8491SOL    HW136932   3.247   4.555   9.173 -0.3625  0.3223 -1.2536
 8491SOL    HW236933   3.375   4.643   9.140 -0.3966 -0.0285  0.1647
 8492SOL     OW36934   2.627   3.411  12.107 -0.0153  0.1644  0.0587
 8492SOL    HW136935   2.677   3.439  12.183  0.1664 -0.9625  0.3615
 8492SOL    HW236936   2.597   3.323  12.132  0.2842  0.3196  0.9532
 8493SOL     OW36937   4.322   4.524   2.871 -0.0035  0.4677  0.1187
 8493SOL    HW136938   4.408   4.519   2.914  0.2664  0.2976 -0.4444
 8493SOL    HW236939   4.338   4.460   2.802 -2.3437  0.4273 -0.3825
 8494SOL     OW36940   3.236   0.332   8.593 -0.6801  0.3547  0.4660
 8494SOL    HW136941   3.179   0.278   8.538  0.2403 -0.8445  0.6983
 8494SOL    HW236942   3.238   0.417   8.549 -2.1256  0.0214 -0.2521
 8495SOL     OW36943   4.376   1.503   2.191 -0.4360 -0.1022 -0.2105
 8495SOL    HW136944   4.314   1.431   2.193  0.4706 -0.8802 -0.4450
 8495SOL    HW236945   4.445   1.469   2.134  0.4568  0.6691  0.4008
 8496SOL     OW36946   2.886   2.809   0.346  0.6614  0.4476 -0.1102
 8496SOL    HW136947   2.823   2.865   0.391 -0.3976 -1.0004  0.2453
 8496SOL    HW236948   2.965   2.837   0.391  1.6015 -0.4397 -1.2205
 8497SOL     OW36949   0.958   1.133  14.179 -0.1422 -0.0491 -0.6505
 8497SOL    HW136950   0.985   1.071  14.111 -0.2726 -0.6131 -0.1965
 8497SOL    HW236951   0.948   1.068  14.249 -0.0096 -1.2269 -1.7241
 8498SOL     OW36952   3.098   4.246   4.957 -0.0566  0.1734  0.4010
 8498SOL    HW136953   3.039   4.171   4.960  0.3295 -0.1973 -1.2699
 8498SOL    HW236954   3.040   4.309   4.914 -1.2768 -1.6347 -0.5956
 8499SOL     OW36955   4.041   1.149   8.996 -0.1763 -0.2576  1.0705
 8499SOL    HW136956   4.018   1.056   8.988  1.4872 -0.7448  1.8892
 8499SOL    HW236957   4.117   1.155   8.938 -1.7733 -2.1314 -1.2335
 8500SOL     OW36958   4.045   0.341  12.150  0.2874  0.2694 -0.1961
 8500SOL    HW136959   3.966   0.331  12.202 -0.0370  2.0160 -0.3371
 8500SOL    HW236960   4.000   0.350  12.066 -0.8965  3.3316  0.7496
 8501SOL     OW36961   3.580   3.727   4.570 -0.0616 -0.8284  0.0735
 8501SOL    HW136962   3.645   3.706   4.503 -1.0959  0.2286 -1.2704
 8501SOL    HW236963   3.614   3.805   4.614  2.7741 -0.9062 -2.0103
 8502SOL     OW36964   1.813   0.474  11.302  0.6758  0.4209 -0.3486
 8502SOL    HW136965   1.852   0.396  11.342  1.9253  1.3597  0.2821
 8502SOL    HW236966   1.871   0.539  11.342  2.0374 -1.3918  0.6039
 8503SOL     OW36967   0.410   4.668   8.019  0.3763  1.0648 -1.0217
 8503SOL    HW136968   0.423   4.574   8.027  5.0227  1.5329 -2.9836
 8503SOL    HW236969   0.373   4.690   8.104 -0.9238  0.0611 -1.3281
 8504SOL     OW36970   0.409   3.557   1.964 -0.1892  0.0237  0.0061
 8504SOL    HW136971   0.391   3.520   1.878 -1.2598  1.6999 -0.4821
 8504SOL    HW236972   0.413   3.652   1.950 -0.0615 -0.0708 -0.5833
 8505SOL     OW36973   4.610   0.301  12.436 -0.6007 -0.0220  0.0223
 8505SOL    HW136974   4.686   0.266  12.390 -1.1763 -0.7657 -0.3724
 8505SOL    HW236975   4.635   0.374  12.492  1.0645 -1.0460  0.6103
 8506SOL     OW36976   1.231   4.157  12.911 -0.1418 -0.0123 -0.0307
 8506SOL    HW136977   1.319   4.193  12.902  0.0684 -0.7565 -0.8825
 8506SOL    HW236978   1.239   4.067  12.880 -1.1463 -0.2376  0.3685
 8507SOL     OW36979   1.177   3.650   7.941  0.8406 -0.0753 -0.1563
 8507SOL    HW136980   1.182   3.556   7.954 -1.8650 -0.1580  0.1106
 8507SOL    HW236981   1.084   3.667   7.951  0.8791  1.0027 -1.4153
 8508SOL     OW36982   0.218   1.270   6.222 -0.0211 -0.1732  0.0903
 8508SOL    HW136983   0.212   1.220   6.303  1.1393  2.1522  1.5996
 8508SOL    HW236984   0.313   1.277   6.209 -0.0220 -1.9354 -0.8653
 8509SOL     OW36985   0.918   0.078   6.073 -0.7681  0.4348  0.1411
 8509SOL    HW136986   1.002   0.032   6.069 -1.2591 -0.3774 -1.0628
 8509SOL    HW236987   0.875   0.014   6.015  2.6003 -0.2226 -1.6348
 8510SOL     OW36988   4.236   3.405   7.350  0.5007 -0.4641 -0.0394
 8510SOL    HW136989   4.182   3.355   7.410 -2.2345  2.9662  0.3756
 8510SOL    HW236990   4.313   3.350   7.337  2.0692  1.4018  1.3854
 8511SOL     OW36991   3.948   3.816   8.066  0.4719 -0.5423 -0.0769
 8511SOL    HW136992   3.989   3.841   7.983 -3.9398 -0.4081 -2.2342
 8511SOL    HW236993   3.977   3.725   8.072  2.1136 -0.0470 -0.3323
 8512SOL     OW36994   3.233   4.650   2.952 -0.2611 -0.9689  0.6337
 8512SOL    HW136995   3.233   4.588   2.880 -0.3136 -2.4370  1.8984
 8512SOL    HW236996   3.309   4.704   2.930 -0.8089 -1.0326 -1.3533
 8513SOL     OW36997   3.488   4.596   4.404  0.0575 -0.1437  0.3664
 8513SOL    HW136998   3.414   4.549   4.365  0.6007 -0.4980 -0.2221
 8513SOL    HW236999   3.558   4.551   4.357  0.3588 -0.2963  0.9631
 8514SOL     OW37000   3.590   0.344   3.960  0.5244 -0.0103  0.4604
 8514SOL    HW137001   3.555   0.265   4.002  1.4920 -0.4515  0.4347
 8514SOL    HW237002   3.653   0.305   3.899 -1.2040 -0.4999 -1.0093
 8515SOL     OW37003   0.311   4.058   8.024  0.1606  0.2690 -0.4327
 8515SOL    HW137004   0.251   3.983   8.017 -1.6647  1.6799  0.0767
 8515SOL    HW237005   0.322   4.067   8.119 -0.9425  0.8304 -0.3652
 8516SOL     OW37006   2.263   1.033  11.587 -0.0101  0.3886  0.0994
 8516SOL    HW137007   2.251   1.064  11.677  2.1647  0.2303  0.4603
 8516SOL    HW237008   2.170   1.018  11.569 -0.0345  0.8926 -0.1983
 8517SOL     OW37009   2.546   3.325   2.745 -0.3772  0.6741 -0.0549
 8517SOL    HW137010   2.495   3.255   2.786 -0.3974  0.5719 -0.2535
 8517SOL    HW237011   2.500   3.394   2.792  0.6387  1.3070 -0.0147
 8518SOL     OW37012   1.242   3.912  12.833 -0.4830  0.3268 -0.0159
 8518SOL    HW137013   1.170   3.870  12.787  1.1709 -1.4052 -1.0078
 8518SOL    HW237014   1.270   3.839  12.888  0.5297 -0.0614 -1.0538
 8519SOL     OW37015   2.530   4.716   6.715 -0.0044 -0.3614 -0.2311
 8519SOL    HW137016   2.496   0.055   6.779 -0.5034 -1.2844  0.3838
 8519SOL    HW237017   2.458   4.697   6.655 -0.4572 -1.0772  0.5532
 8520SOL     OW37018   3.474   1.635   2.287  0.0156 -0.0307 -0.2767
 8520SOL    HW137019   3.457   1.642   2.193  1.3233 -0.4676 -0.5434
 8520SOL    HW237020   3.387   1.644   2.326  1.0821 -1.7449  2.4747
 8521SOL     OW37021   1.293   1.285   7.769  0.2997  0.2357  0.0323
 8521SOL    HW137022   1.254   1.206   7.731  1.0108 -0.6331  1.1267
 8521SOL    HW237023   1.221   1.339   7.801 -0.1174  1.5955 -3.2467
 8522SOL     OW37024   2.427   3.160   5.236 -0.1538  0.1879  0.0709
 8522SOL    HW137025   2.373   3.084   5.259 -0.2025  0.2298  0.0957
 8522SOL    HW237026   2.513   3.120   5.247  0.4227  1.0069 -1.4979
 8523SOL     OW37027   2.160   2.777   2.221  0.5108 -0.3694  0.5338
 8523SOL    HW137028   2.107   2.854   2.199  1.7807  0.0040 -1.2225
 8523SOL    HW237029   2.103   2.704   2.199 -0.1238  1.0119 -2.4667
 8524SOL     OW37030   2.910   1.905   9.498 -0.2130  0.2192  0.0124
 8524SOL    HW137031   2.993   1.857   9.506 -0.7095 -0.6452 -0.0464
 8524SOL    HW237032   2.941   1.988   9.463  0.1349 -0.3096 -0.9107
 8525SOL     OW37033   1.952   0.497  17.117  0.0648  0.4864  0.6279
 8525SOL    HW137034   2.045   0.519  17.116  0.5455 -1.6198  1.2329
 8525SOL    HW237035   1.969   0.404  17.102 -0.8212  0.8514 -2.7143
 8526SOL     OW37036   3.710   4.147   4.869 -0.1365  0.5661 -0.4572
 8526SOL    HW137037   3.675   4.217   4.814 -0.3622  0.0810 -0.9266
 8526SOL    HW237038   3.630   4.115   4.910  0.4132  0.8210  0.8054
 8527SOL     OW37039   0.150   3.556   2.694  0.1007  0.0492 -1.1084
 8527SOL    HW137040   0.208   3.618   2.649  0.0214  0.1455 -1.0795
 8527SOL    HW237041   0.077   3.618   2.691 -0.6001 -0.5886  2.5774
 8528SOL     OW37042   1.563   3.736   6.332  0.3925  0.4962 -0.3742
 8528SOL    HW137043   1.580   3.754   6.425 -2.2308  1.5061 -0.0836
 8528SOL    HW237044   1.559   3.640   6.336  3.6088  0.3509 -0.5196
 8529SOL     OW37045   3.793   1.323  15.896 -0.1505 -0.3624  0.2480
 8529SOL    HW137046   3.846   1.297  15.972 -0.5206  0.7669  0.8843
 8529SOL    HW237047   3.704   1.294  15.914 -0.4003  0.9460  1.1627
 8530SOL     OW37048   1.946   2.209   7.005  0.4961 -0.1774 -0.5173
 8530SOL    HW137049   1.925   2.254   6.923  2.7913 -0.3918 -1.2105
 8530SOL    HW237050   1.973   2.283   7.060 -0.4623  0.4057 -0.8275
 8531SOL     OW37051   2.286   1.281  17.117  0.4256  0.4102  0.4651
 8531SOL    HW137052   2.353   1.336  17.075  1.7519  0.2652  2.4344
 8531SOL    HW237053   2.280   1.216  17.047 -1.7112  0.5579  0.5014
 8532SOL     OW37054   2.890   3.422   3.714 -0.2302  0.1880  0.4601
 8532SOL    HW137055   2.964   3.437   3.774 -0.7571  2.6867  0.5140
 8532SOL    HW237056   2.859   3.509   3.687  0.1409  0.3404  0.5231
 8533SOL     OW37057   1.243   4.468   4.017  0.0571  0.5513  0.4051
 8533SOL    HW137058   1.300   4.395   4.041 -0.1256 -0.3717 -1.9529
 8533SOL    HW237059   1.298   4.519   3.957 -0.5363 -1.5934 -1.9329
 8534SOL     OW37060   3.531   2.641   2.303 -0.0828 -0.0922 -0.2562
 8534SOL    HW137061   3.442   2.677   2.295 -0.9441 -2.0468  0.2955
 8534SOL    HW237062   3.565   2.700   2.370  0.8076 -0.9666  0.0595
 8535SOL     OW37063   4.340   2.671   0.413  0.0367  0.3251  0.3915
 8535SOL    HW137064   4.341   2.729   0.489  2.1860 -1.0894  1.4431
 8535SOL    HW237065   4.422   2.624   0.428 -0.1396 -0.0278  0.2598
 8536SOL     OW37066   4.579   1.009   8.109  0.3151  0.2667  0.0604
 8536SOL    HW137067   4.497   0.960   8.117  0.2256  0.5292  0.7780
 8536SOL    HW237068   4.638   0.956   8.162 -0.4607  0.1721  0.8377
 8537SOL     OW37069   4.610   3.525  10.574  0.5658 -0.4481 -0.1500
 8537SOL    HW137070   4.568   3.591  10.519  0.5780  0.1584  0.5587
 8537SOL    HW237071   4.693   3.510  10.529 -0.3686  1.4461 -2.4687
 8538SOL     OW37072   1.512   4.541   2.382  0.2169 -0.1609 -0.4995
 8538SOL    HW137073   1.487   4.631   2.361  0.4294 -0.8126 -3.5134
 8538SOL    HW237074   1.592   4.544   2.435 -0.0704  1.7298 -0.1822
 8539SOL     OW37075   2.073   1.080  12.254  0.0308  0.1951  0.8371
 8539SOL    HW137076   2.152   1.037  12.287  1.2531  3.1654  1.8461
 8539SOL    HW237077   2.085   1.063  12.161  0.8547  1.6474  0.6628
 8540SOL     OW37078   4.219   0.549   6.662  0.3825  0.4822  0.6288
 8540SOL    HW137079   4.191   0.604   6.736  0.7071  1.0274  0.3433
 8540SOL    HW237080   4.262   0.479   6.711 -1.5684 -0.5449  0.8998
 8541SOL     OW37081   2.610   0.455  12.182  0.3655  0.1443  0.3089
 8541SOL    HW137082   2.652   0.540  12.197 -0.9708  1.1028 -1.3030
 8541SOL    HW237083   2.602   0.434  12.275 -0.7551 -1.8229 -0.2341
 8542SOL     OW37084   0.950   2.323  15.869  0.2951 -0.1103  0.8196
 8542SOL    HW137085   0.973   2.232  15.850 -1.1937 -0.0644 -1.2867
 8542SOL    HW237086   0.975   2.342  15.959  0.8346  2.5697  0.1202
 8543SOL     OW37087   4.682   3.768   6.486 -0.5901 -0.1464  0.0285
 8543SOL    HW137088   0.024   3.700   6.503  0.2187  0.2239 -1.5515
 8543SOL    HW237089   4.697   3.820   6.566  0.8278 -0.1689 -0.2243
 8544SOL     OW37090   3.141   0.506   0.222  0.1943 -0.3465 -0.1894
 8544SOL    HW137091   3.144   0.601   0.207 -0.1820 -0.4405 -0.8568
 8544SOL    HW237092   3.096   0.483   0.141  1.2380 -2.1213 -0.2649
 8545SOL     OW37093   0.621   3.092  11.438 -0.7569 -0.1142 -0.2594
 8545SOL    HW137094   0.684   3.070  11.369  0.8895 -1.2149  1.5956
 8545SOL    HW237095   0.584   3.175  11.409 -0.6552 -0.3830 -1.1554
 8546SOL     OW37096   4.353   4.411   4.532 -0.4332  0.3455  0.1803
 8546SOL    HW137097   4.345   4.413   4.628  0.4093  0.3028  0.2495
 8546SOL    HW237098   4.277   4.460   4.499 -1.1002 -0.2552  0.8347
 8547SOL     OW37099   0.416   4.685   6.303  0.0632 -0.0545 -0.0542
 8547SOL    HW137100   0.501   4.693   6.261 -1.2096 -1.1111 -2.8527
 8547SOL    HW237101   0.439   4.671   6.395  2.1879 -0.2990 -0.6386
 8548SOL     OW37102   1.673   0.197   3.297 -0.0676 -0.3749 -0.1131
 8548SOL    HW137103   1.648   0.275   3.347 -1.8549 -0.5496 -0.7390
 8548SOL    HW237104   1.765   0.217   3.280  0.1988 -0.1587  1.5865
 8549SOL     OW37105   1.851   2.849   7.764 -0.2235  0.0567  0.4390
 8549SOL    HW137106   1.875   2.938   7.738 -1.6438 -0.0966 -1.4370
 8549SOL    HW237107   1.762   2.855   7.801 -0.2115  0.2584  0.4365
 8550SOL     OW37108   0.067   3.110   1.252  0.0811  0.1728  0.5867
 8550SOL    HW137109   0.017   3.109   1.171  3.4230  0.7682 -1.4773
 8550SOL    HW237110   0.054   3.199   1.284  1.1522  0.0931  1.2589
 8551SOL     OW37111   3.377   2.396  13.775  0.3227 -0.0537  0.2123
 8551SOL    HW137112   3.372   2.357  13.862  2.2734 -1.0719 -0.1144
 8551SOL    HW237113   3.454   2.451  13.790 -0.6504  1.4277 -0.2534
 8552SOL     OW37114   4.213   3.871   5.341 -0.2786  0.8213 -0.0623
 8552SOL    HW137115   4.124   3.886   5.308 -1.4595 -2.1121  1.7610
 8552SOL    HW237116   4.212   3.923   5.422  1.5249 -0.6509  0.9101
 8553SOL     OW37117   0.474   0.028   3.595 -0.0863 -0.1795 -0.2215
 8553SOL    HW137118   0.525   0.050   3.517  1.7525 -0.4067  0.9141
 8553SOL    HW237119   0.523   0.074   3.662 -1.4158 -1.6346  1.7407
 8554SOL     OW37120   4.721   3.179  16.452  0.2747 -0.2415 -0.4612
 8554SOL    HW137121   4.644   3.221  16.413  1.2822  2.5902  0.5645
 8554SOL    HW237122   0.055   3.200  16.378 -2.1596  0.8776 -2.0403
 8555SOL     OW37123   3.220   1.239  12.399  0.3710  0.1893  0.4378
 8555SOL    HW137124   3.224   1.242  12.495  1.1878  1.6071  0.3624
 8555SOL    HW237125   3.230   1.332  12.377  2.4179  0.8039  3.8737
 8556SOL     OW37126   1.281   0.461  16.864 -0.5166 -0.7836 -0.0050
 8556SOL    HW137127   1.224   0.425  16.796 -2.8217  2.3887  0.2421
 8556SOL    HW237128   1.327   0.384  16.896  1.9697  0.5082 -0.4921
 8557SOL     OW37129   2.650   1.347   8.468 -0.1033  0.1572 -0.2423
 8557SOL    HW137130   2.569   1.393   8.446  0.9862  1.3141 -1.8096
 8557SOL    HW237131   2.604   1.267   8.495  1.6970 -0.8045 -0.0444
 8558SOL     OW37132   4.086   2.269   0.904 -0.2228 -0.1006  0.2057
 8558SOL    HW137133   4.065   2.240   0.993  1.2032 -3.7870 -0.6587
 8558SOL    HW237134   4.003   2.310   0.878 -0.8995 -1.2659  0.5063
 8559SOL     OW37135   3.580   2.267   8.843  0.0853  0.2950  0.2083
 8559SOL    HW137136   3.572   2.179   8.880 -0.3313  0.1579 -0.2071
 8559SOL    HW237137   3.554   2.307   8.926 -1.7778  1.0916 -0.7693
 8560SOL     OW37138   1.790   4.583   9.776  0.2553  0.0391 -0.0157
 8560SOL    HW137139   1.706   4.540   9.756  0.7969 -0.0199 -2.1909
 8560SOL    HW237140   1.786   4.576   9.871  3.5916  0.4468  0.1540
 8561SOL     OW37141   1.846   3.482   6.854 -0.1054 -0.2540  0.3861
 8561SOL    HW137142   1.910   3.423   6.815  1.5959  0.2086  2.4399
 8561SOL    HW237143   1.809   3.530   6.780  0.5290 -0.9649 -0.3852
 8562SOL     OW37144   2.064   2.773   0.886 -0.0310  0.1571  0.0365
 8562SOL    HW137145   2.016   2.697   0.920  0.1905 -0.1613 -0.3493
 8562SOL    HW237146   2.016   2.795   0.807  1.5595  0.9973 -0.6947
 8563SOL     OW37147   4.296   1.166   9.416 -0.9390 -0.7993  0.0428
 8563SOL    HW137148   4.327   1.105   9.483  1.4471 -2.6558 -2.7525
 8563SOL    HW237149   4.283   1.095   9.353  1.7724 -2.6340  1.5569
 8564SOL     OW37150   0.352   1.041   1.775 -0.4906 -0.1707 -0.1431
 8564SOL    HW137151   0.429   1.008   1.728  0.3095 -0.6046  1.4784
 8564SOL    HW237152   0.290   0.974   1.747 -1.6756  0.0583  1.9267
 8565SOL     OW37153   2.736   2.104  17.480 -0.0261 -0.4029 -0.1761
 8565SOL    HW137154   2.773   2.161  17.546  0.1370 -0.0650 -0.5587
 8565SOL    HW237155   2.774   2.018  17.498 -0.5954 -0.9093 -1.3035
 8566SOL     OW37156   3.409   3.257   0.329 -0.0909 -0.2854 -0.1848
 8566SOL    HW137157   3.494   3.253   0.372 -0.5356  2.6252  0.9712
 8566SOL    HW237158   3.348   3.258   0.403 -1.1065  0.6206 -1.0381
 8567SOL     OW37159   3.776   1.199  14.650 -0.1881  0.0143  0.3556
 8567SOL    HW137160   3.734   1.120  14.618  2.4889 -1.1246 -0.3097
 8567SOL    HW237161   3.713   1.259  14.610 -1.0896  0.2578  2.1042
 8568SOL     OW37162   2.820   2.813   7.480  0.1944 -0.3243 -0.0040
 8568SOL    HW137163   2.879   2.745   7.447 -1.0314 -1.7899  0.8283
 8568SOL    HW237164   2.750   2.767   7.526 -0.9274  1.1630 -0.2273
 8569SOL     OW37165   2.200   4.625   1.483  0.2138 -0.5336  0.4231
 8569SOL    HW137166   2.218   4.716   1.509  0.4980 -1.2308  2.6580
 8569SOL    HW237167   2.228   4.583   1.564  0.3611  1.0260  1.1840
 8570SOL     OW37168   2.659   2.002   8.922  0.2218  0.0664  0.5373
 8570SOL    HW137169   2.721   1.983   8.851  0.2095  0.9071  0.3009
 8570SOL    HW237170   2.713   1.971   8.996 -1.1620 -2.3056  0.5538
 8571SOL     OW37171   3.515   0.797   8.998 -0.4379 -0.0547 -0.4208
 8571SOL    HW137172   3.471   0.725   9.044  0.1697 -0.1703 -0.0158
 8571SOL    HW237173   3.456   0.812   8.925 -1.7872 -0.6393  0.5571
 8572SOL     OW37174   1.577   3.223  15.622  0.4109  0.1651 -0.0025
 8572SOL    HW137175   1.494   3.176  15.615 -0.7462  1.7977  2.9727
 8572SOL    HW237176   1.561   3.290  15.688  0.6428  1.6999 -1.5049
 8573SOL     OW37177   1.248   4.198  10.920  0.2670  0.4955  0.3660
 8573SOL    HW137178   1.277   4.289  10.922  0.1880  0.4830  1.8818
 8573SOL    HW237179   1.192   4.192  10.998 -1.7262  0.5992 -1.0629
 8574SOL     OW37180   4.686   4.105  12.751  1.1100 -0.5701  0.1298
 8574SOL    HW137181   4.619   4.115  12.818  1.1270 -1.3433  0.2640
 8574SOL    HW237182   4.693   4.010  12.740 -1.6873 -0.9057  1.2099
 8575SOL     OW37183   2.480   0.310   3.676 -0.3896  0.0339 -0.5762
 8575SOL    HW137184   2.511   0.228   3.716 -1.2416  1.2741  2.6250
 8575SOL    HW237185   2.542   0.318   3.604 -0.3001  0.0073 -0.5022
 8576SOL     OW37186   4.700   1.578   7.091  0.4649 -0.2100  0.2229
 8576SOL    HW137187   4.690   1.513   7.160  1.7100 -1.4128 -0.7325
 8576SOL    HW237188   4.699   1.530   7.007 -0.2834  2.3207 -1.2108
 8577SOL     OW37189   4.405   1.505  13.046  0.5488 -0.0020  0.3900
 8577SOL    HW137190   4.429   1.580  12.991  0.1351 -0.3633 -0.2784
 8577SOL    HW237191   4.310   1.506  13.047  0.5832  0.5250  2.9563
 8578SOL     OW37192   1.416   0.416   4.804  0.0724  0.2146 -0.0788
 8578SOL    HW137193   1.488   0.449   4.751  0.0344  0.7966  0.2279
 8578SOL    HW237194   1.380   0.360   4.736  2.6458 -1.0691 -0.3886
 8579SOL     OW37195   0.928   1.168   7.290  0.0694 -0.4281  0.4423
 8579SOL    HW137196   0.946   1.135   7.202  0.3084  0.5934  0.1071
 8579SOL    HW237197   0.865   1.236   7.266 -0.3025 -0.8524  0.2226
 8580SOL     OW37198   4.301   3.597   0.580 -0.4765  0.2461 -0.3723
 8580SOL    HW137199   4.288   3.567   0.670  3.2321  0.2600  0.1665
 8580SOL    HW237200   4.279   3.519   0.528 -2.3339  0.3799  0.2063
 8581SOL     OW37201   4.709   2.430  17.232 -0.0470  0.4477  0.4360
 8581SOL    HW137202   0.050   2.360  17.219 -1.7758 -1.0148 -0.1617
 8581SOL    HW237203   4.679   2.431  17.141  1.1924 -1.9245  0.0146
 8582SOL     OW37204   2.036   1.379   6.784  0.0806 -0.2195  0.1706
 8582SOL    HW137205   2.024   1.469   6.812  0.5762  0.1310 -0.7522
 8582SOL    HW237206   1.966   1.370   6.720  0.0248 -0.4297  0.2577
 8583SOL     OW37207   3.941   2.248   9.798 -0.2097  0.2947  0.2204
 8583SOL    HW137208   3.955   2.266   9.705  0.1016  0.3573  0.2807
 8583SOL    HW237209   3.966   2.155   9.796  0.3379  0.4313  0.8553
 8584SOL     OW37210   3.755   2.336   9.956 -0.0882 -0.3233  0.2254
 8584SOL    HW137211   3.683   2.358   9.896  1.6542 -0.0563 -1.7342
 8584SOL    HW237212   3.818   2.296   9.897 -0.3475  1.0528 -0.9915
 8585SOL     OW37213   2.588   0.247   6.873  0.0776  0.4507  0.3147
 8585SOL    HW137214   2.499   0.222   6.846  0.2599 -0.4946  0.5826
 8585SOL    HW237215   2.616   0.306   6.803 -2.0987  1.3509  0.2064
 8586SOL     OW37216   2.913   1.166   3.970  0.1009 -0.2063 -0.1844
 8586SOL    HW137217   2.860   1.127   3.900 -0.3717  1.1102 -0.5659
 8586SOL    HW237218   2.992   1.114   3.956 -0.4905 -0.8230 -1.1938
 8587SOL     OW37219   3.039   2.132   7.302  0.1429 -0.3794 -0.1663
 8587SOL    HW137220   3.065   2.222   7.321 -1.8311 -0.1095  1.3608
 8587SOL    HW237221   2.973   2.120   7.371  2.1478 -0.5890  1.7421
 8588SOL     OW37222   1.615   1.358   6.412 -0.6190  0.4289 -0.6895
 8588SOL    HW137223   1.675   1.432   6.410  2.0046 -1.7693 -1.8072
 8588SOL    HW237224   1.569   1.385   6.492 -0.4213  0.0918 -0.4635
 8589SOL     OW37225   3.611   3.827   6.019  0.8396  0.1793 -0.0485
 8589SOL    HW137226   3.523   3.809   6.052  2.7553 -2.3771  3.6722
 8589SOL    HW237227   3.611   3.922   6.010  1.3591  0.0174 -1.6327
 8590SOL     OW37228   0.077   4.263   6.548 -0.1984 -0.0000  0.0673
 8590SOL    HW137229   0.045   4.280   6.459  0.6189  0.7465 -0.0840
 8590SOL    HW237230   0.023   4.329   6.590  2.5884  3.0389 -1.1268
 8591SOL     OW37231   0.669   4.494   7.410  0.5073  0.5801 -0.0906
 8591SOL    HW137232   0.595   4.544   7.376  0.1306  0.6186  0.7866
 8591SOL    HW237233   0.733   4.559   7.437  0.1804 -0.0705  2.2677
 8592SOL     OW37234   4.357   2.569  17.590 -0.2514 -0.2063  0.5103
 8592SOL    HW137235   4.407   2.648  17.608 -0.5527  0.4147 -1.3963
 8592SOL    HW237236   4.378   2.511  17.664  1.8089  0.6126  0.5698
 8593SOL     OW37237   0.360   0.482   2.943  0.1716  0.0452 -0.3456
 8593SOL    HW137238   0.326   0.481   2.854 -0.5769 -1.3752 -0.0371
 8593SOL    HW237239   0.410   0.401   2.942  1.0689  0.5552  1.9174
 8594SOL     OW37240   4.053   0.920   7.291 -0.1633  0.0772  0.7000
 8594SOL    HW137241   4.111   0.985   7.251  0.4905 -0.0235  1.4972
 8594SOL    HW237242   4.053   0.960   7.378 -0.4795 -0.4607  0.9474
 8595SOL     OW37243   3.170   3.933  11.989 -0.6198  0.1325 -0.6984
 8595SOL    HW137244   3.239   3.873  11.961  0.1121  0.4913  0.3339
 8595SOL    HW237245   3.112   3.948  11.914 -1.8262 -2.2706 -0.2764
 8596SOL     OW37246   3.035   2.942  14.215 -0.0372 -0.0435 -0.4086
 8596SOL    HW137247   3.130   2.935  14.218 -0.0512 -0.0997 -0.0999
 8596SOL    HW237248   3.003   2.852  14.224  0.3324 -0.0414  0.9238
 8597SOL     OW37249   4.274   0.769  13.310  0.1918  0.4454  0.3379
 8597SOL    HW137250   4.331   0.835  13.349  2.0046 -0.4501 -0.8520
 8597SOL    HW237251   4.333   0.696  13.324 -2.0282 -1.2119  1.0401
 8598SOL     OW37252   0.363   0.449  16.768  0.2878  0.5921  0.6727
 8598SOL    HW137253   0.342   0.484  16.854 -2.2705  0.6955 -0.0094
 8598SOL    HW237254   0.378   0.534  16.726  1.8445  0.6778  1.4056
 8599SOL     OW37255   1.407   0.027   6.558  0.0876 -0.3929 -0.0259
 8599SOL    HW137256   1.412   4.689   6.485 -2.9112 -1.6317  0.8448
 8599SOL    HW237257   1.499   0.041   6.584 -0.6026  0.8583  1.7797
 8600SOL     OW37258   1.646   1.742   3.905 -0.4333 -1.0477  0.5705
 8600SOL    HW137259   1.710   1.753   3.976 -0.2508  1.6176 -0.0022
 8600SOL    HW237260   1.697   1.674   3.861  2.3425 -0.1531  2.4167
 8601SOL     OW37261   0.623   0.036   8.490  0.2882 -0.4611 -0.5749
 8601SOL    HW137262   0.582   0.072   8.411  0.9524 -0.1066 -0.7586
 8601SOL    HW237263   0.672   4.689   8.446  0.2692 -1.1415  0.4936
 8602SOL     OW37264   3.171   2.530  15.681  0.3174 -0.6063  0.1261
 8602SOL    HW137265   3.116   2.558  15.608 -0.1452 -1.1069  0.2846
 8602SOL    HW237266   3.226   2.608  15.670 -0.1900 -0.0862  1.1586
 8603SOL     OW37267   0.337   2.260   5.290  0.1487  0.1491  0.0597
 8603SOL    HW137268   0.310   2.346   5.321 -1.2595 -0.3448  0.1900
 8603SOL    HW237269   0.349   2.213   5.373 -1.0067  2.4881  1.5630
 8604SOL     OW37270   4.251   2.180   7.314  0.6250 -0.5387 -0.0756
 8604SOL    HW137271   4.305   2.196   7.391 -1.1335  2.1163  0.6089
 8604SOL    HW237272   4.247   2.084   7.322 -0.4450 -0.6536 -1.8651
 8605SOL     OW37273   4.359   0.304   5.457 -0.2293 -0.1981  0.0358
 8605SOL    HW137274   4.272   0.286   5.494 -0.2788  0.4882  0.2528
 8605SOL    HW237275   4.402   0.245   5.519 -1.2563 -2.5057 -1.4409
 8606SOL     OW37276   0.884   4.663   7.531 -0.3932  0.0240 -0.0182
 8606SOL    HW137277   0.904   4.686   7.621  1.1953  0.0679 -0.3920
 8606SOL    HW237278   0.933   0.002   7.478  2.7182 -2.2758  0.1310
 8607SOL     OW37279   2.315   2.210   6.943  0.5285  0.2203  0.3034
 8607SOL    HW137280   2.411   2.214   6.949  0.5267 -0.2242  0.6613
 8607SOL    HW237281   2.305   2.259   7.025 -0.1594  2.2615 -1.0186
 8608SOL     OW37282   4.366   1.789   2.984  0.1413  0.3040  0.0574
 8608SOL    HW137283   4.421   1.792   3.063  0.5854 -1.5557 -0.1714
 8608SOL    HW237284   4.410   1.718   2.937  2.0400  1.2444  0.3959
 8609SOL     OW37285   2.310   0.536   1.789  0.4065  0.3374  0.2498
 8609SOL    HW137286   2.379   0.490   1.739 -1.9257 -2.0180 -0.8010
 8609SOL    HW237287   2.243   0.468   1.795  0.0961  0.3346 -3.1792
 8610SOL     OW37288   1.894   2.044  10.922 -0.3076  0.1988 -0.0759
 8610SOL    HW137289   1.919   1.957  10.891  1.4434  1.0940 -1.2132
 8610SOL    HW237290   1.805   2.060  10.890 -0.4385  1.0364  0.7004
 8611SOL     OW37291   0.274   1.421   4.189  1.1179  0.4982 -0.0055
 8611SOL    HW137292   0.244   1.338   4.226  0.9833  0.9457  0.9119
 8611SOL    HW237293   0.192   1.461   4.158  0.8923  1.6086  2.0064
 8612SOL     OW37294   2.200   0.306  16.086 -0.2961  0.2487  0.4767
 8612SOL    HW137295   2.243   0.386  16.056  0.2557  0.1482  1.0020
 8612SOL    HW237296   2.131   0.339  16.143 -1.7341 -0.9308 -0.5986
 8613SOL     OW37297   2.386   2.160  12.856  0.5807  0.1630 -0.0535
 8613SOL    HW137298   2.402   2.253  12.837  0.5019  0.3760  0.9525
 8613SOL    HW237299   2.422   2.112  12.781  0.2814  0.6984 -0.5481
 8614SOL     OW37300   4.120   2.575   5.629 -0.1226 -1.0811 -0.1765
 8614SOL    HW137301   4.143   2.542   5.716  1.1457 -1.9495 -0.8429
 8614SOL    HW237302   4.191   2.542   5.574  0.0821 -0.9620  0.0166
 8615SOL     OW37303   4.317   3.383   0.400  0.0838  0.4538  0.1356
 8615SOL    HW137304   4.378   3.337   0.342  0.0872 -0.0140  0.5113
 8615SOL    HW237305   4.278   3.437   0.332  0.3459  0.5327  0.0454
 8616SOL     OW37306   1.770   1.890   8.489 -0.4100 -0.4156 -0.6733
 8616SOL    HW137307   1.743   1.973   8.450  1.8937 -0.0100 -1.3833
 8616SOL    HW237308   1.788   1.930   8.574 -2.7109 -1.6979  0.4133
 8617SOL     OW37309   0.951   2.054  15.409 -0.3994 -0.2122 -0.3474
 8617SOL    HW137310   0.972   1.978  15.463  1.9008  0.8836  0.3338
 8617SOL    HW237311   0.877   2.021  15.357 -0.5907 -0.5652  0.1519
 8618SOL     OW37312   3.563   0.654  16.245 -0.6969  0.3048 -0.0958
 8618SOL    HW137313   3.478   0.684  16.276 -0.7348 -0.7608  0.7989
 8618SOL    HW237314   3.575   0.710  16.168 -0.5748  1.6744  0.8968
 8619SOL     OW37315   2.649   3.493   7.397 -0.3197 -0.6599 -0.5208
 8619SOL    HW137316   2.611   3.555   7.335 -0.4232  1.0555  1.2659
 8619SOL    HW237317   2.647   3.417   7.339 -0.2241 -0.6198 -0.5769
 8620SOL     OW37318   4.444   3.686  10.400  0.1508  0.3229 -0.2667
 8620SOL    HW137319   4.431   3.712  10.309  1.4268  0.3911 -0.4309
 8620SOL    HW237320   4.386   3.609  10.397  2.7212 -1.5388 -1.6505
 8621SOL     OW37321   0.307   0.464  12.053 -0.0799 -0.2890 -0.2555
 8621SOL    HW137322   0.290   0.493  12.143  1.3692 -2.2577  0.6549
 8621SOL    HW237323   0.294   0.545  12.003 -1.0897 -0.6207 -0.5243
 8622SOL     OW37324   0.462   2.691  10.276 -0.2694 -0.0440  0.1341
 8622SOL    HW137325   0.472   2.762  10.212 -0.3610  0.6716  0.9061
 8622SOL    HW237326   0.542   2.703  10.328 -0.2455  1.0859 -0.1495
 8623SOL     OW37327   0.516   1.607  13.177 -0.0143  0.2680 -0.1014
 8623SOL    HW137328   0.522   1.699  13.149  0.7928  0.5480  0.9821
 8623SOL    HW237329   0.596   1.589  13.225 -0.3754 -0.2186  0.3211
 8624SOL     OW37330   2.838   2.958   6.930  0.5605 -0.0856  0.0250
 8624SOL    HW137331   2.921   2.999   6.953  0.6009 -0.9068  1.3276
 8624SOL    HW237332   2.780   3.029   6.957  0.2312 -0.2768 -0.1801
 8625SOL     OW37333   4.386   1.812   8.028  1.1092 -0.4687 -0.5440
 8625SOL    HW137334   4.302   1.789   8.068  0.9228  0.5846 -0.3418
 8625SOL    HW237335   4.435   1.779   8.104 -1.8024  0.2614  1.6582
 8626SOL     OW37336   0.283   1.206   0.042  0.6291 -0.3900  0.1170
 8626SOL    HW137337   0.241   1.285   0.010  1.6713  0.5613  1.0819
 8626SOL    HW237338   0.335   1.256   0.105 -1.0475  0.1403  1.0781
 8627SOL     OW37339   1.779   1.045   6.718 -0.2142 -0.5580  0.7603
 8627SOL    HW137340   1.749   0.982   6.784 -2.0400 -0.7399 -0.2543
 8627SOL    HW237341   1.873   1.028   6.706 -0.2985 -1.5896  1.5358
 8628SOL     OW37342   2.751   2.973  17.405  0.1746  0.7664 -0.2128
 8628SOL    HW137343   2.778   2.903  17.345  0.5325 -0.1906  1.0591
 8628SOL    HW237344   2.663   2.949  17.434  0.5078 -1.0760 -0.7007
 8629SOL     OW37345   1.009   3.004   7.043 -0.0650  0.4520  0.1898
 8629SOL    HW137346   0.934   2.947   7.023 -0.5439  1.5892 -1.1931
 8629SOL    HW237347   0.977   3.033   7.129  0.1031  0.0327  0.3956
 8630SOL     OW37348   2.126   1.556   7.000  0.9919 -0.4018 -0.1949
 8630SOL    HW137349   2.178   1.633   6.980 -0.7216  1.1512  1.3641
 8630SOL    HW237350   2.192   1.487   6.997  3.8172  2.2759  0.7183
 8631SOL     OW37351   0.740   1.866   7.530  0.2722  0.2354 -0.3877
 8631SOL    HW137352   0.742   1.773   7.552  1.2881  0.5318  0.7476
 8631SOL    HW237353   0.830   1.896   7.517 -0.0092  1.4871  0.6046
 8632SOL     OW37354   1.895   3.709   5.719  0.3030 -0.3244 -0.6620
 8632SOL    HW137355   1.979   3.662   5.715 -0.1249 -1.1612  0.3468
 8632SOL    HW237356   1.868   3.679   5.806  0.1962 -1.1350 -0.9766
 8633SOL     OW37357   3.590   0.408   4.415 -0.4113  0.6132 -0.2816
 8633SOL    HW137358   3.667   0.378   4.365 -0.5459 -0.6752  0.2715
 8633SOL    HW237359   3.534   0.424   4.339 -2.2739  0.3317  1.0609
 8634SOL     OW37360   3.369   0.772   8.772 -0.2027  0.4182  0.0842
 8634SOL    HW137361   3.417   0.785   8.690  0.0608  0.6120  0.2718
 8634SOL    HW237362   3.279   0.749   8.748  0.2053 -1.0797  0.0153
 8635SOL     OW37363   0.668   1.883   1.742 -0.0618  0.3699  0.0362
 8635SOL    HW137364   0.648   1.800   1.699 -1.3545  0.7047 -0.0193
 8635SOL    HW237365   0.581   1.921   1.752 -0.2077  0.1457 -0.4072
 8636SOL     OW37366   2.523   2.315   7.677 -0.3344 -0.0785 -0.3529
 8636SOL    HW137367   2.592   2.348   7.735 -2.4526 -0.6342  2.5474
 8636SOL    HW237368   2.444   2.357   7.712  0.3103  1.1957 -0.4272
 8637SOL     OW37369   2.703   4.026   2.118  0.1754 -0.3947  0.4039
 8637SOL    HW137370   2.642   4.099   2.104  0.3725  0.0299  1.7907
 8637SOL    HW237371   2.744   4.012   2.033  0.5358  0.6926  0.3940
 8638SOL     OW37372   0.024   3.346   4.096 -0.4084  0.2903  0.1480
 8638SOL    HW137373   0.089   3.396   4.048 -0.8080  0.6085 -0.0689
 8638SOL    HW237374   4.675   3.409   4.094 -0.1558  0.5093 -1.7756
 8639SOL     OW37375   2.014   2.377   7.229  0.0407 -0.4382  0.1705
 8639SOL    HW137376   1.999   2.344   7.317 -1.2914  0.5876  0.3330
 8639SOL    HW237377   2.030   2.469   7.249 -1.9035  0.2248 -1.2779
 8640SOL     OW37378   0.028   0.243   1.554 -0.0726  0.1068 -0.0764
 8640SOL    HW137379   0.106   0.295   1.536  1.4528 -2.2514 -0.1754
 8640SOL    HW237380   0.056   0.186   1.625  1.9394 -1.0023 -1.7914
 8641SOL     OW37381   3.611   2.679   7.406  0.0509  0.3506  0.0596
 8641SOL    HW137382   3.682   2.644   7.351 -0.0395  0.2628 -0.0019
 8641SOL    HW237383   3.574   2.742   7.344 -0.4404 -0.4842 -0.5089
 8642SOL     OW37384   3.526   1.903  13.258 -0.0977  0.1178  0.9558
 8642SOL    HW137385   3.432   1.895  13.241  0.0761 -1.0229  0.5150
 8642SOL    HW237386   3.531   1.995  13.284  0.0837 -0.0261  1.4359
 8643SOL     OW37387   1.102   4.190   0.660 -0.2205 -0.0489 -0.0592
 8643SOL    HW137388   1.170   4.129   0.691 -4.0769 -4.0086  0.6645
 8643SOL    HW237389   1.149   4.261   0.617 -0.4602  1.5131  2.2494
 8644SOL     OW37390   3.644   4.591   6.677  0.2397  0.6579  1.1022
 8644SOL    HW137391   3.728   4.624   6.707  1.2188 -1.5366  0.8177
 8644SOL    HW237392   3.673   4.536   6.604  1.5482  0.6007  1.6659
 8645SOL     OW37393   2.877   4.118   9.824  0.1054  0.0591 -0.1462
 8645SOL    HW137394   2.915   4.108   9.911  0.8123 -1.6750 -0.6675
 8645SOL    HW237395   2.832   4.034   9.813  1.7017 -0.8677  0.5304
 8646SOL     OW37396   0.017   3.368   4.392 -0.3889  0.2574 -0.4221
 8646SOL    HW137397   0.082   3.438   4.401 -0.1473 -0.1908  1.2666
 8646SOL    HW237398   0.023   3.341   4.300  0.0898  1.3611 -0.7210
 8647SOL     OW37399   0.218   2.318  13.877 -0.2012  0.1093 -0.2291
 8647SOL    HW137400   0.238   2.366  13.796 -1.7399  2.4768  0.7814
 8647SOL    HW237401   0.284   2.357  13.934 -1.7176  2.1685  0.1470
 8648SOL     OW37402   1.972   4.093  17.265 -0.4517 -0.2123  0.9753
 8648SOL    HW137403   1.919   4.042  17.203 -0.9901  1.4411  0.0991
 8648SOL    HW237404   1.991   4.017  17.321  3.0515 -0.1105 -0.0542
 8649SOL     OW37405   1.830   3.143   4.660  0.0452  0.3964  0.3581
 8649SOL    HW137406   1.741   3.115   4.683  0.9450 -1.2500  1.8554
 8649SOL    HW237407   1.846   3.182   4.746  0.5018  3.2496 -1.0049
 8650SOL     OW37408   1.411   2.521   6.178  0.1261  0.5270  0.2657
 8650SOL    HW137409   1.444   2.531   6.089 -1.5072  0.3757 -0.3582
 8650SOL    HW237410   1.390   2.428   6.171  2.0278 -0.1131  2.8658
 8651SOL     OW37411   2.616   2.254  12.501  0.1377 -0.0182 -0.0317
 8651SOL    HW137412   2.597   2.162  12.518 -1.2170  0.4062  0.7372
 8651SOL    HW237413   2.658   2.248  12.415  0.7421 -1.4531  0.3573
 8652SOL     OW37414   3.038   3.043  11.057  0.1809 -0.3521  0.1526
 8652SOL    HW137415   3.081   3.042  11.142 -1.8487  2.8531  1.2232
 8652SOL    HW237416   2.997   2.956  11.064  0.6017 -0.5656 -0.0602
 8653SOL     OW37417   3.242   2.691   6.799  0.0520  0.4500  0.7013
 8653SOL    HW137418   3.149   2.712   6.788  0.6757  2.3437 -0.9349
 8653SOL    HW237419   3.264   2.758   6.863  1.8748  0.1255  0.4154
 8654SOL     OW37420   2.747   2.799   1.835 -0.0288  0.1919  0.0497
 8654SOL    HW137421   2.703   2.735   1.779  2.7315 -2.1603  0.5457
 8654SOL    HW237422   2.841   2.794   1.821  0.2178 -0.0850  1.7630
 8655SOL     OW37423   3.157   4.382   6.829 -0.1986  0.1415 -0.6703
 8655SOL    HW137424   3.095   4.447   6.795  0.1164 -0.3108 -2.1341
 8655SOL    HW237425   3.237   4.412   6.786 -0.7308  2.0571 -0.3345
 8656SOL     OW37426   3.731   2.426   3.226  0.4349 -0.4368  0.3374
 8656SOL    HW137427   3.662   2.418   3.292 -0.0883  2.1058  0.0738
 8656SOL    HW237428   3.756   2.333   3.218 -1.0271 -0.8451  0.5824
 8657SOL     OW37429   2.315   4.159   9.062  0.3801  0.1219 -0.0139
 8657SOL    HW137430   2.273   4.243   9.043  0.0475  0.6621  3.1270
 8657SOL    HW237431   2.237   4.104   9.052 -0.6374  0.8781  4.0017
 8658SOL     OW37432   2.649   2.581   6.103 -0.0958 -0.5255  0.5624
 8658SOL    HW137433   2.623   2.550   6.189 -0.5382  1.9425  1.3145
 8658SOL    HW237434   2.681   2.495   6.077 -1.5182 -1.0683  0.6144
 8659SOL     OW37435   1.764   1.162   7.959  0.0637 -0.7631 -0.1274
 8659SOL    HW137436   1.716   1.100   8.013  0.7309 -0.6025  0.6425
 8659SOL    HW237437   1.751   1.248   7.999  1.2348  0.2089 -1.8311
 8660SOL     OW37438   0.651   3.425   0.674  0.1972  0.3444 -0.5864
 8660SOL    HW137439   0.735   3.462   0.648  0.2248  0.1209 -0.8203
 8660SOL    HW237440   0.658   3.441   0.768  1.3930  2.1609 -0.9823
 8661SOL     OW37441   2.082   4.489   6.803 -0.4303 -0.1477  0.1772
 8661SOL    HW137442   2.035   4.466   6.722  0.5964 -0.2115 -0.3970
 8661SOL    HW237443   2.018   4.557   6.825  1.6923  1.9655 -0.2915
 8662SOL     OW37444   0.096   4.575  13.028  0.2561 -0.3489  0.0939
 8662SOL    HW137445   0.045   4.494  13.029 -0.7483  0.2796  0.2314
 8662SOL    HW237446   0.028   4.639  13.051 -2.2189 -2.3009 -1.7460
 8663SOL     OW37447   1.277   3.733   9.739 -0.4869  0.2412 -0.0885
 8663SOL    HW137448   1.241   3.818   9.714  0.1554  0.0540 -1.6591
 8663SOL    HW237449   1.213   3.708   9.806  1.2430  0.5757  1.7005
 8664SOL     OW37450   1.662   0.948   6.294 -1.1294 -0.5737 -0.4536
 8664SOL    HW137451   1.737   0.897   6.326  0.3010 -0.0653 -2.9393
 8664SOL    HW237452   1.635   0.995   6.372  0.0050  3.5257 -2.5695
 8665SOL     OW37453   3.358   0.086   5.623 -0.5717 -0.6165  0.1174
 8665SOL    HW137454   3.267   0.113   5.634 -1.7425 -3.1600 -3.2652
 8665SOL    HW237455   3.406   0.168   5.638 -0.7236 -0.2534 -1.3196
 8666SOL     OW37456   1.625   0.508   8.579 -0.0799 -0.2121  0.5239
 8666SOL    HW137457   1.646   0.542   8.666  0.6785 -1.7236  0.9421
 8666SOL    HW237458   1.691   0.439   8.564 -0.6199 -0.6654  0.2254
 8667SOL     OW37459   1.523   1.922   4.696 -0.5130 -0.7194 -0.0854
 8667SOL    HW137460   1.489   1.908   4.784  0.9533  1.2629  0.8074
 8667SOL    HW237461   1.445   1.905   4.644 -1.7173  2.3942  0.6940
 8668SOL     OW37462   3.484   3.217   3.489 -0.0407 -0.0332 -0.4673
 8668SOL    HW137463   3.391   3.215   3.512  0.6799  2.0217  2.6258
 8668SOL    HW237464   3.485   3.152   3.419 -0.3114 -1.6799  1.0379
 8669SOL     OW37465   1.629   2.328   2.398 -0.6228  0.0721  0.0438
 8669SOL    HW137466   1.573   2.272   2.344  2.1037 -0.3973 -2.2991
 8669SOL    HW237467   1.571   2.404   2.396 -0.3608  0.2180 -2.2628
 8670SOL     OW37468   1.315   4.402   5.784  0.1056 -0.1544 -0.0059
 8670SOL    HW137469   1.360   4.476   5.823 -1.0328  0.8708 -0.6519
 8670SOL    HW237470   1.396   4.351   5.783 -0.1232 -0.4847 -1.3525
 8671SOL     OW37471   3.205   1.415   6.142 -0.1179 -0.2374  0.1996
 8671SOL    HW137472   3.120   1.414   6.187  0.2374  1.2117  0.9188
 8671SOL    HW237473   3.204   1.341   6.083 -0.4558 -1.5889  1.9024
 8672SOL     OW37474   1.741   1.110   5.774  0.6564  0.2986  0.2934
 8672SOL    HW137475   1.780   1.091   5.688 -0.9848 -3.1205  0.2984
 8672SOL    HW237476   1.811   1.071   5.826 -1.0652 -2.4558  0.5479
 8673SOL     OW37477   4.245   1.879   5.081  0.2981  0.1138 -0.5810
 8673SOL    HW137478   4.272   1.967   5.107  1.5521 -0.1038 -1.1197
 8673SOL    HW237479   4.306   1.864   5.009 -1.1150  0.5634 -1.8564
 8674SOL     OW37480   3.688   4.480   4.775 -0.2336 -0.2313 -0.1114
 8674SOL    HW137481   3.704   4.485   4.869 -0.8169  0.4891 -0.0495
 8674SOL    HW237482   3.638   4.560   4.758 -0.8203 -0.5145  0.2589
 8675SOL     OW37483   0.649   2.045  17.549  0.3933  0.6076 -0.2950
 8675SOL    HW137484   0.627   1.952  17.542 -0.5723  0.6779  1.7252
 8675SOL    HW237485   0.666   2.063  17.641  0.6969 -2.5514  0.2909
 8676SOL     OW37486   2.287   1.419   4.102 -0.6493  0.1315 -0.1411
 8676SOL    HW137487   2.321   1.348   4.048 -0.6176  0.4082 -0.4775
 8676SOL    HW237488   2.367   1.470   4.092  1.0674 -2.7062 -1.0416
 8677SOL     OW37489   3.086   4.277   2.613  0.5384 -0.2012  0.2491
 8677SOL    HW137490   3.147   4.309   2.680 -1.4269 -0.2792  2.0720
 8677SOL    HW237491   3.143   4.224   2.558  2.5640 -0.6760  2.8259
 8678SOL     OW37492   2.256   2.099   3.850 -0.0818  0.3362  0.3374
 8678SOL    HW137493   2.275   2.169   3.912 -2.7273 -0.6913  2.3126
 8678SOL    HW237494   2.177   2.066   3.893  0.2920 -0.2787  0.5485
 8679SOL     OW37495   0.838   0.783   8.796  0.1841 -0.5590  0.2935
 8679SOL    HW137496   0.892   0.843   8.744  1.4673 -0.6437  1.5279
 8679SOL    HW237497   0.902   0.715   8.816 -0.3775 -0.7708  1.3393
 8680SOL     OW37498   1.429   2.046   0.750 -0.3312 -0.2465  0.0366
 8680SOL    HW137499   1.471   2.113   0.696  1.4325  0.0331  1.7471
 8680SOL    HW237500   1.487   2.044   0.825 -0.3704  0.5223  0.0869
 8681SOL     OW37501   0.462   1.716   0.208 -0.0449 -0.3469 -0.1940
 8681SOL    HW137502   0.411   1.781   0.257  0.8437  0.5333 -0.4263
 8681SOL    HW237503   0.547   1.729   0.249 -0.0430  2.7112 -1.1352
 8682SOL     OW37504   0.966   3.005   2.700  0.2246 -0.0989 -0.6644
 8682SOL    HW137505   1.013   2.929   2.735  3.1065  1.1411 -1.8003
 8682SOL    HW237506   0.880   2.983   2.735  0.5852 -0.0429  0.2638
 8683SOL     OW37507   2.940   3.710  10.771 -0.3346 -0.0806  0.3250
 8683SOL    HW137508   2.942   3.688  10.864  0.1528  1.6326  0.7057
 8683SOL    HW237509   3.013   3.771  10.763 -1.8977  1.3728 -3.0241
 8684SOL     OW37510   4.383   2.630   8.063 -0.5847 -0.2555  0.4078
 8684SOL    HW137511   4.401   2.723   8.050  3.1430 -1.4101 -2.6161
 8684SOL    HW237512   4.315   2.622   8.130 -1.4948 -0.3659 -0.5236
 8685SOL     OW37513   3.505   0.871   4.013 -0.4475 -0.2462  0.5032
 8685SOL    HW137514   3.486   0.875   4.107  0.4846  3.2048  0.5385
 8685SOL    HW237515   3.467   0.791   3.977  1.2235 -0.7475 -0.1645
 8686SOL     OW37516   3.551   4.403   5.717  0.9633 -0.0404 -0.2542
 8686SOL    HW137517   3.641   4.408   5.684  0.7637  2.0298 -0.4850
 8686SOL    HW237518   3.530   4.311   5.702  1.5649 -0.2988  0.4585
 8687SOL     OW37519   2.752   1.678   5.013  0.6565 -0.6440  0.4057
 8687SOL    HW137520   2.722   1.634   5.093 -0.3221 -0.7174 -0.0148
 8687SOL    HW237521   2.840   1.642   5.000  1.5722  0.6477  2.9836
 8688SOL     OW37522   3.462   1.457  13.991 -0.0943 -0.1103  0.2126
 8688SOL    HW137523   3.468   1.536  14.044  0.1543 -0.3090  0.4784
 8688SOL    HW237524   3.545   1.449  13.944  0.7704  0.3809  1.6445
 8689SOL     OW37525   3.231   3.965  15.732 -0.2239  0.2309 -0.6427
 8689SOL    HW137526   3.253   3.945  15.823 -1.5330 -0.1499 -0.4122
 8689SOL    HW237527   3.192   4.051  15.746 -1.8391 -0.6143  0.0358
 8690SOL     OW37528   2.524   4.234   7.907  0.2456 -0.4326 -0.9245
 8690SOL    HW137529   2.468   4.251   7.983  1.0493 -0.1149 -0.3960
 8690SOL    HW237530   2.534   4.139   7.901  1.6821 -0.3943  0.8883
 8691SOL     OW37531   0.205   0.817  14.909  0.3096  0.4193  0.5605
 8691SOL    HW137532   0.261   0.854  14.841  0.6081 -0.1629  0.4878
 8691SOL    HW237533   0.218   0.892  14.968  0.7618 -0.5252  1.6750
 8692SOL     OW37534   3.683   0.130  11.157  0.9003 -0.4931  0.4531
 8692SOL    HW137535   3.588   0.121  11.157  0.8635 -0.0975 -0.6147
 8692SOL    HW237536   3.692   0.116  11.251 -1.2011  0.6672  0.8319
 8693SOL     OW37537   4.256   2.452   8.933  0.2974 -0.2104  0.4575
 8693SOL    HW137538   4.281   2.451   9.026 -0.1465 -0.0895  0.5791
 8693SOL    HW237539   4.195   2.523   8.916 -0.7334 -1.0673  0.6013
 8694SOL     OW37540   0.175   1.871  16.849  0.2934 -0.2127 -0.0410
 8694SOL    HW137541   0.080   1.860  16.854  0.1018  0.9723 -1.1389
 8694SOL    HW237542   0.189   1.944  16.910  1.2561  2.5752 -3.6543
 8695SOL     OW37543   1.281   3.930  14.710  0.3015 -0.2909 -0.4979
 8695SOL    HW137544   1.298   3.908  14.801 -0.7450  0.0654 -0.2060
 8695SOL    HW237545   1.286   4.026  14.717  1.5791 -0.3839 -0.1822
 8696SOL     OW37546   4.204   3.482   0.174  0.3692 -0.0737 -0.0423
 8696SOL    HW137547   4.242   3.506   0.089 -1.1316  1.9194 -0.1288
 8696SOL    HW237548   4.138   3.418   0.149  0.2716  0.2841 -0.6853
 8697SOL     OW37549   2.517   0.945   6.413 -0.4238 -0.2048  0.3486
 8697SOL    HW137550   2.517   1.027   6.463  1.2303 -0.3901  0.6486
 8697SOL    HW237551   2.554   0.887   6.479  2.2525  0.9320 -0.1271
 8698SOL     OW37552   2.646   2.489   7.259  0.6693 -0.7014  0.0160
 8698SOL    HW137553   2.662   2.565   7.204 -2.5255  0.3789  0.5616
 8698SOL    HW237554   2.601   2.422   7.206  0.3324 -0.8736  0.5271
 8699SOL     OW37555   2.869   2.277  17.670 -0.3376 -0.4963 -0.2937
 8699SOL    HW137556   2.903   2.200   0.021  1.3669  0.6470  0.3791
 8699SOL    HW237557   2.934   2.297  17.603 -0.3053  0.4066  0.0062
 8700SOL     OW37558   2.026   2.279   3.036 -0.6466  0.0392  0.1716
 8700SOL    HW137559   2.107   2.329   3.046  0.1730 -1.4518  0.8476
 8700SOL    HW237560   2.054   2.212   2.974  1.4163 -1.6642  2.9560
 8701SOL     OW37561   4.092   1.353   2.525  0.0420 -0.2279  0.1420
 8701SOL    HW137562   4.018   1.357   2.586 -2.2852  1.7164 -2.7830
 8701SOL    HW237563   4.077   1.268   2.483  1.9127  0.1646 -1.3199
 8702SOL     OW37564   3.172   2.326   2.459  0.3182 -0.3641  0.4482
 8702SOL    HW137565   3.202   2.236   2.472  3.0292  0.6696  1.4159
 8702SOL    HW237566   3.172   2.342   2.365  0.1281 -1.0253  0.3399
 8703SOL     OW37567   1.332   1.026   1.375 -0.0384 -0.3927  0.1451
 8703SOL    HW137568   1.313   0.981   1.292  0.5902 -0.5574  0.0906
 8703SOL    HW237569   1.379   0.964   1.430  0.9923  0.5682  0.3394
 8704SOL     OW37570   0.847   3.767  11.949 -0.0884  0.0167 -0.0461
 8704SOL    HW137571   0.757   3.796  11.934 -0.3094 -0.1791  0.9011
 8704SOL    HW237572   0.840   3.738  12.040 -1.3401  0.1563 -0.1063
 8705SOL     OW37573   0.228   3.258   4.613  0.2283  0.3755 -0.0516
 8705SOL    HW137574   0.146   3.267   4.564 -0.3246 -0.2813  0.7484
 8705SOL    HW237575   0.263   3.176   4.577 -0.9084 -0.4115  0.6498
 8706SOL     OW37576   2.490   0.830  15.641 -0.6300 -0.0426 -0.3740
 8706SOL    HW137577   2.501   0.838  15.547  1.2472  3.4760  0.1256
 8706SOL    HW237578   2.581   0.854  15.662 -1.3224  1.5211  0.9130
 8707SOL     OW37579   1.792   2.403   4.137  0.2785 -0.3366 -0.0054
 8707SOL    HW137580   1.852   2.332   4.155 -0.9912 -1.0364  1.4591
 8707SOL    HW237581   1.749   2.381   4.054  2.7517  2.6069 -2.0754
 8708SOL     OW37582   1.602   0.633  17.120  0.4473 -0.8246 -0.1347
 8708SOL    HW137583   1.511   0.630  17.151  0.0587 -1.9422 -1.4019
 8708SOL    HW237584   1.607   0.540  17.098  1.8789 -1.0430  1.0752
 8709SOL     OW37585   0.560   1.003   7.011 -0.3199  0.2564  0.4045
 8709SOL    HW137586   0.499   1.072   7.033  1.6474  2.7398 -1.9211
 8709SOL    HW237587   0.588   0.980   7.099  0.8139 -2.6506 -0.6824
 8710SOL     OW37588   4.551   2.429   8.011  0.6043  0.1674  0.0089
 8710SOL    HW137589   4.508   2.345   8.026  0.1130  0.4408  0.1354
 8710SOL    HW237590   4.482   2.496   8.013  0.9279  0.5434 -1.1657
 8711SOL     OW37591   2.446   2.590   2.120 -0.1564  0.4718  0.0583
 8711SOL    HW137592   2.455   2.599   2.025 -0.8617 -0.6868 -0.1106
 8711SOL    HW237593   2.485   2.675   2.144  0.4345  0.2287 -0.0404
 8712SOL     OW37594   3.857   4.686  14.419 -0.7017 -0.0399 -0.0890
 8712SOL    HW137595   3.934   0.019  14.418  2.0576 -3.8521 -0.3851
 8712SOL    HW237596   3.867   4.652  14.508 -2.9665  0.4470  0.3518
 8713SOL     OW37597   3.803   2.958   3.923  0.4714  0.2246 -0.3426
 8713SOL    HW137598   3.795   2.900   3.999 -1.2212  0.4077 -0.3850
 8713SOL    HW237599   3.796   2.889   3.857 -0.4775  0.0549 -0.0645
 8714SOL     OW37600   4.694   3.334  11.671 -0.0247  0.4316 -0.1650
 8714SOL    HW137601   4.720   3.379  11.591 -1.4522  2.8014  0.7116
 8714SOL    HW237602   0.036   3.264  11.663 -0.3870  0.0873 -0.0887
 8715SOL     OW37603   1.160   1.883   7.063  1.1301 -0.2745 -0.2379
 8715SOL    HW137604   1.145   1.890   6.969  0.2557 -0.6983 -0.1384
 8715SOL    HW237605   1.071   1.894   7.097  1.1027  0.5318 -0.5794
 8716SOL     OW37606   0.871   1.528   8.802  0.4839 -0.0565 -0.2485
 8716SOL    HW137607   0.889   1.437   8.827  2.2622  0.2214 -0.5037
 8716SOL    HW237608   0.794   1.536   8.858  0.1938 -1.5906 -0.4165
 8717SOL     OW37609   0.725   1.702   7.124 -0.0283 -0.1387  0.3174
 8717SOL    HW137610   0.777   1.693   7.044 -1.8287 -2.6545 -0.5786
 8717SOL    HW237611   0.697   1.611   7.128 -1.6790  0.2365 -2.1104
 8718SOL     OW37612   1.679   3.497   0.884  0.3064 -0.0478  0.3112
 8718SOL    HW137613   1.709   3.408   0.902 -2.2510 -0.7631  1.0128
 8718SOL    HW237614   1.684   3.539   0.970 -0.0567  0.2343  0.1953
 8719SOL     OW37615   2.499   3.612  14.113 -0.1493 -0.0478  0.2678
 8719SOL    HW137616   2.589   3.586  14.134 -0.3036 -0.6983  0.1358
 8719SOL    HW237617   2.505   3.575  14.025  1.7469  1.6376 -0.2935
 8720SOL     OW37618   1.865   0.143  17.266 -0.4265  0.0635 -0.3404
 8720SOL    HW137619   1.789   0.091  17.239  0.5268 -1.1775 -0.6491
 8720SOL    HW237620   1.935   0.084  17.238 -0.2720 -0.4744  1.1795
 8721SOL     OW37621   4.622   0.963  15.999 -0.4474 -0.4856  0.4374
 8721SOL    HW137622   4.665   0.881  15.976 -0.3015 -0.0140 -1.0162
 8721SOL    HW237623   4.576   0.934  16.078  1.9333 -0.6804  1.7377
 8722SOL     OW37624   0.276   0.916   6.636  0.1224 -0.3634  0.1556
 8722SOL    HW137625   0.318   0.850   6.580  1.1127  0.7718 -0.4421
 8722SOL    HW237626   0.330   0.909   6.714  1.8811  1.5008 -0.8983
 8723SOL     OW37627   1.266   2.170   5.509  0.7944 -0.1347 -0.3859
 8723SOL    HW137628   1.296   2.235   5.572 -2.4236 -0.3811  1.4225
 8723SOL    HW237629   1.277   2.217   5.426  0.8229 -1.4055 -1.0949
 8724SOL     OW37630   3.279   2.097   8.927  0.1634 -0.4944 -0.0545
 8724SOL    HW137631   3.259   2.162   8.995  2.4262  1.0176 -0.8335
 8724SOL    HW237632   3.211   2.031   8.939 -2.6928  2.2908 -0.9563
 8725SOL     OW37633   0.993   4.020  16.158 -0.3339 -0.3557  0.2260
 8725SOL    HW137634   0.973   4.071  16.079  0.3776 -2.5999 -1.3731
 8725SOL    HW237635   1.021   4.088  16.219  0.7464  1.0908 -1.8697
 8726SOL     OW37636   0.041   0.138   5.401  0.5276 -0.0653  0.1000
 8726SOL    HW137637   0.036   0.156   5.307 -0.0698  2.2908  0.5823
 8726SOL    HW237638   0.085   0.219   5.428 -1.1709 -0.3282  3.6259
 8727SOL     OW37639   3.265   4.343   4.702 -0.1250 -0.2348 -0.3339
 8727SOL    HW137640   3.184   4.293   4.707 -0.2579 -0.4263 -4.0679
 8727SOL    HW237641   3.232   4.422   4.745 -0.0595  0.1125 -0.9166
 8728SOL     OW37642   0.133   1.094  12.839 -0.0666 -0.3801  0.2811
 8728SOL    HW137643   0.153   1.150  12.764 -1.1000  1.4392  1.3523
 8728SOL    HW237644   0.081   1.154  12.893  0.0449  2.2240 -2.4752
 8729SOL     OW37645   0.452   4.011   3.751  0.3087  0.4084 -0.1304
 8729SOL    HW137646   0.476   3.952   3.680  0.9358  0.0504  0.3791
 8729SOL    HW237647   0.433   4.093   3.706  1.3816 -0.3605 -1.9791
 8730SOL     OW37648   4.437   0.810   2.123 -0.1193  0.1384  0.1519
 8730SOL    HW137649   4.353   0.764   2.113 -0.8570  2.4508 -4.0162
 8730SOL    HW237650   4.494   0.747   2.080 -0.5174 -0.1092 -0.0139
 8731SOL     OW37651   4.554   3.247   3.000  0.4333 -0.2460 -0.0193
 8731SOL    HW137652   4.619   3.257   2.931  1.3420 -0.9991  0.7310
 8731SOL    HW237653   4.607   3.284   3.070  1.8071 -2.6087  0.2177
 8732SOL     OW37654   1.944   2.856  17.386 -0.4928 -0.5930 -0.0312
 8732SOL    HW137655   2.015   2.871  17.324  0.2614  1.1360  1.2333
 8732SOL    HW237656   1.882   2.928  17.382  0.0380 -0.1488 -0.2128
 8733SOL     OW37657   2.186   2.015   7.469  0.1179 -0.5001  0.0106
 8733SOL    HW137658   2.100   1.993   7.432  0.6908 -0.0429 -1.5749
 8733SOL    HW237659   2.226   1.928   7.474  0.3199 -0.3047  2.0720
 8734SOL     OW37660   2.652   3.643   6.375  0.5023 -0.0001 -0.4813
 8734SOL    HW137661   2.611   3.617   6.458  0.2942  1.2247 -0.1957
 8734SOL    HW237662   2.591   3.601   6.314 -0.0941  1.1024 -0.6433
 8735SOL     OW37663   3.950   1.879  14.928 -0.2616 -0.0687 -0.2346
 8735SOL    HW137664   4.031   1.888  14.978  0.1029  0.8645 -0.9851
 8735SOL    HW237665   3.884   1.928  14.977 -2.8165 -1.8861 -1.8183
 8736SOL     OW37666   3.192   0.632   5.973  0.7112 -0.0388  0.1607
 8736SOL    HW137667   3.150   0.639   6.058 -1.8079 -2.5139 -0.8647
 8736SOL    HW237668   3.227   0.543   5.976  0.3374 -0.2387 -1.5689
 8737SOL     OW37669   3.624   4.711  15.972 -0.0165 -0.1051  0.3921
 8737SOL    HW137670   3.674   0.010  16.051  1.9210  0.6843 -1.0590
 8737SOL    HW237671   3.572   0.066  15.955  1.0309  0.6099  0.5348
 8738SOL     OW37672   1.544   3.667   8.565  0.2421 -0.0235 -0.2200
 8738SOL    HW137673   1.623   3.614   8.565  0.4257  0.2453 -2.2331
 8738SOL    HW237674   1.562   3.735   8.501 -0.7607  0.2731 -0.1869
 8739SOL     OW37675   3.970   4.160   0.652 -0.4315 -0.6637 -0.4425
 8739SOL    HW137676   3.931   4.210   0.724  0.1418  1.0760 -1.3578
 8739SOL    HW237677   3.956   4.217   0.577  2.6516  1.6619  0.7824
 8740SOL     OW37678   2.930   1.511   5.484  1.4150  0.1476  0.1601
 8740SOL    HW137679   2.843   1.508   5.445  1.7697  0.6284 -0.6732
 8740SOL    HW237680   2.973   1.583   5.438 -2.5007  2.0620 -0.5568
 8741SOL     OW37681   4.298   1.106   7.955  0.1802 -0.3429  0.2083
 8741SOL    HW137682   4.232   1.120   7.888  0.0177 -0.3783  0.3623
 8741SOL    HW237683   4.245   1.042   8.001  0.1649 -0.2055  0.3843
 8742SOL     OW37684   0.245   2.866   9.690  0.0104  0.5687 -0.6677
 8742SOL    HW137685   0.262   2.821   9.773  0.4502  1.2453 -0.3948
 8742SOL    HW237686   0.150   2.869   9.700  0.1154 -1.6219  0.9642
 8743SOL     OW37687   0.508   1.718   7.310  0.4150  0.0265 -0.4258
 8743SOL    HW137688   0.594   1.760   7.310  0.8763 -0.9028  0.8735
 8743SOL    HW237689   0.478   1.720   7.219 -1.0610  0.1658  0.0588
 8744SOL     OW37690   3.031   0.833   8.282  0.2468 -0.1495  0.3481
 8744SOL    HW137691   3.054   0.916   8.324  1.2477  0.6015 -1.6926
 8744SOL    HW237692   3.118   0.794   8.278 -0.0945 -0.8068 -0.6397
 8745SOL     OW37693   3.241   0.977   6.803 -0.1062 -0.2214  0.3606
 8745SOL    HW137694   3.153   0.968   6.841 -0.6458 -1.4173 -1.1668
 8745SOL    HW237695   3.294   0.972   6.882 -1.6980 -1.1891  1.3704
 8746SOL     OW37696   0.019   4.261   7.968 -0.5513  0.0285 -0.3902
 8746SOL    HW137697   0.096   4.302   7.928 -0.2055 -1.8622 -1.6960
 8746SOL    HW237698   0.030   4.270   8.062  2.3363 -0.8127 -0.6275
 8747SOL     OW37699   1.570   2.516   5.215 -0.2575 -0.1845  0.0555
 8747SOL    HW137700   1.545   2.466   5.137 -0.1508  0.0004 -0.0969
 8747SOL    HW237701   1.485   2.551   5.239  0.5257  0.7507  1.4759
 8748SOL     OW37702   1.011   1.200   4.649 -0.2243 -0.0859 -0.0986
 8748SOL    HW137703   0.956   1.254   4.706  0.1105  0.7044 -0.5194
 8748SOL    HW237704   0.949   1.136   4.614 -1.5713  0.9514  0.3609
 8749SOL     OW37705   3.452   4.070   8.685  0.3829 -0.2999 -0.2498
 8749SOL    HW137706   3.513   4.038   8.750  1.4111 -0.3501 -1.2415
 8749SOL    HW237707   3.373   4.020   8.705  0.2619  0.0362  0.1119
 8750SOL     OW37708   0.638   2.259   3.468 -0.2913 -0.0853 -0.6830
 8750SOL    HW137709   0.548   2.283   3.445 -0.3729 -0.9429 -1.2536
 8750SOL    HW237710   0.632   2.164   3.461  2.1535 -0.3648  1.0079
 8751SOL     OW37711   2.467   1.492   1.427 -0.6041 -0.7730 -0.2836
 8751SOL    HW137712   2.406   1.490   1.354  0.7936 -2.2334 -1.4274
 8751SOL    HW237713   2.506   1.404   1.421  2.4067  0.3085  3.3789
 8752SOL     OW37714   4.001   1.806   4.987 -0.0548 -0.3100 -0.3023
 8752SOL    HW137715   3.991   1.713   5.003 -2.2353 -0.1169 -0.6184
 8752SOL    HW237716   4.091   1.818   5.017 -0.6822  0.1853  1.3552
 8753SOL     OW37717   4.132   0.096   8.564 -0.2728 -0.0305 -0.0032
 8753SOL    HW137718   4.082   0.121   8.641  0.3428  1.7512 -0.1664
 8753SOL    HW237719   4.057   0.094   8.503 -1.2734  1.2270  1.1906
 8754SOL     OW37720   2.278   0.092  11.745 -0.3534 -0.4227  0.7017
 8754SOL    HW137721   2.258   0.001  11.722 -0.3534 -0.6965  1.8080
 8754SOL    HW237722   2.248   0.125  11.660  0.8212 -0.4556  0.2697
 8755SOL     OW37723   0.291   2.167  17.621  0.1180  0.2592 -1.0509
 8755SOL    HW137724   0.233   2.095  17.596 -1.1078  0.5142  1.0428
 8755SOL    HW237725   0.286   2.205  17.534 -2.0411 -0.7736 -1.3693
 8756SOL     OW37726   3.183   1.901  12.963 -0.4577 -0.4210  0.0310
 8756SOL    HW137727   3.158   1.823  12.913 -0.2909 -1.7229  1.9801
 8756SOL    HW237728   3.141   1.958  12.898  0.5693  0.3311  0.0352
 8757SOL     OW37729   1.658   1.758   4.269 -0.4249 -0.0184  0.3551
 8757SOL    HW137730   1.693   1.762   4.358 -0.1343 -0.4629  0.2617
 8757SOL    HW237731   1.734   1.748   4.212 -0.7367 -0.1719 -0.0351
 8758SOL     OW37732   0.926   1.208   2.513 -0.2245 -0.0191  0.1854
 8758SOL    HW137733   1.022   1.209   2.507  0.0153 -1.3862  3.8718
 8758SOL    HW237734   0.901   1.218   2.421 -1.2693 -2.7401  0.1803
 8759SOL     OW37735   1.146   0.866   5.939  0.3612  0.0559  0.3959
 8759SOL    HW137736   1.234   0.878   5.903 -0.3214  0.2394 -1.1883
 8759SOL    HW237737   1.150   0.941   5.999  0.9188  0.0269  0.3964
 8760SOL     OW37738   1.353   3.109   2.021 -0.9935  0.1945 -0.2492
 8760SOL    HW137739   1.296   3.084   2.094  0.1511  0.2040  0.6568
 8760SOL    HW237740   1.390   3.023   2.003 -0.2962  0.6299 -0.8712
 8761SOL     OW37741   0.524   4.249   5.569  0.0838  0.0390 -0.0290
 8761SOL    HW137742   0.616   4.233   5.549 -0.0133 -1.4453  0.7386
 8761SOL    HW237743   0.520   4.344   5.561 -1.4849 -0.0479 -0.2282
 8762SOL     OW37744   1.019   2.788   8.204  0.4423  0.0206 -0.0597
 8762SOL    HW137745   0.966   2.803   8.125 -2.5266 -1.8567  1.5739
 8762SOL    HW237746   1.075   2.717   8.173  0.7963  0.6884 -0.9759
 8763SOL     OW37747   1.454   1.875   6.951  0.0219 -0.8763 -0.0876
 8763SOL    HW137748   1.399   1.917   6.885 -0.5221 -0.3602  0.7026
 8763SOL    HW237749   1.512   1.820   6.898  0.1488 -1.1325  0.3096
 8764SOL     OW37750   4.256   1.359   8.618 -0.0131  0.8625  0.0311
 8764SOL    HW137751   4.312   1.361   8.540  0.6828 -0.2865  0.5033
 8764SOL    HW237752   4.309   1.430   8.654  1.2163 -0.1521  0.2234
 8765SOL     OW37753   2.730   3.140   5.936 -0.5470 -0.1674 -0.0975
 8765SOL    HW137754   2.680   3.216   5.904 -0.5571  0.3703  1.2214
 8765SOL    HW237755   2.705   3.076   5.869 -0.4108 -0.9850  0.6287
 8766SOL     OW37756   0.467   0.275   2.090 -0.1090  0.1533 -0.3547
 8766SOL    HW137757   0.442   0.216   2.019 -0.6316 -2.1927  1.7924
 8766SOL    HW237758   0.547   0.229   2.116  1.6004  1.8005 -2.6367
 8767SOL     OW37759   2.767   0.178   5.373  0.5918 -0.0322 -0.4020
 8767SOL    HW137760   2.723   0.150   5.453  1.2452  0.6895  0.2052
 8767SOL    HW237761   2.790   0.268   5.397 -1.2913  0.5780 -0.8263
 8768SOL     OW37762   4.488   1.816   5.474 -0.3942 -0.4908  0.1681
 8768SOL    HW137763   4.428   1.759   5.523  1.0588 -0.8875  1.5028
 8768SOL    HW237764   4.543   1.746   5.438  0.3324 -0.3404  0.9937
 8769SOL     OW37765   0.086   3.302   1.624  0.1153 -0.2079  0.3335
 8769SOL    HW137766   0.001   3.293   1.582 -0.4727  1.3715  1.1621
 8769SOL    HW237767   0.113   3.391   1.599  2.5041 -0.8146  0.7644
 8770SOL     OW37768   4.565   1.671   1.959  0.1594 -0.3750 -0.0465
 8770SOL    HW137769   4.633   1.663   1.892  0.0468 -0.7859 -0.1153
 8770SOL    HW237770   4.594   1.611   2.028  0.4180 -0.9001 -0.6097
 8771SOL     OW37771   4.635   0.205  16.784  0.1038  0.4805  0.1665
 8771SOL    HW137772   4.579   0.152  16.727 -1.5852  1.9688  0.4678
 8771SOL    HW237773   4.658   0.149  16.858 -0.7102  0.3191  0.2950
 8772SOL     OW37774   3.252   3.200  14.122  0.3818 -0.5080  0.0012
 8772SOL    HW137775   3.282   3.290  14.117  1.3784 -0.8086  0.4755
 8772SOL    HW237776   3.178   3.203  14.182 -0.1900  0.0611 -0.7477
 8773SOL     OW37777   3.749   0.933   1.087 -0.2902 -0.3073 -0.4926
 8773SOL    HW137778   3.756   1.007   1.026 -3.6273  1.8576  1.6874
 8773SOL    HW237779   3.748   0.973   1.174  0.6302  0.0005 -0.6264
 8774SOL     OW37780   0.780   4.519   8.873  0.5022 -0.3045  0.3824
 8774SOL    HW137781   0.783   4.455   8.802  0.7187 -1.2928  1.2790
 8774SOL    HW237782   0.870   4.522   8.905  0.4132  0.1337  0.5959
 8775SOL     OW37783   4.666   3.521   9.389 -0.9182 -0.0532 -0.2073
 8775SOL    HW137784   4.651   3.440   9.340  2.2422 -1.4781  1.2447
 8775SOL    HW237785   4.586   3.568   9.364 -0.1656  1.9202  1.0352
 8776SOL     OW37786   3.954   1.218   0.786  0.2785 -0.5297 -0.1639
 8776SOL    HW137787   4.000   1.299   0.768 -1.3240  0.3929 -0.1269
 8776SOL    HW237788   4.009   1.150   0.748 -1.4053 -2.2772  0.5117
 8777SOL     OW37789   2.694   0.329   3.138 -0.2550  0.4795  0.1907
 8777SOL    HW137790   2.757   0.386   3.095  2.3768 -2.7203 -0.2411
 8777SOL    HW237791   2.717   0.251   3.087 -0.9811  0.6437 -0.3792
 8778SOL     OW37792   1.853   1.753   4.065  0.2730 -0.0673  0.4786
 8778SOL    HW137793   1.911   1.825   4.042 -0.1002 -0.6011 -2.0994
 8778SOL    HW237794   1.911   1.677   4.073 -0.6849 -0.7390  0.9953
 8779SOL     OW37795   2.267   0.301   9.009  0.2504  0.0605 -0.0434
 8779SOL    HW137796   2.210   0.355   9.064 -1.4130 -2.4149  0.6419
 8779SOL    HW237797   2.296   0.240   9.077  0.7807 -0.5460 -0.8146
 8780SOL     OW37798   4.243   0.507   0.703 -0.1517  0.2452  0.3190
 8780SOL    HW137799   4.337   0.521   0.718 -0.0226  0.3217 -0.5765
 8780SOL    HW237800   4.214   0.459   0.781 -1.3169  0.5301  0.0537
 8781SOL     OW37801   2.645   4.401   5.429 -0.1963 -0.2148 -0.1688
 8781SOL    HW137802   2.635   4.370   5.519  0.6002 -1.5564 -0.5384
 8781SOL    HW237803   2.695   4.479   5.454  0.1434 -0.5192  0.1073
 8782SOL     OW37804   0.637   2.151   2.292 -0.2431 -0.0723  0.1346
 8782SOL    HW137805   0.650   2.100   2.212 -0.8705  0.5914 -0.3836
 8782SOL    HW237806   0.711   2.211   2.279  0.0181 -0.0955  1.5513
 8783SOL     OW37807   0.057   4.578   1.156 -0.7202 -0.2740  0.2549
 8783SOL    HW137808   0.117   4.650   1.135 -1.8599  0.6441  0.1616
 8783SOL    HW237809   4.693   4.607   1.130 -0.3383 -0.4566 -1.2275
 8784SOL     OW37810   2.679   4.473  16.707  0.1759  0.1005 -0.0086
 8784SOL    HW137811   2.710   4.424  16.784 -4.1397 -0.9658  1.0791
 8784SOL    HW237812   2.722   4.557  16.720 -0.1216  0.2436  0.0563
 8785SOL     OW37813   4.021   3.605   9.305 -0.1803  0.3464 -0.5165
 8785SOL    HW137814   4.108   3.624   9.341 -1.3319  2.9308  0.9175
 8785SOL    HW237815   3.984   3.562   9.382  1.9366  0.5885  0.6324
 8786SOL     OW37816   0.923   3.063  16.822 -0.1202 -0.4316  0.0948
 8786SOL    HW137817   0.861   2.992  16.811 -0.1287 -0.0692 -2.2171
 8786SOL    HW237818   0.877   3.136  16.781  0.0710 -1.8232 -2.5484
 8787SOL     OW37819   0.135   1.238   6.797  0.5053  0.6572  0.6134
 8787SOL    HW137820   0.198   1.207   6.862 -0.6832 -3.1969 -0.0821
 8787SOL    HW237821   0.090   1.154   6.792 -0.2857  1.1451 -0.6358
 8788SOL     OW37822   1.087   4.603   2.287  0.2895  0.0920 -0.7021
 8788SOL    HW137823   1.123   4.663   2.221  1.0861  0.2732 -0.1029
 8788SOL    HW237824   1.001   4.579   2.251 -0.6382  0.2548  1.3863
 8789SOL     OW37825   2.408   1.968   1.609  0.0843 -0.1049  0.7081
 8789SOL    HW137826   2.465   1.900   1.646 -1.1721 -0.9285  1.1189
 8789SOL    HW237827   2.439   2.043   1.659 -0.1318 -0.6314  1.6269
 8790SOL     OW37828   4.059   1.996   8.381  0.3438 -0.3346  0.1551
 8790SOL    HW137829   4.051   1.916   8.433 -0.7355 -1.7050 -2.0930
 8790SOL    HW237830   4.080   2.062   8.446  1.0714  0.5434 -0.9687
 8791SOL     OW37831   3.786   3.806   0.200  0.4024 -0.5263 -0.5769
 8791SOL    HW137832   3.801   3.718   0.234  2.1485 -0.1269 -0.2875
 8791SOL    HW237833   3.707   3.783   0.151 -0.5250  2.8910 -0.6607
 8792SOL     OW37834   0.896   2.028   5.069  0.0480  0.2234  0.2287
 8792SOL    HW137835   0.946   2.055   4.992  0.2077 -1.5862 -0.3083
 8792SOL    HW237836   0.836   1.964   5.030  0.1421  0.3094 -0.0551
 8793SOL     OW37837   3.449   0.045   2.010  0.2058 -0.1321  0.1897
 8793SOL    HW137838   3.370   0.007   1.971  0.5677 -1.7187  0.9739
 8793SOL    HW237839   3.465   0.105   1.937  2.0061 -1.3334 -0.3964
 8794SOL     OW37840   1.311   1.462   5.710  0.0304  0.5672  0.0523
 8794SOL    HW137841   1.375   1.398   5.744 -0.4307 -0.1284 -0.3832
 8794SOL    HW237842   1.303   1.428   5.621  0.1361 -2.1775  1.0789
 8795SOL     OW37843   0.016   3.858   5.719  0.4754 -0.4526 -0.3868
 8795SOL    HW137844   4.648   3.875   5.744 -0.8200 -4.1239 -2.5171
 8795SOL    HW237845   0.016   3.769   5.754  0.9639  0.5657  2.2167
 8796SOL     OW37846   3.611   1.851  12.259  0.1961  0.4953 -0.3334
 8796SOL    HW137847   3.587   1.900  12.337 -0.0865 -2.8005  1.6514
 8796SOL    HW237848   3.530   1.852  12.209  1.5569 -1.6358 -2.5652
 8797SOL     OW37849   0.859   2.039  10.138 -0.2420 -1.0600 -0.5492
 8797SOL    HW137850   0.924   2.067  10.203  1.1050  1.1691 -2.8384
 8797SOL    HW237851   0.784   2.091  10.169  0.6978  0.5425 -0.9311
 8798SOL     OW37852   3.961   0.348   7.255 -0.3741  0.0187  0.8706
 8798SOL    HW137853   3.999   0.435   7.239 -0.4346 -0.5063 -2.1328
 8798SOL    HW237854   3.901   0.333   7.182  1.5473 -0.6623 -0.5555
 8799SOL     OW37855   3.001   4.633   3.072  0.9113 -0.5841 -0.4322
 8799SOL    HW137856   3.089   4.659   3.044  0.9927 -0.6377 -0.2337
 8799SOL    HW237857   3.008   4.538   3.082 -1.7905 -0.8078 -0.6503
 8800SOL     OW37858   2.168   0.025   0.348 -0.0705  0.1514 -0.1000
 8800SOL    HW137859   2.172   4.668   0.296 -0.4355 -0.1696  0.3821
 8800SOL    HW237860   2.134   0.081   0.278 -1.0132  2.5990  2.3304
 8801SOL     OW37861   4.591   2.946   4.991 -0.7512 -0.2221 -0.1946
 8801SOL    HW137862   4.584   2.862   5.036 -1.9383 -0.1842 -0.3042
 8801SOL    HW237863   4.501   2.955   4.957 -0.3810  1.0467 -0.8197
 8802SOL     OW37864   2.905   4.341  16.813 -0.5871  0.0790  0.0742
 8802SOL    HW137865   2.918   4.378  16.900  0.2199  1.6694 -0.7049
 8802SOL    HW237866   2.854   4.267  16.846  0.8787 -1.0773 -0.3008
 8803SOL     OW37867   2.124   3.586   6.113 -0.2569 -0.2366 -0.1688
 8803SOL    HW137868   2.111   3.673   6.150  2.9061  0.5108 -0.7849
 8803SOL    HW237869   2.067   3.589   6.037  0.8350 -0.3145 -0.9860
 8804SOL     OW37870   0.941   1.453  15.991  0.0255  0.0570 -0.3647
 8804SOL    HW137871   1.007   1.492  16.049 -0.0256 -1.3479  0.6238
 8804SOL    HW237872   0.907   1.534  15.951 -0.7868 -0.6331 -1.0646
 8805SOL     OW37873   0.007   3.180   9.876  0.5386  0.1328 -0.4649
 8805SOL    HW137874   0.050   3.235   9.941 -1.8512  1.0902  0.3234
 8805SOL    HW237875   4.671   3.243   9.835 -0.7171 -0.7528 -0.0146
 8806SOL     OW37876   1.063   1.408   7.811  0.3047 -0.1641  0.1752
 8806SOL    HW137877   0.995   1.342   7.816 -1.7292  1.7896 -1.4820
 8806SOL    HW237878   1.050   1.454   7.728 -0.7000 -1.6822 -0.4955
 8807SOL     OW37879   1.424   2.849   7.835 -0.0809 -0.2843  0.0799
 8807SOL    HW137880   1.513   2.876   7.858 -0.0451  0.3924 -0.8403
 8807SOL    HW237881   1.402   2.769   7.882  1.2659 -1.0867 -0.6614
 8808SOL     OW37882   2.937   3.226   5.251 -0.3587  0.2674 -0.2611
 8808SOL    HW137883   2.849   3.236   5.214 -0.5636  1.3012  0.5161
 8808SOL    HW237884   2.960   3.316   5.272 -1.4938  0.7151 -0.9505
 8809SOL     OW37885   3.973   4.679  12.799 -0.5236  0.1759  0.4643
 8809SOL    HW137886   3.939   4.590  12.785  0.8643 -0.2755 -0.0046
 8809SOL    HW237887   4.011   4.699  12.714  0.9293  1.9498  1.5359
 8810SOL     OW37888   3.994   0.635   7.266  0.2048  0.5219  0.3276
 8810SOL    HW137889   3.964   0.667   7.180  0.2388 -1.3555 -0.3850
 8810SOL    HW237890   3.992   0.724   7.303  0.5162  0.0111  1.5433
 8811SOL     OW37891   3.993   4.249  12.976  0.3773 -0.3270  0.9134
 8811SOL    HW137892   4.066   4.307  12.996 -0.9816  1.3549  0.9875
 8811SOL    HW237893   4.015   4.220  12.887 -0.7665  1.4325  0.0461
 8812SOL     OW37894   2.669   2.417   0.108  0.2799 -0.2786 -0.3018
 8812SOL    HW137895   2.610   2.345   0.130 -2.0924  1.9659  0.7137
 8812SOL    HW237896   2.745   2.370   0.075 -0.1245 -0.3751 -1.0966
 8813SOL     OW37897   2.020   2.236   3.347 -0.6320  0.1375 -0.1057
 8813SOL    HW137898   1.928   2.210   3.345 -0.8081  0.6727  1.1098
 8813SOL    HW237899   2.033   2.293   3.271 -0.0150 -1.0204 -0.8787
 8814SOL     OW37900   1.266   2.381   3.104  0.3301  0.1032  0.3043
 8814SOL    HW137901   1.207   2.320   3.149  0.2243  0.8788  1.1980
 8814SOL    HW237902   1.338   2.380   3.167  1.5998 -0.9632 -1.1494
 8815SOL     OW37903   2.639   4.517   6.414 -0.8164  0.1709  0.3657
 8815SOL    HW137904   2.605   4.542   6.328 -0.2135 -1.7170 -0.4212
 8815SOL    HW237905   2.553   4.496   6.450 -0.4842  0.7640  1.5078
 8816SOL     OW37906   1.618   2.780  16.479 -0.2735  0.4786 -0.1172
 8816SOL    HW137907   1.629   2.770  16.573  3.2181 -1.4799 -0.7300
 8816SOL    HW237908   1.547   2.719  16.459  1.5763 -1.0761 -1.9867
 8817SOL     OW37909   3.252   4.012   3.737  0.6386 -0.7556  0.1376
 8817SOL    HW137910   3.347   4.017   3.722  0.7028  0.8583  1.1547
 8817SOL    HW237911   3.242   4.075   3.808 -2.5060 -1.5909  0.4048
 8818SOL     OW37912   3.345   2.053   8.381 -0.2648  0.2120 -0.4525
 8818SOL    HW137913   3.250   2.069   8.384 -0.1889  0.6385 -0.3127
 8818SOL    HW237914   3.375   2.082   8.467  0.1502 -0.2070 -0.4601
 8819SOL     OW37915   2.260   3.722  14.733 -0.1407  0.2216 -0.4252
 8819SOL    HW137916   2.287   3.655  14.670  1.5336 -0.1220  0.6659
 8819SOL    HW237917   2.272   3.676  14.816 -1.1570  0.5154 -0.1198
 8820SOL     OW37918   0.861   1.739   6.705  0.3000  0.1640  0.0727
 8820SOL    HW137919   0.864   1.670   6.639  0.3163 -0.0902  0.3413
 8820SOL    HW237920   0.917   1.709   6.777  0.1594  0.6555  0.3896
 8821SOL     OW37921   1.407   1.460  14.235  0.3041 -0.3578 -0.5498
 8821SOL    HW137922   1.350   1.511  14.292 -2.0689 -1.8051 -1.6238
 8821SOL    HW237923   1.343   1.392  14.211  1.2262 -2.0667  1.9326
 8822SOL     OW37924   2.810   0.731   8.674 -0.7481 -0.0543 -0.2537
 8822SOL    HW137925   2.812   0.777   8.590  0.2724  0.6501  0.1512
 8822SOL    HW237926   2.905   0.725   8.689 -1.0301 -1.7784  0.9166
 8823SOL     OW37927   1.148   1.901   1.535  0.2095 -0.3684 -0.2432
 8823SOL    HW137928   1.160   1.886   1.628 -1.6287  2.1265  0.3950
 8823SOL    HW237929   1.053   1.894   1.524  0.0323  2.6051 -0.5891
 8824SOL     OW37930   4.661   4.392   8.778  0.4118 -0.3862 -0.0874
 8824SOL    HW137931   4.682   4.301   8.798  1.2232 -0.0418  0.5973
 8824SOL    HW237932   4.710   4.432   8.850 -0.7742  1.3363 -0.2305
 8825SOL     OW37933   4.544   3.478  11.152 -0.0625 -0.1721 -0.3993
 8825SOL    HW137934   4.582   3.391  11.149 -0.6456 -0.3683 -2.3903
 8825SOL    HW237935   4.482   3.471  11.078 -1.7248  0.2858  0.9484
 8826SOL     OW37936   1.899   0.354   5.783  0.6785  0.3135 -0.3363
 8826SOL    HW137937   1.951   0.281   5.749  0.4574 -1.2929  2.7132
 8826SOL    HW237938   1.871   0.400   5.704 -2.5868  0.3173  0.8227
 8827SOL     OW37939   4.689   2.069   2.798  0.1616  0.0937  0.1807
 8827SOL    HW137940   4.685   2.107   2.710  0.7304  0.0584  0.1363
 8827SOL    HW237941   4.624   2.124   2.842  0.2973 -0.3345  0.9092
 8828SOL     OW37942   0.354   3.405   2.821  0.1362  0.1597  0.0489
 8828SOL    HW137943   0.375   3.368   2.735  0.4920 -0.7806  0.5472
 8828SOL    HW237944   0.282   3.463   2.796  0.5017  0.6158  0.0569
 8829SOL     OW37945   2.451   2.334   0.777  0.5712 -0.8573  0.0435
 8829SOL    HW137946   2.402   2.408   0.741  0.6073  0.9138  3.6171
 8829SOL    HW237947   2.538   2.374   0.770  0.7732 -1.1372  1.0295
 8830SOL     OW37948   0.853   4.057   9.457  0.0558 -0.0691  0.2208
 8830SOL    HW137949   0.913   4.087   9.526  1.9381 -0.5818 -1.2021
 8830SOL    HW237950   0.902   3.977   9.439  1.4566  0.9510 -0.5154
 8831SOL     OW37951   3.671   1.597   5.253 -0.8638 -0.3153  0.1303
 8831SOL    HW137952   3.648   1.636   5.336 -1.2999  0.9060 -0.5714
 8831SOL    HW237953   3.749   1.646   5.226 -0.6636 -1.7990 -2.0928
 8832SOL     OW37954   2.600   0.604   8.401 -0.4217 -0.6299 -0.0180
 8832SOL    HW137955   2.516   0.632   8.437  0.0397  1.2989 -0.4271
 8832SOL    HW237956   2.644   0.689   8.396  1.5562 -1.5995  0.8219
 8833SOL     OW37957   0.554   0.953  10.794  0.4181  0.1967  0.2676
 8833SOL    HW137958   0.508   1.027  10.833 -0.6907  0.4191 -1.4358
 8833SOL    HW237959   0.567   0.982  10.703  2.9864 -1.8934 -0.0243
 8834SOL     OW37960   1.198   4.170   5.830 -0.4769  0.0267 -0.1528
 8834SOL    HW137961   1.200   4.148   5.923  2.8043  0.7748 -0.0733
 8834SOL    HW237962   1.238   4.256   5.821  0.5280 -0.3552  0.7622
 8835SOL     OW37963   2.674   4.517   9.363  0.0714 -0.1737 -0.1640
 8835SOL    HW137964   2.677   4.427   9.330 -0.6883  0.2316 -1.3172
 8835SOL    HW237965   2.581   4.524   9.383  0.0538 -0.2234 -0.2282
 8836SOL     OW37966   1.900   0.190  10.728 -0.6078 -0.5675 -0.1324
 8836SOL    HW137967   1.881   0.253  10.797 -1.7100 -1.0285 -0.0200
 8836SOL    HW237968   1.811   0.173  10.698  0.0534 -1.4620 -1.6370
 8837SOL     OW37969   0.586   2.806   5.705  0.0615  0.2288 -0.2557
 8837SOL    HW137970   0.547   2.845   5.783  0.8818  2.0936 -0.7627
 8837SOL    HW237971   0.675   2.791   5.738 -0.1499  0.0560  0.2329
 8838SOL     OW37972   1.340   0.658   6.876 -0.1433  0.3085 -0.1415
 8838SOL    HW137973   1.418   0.672   6.930 -0.3704 -0.3373  0.3625
 8838SOL    HW237974   1.318   0.573   6.915  1.1485  0.9143  1.9054
 8839SOL     OW37975   1.760   1.931   5.946  0.1845 -0.4132 -0.0628
 8839SOL    HW137976   1.782   1.871   5.874  0.0835 -0.2405 -0.2378
 8839SOL    HW237977   1.843   1.916   5.991  0.6963  2.1992 -0.1726
 8840SOL     OW37978   0.171   3.867   6.204 -0.1905  0.6144 -0.6391
 8840SOL    HW137979   0.176   3.948   6.153 -0.2022  0.1137 -1.4237
 8840SOL    HW237980   0.258   3.867   6.245  0.4372 -0.0609 -1.9700
 8841SOL     OW37981   3.509   0.584   5.774  0.4758 -0.7488 -0.4168
 8841SOL    HW137982   3.470   0.547   5.853  0.2904 -0.2895 -0.2933
 8841SOL    HW237983   3.466   0.669   5.771 -2.4299 -2.1648  1.0810
 8842SOL     OW37984   0.537   4.082   6.646  0.6453  0.0870 -0.2084
 8842SOL    HW137985   0.545   4.095   6.552 -1.1937 -0.0049 -0.3761
 8842SOL    HW237986   0.454   4.128   6.660 -0.6594 -2.3979  0.1351
 8843SOL     OW37987   4.035   2.666   5.247 -0.1499 -0.0333 -0.4329
 8843SOL    HW137988   3.945   2.682   5.277  0.6298  0.1741  1.8250
 8843SOL    HW237989   4.081   2.726   5.305 -0.8445  1.4146 -1.4046
 8844SOL     OW37990   0.068   1.249   2.234  0.1056  0.3330  0.1954
 8844SOL    HW137991   0.022   1.165   2.239 -1.9101  1.3869 -0.7277
 8844SOL    HW237992   0.068   1.264   2.139 -0.8872  1.1832  0.3332
 8845SOL     OW37993   1.706   1.149   4.004 -0.2275 -0.0777 -0.3425
 8845SOL    HW137994   1.690   1.229   4.054  0.4685 -1.4340  2.0719
 8845SOL    HW237995   1.632   1.093   4.029  0.2988 -1.0136 -0.9069
 8846SOL     OW37996   3.975   1.563   5.391  0.1272 -0.4129 -0.2988
 8846SOL    HW137997   3.958   1.646   5.435  0.6919  0.1056 -1.0815
 8846SOL    HW237998   3.949   1.594   5.304  0.5808 -1.4676 -0.8077
 8847SOL     OW37999   3.393   2.603   0.743  0.1806 -0.1191  0.9016
 8847SOL    HW138000   3.387   2.587   0.837  3.5833  1.3336  1.3541
 8847SOL    HW238001   3.467   2.663   0.749  0.8319 -1.0387  2.0531
 8848SOL     OW38002   4.443   1.856   6.387  0.3732  0.0328  0.9017
 8848SOL    HW138003   4.457   1.813   6.302  0.5363 -0.7539  1.3279
 8848SOL    HW238004   4.519   1.908   6.411  0.8390 -0.0646 -0.3597
 8849SOL     OW38005   0.264   1.317  10.391 -0.6206  0.5561 -0.1817
 8849SOL    HW138006   0.198   1.304  10.459 -0.6503  1.9786  0.0601
 8849SOL    HW238007   0.330   1.359  10.446  0.1090 -0.3309 -0.3873
 8850SOL     OW38008   2.747   1.138   1.696 -0.3981  0.2833  0.1750
 8850SOL    HW138009   2.827   1.174   1.658  0.2906 -1.4965 -0.0988
 8850SOL    HW238010   2.690   1.155   1.621  1.0633  1.4776 -0.6755
 8851SOL     OW38011   0.930   1.077  14.862 -0.0050 -0.3965  0.1515
 8851SOL    HW138012   0.994   1.099  14.795  1.1652 -0.0600  1.3817
 8851SOL    HW238013   0.981   1.014  14.914 -0.7886  2.2574  4.1577
 8852SOL     OW38014   1.232   2.137   4.361 -0.4708 -0.3946 -0.2074
 8852SOL    HW138015   1.284   2.204   4.406  0.9677 -0.1444 -2.2482
 8852SOL    HW238016   1.233   2.068   4.428 -4.8113 -0.7127 -0.4763
 8853SOL     OW38017   4.272   0.606   1.159 -0.4036 -0.2176  0.0598
 8853SOL    HW138018   4.293   0.557   1.080 -3.4736  1.8261 -2.0159
 8853SOL    HW238019   4.183   0.575   1.175  0.2184 -2.1087 -0.1746
 8854SOL     OW38020   0.223   4.702  16.727 -0.1660  0.4588  0.7723
 8854SOL    HW138021   0.218   0.052  16.665 -0.6862  1.2575  1.7554
 8854SOL    HW238022   0.134   4.668  16.716  0.1765 -0.8073  2.0230
 8855SOL     OW38023   0.319   0.530  14.694 -0.6804  0.5972 -0.1187
 8855SOL    HW138024   0.395   0.522  14.751 -0.4190 -0.1744 -0.5703
 8855SOL    HW238025   0.327   0.618  14.658 -1.4130  0.9855  0.6620
 8856SOL     OW38026   2.535   3.432   8.954  0.2550  0.5437 -0.2234
 8856SOL    HW138027   2.491   3.390   8.880 -0.3050  0.6447  0.0563
 8856SOL    HW238028   2.467   3.479   9.001  0.3716  0.5742 -0.0841
 8857SOL     OW38029   1.229   1.572   5.945 -0.1294 -0.3659 -0.0645
 8857SOL    HW138030   1.267   1.572   5.857  1.6914 -1.0184  0.7091
 8857SOL    HW238031   1.145   1.613   5.924  0.2711  0.9014  0.7746
 8858SOL     OW38032   4.486   4.509   5.932  0.4083  0.0760  0.7541
 8858SOL    HW138033   4.578   4.511   5.958  0.7059  0.0567 -0.2792
 8858SOL    HW238034   4.487   4.527   5.838 -1.9692 -1.5214  0.4434
 8859SOL     OW38035   0.276   1.787   5.970  0.2855  0.3369 -0.1887
 8859SOL    HW138036   0.276   1.829   6.056 -0.4023  0.1497 -0.1047
 8859SOL    HW238037   0.240   1.699   5.981  2.3856 -0.3546  1.3060
 8860SOL     OW38038   0.026   4.228   9.361 -0.0544  0.7190  0.2520
 8860SOL    HW138039   4.685   4.289   9.398  0.3689  0.3643  1.5672
 8860SOL    HW238040   0.062   4.199   9.445 -1.1553 -1.8241 -0.1446
 8861SOL     OW38041   1.376   2.905   4.149 -0.2111  0.4068  0.0520
 8861SOL    HW138042   1.288   2.917   4.185 -1.0791 -1.1558 -1.5605
 8861SOL    HW238043   1.373   2.945   4.062  2.0191 -0.2469 -0.3256
 8862SOL     OW38044   0.397   2.992   7.082  0.1691 -0.5400 -0.2616
 8862SOL    HW138045   0.349   2.914   7.055 -1.6661 -0.2601  2.2145
 8862SOL    HW238046   0.369   3.009   7.172 -2.0515 -0.0614 -1.0166
 8863SOL     OW38047   0.077   0.005  12.229 -0.0207  0.0916 -0.1543
 8863SOL    HW138048   0.099   4.686  12.312  0.3566  0.7833  0.1025
 8863SOL    HW238049   0.102   0.097  12.237  0.0964  0.0148  0.4225
 8864SOL     OW38050   3.942   3.451   8.578 -0.1012 -0.4718 -0.1207
 8864SOL    HW138051   3.886   3.517   8.619  0.8834 -1.1527  2.3095
 8864SOL    HW238052   3.937   3.381   8.642 -0.3623  1.9776  2.5433
 8865SOL     OW38053   2.314   3.533   2.087  0.0097 -0.6176 -0.0112
 8865SOL    HW138054   2.396   3.549   2.133 -0.1513 -0.5005  0.2354
 8865SOL    HW238055   2.271   3.617   2.068 -0.1454 -0.7115 -0.0751
 8866SOL     OW38056   4.165   0.256  17.471 -0.0665 -0.4191 -0.2006
 8866SOL    HW138057   4.191   0.305  17.549  0.1531  0.8975 -1.1163
 8866SOL    HW238058   4.207   0.170  17.476 -0.0715 -0.5057 -1.7467
 8867SOL     OW38059   0.955   3.821   1.296  0.8987  0.1141 -0.4627
 8867SOL    HW138060   0.973   3.914   1.309  0.1673 -0.0191  1.5207
 8867SOL    HW238061   1.039   3.783   1.271 -0.6958 -2.2917 -2.1662
 8868SOL     OW38062   2.081   3.373   3.747  0.3055  0.5175 -0.5299
 8868SOL    HW138063   2.112   3.356   3.658  2.3625  1.6436 -0.0195
 8868SOL    HW238064   2.106   3.293   3.792 -0.1234  0.3209 -0.6367
 8869SOL     OW38065   0.225   0.921   3.931 -0.1022 -0.4478 -0.3713
 8869SOL    HW138066   0.206   0.843   3.879  1.8846 -0.8147 -0.5080
 8869SOL    HW238067   0.180   0.996   3.892 -1.3615  0.4490  2.7843
 8870SOL     OW38068   4.341   0.756   8.710 -0.2150 -0.6907 -0.5225
 8870SOL    HW138069   4.391   0.681   8.741 -1.1841 -1.6270 -1.2103
 8870SOL    HW238070   4.404   0.827   8.722 -0.5604 -0.4763  0.0078
 8871SOL     OW38071   4.649   2.973  13.571  0.1622  0.3543 -0.4258
 8871SOL    HW138072   4.716   2.924  13.525  0.4799 -0.4058  0.8862
 8871SOL    HW238073   4.622   2.913  13.640 -0.7112 -0.6926 -1.6729
 8872SOL     OW38074   4.608   1.575   4.265 -0.1262 -0.4552  0.1449
 8872SOL    HW138075   4.619   1.481   4.282 -1.0661 -0.4102  0.9758
 8872SOL    HW238076   4.684   1.609   4.218 -0.0160  0.4466  0.9880
 8873SOL     OW38077   1.872   0.554   6.687 -0.0242 -0.0770 -0.0277
 8873SOL    HW138078   1.777   0.568   6.686  0.0764  0.5413 -1.2128
 8873SOL    HW238079   1.902   0.614   6.755 -2.2338  0.4992  0.4573
 8874SOL     OW38080   1.976   3.480   8.892 -0.5497 -0.0252  0.0820
 8874SOL    HW138081   1.966   3.563   8.939 -1.7168  0.0573 -0.2988
 8874SOL    HW238082   2.025   3.509   8.814 -0.2075 -2.7217 -0.6870
 8875SOL     OW38083   3.923   0.781   3.956 -0.0621  0.7689  0.4507
 8875SOL    HW138084   3.909   0.724   4.031  1.6089 -2.3196 -1.5630
 8875SOL    HW238085   3.854   0.839   3.988 -0.2006  0.9017 -0.0890
 8876SOL     OW38086   1.061   3.765  10.620 -0.3141 -0.3369 -0.1497
 8876SOL    HW138087   1.089   3.704  10.687 -0.7239  0.6840  0.9495
 8876SOL    HW238088   1.063   3.851  10.662  1.5822 -0.6706  0.4356
 8877SOL     OW38089   2.119   1.749   8.654 -0.4197  0.0133  0.2061
 8877SOL    HW138090   2.155   1.790   8.732 -2.3304 -0.0322  1.0990
 8877SOL    HW238091   2.083   1.829   8.614  1.0001 -0.0917 -1.3032
 8878SOL     OW38092   3.681   3.093  12.180 -0.2367 -0.0598 -0.0904
 8878SOL    HW138093   3.720   3.006  12.183 -1.2613 -0.5499 -0.9717
 8878SOL    HW238094   3.654   3.084  12.089 -0.6782 -1.6330  0.2060
 8879SOL     OW38095   4.281   3.952  16.727 -0.1057 -0.2460 -0.3540
 8879SOL    HW138096   4.302   3.954  16.820  0.4838 -3.1285 -0.4451
 8879SOL    HW238097   4.363   3.922  16.689  1.4063  2.8486  0.4793
 8880SOL     OW38098   2.902   3.917  13.061 -0.3366 -0.0823 -0.1148
 8880SOL    HW138099   2.910   3.971  13.139 -0.3673 -2.5916  1.6241
 8880SOL    HW238100   2.986   3.872  13.068 -0.9196 -1.2613 -0.8677
 8881SOL     OW38101   1.200   4.338  15.821 -0.0999  0.0153 -0.2094
 8881SOL    HW138102   1.242   4.335  15.906  0.8017 -0.6957 -0.6830
 8881SOL    HW238103   1.142   4.414  15.829  0.9311  0.8397 -0.4842
 8882SOL     OW38104   2.142   0.257   7.076  0.2960  0.3007  0.4780
 8882SOL    HW138105   2.094   0.321   7.128 -1.4946  1.9317 -3.1966
 8882SOL    HW238106   2.187   0.194   7.132 -0.8098  0.2498  1.3091
 8883SOL     OW38107   3.265   4.518  11.102 -0.1009  0.1214  0.3206
 8883SOL    HW138108   3.269   4.427  11.129  4.0699 -0.0879 -1.0176
 8883SOL    HW238109   3.220   4.567  11.171  2.0396  3.8868 -0.9081
 8884SOL     OW38110   0.226   2.447   6.051  0.3979  0.7143 -0.0438
 8884SOL    HW138111   0.235   2.355   6.024 -1.0402  0.4565  0.3184
 8884SOL    HW238112   0.286   2.494   5.993 -1.4317  1.8722 -1.0034
 8885SOL     OW38113   2.059   2.949   4.678  0.5862 -0.4934 -0.1241
 8885SOL    HW138114   2.096   3.035   4.695  1.7058 -1.6162  3.0233
 8885SOL    HW238115   1.973   2.972   4.715  0.7134 -2.3027  1.3281
 8886SOL     OW38116   3.723   1.597   4.389 -0.5988  0.1889  0.4587
 8886SOL    HW138117   3.771   1.613   4.309 -1.1696  2.1648  0.4902
 8886SOL    HW238118   3.720   1.502   4.392  1.4152  0.1081 -0.4514
 8887SOL     OW38119   0.706   2.857  15.669  0.1518 -0.1689 -0.0101
 8887SOL    HW138120   0.655   2.817  15.598 -0.0113  0.2909 -0.1525
 8887SOL    HW238121   0.792   2.832  15.636  0.7846 -0.4419  1.8388
 8888SOL     OW38122   0.249   4.350   4.891 -0.0983 -0.0512  0.5505
 8888SOL    HW138123   0.274   4.292   4.962  0.9727 -0.5329 -0.2195
 8888SOL    HW238124   0.221   4.423   4.947  0.3072 -1.8671  3.0952
 8889SOL     OW38125   4.530   2.736   3.838  0.3140  0.3074 -0.4238
 8889SOL    HW138126   4.513   2.826   3.810 -1.9526  0.2822  0.7966
 8889SOL    HW238127   4.472   2.688   3.779  0.7856  0.3860 -0.9502
 8890SOL     OW38128   0.246   2.774   6.341  0.2970 -0.2313 -0.5291
 8890SOL    HW138129   0.163   2.801   6.301  0.8323  1.0948 -0.7618
 8890SOL    HW238130   0.287   2.860   6.351  0.3581 -0.1945 -1.0929
 8891SOL     OW38131   1.012   4.680   8.260 -0.0118  0.3508  0.3050
 8891SOL    HW138132   0.949   0.006   8.208 -0.8952 -0.4551  0.6178
 8891SOL    HW238133   1.027   4.604   8.204 -0.8785 -0.4159  1.1086
 8892SOL     OW38134   3.686   3.048   4.253  0.1184  0.0103  0.1676
 8892SOL    HW138135   3.645   3.004   4.178 -0.3443  2.7897 -1.2090
 8892SOL    HW238136   3.768   3.067   4.208 -0.2614 -0.8234 -0.8819
 8893SOL     OW38137   1.872   0.327   1.032  0.5756 -0.1620  0.0043
 8893SOL    HW138138   1.806   0.376   0.982 -1.5749 -2.5612  0.5053
 8893SOL    HW238139   1.842   0.238   1.012 -0.1060 -0.1070  0.8195
 8894SOL     OW38140   4.371   2.649   3.062 -0.2317  0.0817 -0.2223
 8894SOL    HW138141   4.441   2.685   3.116  0.7155 -0.1854 -1.2759
 8894SOL    HW238142   4.339   2.729   3.018  0.0479  0.8700  1.0173
 8895SOL     OW38143   0.758   1.191   2.168 -0.3965 -0.0948 -0.3933
 8895SOL    HW138144   0.683   1.184   2.228 -0.5115  4.7852  0.0710
 8895SOL    HW238145   0.718   1.151   2.091  1.2927 -2.1917 -0.1691
 8896SOL     OW38146   3.051   1.391   4.776  0.5818  0.2221 -0.5085
 8896SOL    HW138147   3.108   1.459   4.742  0.7642 -0.6627 -1.9595
 8896SOL    HW238148   3.121   1.339   4.816  1.0839 -0.1116 -1.8302
 8897SOL     OW38149   2.948   2.340   3.416  0.0510 -0.2714  0.5236
 8897SOL    HW138150   3.035   2.378   3.425 -0.4474  0.8089  0.8486
 8897SOL    HW238151   2.929   2.306   3.503 -0.7884 -2.3248 -0.4574
 8898SOL     OW38152   4.722   1.446  14.987 -0.2291  0.1140  0.7439
 8898SOL    HW138153   0.032   1.479  14.904 -0.3729  2.1191  1.4969
 8898SOL    HW238154   0.074   1.387  14.998 -0.7013 -0.6407 -0.0233
 8899SOL     OW38155   1.975   4.027   2.001  0.4613 -0.1960 -0.0447
 8899SOL    HW138156   1.901   3.966   1.995  0.3063  0.0664 -0.8129
 8899SOL    HW238157   2.030   3.970   1.946  0.9641 -0.5323  0.7940
 8900SOL     OW38158   1.673   3.269   8.441 -0.0572  0.1299 -0.0837
 8900SOL    HW138159   1.734   3.326   8.486  0.0531  0.0534 -0.1366
 8900SOL    HW238160   1.696   3.278   8.349 -1.2778  0.1592 -0.3948
 8901SOL     OW38161   2.021   3.726   3.243  0.5477 -0.4896  0.2325
 8901SOL    HW138162   2.000   3.743   3.335  0.8199 -1.5649  0.4971
 8901SOL    HW238163   1.997   3.634   3.236 -2.1088  0.0299  2.6246
 8902SOL     OW38164   4.018   2.786   7.647  0.1166 -0.1780  0.5139
 8902SOL    HW138165   3.995   2.693   7.638 -0.4179  0.3164 -3.3206
 8902SOL    HW238166   3.936   2.826   7.619 -0.9261 -3.0936 -0.6224
 8903SOL     OW38167   3.030   0.408   2.382  0.1900 -0.5269  0.3207
 8903SOL    HW138168   3.082   0.369   2.452 -0.0675  0.2266  0.9319
 8903SOL    HW238169   3.094   0.463   2.338 -1.3361 -0.1879 -1.4583
 8904SOL     OW38170   4.722   2.566   7.003  0.1494 -0.3720 -0.3493
 8904SOL    HW138171   0.010   2.587   7.096  1.9661  1.2864 -0.9466
 8904SOL    HW238172   4.707   2.472   7.019 -0.7245 -0.4436 -1.6087
 8905SOL     OW38173   2.124   2.376   5.298 -0.2991  0.4827  0.2670
 8905SOL    HW138174   2.142   2.449   5.239  0.8612 -0.2652 -0.3038
 8905SOL    HW238175   2.197   2.394   5.357 -0.9428  2.7368  0.3789
 8906SOL     OW38176   1.402   0.318   6.247  0.0835  0.1029  0.0262
 8906SOL    HW138177   1.450   0.365   6.315  0.1045  1.6691 -1.0767
 8906SOL    HW238178   1.316   0.304   6.287  0.8514 -0.8848  1.3514
 8907SOL     OW38179   2.380   2.594   0.693  0.0430  0.9701 -0.7716
 8907SOL    HW138180   2.316   2.531   0.728  2.1171  0.2088  1.6212
 8907SOL    HW238181   2.339   2.629   0.614 -4.5852 -0.1794  1.1202
 8908SOL     OW38182   3.236   2.489  11.792  0.1829 -1.0083  0.3271
 8908SOL    HW138183   3.188   2.552  11.738  0.9984 -0.1024  0.6672
 8908SOL    HW238184   3.323   2.503  11.755 -1.2500 -0.2593 -2.8002
 8909SOL     OW38185   2.259   1.052   1.441  0.2620 -0.1129  0.2883
 8909SOL    HW138186   2.321   1.039   1.369  0.5198  1.7895  0.1855
 8909SOL    HW238187   2.180   1.073   1.391  0.2527  1.3846  0.9642
 8910SOL     OW38188   4.401   1.565  10.066  0.2514  0.5441  0.2242
 8910SOL    HW138189   4.424   1.513   9.989 -0.0548  0.6031  0.0910
 8910SOL    HW238190   4.416   1.657  10.043  0.3774  0.0720 -1.6213
 8911SOL     OW38191   2.420   4.567   9.439 -0.0453  0.5240 -0.2329
 8911SOL    HW138192   2.371   4.639   9.477 -0.4828 -0.3223  0.8001
 8911SOL    HW238193   2.401   4.488   9.490 -1.4887  1.0376  0.0267
 8912SOL     OW38194   3.985   4.665   1.651 -0.0506  0.4922 -0.0766
 8912SOL    HW138195   3.927   4.659   1.575 -1.4657 -0.8194  1.1000
 8912SOL    HW238196   4.059   4.613   1.621 -1.1384  0.2715 -2.4117
 8913SOL     OW38197   4.012   3.557   9.017 -0.6533 -0.3562 -0.1035
 8913SOL    HW138198   3.997   3.572   9.110  0.0997 -2.2021  0.3170
 8913SOL    HW238199   3.941   3.605   8.975  0.0685  0.2540 -0.6143
 8914SOL     OW38200   3.664   4.447   7.052  0.3227 -0.4455 -0.1784
 8914SOL    HW138201   3.726   4.448   7.125  1.5344 -1.6212 -1.1843
 8914SOL    HW238202   3.688   4.365   7.008  0.3259 -0.7072  0.3080
 8915SOL     OW38203   0.128   2.163   3.008 -0.2882 -0.5305 -0.1137
 8915SOL    HW138204   0.067   2.113   3.062 -0.5926  0.8433  0.8254
 8915SOL    HW238205   0.104   2.137   2.919 -1.5078  0.2813 -0.0230
 8916SOL     OW38206   0.218   2.674   2.622  0.1105 -0.1449 -0.4182
 8916SOL    HW138207   0.157   2.607   2.589 -0.8116 -0.5590  2.1508
 8916SOL    HW238208   0.193   2.749   2.568 -0.9029 -0.7196 -0.7415
 8917SOL     OW38209   0.496   3.670  11.927 -0.3182  0.3652  0.7996
 8917SOL    HW138210   0.519   3.668  11.834  2.0328  1.6249  1.3572
 8917SOL    HW238211   0.424   3.606  11.931 -0.4711  0.4741 -0.2098
 8918SOL     OW38212   1.379   2.049  16.947 -0.3550  0.0666 -0.1116
 8918SOL    HW138213   1.457   1.997  16.925 -1.2318 -1.1113 -0.4264
 8918SOL    HW238214   1.383   2.125  16.890 -0.4823  0.0998 -0.0763
 8919SOL     OW38215   3.989   2.123   4.329  0.4971  0.1069  0.0047
 8919SOL    HW138216   4.000   2.134   4.423 -0.1899  0.0449  0.0930
 8919SOL    HW238217   3.893   2.123   4.326  0.5432  0.0469 -1.9584
 8920SOL     OW38218   0.290   3.898   7.642  0.1847  0.3084 -0.4875
 8920SOL    HW138219   0.280   3.822   7.698  0.2560  0.3466 -0.4237
 8920SOL    HW238220   0.199   3.911   7.617  0.2519  0.3691 -0.7021
 8921SOL     OW38221   3.472   0.990  15.249 -0.0906 -0.2967  0.2308
 8921SOL    HW138222   3.510   0.995  15.161  0.3418 -0.3603  0.4132
 8921SOL    HW238223   3.391   1.032  15.220 -0.9390 -0.8298  1.8456
 8922SOL     OW38224   0.048   3.649   6.142  0.5587 -0.3400 -0.3043
 8922SOL    HW138225   0.010   3.632   6.228 -1.3897 -0.1158 -1.1040
 8922SOL    HW238226   0.090   3.735   6.151  1.0301 -0.5572 -0.4209
 8923SOL     OW38227   1.603   1.980   0.945  0.1716  0.2708 -0.1875
 8923SOL    HW138228   1.616   2.044   1.016 -0.9538  3.5740 -2.9647
 8923SOL    HW238229   1.569   1.908   0.998 -2.0136 -1.9572 -4.6200
 8924SOL     OW38230   0.311   3.127   9.988  0.4911  0.0821 -0.6571
 8924SOL    HW138231   0.406   3.133  10.003  0.6737 -1.6112 -1.0793
 8924SOL    HW238232   0.289   3.063  10.056  1.9437  1.7088  1.3869
 8925SOL     OW38233   0.690   2.347  17.502 -0.5249 -0.0496  0.2562
 8925SOL    HW138234   0.653   2.259  17.497 -0.4331 -0.1159  0.7554
 8925SOL    HW238235   0.705   2.348  17.597  0.3786  1.0442  0.0965
 8926SOL     OW38236   4.290   4.064  14.781  0.1402 -0.2387 -0.1297
 8926SOL    HW138237   4.331   4.150  14.766  1.1833 -0.6989  0.0756
 8926SOL    HW238238   4.354   4.003  14.744  0.9914  0.6264 -0.0805
 8927SOL     OW38239   0.921   0.290  17.398  0.1248 -0.3705  0.7727
 8927SOL    HW138240   0.990   0.346  17.435  0.9923 -0.6295 -0.4337
 8927SOL    HW238241   0.854   0.353  17.372  0.0672  0.1357  2.1397
 8928SOL     OW38242   1.743   2.736   5.194  0.0875  0.8221  0.3644
 8928SOL    HW138243   1.677   2.670   5.213  1.5730 -0.2718  1.7562
 8928SOL    HW238244   1.686   2.808   5.167 -0.2900  0.8650  1.2575
 8929SOL     OW38245   4.597   0.094  10.079  0.1110  0.3156 -0.1553
 8929SOL    HW138246   4.594   0.181  10.038  1.4018  1.0134  1.2287
 8929SOL    HW238247   4.624   0.123  10.166  0.3024  0.0899 -0.1405
 8930SOL     OW38248   4.488   3.908   5.215  0.1749 -0.4345 -0.0619
 8930SOL    HW138249   4.400   3.901   5.251  0.1668  4.2056  0.8625
 8930SOL    HW238250   4.504   3.815   5.201  1.1222 -0.6422  2.4445
 8931SOL     OW38251   0.078   4.167   6.117 -1.2462 -0.2119 -0.1141
 8931SOL    HW138252   0.167   4.175   6.153 -0.5524  0.3258 -1.9567
 8931SOL    HW238253   0.043   4.240   6.168  0.9792  0.6250  0.2390
 8932SOL     OW38254   2.484   0.401   8.228  1.0140  0.3227  0.0163
 8932SOL    HW138255   2.467   0.447   8.146  2.1130  2.5576  1.0262
 8932SOL    HW238256   2.529   0.463   8.286 -0.8037  3.0855 -1.5303
 8933SOL     OW38257   3.013   0.911   7.447  0.0429 -0.1242  0.4644
 8933SOL    HW138258   2.975   0.879   7.528  0.0049  0.5679  0.7250
 8933SOL    HW238259   3.092   0.860   7.426  0.9639  1.7986 -0.8012
 8934SOL     OW38260   3.511   3.179   4.966  0.0686 -0.1335  0.4744
 8934SOL    HW138261   3.453   3.145   4.897  0.7965 -1.4169  0.5082
 8934SOL    HW238262   3.452   3.237   5.015 -1.0073 -1.6196  0.9477
 8935SOL     OW38263   0.761   1.949   6.559 -0.2172 -0.3742 -0.3397
 8935SOL    HW138264   0.786   1.880   6.620 -2.8559 -2.1022 -1.1884
 8935SOL    HW238265   0.754   1.900   6.477  2.8165 -0.3719 -0.5828
 8936SOL     OW38266   0.577   0.160   5.623 -0.1238  0.1989  0.4874
 8936SOL    HW138267   0.539   0.082   5.662 -0.1688  0.5079  1.0622
 8936SOL    HW238268   0.609   0.113   5.546 -2.4080  0.8272 -0.8236
 8937SOL     OW38269   2.946   0.072   3.712 -0.1589 -0.2740  0.5922
 8937SOL    HW138270   2.885   0.146   3.714 -1.0658 -0.9901 -0.0498
 8937SOL    HW238271   2.986   0.097   3.629  0.2647 -1.8904  0.3050
 8938SOL     OW38272   3.695   4.301   7.805 -0.0915 -0.6089 -0.5307
 8938SOL    HW138273   3.652   4.323   7.888 -0.9893 -0.1363 -1.1243
 8938SOL    HW238274   3.649   4.361   7.747  1.7875  2.3516  1.0546
 8939SOL     OW38275   1.885   1.800   9.599  0.3943  0.0980 -0.8071
 8939SOL    HW138276   1.840   1.779   9.517 -0.9637  1.3795 -0.3866
 8939SOL    HW238277   1.963   1.744   9.593 -0.1901 -0.6917 -1.0859
 8940SOL     OW38278   0.988   1.680  12.631 -0.8687  0.0355 -0.0191
 8940SOL    HW138279   0.899   1.657  12.602 -1.0789 -0.1447  0.7644
 8940SOL    HW238280   0.981   1.774  12.614  1.0677  0.4670  1.6286
 8941SOL     OW38281   1.093   4.556   6.706  1.3056 -0.4320  0.2774
 8941SOL    HW138282   1.011   4.552   6.656  2.2997 -1.6534 -1.2552
 8941SOL    HW238283   1.131   4.630   6.657  0.4574 -0.7781 -0.9155
 8942SOL     OW38284   4.528   3.773  17.175  0.3760  0.2140  0.2828
 8942SOL    HW138285   4.502   3.749  17.086 -0.0839  0.2967  0.3936
 8942SOL    HW238286   4.441   3.799  17.207  0.1113  1.7337 -1.7143
 8943SOL     OW38287   1.634   3.434   6.593  0.0782  0.8373 -0.4333
 8943SOL    HW138288   1.543   3.454   6.612  0.0064  0.9843 -0.9124
 8943SOL    HW238289   1.637   3.342   6.617  0.3297  1.2635  1.1685
 8944SOL     OW38290   4.021   1.022   9.456  0.7190 -0.8009 -0.0893
 8944SOL    HW138291   4.097   1.027   9.514  1.6101 -0.2792 -1.3002
 8944SOL    HW238292   3.958   0.954   9.476  0.2945 -0.3398  0.1571
 8945SOL     OW38293   0.668   1.062   8.117  0.5178 -0.5776 -0.1086
 8945SOL    HW138294   0.757   1.055   8.152  0.5712 -2.1723 -0.5869
 8945SOL    HW238295   0.610   1.040   8.190  0.9360 -0.5608  0.2335
 8946SOL     OW38296   2.992   1.322  10.501 -0.2727 -0.5219 -0.2376
 8946SOL    HW138297   2.899   1.324  10.478 -0.1980  0.1810 -0.4866
 8946SOL    HW238298   3.018   1.241  10.458 -0.3457 -1.1092  0.8357
 8947SOL     OW38299   1.764   3.811   5.520 -0.0442 -0.1294 -0.8068
 8947SOL    HW138300   1.794   3.753   5.590  0.9895  3.0102  1.3782
 8947SOL    HW238301   1.795   3.899   5.541 -2.0209  0.3608  0.0921
 8948SOL     OW38302   3.205   2.514   8.011  0.1063 -0.4212 -0.1768
 8948SOL    HW138303   3.253   2.491   8.091 -0.4949  0.4979  0.4430
 8948SOL    HW238304   3.186   2.608   8.018 -2.2284 -0.9182  0.1285
 8949SOL     OW38305   0.502   2.486   6.000  0.2841 -0.1419  0.0668
 8949SOL    HW138306   0.572   2.546   6.025 -1.8544  1.0186  3.3059
 8949SOL    HW238307   0.539   2.440   5.925  0.9428  0.5574 -0.0406
 8950SOL     OW38308   0.392   0.721   6.504 -0.4188  0.2334  0.1147
 8950SOL    HW138309   0.381   0.643   6.449  1.3118 -2.1033  3.0838
 8950SOL    HW238310   0.482   0.735   6.473  0.3009 -3.1515  0.7026
 8951SOL     OW38311   2.195   3.492   8.244  0.0043 -0.0676  0.4480
 8951SOL    HW138312   2.282   3.502   8.207 -0.1565 -0.9128 -0.1474
 8951SOL    HW238313   2.216   3.417   8.301 -1.5292 -1.8050 -1.2820
 8952SOL     OW38314   1.802   4.598   1.973  0.2588  0.3787  0.2070
 8952SOL    HW138315   1.862   4.610   1.899  2.2835  0.3917  1.8498
 8952SOL    HW238316   1.858   4.581   2.049 -1.3744  0.3748  1.3899
 8953SOL     OW38317   1.418   0.634   2.385  0.3764  0.0118 -0.0331
 8953SOL    HW138318   1.390   0.626   2.294 -0.6806 -1.7322  0.4300
 8953SOL    HW238319   1.360   0.569   2.425  0.2792 -1.8417 -3.1675
 8954SOL     OW38320   0.133   1.360   7.453  0.0417 -0.0039 -0.4047
 8954SOL    HW138321   0.182   1.289   7.496 -0.5503  0.1230  0.4845
 8954SOL    HW238322   0.202   1.410   7.410  0.3869  0.0474  0.2069
 8955SOL     OW38323   1.110   2.892   3.666  0.2221 -0.1825 -0.4632
 8955SOL    HW138324   1.048   2.844   3.612  1.9000 -0.6888 -1.9227
 8955SOL    HW238325   1.186   2.835   3.657 -1.8552 -3.4675  2.6014
 8956SOL     OW38326   4.530   4.079  10.601  0.0747  0.7642 -0.6733
 8956SOL    HW138327   4.606   4.041  10.646 -0.3817  0.7881  0.1317
 8956SOL    HW238328   4.530   4.031  10.519 -2.9436  1.8403 -1.2932
 8957SOL     OW38329   2.234   0.608  15.556 -0.3036 -0.3289 -0.3922
 8957SOL    HW138330   2.315   0.586  15.601 -2.1841 -0.7451  2.7935
 8957SOL    HW238331   2.271   0.595  15.468 -0.7816 -0.6576 -0.5459
 8958SOL     OW38332   2.069   4.560   9.207 -0.4518  0.1848  0.4586
 8958SOL    HW138333   2.139   4.625   9.213 -0.8654  0.7348 -0.8007
 8958SOL    HW238334   2.003   4.611   9.160 -0.6981 -1.6730 -1.1660
 8959SOL     OW38335   0.504   2.507  15.696 -0.2296 -0.0796 -0.8155
 8959SOL    HW138336   0.478   2.431  15.642 -1.4814  0.4417 -0.9599
 8959SOL    HW238337   0.598   2.496  15.689 -0.6404 -3.9070 -0.6449
 8960SOL     OW38338   0.940   1.679   6.956 -0.2587  0.3454 -0.3840
 8960SOL    HW138339   0.956   1.593   6.995 -0.6403 -0.2140 -1.4576
 8960SOL    HW238340   1.011   1.687   6.893 -1.4848 -0.7829 -1.9068
 8961SOL     OW38341   4.291   0.250   7.858  0.3029  0.7395  0.4839
 8961SOL    HW138342   4.237   0.186   7.812  2.6862 -0.8660 -0.0946
 8961SOL    HW238343   4.359   0.263   7.792 -1.2847 -0.3353 -1.3615
 8962SOL     OW38344   4.139   1.184  12.857 -0.0247  0.1206  0.1869
 8962SOL    HW138345   4.050   1.156  12.837 -0.3808  0.2487  1.6199
 8962SOL    HW238346   4.181   1.123  12.797  0.2600  0.7518 -0.2541
 8963SOL     OW38347   1.335   0.283   6.783  0.0866  0.0618 -0.0433
 8963SOL    HW138348   1.260   0.228   6.762  1.0812 -0.8556 -1.2269
 8963SOL    HW238349   1.334   0.275   6.878  0.2648  0.8361  0.0233
 8964SOL     OW38350   4.635   3.334   4.649 -0.3977  0.1034  0.1119
 8964SOL    HW138351   4.597   3.247   4.660 -0.7511  0.0761 -1.2997
 8964SOL    HW238352   4.649   3.335   4.554  0.9164  3.2716  0.3456
 8965SOL     OW38353   3.155   3.655   2.361 -0.3210  0.2305  0.0438
 8965SOL    HW138354   3.167   3.633   2.454 -1.4838  1.8033  0.5728
 8965SOL    HW238355   3.229   3.603   2.330  0.3218  0.7524  0.6904
 8966SOL     OW38356   1.865   0.454   2.177 -0.4665 -0.5260 -0.0119
 8966SOL    HW138357   1.780   0.498   2.168 -0.3628 -0.3135  0.0587
 8966SOL    HW238358   1.844   0.366   2.209 -2.5349 -0.2972 -0.7082
 8967SOL     OW38359   1.105   0.888  13.552 -0.5473 -0.2020  0.0368
 8967SOL    HW138360   1.139   0.880  13.463 -1.7085  2.5641 -0.6817
 8967SOL    HW238361   1.164   0.955  13.587 -1.2100  0.1207  0.5394
 8968SOL     OW38362   0.779   4.140   9.815  0.0526  0.2053  0.2549
 8968SOL    HW138363   0.786   4.235   9.807 -0.9625  0.2159 -0.6668
 8968SOL    HW238364   0.835   4.100   9.748  0.3427 -0.2396  0.7583
 8969SOL     OW38365   0.120   0.271   3.615  0.0257 -0.4807 -0.1444
 8969SOL    HW138366   0.122   0.274   3.519 -0.7637 -1.7111 -0.1976
 8969SOL    HW238367   0.214   0.287   3.627 -0.0992  0.9930 -1.0467
 8970SOL     OW38368   4.232   4.578   8.938  0.2540  0.1932 -0.3407
 8970SOL    HW138369   4.229   4.658   8.990 -3.2561  1.1461 -1.9316
 8970SOL    HW238370   4.298   4.594   8.870 -0.4870 -0.5697 -1.2436
 8971SOL     OW38371   2.519   1.114   3.592 -0.3016  0.2463 -0.1094
 8971SOL    HW138372   2.547   1.152   3.676 -1.0225  0.2228  0.1413
 8971SOL    HW238373   2.469   1.037   3.620  1.1270 -1.0657 -1.1905
 8972SOL     OW38374   0.630   0.077   4.946 -0.0778  0.1890  0.2721
 8972SOL    HW138375   0.670   0.157   4.914  1.8554 -1.4252 -1.3444
 8972SOL    HW238376   0.587   0.045   4.867 -0.6224  1.7873 -0.0642
 8973SOL     OW38377   2.436   2.151   4.886  0.8032  0.1705 -0.2304
 8973SOL    HW138378   2.466   2.062   4.904 -0.7931 -0.3146  0.0607
 8973SOL    HW238379   2.418   2.183   4.974 -0.4415  1.6006 -0.9971
 8974SOL     OW38380   4.514   0.597  14.634  0.2890 -0.0857 -0.1915
 8974SOL    HW138381   4.575   0.670  14.646  0.1424  0.2867 -1.6333
 8974SOL    HW238382   4.579   0.532  14.609  1.5932  1.2944 -0.4317
 8975SOL     OW38383   0.949   2.300   4.157  0.1237 -0.3320  0.0137
 8975SOL    HW138384   0.873   2.296   4.216 -0.8700  2.0540 -1.1241
 8975SOL    HW238385   1.018   2.339   4.210 -3.0008  2.7627  1.8148
 8976SOL     OW38386   1.294   1.701   1.740  0.5027  0.1298  0.1216
 8976SOL    HW138387   1.367   1.655   1.783 -1.0807 -1.6813  0.8720
 8976SOL    HW238388   1.327   1.790   1.755 -0.8082  1.0918 -2.7768
 8977SOL     OW38389   0.750   3.475  11.988 -0.0146 -0.5007  0.4446
 8977SOL    HW138390   0.791   3.558  11.961 -0.0005  0.0096  2.0153
 8977SOL    HW238391   0.683   3.510  12.046  0.7134 -0.3985  1.2310
 8978SOL     OW38392   0.161   1.725   5.560  0.0582 -0.7872  0.1394
 8978SOL    HW138393   0.100   1.764   5.622 -0.7970 -2.7213  0.5304
 8978SOL    HW238394   0.192   1.648   5.607  0.2240 -0.4725  0.5436
 8979SOL     OW38395   4.016   4.419   6.728 -0.9338 -0.1134  0.1776
 8979SOL    HW138396   4.015   4.324   6.734  1.0483 -0.0313  1.9263
 8979SOL    HW238397   3.932   4.441   6.688 -0.4766 -2.1275 -1.8623
 8980SOL     OW38398   3.627   1.983   3.646  0.5240 -0.4565  0.1257
 8980SOL    HW138399   3.634   1.929   3.567 -1.4432  0.4876 -0.7021
 8980SOL    HW238400   3.715   1.986   3.683  0.2418  0.1863  0.7423
 8981SOL     OW38401   3.988   4.265   9.274 -0.4529 -0.2589  0.3715
 8981SOL    HW138402   4.012   4.196   9.213  1.0447  0.3650  0.2527
 8981SOL    HW238403   3.926   4.317   9.223  2.3798  1.0689 -1.7497
 8982SOL     OW38404   2.311   3.324  12.733 -0.0962  0.1069 -0.9088
 8982SOL    HW138405   2.217   3.307  12.743 -0.2505  1.8029  0.4883
 8982SOL    HW238406   2.309   3.401  12.676 -0.0465 -0.7378 -2.0439
 8983SOL     OW38407   3.195   2.369   2.838  0.3949 -0.3278  0.5507
 8983SOL    HW138408   3.203   2.300   2.772 -0.6085 -0.1347  0.2129
 8983SOL    HW238409   3.198   2.310   2.913  0.9822  2.0732  2.3958
 8984SOL     OW38410   2.463   4.611   2.907  0.3458  0.3070 -0.4368
 8984SOL    HW138411   2.408   4.541   2.943  2.3653 -0.5939  0.9186
 8984SOL    HW238412   2.548   4.569   2.922  0.7747  0.6979 -1.8291
 8985SOL     OW38413   2.008   3.954   5.736 -0.2450 -0.5008  0.2231
 8985SOL    HW138414   1.946   4.018   5.700 -0.5686 -0.8801  0.1108
 8985SOL    HW238415   1.974   3.875   5.693 -4.0131  1.7936 -1.0094
 8986SOL     OW38416   3.132   1.849   8.889 -0.1752  0.1238 -0.3401
 8986SOL    HW138417   3.201   1.797   8.849 -1.6325 -3.7904  2.2888
 8986SOL    HW238418   3.062   1.838   8.825 -0.0060  0.6799 -0.6248
 8987SOL     OW38419   0.512   0.576  14.441 -0.7855  0.7380 -0.3878
 8987SOL    HW138420   0.439   0.635  14.457 -2.4151 -1.8600  1.8068
 8987SOL    HW238421   0.468   0.493  14.419  1.8170 -0.7688  0.0751
 8988SOL     OW38422   3.263   0.524   6.406  0.2325  0.6029 -0.0821
 8988SOL    HW138423   3.236   0.542   6.496  1.1650  0.2319  0.2786
 8988SOL    HW238424   3.331   0.591   6.395 -0.2474  0.6601 -2.6017
 8989SOL     OW38425   4.316   0.703   8.351  0.3280  0.5353  0.2519
 8989SOL    HW138426   4.253   0.651   8.401 -0.4928  1.6984  0.4314
 8989SOL    HW238427   4.370   0.642   8.302  0.0631  0.2606  0.2980
 8990SOL     OW38428   1.353   2.792   3.577 -0.0156 -0.0643  0.2646
 8990SOL    HW138429   1.435   2.841   3.576 -1.1757  1.8497  0.1876
 8990SOL    HW238430   1.379   2.724   3.639  0.6134  0.7263  0.8658
 8991SOL     OW38431   1.056   4.629   7.835 -0.4629 -0.2812 -0.0480
 8991SOL    HW138432   0.971   4.673   7.829 -0.3927  0.0823  1.7174
 8991SOL    HW238433   1.049   4.588   7.922 -1.6845  1.0839  0.4927
 8992SOL     OW38434   0.039   0.500  14.556 -0.3415  0.3173  0.0233
 8992SOL    HW138435   0.097   0.491  14.631 -0.5444  0.7268  0.2329
 8992SOL    HW238436   0.098   0.528  14.486 -0.7940 -1.1835 -0.9670
 8993SOL     OW38437   1.677   0.606   8.826 -0.1049  0.0909  0.0521
 8993SOL    HW138438   1.696   0.597   8.919  0.4856  0.0067 -0.0780
 8993SOL    HW238439   1.712   0.692   8.803 -0.5522  0.7114  1.6874
 8994SOL     OW38440   0.347   1.187   2.313 -0.2442  0.1409 -0.6979
 8994SOL    HW138441   0.258   1.222   2.307  0.7782  2.5483 -2.1066
 8994SOL    HW238442   0.382   1.217   2.228  0.0506  2.4747  0.2348
 8995SOL     OW38443   2.545   2.393  13.168  0.0526 -0.1738  0.4894
 8995SOL    HW138444   2.551   2.392  13.072  0.4530 -0.3541  0.5156
 8995SOL    HW238445   2.476   2.328  13.184  0.5534 -1.0507 -0.8566
 8996SOL     OW38446   3.261   3.692   6.805  0.0476 -0.0581 -1.1607
 8996SOL    HW138447   3.349   3.707   6.841 -0.0279  2.3007 -1.9784
 8996SOL    HW238448   3.245   3.783   6.782  1.8073  0.4877 -0.1695
 8997SOL     OW38449   2.149   4.064   6.483 -0.3956  0.1955  0.0462
 8997SOL    HW138450   2.063   4.026   6.502 -0.3977  1.3426  2.3638
 8997SOL    HW238451   2.201   3.984   6.488  1.6557  1.3479 -3.0692
 8998SOL     OW38452   0.435   2.112   6.315  0.4064  0.9517  0.3181
 8998SOL    HW138453   0.382   2.149   6.386 -0.4901 -0.8817  0.6102
 8998SOL    HW238454   0.440   2.188   6.257  0.6910  1.7611  1.3875
 8999SOL     OW38455   0.465   0.060  13.735 -0.3968  0.1254  0.1346
 8999SOL    HW138456   0.471   4.693  13.766  0.1494 -0.3296 -1.2884
 8999SOL    HW238457   0.553   0.063  13.696 -0.8519  1.1574 -0.8197
 9000SOL     OW38458   2.296   0.565   4.262 -0.0517  0.3581 -0.8175
 9000SOL    HW138459   2.228   0.625   4.293  0.8298  0.6838  0.5199
 9000SOL    HW238460   2.265   0.497   4.322  0.1679  0.5786 -0.4504
 9001SOL     OW38461   1.865   1.408  15.941 -0.3647 -0.1641  0.2115
 9001SOL    HW138462   1.858   1.325  15.988  1.3264 -0.1008  0.5735
 9001SOL    HW238463   1.959   1.401  15.928 -0.3391 -1.0658  0.8989
 9002SOL     OW38464   3.750   0.260   5.654  0.3116 -0.4144 -0.1286
 9002SOL    HW138465   3.813   0.245   5.725  0.3312  0.2119 -0.0093
 9002SOL    HW238466   3.782   0.344   5.620 -0.6650  0.1307  0.2998
 9003SOL     OW38467   1.925   3.244   6.448 -0.9664 -0.0136  0.1852
 9003SOL    HW138468   1.925   3.335   6.418 -0.2811 -0.0619  0.0349
 9003SOL    HW238469   2.017   3.223   6.465 -0.4478 -0.0503 -2.6994
 9004SOL     OW38470   2.840   0.176   8.569 -0.2649 -0.3097 -0.5025
 9004SOL    HW138471   2.820   0.269   8.582  2.2165  0.0922  0.4414
 9004SOL    HW238472   2.929   0.184   8.532  0.0502  1.2565  0.5920
 9005SOL     OW38473   1.676   1.998   2.842  0.2139 -0.6918  0.4444
 9005SOL    HW138474   1.608   1.944   2.881  0.4440 -1.1069  0.2770
 9005SOL    HW238475   1.734   1.934   2.799 -1.1408 -2.6447  1.5126
 9006SOL     OW38476   3.249   4.054   7.360  0.0219  0.5541 -0.5261
 9006SOL    HW138477   3.308   3.992   7.319  0.9263  0.2185  1.3123
 9006SOL    HW238478   3.291   4.138   7.342 -1.1137  1.3447  0.4600
 9007SOL     OW38479   0.512   3.482   6.566  0.2617 -0.0739 -0.0958
 9007SOL    HW138480   0.470   3.396   6.571 -1.3335  0.7455  0.4760
 9007SOL    HW238481   0.432   3.534   6.558 -1.5616 -3.1693 -2.0864
 9008SOL     OW38482   2.472   4.622   4.902 -0.2068  0.3596 -0.0330
 9008SOL    HW138483   2.567   4.630   4.902 -0.0822 -1.2504 -0.3377
 9008SOL    HW238484   2.472   4.570   4.822 -1.3769 -1.0702  0.9123
 9009SOL     OW38485   2.161   4.235   5.771 -0.0318 -0.5394  0.3793
 9009SOL    HW138486   2.070   4.234   5.803 -0.5181 -0.5719 -1.0058
 9009SOL    HW238487   2.167   4.329   5.754  2.5338 -0.5962  1.0794
 9010SOL     OW38488   4.440   3.013   3.434 -0.0482 -0.2717 -0.1843
 9010SOL    HW138489   4.378   2.940   3.424 -0.3645  0.2266 -1.8912
 9010SOL    HW238490   4.522   2.984   3.395  0.2786 -1.3979  1.3281
 9011SOL     OW38491   0.995   1.700  15.284 -0.3168  0.4998  0.5288
 9011SOL    HW138492   1.002   1.754  15.363  0.4653  0.2301  0.6425
 9011SOL    HW238493   0.959   1.614  15.303 -2.6076  1.4439  0.5295
 9012SOL     OW38494   3.116   3.573   5.733  0.2880  0.2236 -0.3197
 9012SOL    HW138495   3.027   3.544   5.713 -0.0586  1.1488 -0.0933
 9012SOL    HW238496   3.092   3.665   5.741  0.6559  0.2524  0.4772
 9013SOL     OW38497   0.027   3.930  13.659 -0.2377  0.3281  0.0081
 9013SOL    HW138498   0.093   3.892  13.601  1.0418  1.8280  0.4951
 9013SOL    HW238499   4.716   4.007  13.614 -0.2724 -0.4705 -1.3294
 9014SOL     OW38500   3.595   2.642   2.624  0.3116 -0.0207  0.0508
 9014SOL    HW138501   3.586   2.714   2.686 -0.1418  1.6864 -1.9964
 9014SOL    HW238502   3.504   2.628   2.598  0.3442 -2.3166  1.1825
 9015SOL     OW38503   1.426   0.151   7.057  0.3070 -0.3271 -0.0870
 9015SOL    HW138504   1.400   0.205   7.131  0.3647 -0.8637  0.3270
 9015SOL    HW238505   1.361   0.081   7.055  0.8956 -0.8992  0.8561
 9016SOL     OW38506   0.811   0.486   7.222 -0.4273 -0.2643 -0.1438
 9016SOL    HW138507   0.838   0.554   7.284 -1.4481 -0.0079  0.0201
 9016SOL    HW238508   0.782   0.423   7.287  0.8685 -0.8351 -0.1107
 9017SOL     OW38509   0.121   2.996  14.312 -0.0790 -0.0403  0.7494
 9017SOL    HW138510   0.182   3.009  14.239 -1.5572  1.7073 -0.1819
 9017SOL    HW238511   0.167   2.939  14.374  0.5700  0.5327  0.7911
 9018SOL     OW38512   0.586   3.132   6.566  0.2173 -0.2682 -0.8713
 9018SOL    HW138513   0.572   3.093   6.652  0.5850 -1.5237 -1.3801
 9018SOL    HW238514   0.506   3.183   6.550 -0.7425 -1.5949 -0.2941
 9019SOL     OW38515   4.234   3.066   8.261  0.0003  0.4250  0.7826
 9019SOL    HW138516   4.148   3.089   8.225 -0.9228 -0.5942  2.3452
 9019SOL    HW238517   4.216   2.987   8.312 -0.5823 -0.3783 -0.6706
 9020SOL     OW38518   3.022   2.816   2.514 -0.6283  0.3112 -0.2345
 9020SOL    HW138519   3.047   2.769   2.594 -0.5003  0.0202 -0.4441
 9020SOL    HW238520   2.956   2.758   2.476 -1.1314  1.0348 -0.4655
 9021SOL     OW38521   3.060   3.003   1.778  0.0225  0.2489 -0.2386
 9021SOL    HW138522   3.015   3.087   1.776 -2.3375 -0.9642  1.8641
 9021SOL    HW238523   3.115   3.003   1.699  2.4489 -0.2703  1.4503
 9022SOL     OW38524   2.896   3.526   5.539  0.3041 -0.4200 -0.1871
 9022SOL    HW138525   2.803   3.533   5.515  0.5311  0.2021 -0.8995
 9022SOL    HW238526   2.937   3.579   5.471 -0.9779 -1.6280 -1.9107
 9023SOL     OW38527   0.640   4.139  11.542 -0.2967  0.0891  0.6068
 9023SOL    HW138528   0.664   4.138  11.635  1.3624 -0.2558  0.1761
 9023SOL    HW238529   0.723   4.106  11.507  0.2033  0.9424  0.9738
 9024SOL     OW38530   1.449   2.469   8.890  0.0523 -0.4862  0.0758
 9024SOL    HW138531   1.514   2.540   8.884 -0.9131  0.1847 -2.3232
 9024SOL    HW238532   1.364   2.512   8.892 -0.2712 -0.9243 -3.8005
 9025SOL     OW38533   3.068   4.435   8.371 -0.6717  0.7368 -0.3293
 9025SOL    HW138534   3.151   4.400   8.403 -0.2935  1.1917 -0.8207
 9025SOL    HW238535   3.007   4.362   8.380  2.5320 -1.9576 -0.4511
 9026SOL     OW38536   1.905   1.856   7.972  0.2768 -0.3687  0.0793
 9026SOL    HW138537   1.997   1.882   7.969  0.1119  0.1878 -0.1738
 9026SOL    HW238538   1.904   1.772   7.927 -1.9235  0.4825 -1.4814
 9027SOL     OW38539   4.276   2.372  12.306 -0.3613  0.1160 -0.4176
 9027SOL    HW138540   4.214   2.441  12.287  0.5756  0.8643 -0.7387
 9027SOL    HW238541   4.225   2.314  12.363 -0.3677  0.2191 -0.3172
 9028SOL     OW38542   0.758   0.261   8.607 -0.6413  0.2972 -0.4209
 9028SOL    HW138543   0.721   0.175   8.587 -2.3231  1.9406 -4.2555
 9028SOL    HW238544   0.808   0.280   8.528 -2.2853 -1.3554 -1.8546
 9029SOL     OW38545   4.261   3.186   4.860  0.1245  0.1913 -0.1399
 9029SOL    HW138546   4.261   3.124   4.786  1.1664 -1.0094  0.8663
 9029SOL    HW238547   4.260   3.271   4.815  1.2520  1.7625  2.8492
 9030SOL     OW38548   1.310   0.218   5.216 -0.2793 -0.0274  0.4000
 9030SOL    HW138549   1.236   0.159   5.200 -0.7478  1.1791 -1.8393
 9030SOL    HW238550   1.287   0.292   5.160 -0.0424 -2.6974 -3.2226
 9031SOL     OW38551   0.848   0.005   1.382  0.4081  0.1135 -0.4960
 9031SOL    HW138552   0.806   0.028   1.465  0.6426  0.8963 -0.5925
 9031SOL    HW238553   0.823   0.084   1.333 -2.3094 -0.1516  0.4676
 9032SOL     OW38554   2.936   4.132  11.470 -0.0829  0.6090 -0.2604
 9032SOL    HW138555   2.862   4.184  11.500  0.7617  1.5767  0.1580
 9032SOL    HW238556   2.939   4.159  11.378 -1.6491 -0.4692 -0.6382
 9033SOL     OW38557   1.709   1.508   8.412  0.1108  0.1931  0.3465
 9033SOL    HW138558   1.776   1.552   8.465 -0.2963 -1.0534  1.9256
 9033SOL    HW238559   1.650   1.582   8.398  1.5121  1.1640 -0.4344
 9034SOL     OW38560   0.947   0.275  12.533 -0.4605 -0.4247  0.0951
 9034SOL    HW138561   0.958   0.360  12.575 -0.7733 -0.1487 -0.3885
 9034SOL    HW238562   1.027   0.273  12.481 -0.1239  1.1054  0.5742
 9035SOL     OW38563   0.401   2.765   2.141 -0.3185  0.1794  0.5001
 9035SOL    HW138564   0.466   2.829   2.172 -0.1660 -0.7640  2.1229
 9035SOL    HW238565   0.450   2.730   2.067  0.9520  1.6131  0.6614
 9036SOL     OW38566   3.288   4.568   6.018 -0.2699 -0.1699 -0.0465
 9036SOL    HW138567   3.310   4.622   6.094 -0.0637  0.2446 -0.4028
 9036SOL    HW238568   3.341   4.612   5.952 -0.9657 -0.0952 -0.5686
 9037SOL     OW38569   0.873   0.760   7.322  0.3772  0.6277  0.1033
 9037SOL    HW138570   0.804   0.822   7.346 -1.0256 -1.6251  1.8567
 9037SOL    HW238571   0.934   0.830   7.298 -0.0149 -0.2243 -3.4324
 9038SOL     OW38572   1.114   3.835   2.903  0.2290 -0.1741 -0.1719
 9038SOL    HW138573   1.101   3.740   2.893 -0.2837 -0.1780  0.5201
 9038SOL    HW238574   1.076   3.865   2.821  1.9428  1.7186 -0.2587
 9039SOL     OW38575   1.224   2.352   4.791 -0.0716  0.2720 -0.2119
 9039SOL    HW138576   1.141   2.388   4.824  0.4272  0.5317  0.7511
 9039SOL    HW238577   1.207   2.258   4.792  0.4654  0.1785  0.3608
 9040SOL     OW38578   0.093   3.868   4.977 -0.5095 -0.1223 -0.0096
 9040SOL    HW138579   0.166   3.807   4.964  0.3232  0.7807  0.4640
 9040SOL    HW238580   0.126   3.929   5.043 -1.5207  2.6744 -2.0837
 9041SOL     OW38581   0.717   1.131   5.407  0.0212  0.1063  0.4753
 9041SOL    HW138582   0.651   1.075   5.366  2.0947 -1.8030 -0.2644
 9041SOL    HW238583   0.755   1.082   5.479  0.1188 -2.2301 -1.1656
 9042SOL     OW38584   3.403   3.364   5.134 -0.4599  0.1317  0.3194
 9042SOL    HW138585   3.341   3.321   5.192 -0.2977 -1.5946 -0.7962
 9042SOL    HW238586   3.433   3.424   5.203 -0.7843 -1.0414  1.4830
 9043SOL     OW38587   1.807   2.856   4.800  0.0199  0.2907  0.1710
 9043SOL    HW138588   1.814   2.767   4.833 -0.5027 -0.4850 -1.7974
 9043SOL    HW238589   1.716   2.881   4.813 -0.7102 -0.7652 -2.9916
 9044SOL     OW38590   4.168   0.707   5.566  0.6004  0.2834 -0.6867
 9044SOL    HW138591   4.126   0.761   5.634 -0.1123  1.2494 -1.8953
 9044SOL    HW238592   4.097   0.708   5.502 -0.5498  1.2976  0.6035
 9045SOL     OW38593   3.123   4.286   4.404  0.2141 -0.1167 -0.4605
 9045SOL    HW138594   3.117   4.233   4.325  0.1585  1.5660 -1.5819
 9045SOL    HW238595   3.211   4.267   4.436 -0.9289 -2.7392  1.1231
 9046SOL     OW38596   3.125   4.512   9.045  0.2083 -0.1971 -0.0454
 9046SOL    HW138597   3.085   4.598   9.038 -1.1432 -0.8494 -0.3607
 9046SOL    HW238598   3.091   4.477   8.963 -0.0901 -1.6454  0.6945
 9047SOL     OW38599   0.550   1.993  11.479 -0.1870 -0.3445  0.4988
 9047SOL    HW138600   0.493   1.952  11.545 -1.4024 -0.4797 -0.6415
 9047SOL    HW238601   0.499   1.993  11.398 -0.7268 -0.9086  0.8400
 9048SOL     OW38602   1.821   2.344   6.794 -0.2461  0.5558 -0.3531
 9048SOL    HW138603   1.818   2.431   6.752  0.1524  1.0079  0.5626
 9048SOL    HW238604   1.750   2.296   6.751 -0.0355  0.0828 -0.1689
 9049SOL     OW38605   1.736   0.912   7.308  0.1754  0.3242 -0.1039
 9049SOL    HW138606   1.676   0.934   7.237  0.9051  2.7280  0.0304
 9049SOL    HW238607   1.779   0.997   7.313  1.5318 -0.2999 -1.1898
 9050SOL     OW38608   0.429   2.832  15.715 -0.0490  0.4544 -0.1602
 9050SOL    HW138609   0.422   2.867  15.626 -2.2986 -0.5218 -0.3755
 9050SOL    HW238610   0.521   2.849  15.734 -0.3164  1.2985  0.4216
 9051SOL     OW38611   3.578   0.701  15.221 -0.3910  0.1424  0.6224
 9051SOL    HW138612   3.625   0.768  15.270 -0.0947  0.1822  0.2846
 9051SOL    HW238613   3.520   0.750  15.161 -0.0605  2.0928  1.8908
 9052SOL     OW38614   2.722   4.473   8.791 -0.5712 -0.1544  0.3755
 9052SOL    HW138615   2.808   4.513   8.798 -0.4639 -0.0270 -1.8455
 9052SOL    HW238616   2.692   4.523   8.715 -0.0591 -0.7655 -0.2271
 9053SOL     OW38617   1.661   4.239   2.171 -0.1321  0.5446  0.3405
 9053SOL    HW138618   1.602   4.212   2.100  0.3894  1.3194 -0.3867
 9053SOL    HW238619   1.703   4.317   2.135 -0.2575 -0.5895 -2.3298
 9054SOL     OW38620   1.889   1.704   9.329  0.0108 -0.7484  0.4640
 9054SOL    HW138621   1.962   1.648   9.355  0.8297  0.6256  1.1018
 9054SOL    HW238622   1.833   1.641   9.284 -1.2741  0.9421 -0.3468
 9055SOL     OW38623   2.464   3.159  12.878  0.0804 -0.1864 -0.1967
 9055SOL    HW138624   2.399   3.218  12.841  0.1154 -0.2689 -0.3904
 9055SOL    HW238625   2.521   3.226  12.916 -1.0787  0.1894  0.8666
 9056SOL     OW38626   4.111   1.503  15.134 -1.0365 -0.3903 -0.2478
 9056SOL    HW138627   4.057   1.578  15.161 -1.0161 -1.0737  1.6458
 9056SOL    HW238628   4.179   1.549  15.084 -2.6934  1.5416 -0.7423
 9057SOL     OW38629   2.061   3.654  10.803  0.1595  0.5773  0.0217
 9057SOL    HW138630   2.149   3.617  10.810 -0.0611  0.1090  0.3159
 9057SOL    HW238631   2.023   3.568  10.783 -1.9989  1.0822  2.0282
 9058SOL     OW38632   0.639   0.016   6.137  0.2353  0.0918  0.2326
 9058SOL    HW138633   0.713   4.702   6.088  0.1084 -2.3113  1.8441
 9058SOL    HW238634   0.627   0.107   6.111 -0.6775 -0.2085 -0.3991
 9059SOL     OW38635   4.334   1.207   7.699  0.7656 -0.4480  0.4069
 9059SOL    HW138636   4.369   1.182   7.614  1.3881 -1.7550  1.0420
 9059SOL    HW238637   4.399   1.165   7.756 -0.1416 -0.8859  1.1265
 9060SOL     OW38638   4.211   4.339  11.994 -0.2014 -0.6617 -0.0532
 9060SOL    HW138639   4.288   4.309  11.946  0.4786  1.8797 -0.5574
 9060SOL    HW238640   4.141   4.304  11.939 -0.5818  1.2273 -0.7659
 9061SOL     OW38641   3.952   3.292   3.707 -0.4238  0.4576 -0.3497
 9061SOL    HW138642   4.011   3.318   3.778 -0.9414 -0.3788  0.3722
 9061SOL    HW238643   4.022   3.257   3.652 -0.5230 -0.4545  0.1162
 9062SOL     OW38644   4.611   0.753   0.891 -0.0426 -0.0128 -0.3699
 9062SOL    HW138645   4.693   0.800   0.874 -0.3100  0.0202 -1.6160
 9062SOL    HW238646   4.551   0.822   0.922  1.3472  0.9171  0.2591
 9063SOL     OW38647   1.514   0.731  16.106  0.1068  0.1168 -0.0050
 9063SOL    HW138648   1.541   0.800  16.045  0.3609  1.5284  1.7346
 9063SOL    HW238649   1.510   0.788  16.182  0.5824 -0.9727  0.8481
 9064SOL     OW38650   0.449   4.382  15.076 -0.2949  0.5447  0.2427
 9064SOL    HW138651   0.401   4.463  15.058  1.2721  1.1662 -1.1604
 9064SOL    HW238652   0.410   4.319  15.016  1.6366 -2.1250  1.7811
 9065SOL     OW38653   1.238   0.426  13.195 -0.1340  0.4301  0.0588
 9065SOL    HW138654   1.173   0.426  13.124 -2.2334 -0.3214  2.0030
 9065SOL    HW238655   1.261   0.333  13.193 -1.8498  0.0694 -3.0763
 9066SOL     OW38656   3.837   2.645  13.911 -0.5633 -0.2762 -0.1427
 9066SOL    HW138657   3.904   2.576  13.904  1.5276  1.8591 -1.0070
 9066SOL    HW238658   3.821   2.640  14.005 -0.4888 -1.3387 -0.1800
 9067SOL     OW38659   3.582   3.913   1.691 -0.4292  0.2613 -0.3160
 9067SOL    HW138660   3.556   3.964   1.614  0.3352 -1.4260 -1.6851
 9067SOL    HW238661   3.563   3.825   1.658  0.4659  0.6270 -1.8095
 9068SOL     OW38662   2.128   0.201   5.738  0.2579  0.0848  0.1174
 9068SOL    HW138663   2.185   0.246   5.801  0.6349 -0.4070  0.1301
 9068SOL    HW238664   2.168   0.229   5.655 -2.0895  1.1861 -0.6256
 9069SOL     OW38665   0.676   3.314   4.713 -0.2522  0.0345 -0.0099
 9069SOL    HW138666   0.581   3.303   4.706 -0.1948 -1.3253  1.4253
 9069SOL    HW238667   0.679   3.323   4.809 -2.7203 -0.1562  0.0829
 9070SOL     OW38668   2.755   2.227   8.491 -0.6313  0.0620 -0.2181
 9070SOL    HW138669   2.726   2.155   8.547 -0.6862  0.3519  0.1233
 9070SOL    HW238670   2.749   2.295   8.558 -0.2359 -0.3059  0.1889
 9071SOL     OW38671   0.900   4.397   8.561  0.2263  0.2756 -0.3951
 9071SOL    HW138672   0.993   4.399   8.537  0.0998 -0.1963 -0.9228
 9071SOL    HW238673   0.904   4.357   8.648 -2.1171  0.6783 -0.1198
 9072SOL     OW38674   2.367   3.722   8.423 -0.1732 -0.6107  0.0377
 9072SOL    HW138675   2.299   3.750   8.485 -1.0879  2.4447 -2.3724
 9072SOL    HW238676   2.416   3.801   8.404 -1.2944  0.0152 -0.2628
 9073SOL     OW38677   1.732   3.237   6.949 -0.2418  0.1271 -0.1429
 9073SOL    HW138678   1.775   3.204   7.027  0.6175  1.3323 -0.1123
 9073SOL    HW238679   1.748   3.330   6.963  1.6646 -0.0990 -0.7990
 9074SOL     OW38680   1.043   3.236   6.914 -0.0860  0.1162 -0.3594
 9074SOL    HW138681   0.987   3.230   6.837  0.4398  3.4201 -1.0014
 9074SOL    HW238682   1.043   3.144   6.940 -0.4656 -0.3458 -1.9782
 9075SOL     OW38683   2.717   1.855  13.677  0.4373  0.3771  0.3150
 9075SOL    HW138684   2.743   1.792  13.610  1.2027  1.0367 -0.0207
 9075SOL    HW238685   2.722   1.938  13.629 -0.0729  0.0485 -0.2974
 9076SOL     OW38686   3.908   1.205   5.285 -0.6750 -0.5131 -0.9150
 9076SOL    HW138687   3.873   1.117   5.272 -0.3843 -0.6903 -0.4947
 9076SOL    HW238688   3.831   1.249   5.321  2.5216  2.8926  1.8158
 9077SOL     OW38689   3.700   3.074   8.590  0.1555  0.1660 -0.1831
 9077SOL    HW138690   3.735   3.004   8.534 -0.0954 -0.1587  0.0688
 9077SOL    HW238691   3.628   3.030   8.634  0.0529 -0.1818 -0.6963
 9078SOL     OW38692   2.445   2.261   4.524 -0.0410  0.3639  0.1251
 9078SOL    HW138693   2.484   2.339   4.564 -0.6441 -0.3721  2.1441
 9078SOL    HW238694   2.499   2.257   4.445  0.7049 -1.3861  0.7283
 9079SOL     OW38695   2.600   1.916   5.342  1.2576  0.4508 -0.6177
 9079SOL    HW138696   2.570   1.825   5.348  0.0689  1.0841  2.8545
 9079SOL    HW238697   2.663   1.912   5.270  0.6785  1.3433 -1.1587
 9080SOL     OW38698   4.337   1.018  16.891 -0.0290  0.1541  0.2573
 9080SOL    HW138699   4.329   0.947  16.956  2.3319  1.0920  1.5776
 9080SOL    HW238700   4.392   0.970  16.829 -0.4138  0.2226 -0.1416
 9081SOL     OW38701   4.584   0.201   4.097 -0.0355  0.1754  0.1050
 9081SOL    HW138702   4.668   0.187   4.140  0.3558 -0.7740 -0.9896
 9081SOL    HW238703   4.609   0.199   4.005 -1.3640 -2.1701 -0.2088
 9082SOL     OW38704   1.469   0.986   5.161  0.5416  0.0843  0.5067
 9082SOL    HW138705   1.474   0.991   5.066  0.0085  2.1715  0.5872
 9082SOL    HW238706   1.558   0.950   5.167  0.1956 -0.3777  3.1090
 9083SOL     OW38707   3.837   0.212   5.282 -0.2873  0.1949  0.0675
 9083SOL    HW138708   3.820   0.127   5.240  3.1111 -0.2864 -0.3259
 9083SOL    HW238709   3.748   0.247   5.287 -0.3442  0.1558 -0.6641
 9084SOL     OW38710   1.554   4.403   6.355  0.0278 -0.2121 -0.0476
 9084SOL    HW138711   1.633   4.349   6.346  1.4482  1.7750  0.5169
 9084SOL    HW238712   1.519   4.370   6.438  0.3025  1.4482  0.7267
 9085SOL     OW38713   4.113   4.144   2.230  0.0551  0.2305 -0.1036
 9085SOL    HW138714   4.081   4.234   2.226 -0.1334  0.1056 -1.2489
 9085SOL    HW238715   4.060   4.099   2.164 -1.9814  1.0430  0.9604
 9086SOL     OW38716   1.564   4.001   7.620  0.0878 -0.2027  0.3149
 9086SOL    HW138717   1.610   4.036   7.696 -0.5651 -0.1061  0.6676
 9086SOL    HW238718   1.485   4.055   7.622 -0.3119 -0.8847  4.2035
 9087SOL     OW38719   3.613   3.343   8.448  0.0627 -0.3253  0.1736
 9087SOL    HW138720   3.672   3.359   8.374 -1.5822  1.7636 -0.6835
 9087SOL    HW238721   3.646   3.267   8.497 -0.9864 -0.6675  0.3551
 9088SOL     OW38722   3.002   2.494   4.210 -0.2745  0.3460 -0.5262
 9088SOL    HW138723   3.077   2.444   4.176  0.2170  0.6850  0.0502
 9088SOL    HW238724   2.968   2.439   4.281  0.9190 -0.9232 -0.9273
 9089SOL     OW38725   3.011   1.410   0.921 -0.4157 -0.2165 -0.3542
 9089SOL    HW138726   2.941   1.463   0.883 -1.0619  0.2997  1.5895
 9089SOL    HW238727   3.004   1.322   0.882 -1.0608  1.0932 -3.2085
 9090SOL     OW38728   0.749   4.304   3.247 -0.2780 -0.2024  0.8947
 9090SOL    HW138729   0.843   4.300   3.263  0.0480  1.2923 -0.5562
 9090SOL    HW238730   0.744   4.265   3.160 -0.1273  2.3179 -0.2688
 9091SOL     OW38731   1.891   3.083   1.386 -0.0250 -0.0136  0.3223
 9091SOL    HW138732   1.817   3.138   1.415  0.9038  1.2301  0.3402
 9091SOL    HW238733   1.961   3.148   1.391  0.0942 -0.2142  1.2233
 9092SOL     OW38734   0.175   0.654   7.015  0.0418 -0.2649 -0.4003
 9092SOL    HW138735   0.231   0.719   6.972  1.9341 -3.5536 -2.9274
 9092SOL    HW238736   0.245   0.610   7.063 -2.6940 -1.0825  2.8127
 9093SOL     OW38737   4.462   2.998   3.835  0.2048 -0.4274 -0.2956
 9093SOL    HW138738   4.524   2.999   3.908 -1.5395  1.9553  1.1157
 9093SOL    HW238739   4.483   3.084   3.799  4.7126 -1.0609  0.8287
 9094SOL     OW38740   0.235   2.563   2.866  0.2545  0.1917  0.4553
 9094SOL    HW138741   0.275   2.480   2.840 -0.4979  0.2730 -0.9313
 9094SOL    HW238742   0.212   2.602   2.782 -0.2120  0.7085  0.8271
 9095SOL     OW38743   3.478   2.341   3.832  0.2546  0.5100 -0.3041
 9095SOL    HW138744   3.531   2.411   3.867 -0.4862  2.0135 -2.2005
 9095SOL    HW238745   3.498   2.348   3.738  2.1892  1.9509  0.2422
 9096SOL     OW38746   1.635   3.850   1.444 -0.3762 -0.3624  0.2517
 9096SOL    HW138747   1.557   3.802   1.474  0.4682 -0.2030  2.6493
 9096SOL    HW238748   1.592   3.894   1.370 -0.5534 -2.1675 -0.7333
 9097SOL     OW38749   1.309   0.731   3.134 -0.1850  0.1837 -0.0605
 9097SOL    HW138750   1.331   0.769   3.219  2.0871 -1.0891 -0.0775
 9097SOL    HW238751   1.358   0.789   3.075 -1.4699  0.4890 -0.8334
 9098SOL     OW38752   0.621   1.582  12.230  0.2254 -0.2216 -0.2021
 9098SOL    HW138753   0.676   1.617  12.301  0.8181 -0.5792 -0.4864
 9098SOL    HW238754   0.536   1.619  12.253  0.3884  0.5695 -0.9311
 9099SOL     OW38755   2.127   2.393   8.519  0.5127 -0.3626 -0.1879
 9099SOL    HW138756   2.217   2.392   8.549 -0.4600 -0.5265  2.6713
 9099SOL    HW238757   2.135   2.311   8.471 -0.2799  0.0875 -1.1104
 9100SOL     OW38758   2.988   2.745  13.058 -0.0048  0.5889 -0.1752
 9100SOL    HW138759   2.998   2.754  13.153 -0.1062 -2.4771  0.1247
 9100SOL    HW238760   2.989   2.651  13.039  1.8896  1.1096 -2.6674
 9101SOL     OW38761   4.635   0.022   4.641  0.0081  0.1996  0.3496
 9101SOL    HW138762   4.576   4.720   4.570  0.5268 -0.7939  0.2700
 9101SOL    HW238763   4.599   4.720   4.726  3.5638 -2.4603  1.0536
 9102SOL     OW38764   2.197   1.987   5.974 -0.5082  0.0427  0.2496
 9102SOL    HW138765   2.264   2.035   5.925  2.7350 -2.8297  1.8369
 9102SOL    HW238766   2.158   2.057   6.026 -1.6594 -0.1113 -0.3957
 9103SOL     OW38767   3.538   4.244   2.434  0.2868  0.0150  0.0991
 9103SOL    HW138768   3.480   4.231   2.508  0.0243  0.7942  0.0236
 9103SOL    HW238769   3.474   4.265   2.366 -0.9766 -2.1486  0.6410
 9104SOL     OW38770   2.039   0.198   0.167 -0.7283  0.2919  0.1942
 9104SOL    HW138771   2.047   0.293   0.162  2.7913  0.0931  1.4382
 9104SOL    HW238772   2.006   0.190   0.077 -1.5393  0.1307  0.5073
 9105SOL     OW38773   0.124   2.476   3.118 -0.7170 -0.1273 -0.0624
 9105SOL    HW138774   0.135   2.387   3.086  1.4154  0.7383 -1.6958
 9105SOL    HW238775   0.167   2.522   3.046  1.9799 -0.1711  1.5304
 9106SOL     OW38776   2.527   2.103   8.049  0.4816  0.0693  0.3901
 9106SOL    HW138777   2.438   2.123   8.022  0.0984 -3.2023 -0.7627
 9106SOL    HW238778   2.571   2.066   7.972  0.4265  0.9723 -0.0735
 9107SOL     OW38779   3.112   3.807   3.033  0.6365 -0.0418 -0.0047
 9107SOL    HW138780   3.094   3.717   3.007  2.9459 -0.6079  0.3470
 9107SOL    HW238781   3.179   3.794   3.100  2.2701 -0.3722 -1.7098
 9108SOL     OW38782   1.683   0.105   4.216 -0.1148  0.1985  0.2433
 9108SOL    HW138783   1.672   0.190   4.259 -3.5669  0.0316 -0.3697
 9108SOL    HW238784   1.619   0.116   4.146 -0.1314  3.2883  0.7751
 9109SOL     OW38785   4.092   2.719  12.106 -0.3414 -0.3724  0.1159
 9109SOL    HW138786   4.096   2.636  12.059  1.8212  1.2642 -2.5896
 9109SOL    HW238787   4.126   2.701  12.194  0.0252  0.8200  0.2195
 9110SOL     OW38788   4.135   4.181   1.010 -0.3842 -0.0681 -0.2611
 9110SOL    HW138789   4.183   4.103   1.040 -0.7107  0.4689  1.6244
 9110SOL    HW238790   4.187   4.247   1.056 -1.1713 -1.4232  2.6059
 9111SOL     OW38791   0.945   4.102   1.467 -0.4686 -0.4707  0.3918
 9111SOL    HW138792   0.879   4.091   1.536  1.2073 -0.0479  2.0366
 9111SOL    HW238793   0.939   4.198   1.460  0.4061 -0.4872 -0.4836
 9112SOL     OW38794   3.809   2.356   8.006 -0.1195  0.7628 -0.5107
 9112SOL    HW138795   3.884   2.371   7.949  1.2251  0.4011  1.1317
 9112SOL    HW238796   3.853   2.304   8.074 -0.1639  1.1912 -0.1578
 9113SOL     OW38797   4.067   3.832   4.928  0.8230  0.1695  0.0156
 9113SOL    HW138798   4.150   3.809   4.886 -0.2594 -0.5091 -1.7132
 9113SOL    HW238799   4.071   3.927   4.914 -2.1609  0.4544  1.1652
 9114SOL     OW38800   1.554   0.282   3.033  0.2105  0.5731 -0.0744
 9114SOL    HW138801   1.624   0.237   3.079  1.1130  1.1677 -0.8476
 9114SOL    HW238802   1.483   0.301   3.094 -0.1144 -0.4101 -0.1507
 9115SOL     OW38803   0.331   2.172   1.800 -0.4916  0.9959 -0.0176
 9115SOL    HW138804   0.270   2.230   1.845  0.4685  0.8944  1.3973
 9115SOL    HW238805   0.340   2.215   1.715  0.8882  0.2715 -0.2506
 9116SOL     OW38806   0.768   3.562   9.958 -0.7834 -0.3487 -0.6582
 9116SOL    HW138807   0.700   3.594   9.899 -0.5247 -0.0424 -0.7884
 9116SOL    HW238808   0.809   3.636  10.003  1.1669 -0.6186 -1.9966
 9117SOL     OW38809   1.470   0.648   1.847 -0.1420  0.2370 -0.6891
 9117SOL    HW138810   1.543   0.642   1.786 -1.3664  0.0872 -2.1184
 9117SOL    HW238811   1.446   0.739   1.827 -1.1046 -0.3505 -2.2165
 9118SOL     OW38812   1.044   1.311   4.129  0.2492 -0.2687  0.2547
 9118SOL    HW138813   0.985   1.276   4.195  0.8640  0.3248  1.1175
 9118SOL    HW238814   0.989   1.348   4.060  2.9744 -0.0260 -1.7818
 9119SOL     OW38815   4.242   3.745  14.666  0.3989  0.0735  0.2867
 9119SOL    HW138816   4.164   3.706  14.627  1.5369 -0.4216 -1.4759
 9119SOL    HW238817   4.238   3.701  14.751 -1.5300 -0.9057 -0.3154
 9120SOL     OW38818   0.413   0.662  10.563 -0.0743 -0.3845  0.4142
 9120SOL    HW138819   0.424   0.627  10.651  1.7609 -1.6194 -0.2959
 9120SOL    HW238820   0.494   0.712  10.569  0.6955 -1.7506  1.2775
 9121SOL     OW38821   3.069   4.518  16.659 -0.5368  0.3040  0.0273
 9121SOL    HW138822   3.014   4.471  16.722 -1.5396  0.5227 -0.6870
 9121SOL    HW238823   3.130   4.567  16.714 -0.3922  1.9578 -1.6206
 9122SOL     OW38824   2.682   3.161  10.075  0.2751  0.0151  0.0217
 9122SOL    HW138825   2.660   3.119  10.158  0.0948 -0.1416 -0.1078
 9122SOL    HW238826   2.778   3.163  10.082  0.2303  0.3141  0.4883
 9123SOL     OW38827   2.190   4.693   4.871  0.3228 -0.0612 -0.2672
 9123SOL    HW138828   2.169   4.617   4.925  0.1605 -1.4308 -2.2626
 9123SOL    HW238829   2.285   4.690   4.860 -0.0559 -2.5828 -2.6957
 9124SOL     OW38830   4.095   4.720   1.392 -0.1155 -0.4414 -1.0470
 9124SOL    HW138831   4.165   4.707   1.456 -0.9406  0.0073 -0.0623
 9124SOL    HW238832   4.115   4.651   1.328  0.0339  0.0848 -1.5689
 9125SOL     OW38833   2.715   3.955   5.308 -0.3610 -0.3177  0.2071
 9125SOL    HW138834   2.632   3.955   5.357  0.1567  0.8783  1.0801
 9125SOL    HW238835   2.776   3.996   5.369  0.1044 -0.0863 -0.4182
 9126SOL     OW38836   2.730   3.617  12.911  0.7293 -0.8333  0.3304
 9126SOL    HW138837   2.716   3.712  12.913 -0.2178 -0.9836  0.8192
 9126SOL    HW238838   2.812   3.612  12.959  0.4173 -0.2764  0.9259
 9127SOL     OW38839   1.937   1.770   8.288 -0.4263 -0.1459 -0.4168
 9127SOL    HW138840   1.881   1.752   8.363  1.6231  3.2154  1.8996
 9127SOL    HW238841   1.940   1.865   8.301  1.9459 -0.4178  0.8907
 9128SOL     OW38842   3.004   0.456   5.736 -0.0536  0.2496  0.7622
 9128SOL    HW138843   3.072   0.434   5.800  0.0997 -2.2420 -0.2490
 9128SOL    HW238844   2.959   0.535   5.764 -0.8839 -0.6994  2.1556
 9129SOL     OW38845   2.933   2.878  10.831  0.5191 -0.4151 -0.1995
 9129SOL    HW138846   3.000   2.926  10.880 -2.1184  2.8219  0.2257
 9129SOL    HW238847   2.855   2.900  10.883  0.9146  1.6410 -0.4975
 9130SOL     OW38848   2.994   0.961   4.890 -0.6216 -0.0982  0.2856
 9130SOL    HW138849   3.033   1.048   4.892 -1.7097  0.3755  1.0224
 9130SOL    HW238850   3.035   0.929   4.971 -0.5397 -0.9635 -0.0965
 9131SOL     OW38851   0.727   1.762   9.973  0.1580  0.1521 -0.2566
 9131SOL    HW138852   0.676   1.727   9.899  0.5190 -2.4008  0.7032
 9131SOL    HW238853   0.656   1.775  10.035 -0.4271  0.9417 -1.0873
 9132SOL     OW38854   4.659   0.956   9.298  0.4295  0.2825 -0.6461
 9132SOL    HW138855   0.013   0.995   9.256  1.8952  0.4679  2.1358
 9132SOL    HW238856   4.647   1.021   9.367 -0.4735  0.5600 -1.0658
 9133SOL     OW38857   3.300   0.170   6.490  0.5246 -0.1793 -0.5589
 9133SOL    HW138858   3.367   0.224   6.533 -0.5190  2.1955 -1.9183
 9133SOL    HW238859   3.269   0.114   6.560  0.4715  0.2778 -0.2151
 9134SOL     OW38860   3.967   0.015   5.655  0.0777  0.4818 -0.3071
 9134SOL    HW138861   3.958   0.077   5.728 -1.7770 -1.0493  0.7538
 9134SOL    HW238862   3.997   0.072   5.584  0.4058  1.0548  0.2891
 9135SOL     OW38863   2.260   1.469  11.809 -0.2028  0.0812 -0.1985
 9135SOL    HW138864   2.202   1.469  11.732 -0.2615  1.3486 -0.1565
 9135SOL    HW238865   2.299   1.556  11.804 -0.4434  0.1037 -1.6988
 9136SOL     OW38866   4.254   2.671   4.798  0.1331  0.4182 -0.3095
 9136SOL    HW138867   4.227   2.721   4.721 -3.4482  0.4116  0.9510
 9136SOL    HW238868   4.205   2.716   4.867  0.7539  1.3649 -0.4824
 9137SOL     OW38869   2.457   1.400   9.952 -0.3738 -0.5158  0.0996
 9137SOL    HW138870   2.476   1.478   9.899 -1.5250 -1.1402 -1.2473
 9137SOL    HW238871   2.535   1.347   9.939 -1.6628 -2.8107  1.7831
 9138SOL     OW38872   1.680   3.079   6.512  0.0094 -0.2494  0.5041
 9138SOL    HW138873   1.742   3.151   6.505 -0.0655 -0.0796  1.6383
 9138SOL    HW238874   1.716   3.024   6.581  0.8285 -2.9331 -2.0473
 9139SOL     OW38875   0.681   0.472   3.186 -0.3448  0.0436  0.5836
 9139SOL    HW138876   0.770   0.504   3.201 -0.3311  1.2734 -2.0288
 9139SOL    HW238877   0.672   0.498   3.094 -0.1345 -1.4413  0.1461
 9140SOL     OW38878   4.059   2.763   9.977 -0.4268 -0.4110 -0.3024
 9140SOL    HW138879   4.041   2.732  10.066  1.1123 -0.0038  0.1602
 9140SOL    HW238880   4.133   2.710   9.948 -0.5455 -1.0822  0.6331
 9141SOL     OW38881   2.069   0.540  15.828  0.2331 -0.3802  0.1509
 9141SOL    HW138882   2.091   0.550  15.735 -1.3384  5.1565  0.3376
 9141SOL    HW238883   2.154   0.553  15.869  1.5204 -3.8779 -1.3980
 9142SOL     OW38884   1.422   4.252   4.138 -0.3211 -0.1759 -0.1652
 9142SOL    HW138885   1.454   4.306   4.211 -0.9263  0.0468 -0.0634
 9142SOL    HW238886   1.422   4.175   4.195 -0.5363 -0.3285 -0.3700
 9143SOL     OW38887   4.715   1.572   3.152 -0.3467 -0.4071 -0.2793
 9143SOL    HW138888   0.068   1.533   3.109  1.5130  1.5218  1.2421
 9143SOL    HW238889   4.642   1.537   3.101 -0.1327 -0.5311 -0.5003
 9144SOL     OW38890   3.941   2.800   8.072 -0.0213  0.1975  0.5218
 9144SOL    HW138891   3.867   2.839   8.025  0.2653 -0.5449 -0.5361
 9144SOL    HW238892   4.002   2.870   8.049 -0.5069 -0.0405 -1.4582
 9145SOL     OW38893   0.390   2.307   7.880  0.2550 -0.2766  0.0696
 9145SOL    HW138894   0.438   2.269   7.807 -0.4539  1.8489 -1.4910
 9145SOL    HW238895   0.446   2.384   7.895  0.1656  0.0924 -1.5543
 9146SOL     OW38896   2.836   2.657   3.504 -0.2210  0.3909  0.3263
 9146SOL    HW138897   2.813   2.748   3.522  1.6357  0.9591 -0.2663
 9146SOL    HW238898   2.752   2.616   3.527  0.5417 -0.2112  2.0803
 9147SOL     OW38899   1.640   2.139   3.070 -0.1499  0.1835 -0.2466
 9147SOL    HW138900   1.661   2.112   2.980  2.6486  0.8971  0.2072
 9147SOL    HW238901   1.619   2.232   3.071 -0.3425  0.1424 -0.3409
 9148SOL     OW38902   0.212   1.180  16.412 -0.2125 -0.0067 -0.7440
 9148SOL    HW138903   0.181   1.233  16.339  0.5712 -0.1771 -1.2039
 9148SOL    HW238904   0.161   1.100  16.400 -0.0238 -0.2699  0.2281
 9149SOL     OW38905   1.655   1.536   1.686  0.0391 -0.3738  0.1943
 9149SOL    HW138906   1.651   1.567   1.596  2.1714  1.3400  0.6634
 9149SOL    HW238907   1.686   1.448   1.668  0.0341 -0.6049  1.3173
 9150SOL     OW38908   1.032   2.170   9.157  0.3505 -0.1185  0.1660
 9150SOL    HW138909   1.099   2.236   9.141  0.8431 -0.9546 -1.1710
 9150SOL    HW238910   0.950   2.216   9.174  0.3255 -0.2614  0.4463
 9151SOL     OW38911   3.885   0.680   8.717  0.2823  0.0800 -0.2832
 9151SOL    HW138912   3.826   0.607   8.700 -2.0020  1.8209  0.0842
 9151SOL    HW238913   3.963   0.634   8.746  0.9808  1.2777 -0.2530
 9152SOL     OW38914   0.855   1.762  15.886  0.6490 -0.3863  0.3317
 9152SOL    HW138915   0.922   1.790  15.823 -0.2580  1.9160  0.3837
 9152SOL    HW238916   0.895   1.774  15.972 -0.3981  1.0726  0.6201
 9153SOL     OW38917   2.557   0.854   4.729 -0.1998 -0.0253  0.5341
 9153SOL    HW138918   2.645   0.845   4.692 -0.6974 -1.4891 -0.2908
 9153SOL    HW238919   2.506   0.797   4.671  1.7732  1.0399 -2.2311
 9154SOL     OW38920   3.611   1.454  13.312 -0.1556  0.0025 -0.5680
 9154SOL    HW138921   3.668   1.444  13.388  2.0652  1.3484 -2.0489
 9154SOL    HW238922   3.661   1.514  13.256  0.0308  0.4882  0.1165
 9155SOL     OW38923   2.707   1.060   7.090  0.0361  0.1158 -0.0565
 9155SOL    HW138924   2.770   1.075   7.161  1.3988  0.7823 -1.3953
 9155SOL    HW238925   2.628   1.040   7.140 -0.7839  3.1375 -0.1778
 9156SOL     OW38926   0.464   2.061   9.597  0.1985  0.5096  0.1113
 9156SOL    HW138927   0.426   1.997   9.537  1.5228 -0.1915  0.0165
 9156SOL    HW238928   0.481   1.992   9.661 -3.1170 -1.3501 -1.0657
 9157SOL     OW38929   2.526   1.553   2.339  0.2249 -0.4142 -0.4479
 9157SOL    HW138930   2.466   1.625   2.362 -0.5031 -1.2108  0.1416
 9157SOL    HW238931   2.476   1.498   2.279 -0.3644 -0.9918  0.5655
 9158SOL     OW38932   0.770   1.681   5.684 -0.4452 -0.3190 -0.0821
 9158SOL    HW138933   0.766   1.596   5.640 -2.7266  0.3707 -1.2275
 9158SOL    HW238934   0.820   1.733   5.622  2.0804 -0.3976  1.8962
 9159SOL     OW38935   0.860   0.255   5.889  0.3650  0.3555 -0.2146
 9159SOL    HW138936   0.866   0.182   5.950  0.5889 -0.2741 -0.9906
 9159SOL    HW238937   0.947   0.247   5.851  0.1906 -1.8899 -0.1238
 9160SOL     OW38938   2.950   2.568   7.383  0.2054  0.4221 -0.1903
 9160SOL    HW138939   2.988   2.502   7.324 -1.0767  0.0135 -0.5699
 9160SOL    HW238940   2.857   2.565   7.359  0.2407  0.8248 -0.3670
 9161SOL     OW38941   1.567   0.024   5.182  0.1249  0.4080  0.1512
 9161SOL    HW138942   1.498   0.089   5.168 -0.8996 -0.9542 -1.0647
 9161SOL    HW238943   1.602   0.007   5.095  0.5509 -0.5554  0.5018
 9162SOL     OW38944   2.894   1.082   3.297  0.7140  0.0502  0.1235
 9162SOL    HW138945   2.986   1.083   3.268  0.7713  0.2647  0.3096
 9162SOL    HW238946   2.886   0.987   3.297  0.7705  0.0434 -0.1435
 9163SOL     OW38947   3.236   1.950  11.457 -0.2728  0.2908  0.6597
 9163SOL    HW138948   3.303   1.885  11.439 -1.3506 -0.9325  1.1242
 9163SOL    HW238949   3.293   2.027  11.457 -0.4626  0.4337  0.9675
 9164SOL     OW38950   4.099   3.231   6.795  0.3116  0.4578  0.2963
 9164SOL    HW138951   4.035   3.292   6.831  0.9608  1.2099  0.1722
 9164SOL    HW238952   4.165   3.288   6.755  2.3852 -0.2130  2.7076
 9165SOL     OW38953   1.597   1.544  15.466  0.1665 -0.1891  0.0153
 9165SOL    HW138954   1.642   1.508  15.543  0.7332 -0.0892 -0.2717
 9165SOL    HW238955   1.630   1.467  15.419 -1.5759 -1.8928  1.5639
 9166SOL     OW38956   2.795   2.768   6.329  0.2303  0.6394 -0.2849
 9166SOL    HW138957   2.738   2.715   6.385 -0.4115  1.5108 -0.1172
 9166SOL    HW238958   2.729   2.835   6.310 -0.0468  0.8592  1.4399
 9167SOL     OW38959   1.508   1.761   8.525  0.3659 -0.0432  0.1403
 9167SOL    HW138960   1.499   1.706   8.603 -1.0385  1.2428  0.8720
 9167SOL    HW238961   1.587   1.810   8.546  0.7833 -0.5021 -0.3502
 9168SOL     OW38962   0.840   2.074  16.383  0.5731 -0.8844 -0.4977
 9168SOL    HW138963   0.818   2.073  16.476 -1.2314  0.4944 -0.9082
 9168SOL    HW238964   0.773   2.133  16.347 -0.3586 -0.2810  2.2198
 9169SOL     OW38965   1.054   2.499   5.447 -0.0368  0.1437 -0.4255
 9169SOL    HW138966   0.985   2.528   5.506  0.3774  0.8819 -0.2993
 9169SOL    HW238967   1.015   2.418   5.415  1.2982 -0.5521 -0.2850
 9170SOL     OW38968   4.601   4.596   7.252  0.3847 -0.0193  0.4231
 9170SOL    HW138969   4.630   4.582   7.342  2.8047 -1.8980 -0.6426
 9170SOL    HW238970   4.630   4.686   7.238 -5.2014  1.3449 -2.2472
 9171SOL     OW38971   0.996   3.770  12.766  0.4028 -0.1615  0.0189
 9171SOL    HW138972   0.921   3.713  12.753  1.0300 -0.8935 -0.4474
 9171SOL    HW238973   1.050   3.718  12.705 -1.3604 -0.8763 -0.9207
 9172SOL     OW38974   1.208   4.513  10.463 -0.0827  0.0968 -0.6367
 9172SOL    HW138975   1.211   4.609  10.464  1.3599  0.0500 -0.4776
 9172SOL    HW238976   1.116   4.489  10.476 -0.0749  0.4655  0.1122
 9173SOL     OW38977   4.397   2.677   2.555 -0.1078 -0.2172 -0.1876
 9173SOL    HW138978   4.382   2.634   2.639 -2.6141  1.9211  0.4864
 9173SOL    HW238979   4.323   2.639   2.507  0.4628  0.3479 -1.5354
 9174SOL     OW38980   0.147   0.310   6.029  0.6040 -0.2393 -0.2828
 9174SOL    HW138981   0.173   0.329   5.939 -0.2802  1.6259 -0.1572
 9174SOL    HW238982   0.176   0.225   6.062  0.3082 -0.7194 -1.2623
 9175SOL     OW38983   2.471   2.960   1.194 -0.4841 -0.4532  0.3025
 9175SOL    HW138984   2.531   3.031   1.218  2.1952 -1.8106 -2.4475
 9175SOL    HW238985   2.420   2.988   1.118  0.2097 -4.1508 -1.4958
 9176SOL     OW38986   3.496   3.593   7.872  0.0071  0.3327  0.4811
 9176SOL    HW138987   3.511   3.687   7.879  2.9774 -0.1728  0.9327
 9176SOL    HW238988   3.450   3.571   7.954  2.2063 -0.7372  1.4381
 9177SOL     OW38989   0.012   0.986   6.736  0.0467 -0.6508 -0.5070
 9177SOL    HW138990   0.092   0.957   6.693  1.4271  1.6650  0.4989
 9177SOL    HW238991   4.701   0.907   6.777 -1.0336  1.1176  2.0033
 9178SOL     OW38992   0.084   3.590  11.204 -0.4957 -0.2318  0.3521
 9178SOL    HW138993   0.109   3.566  11.114  2.1515 -1.0671  1.3194
 9178SOL    HW238994   4.714   3.610  11.197 -0.1130  0.8791 -1.6735
 9179SOL     OW38995   0.160   3.235  12.702  0.0130 -0.5559  0.3743
 9179SOL    HW138996   0.118   3.302  12.756  1.4064  0.2159  0.5053
 9179SOL    HW238997   0.245   3.279  12.703 -0.7695  0.9504  0.8789
 9180SOL     OW38998   4.552   3.766  16.882 -0.6655  0.1980  0.3727
 9180SOL    HW138999   4.636   3.724  16.868  0.0119  1.1193  1.6292
 9180SOL    HW239000   4.531   3.808  16.798 -1.5675  1.5733  1.2824
 9181SOL     OW39001   1.223   0.798   8.994  0.5732 -0.0252 -0.5303
 9181SOL    HW139002   1.300   0.743   9.004  0.8218  0.6655  1.3768
 9181SOL    HW239003   1.169   0.772   9.069  0.3214  0.9793 -0.3604
 9182SOL     OW39004   3.577   1.915   3.345  0.0046 -0.5034 -0.4563
 9182SOL    HW139005   3.529   1.833   3.353 -1.8611  0.2735 -4.1142
 9182SOL    HW239006   3.665   1.888   3.318 -0.4026 -2.2050 -0.0663
 9183SOL     OW39007   1.020   1.967   1.914  0.2515  0.2315 -0.1722
 9183SOL    HW139008   1.092   1.963   1.977  0.6296  1.1877 -0.5497
 9183SOL    HW239009   1.016   1.880   1.875 -0.0892  0.5665 -0.8809
 9184SOL     OW39010   3.518   0.747   5.190 -0.3901 -0.0060 -0.1656
 9184SOL    HW139011   3.495   0.829   5.235 -2.0318  0.0910 -1.1969
 9184SOL    HW239012   3.613   0.752   5.182 -0.2745 -1.3308  0.4007
 9185SOL     OW39013   1.896   0.731   5.439  0.1082 -0.3961 -0.0422
 9185SOL    HW139014   1.935   0.729   5.352 -0.2698  3.0033 -0.2995
 9185SOL    HW239015   1.981   0.717   5.479 -1.7537 -1.8111  3.4259
 9186SOL     OW39016   0.211   3.076  15.606 -0.1047 -0.0951  0.2963
 9186SOL    HW139017   0.141   3.096  15.545  0.2738 -0.8439 -0.3996
 9186SOL    HW239018   0.283   3.046  15.549 -0.9872  0.7868 -1.2865
 9187SOL     OW39019   3.703   0.745   2.222 -0.0961  0.2855 -0.2309
 9187SOL    HW139020   3.766   0.809   2.189  0.7282 -1.1201 -1.3573
 9187SOL    HW239021   3.663   0.784   2.300  0.4321  3.3720 -1.4804
 9188SOL     OW39022   2.762   2.388   3.009  0.2969 -0.0277  0.5857
 9188SOL    HW139023   2.776   2.450   3.080 -1.4622 -0.2978  1.1592
 9188SOL    HW239024   2.681   2.346   3.037  0.1963 -1.5599 -1.9620
 9189SOL     OW39025   0.089   1.149  15.633  0.1331 -0.0990 -0.5066
 9189SOL    HW139026   0.057   1.236  15.610  1.2331  0.9152  1.7839
 9189SOL    HW239027   0.181   1.174  15.632  0.1319 -0.0988 -0.6546
 9190SOL     OW39028   1.721   2.306   7.711 -0.4832 -0.2028 -0.5369
 9190SOL    HW139029   1.780   2.231   7.699 -0.3347 -0.0372 -0.8715
 9190SOL    HW239030   1.690   2.313   7.621 -2.0188  1.6297  0.1478
 9191SOL     OW39031   3.559   1.193   3.159  0.1330 -0.0912 -0.3476
 9191SOL    HW139032   3.591   1.123   3.216 -2.8981 -1.0513  0.1981
 9191SOL    HW239033   3.594   1.272   3.201  0.6911 -0.0791 -0.8346
 9192SOL     OW39034   4.157   1.068  12.018  0.4112  0.1146  0.6741
 9192SOL    HW139035   4.135   1.158  11.992 -1.4981 -0.8745 -1.1462
 9192SOL    HW239036   4.213   1.088  12.093  1.5239 -0.2652 -0.0579
 9193SOL     OW39037   1.131   2.105   4.690  0.1624  0.1631  0.0433
 9193SOL    HW139038   1.085   2.153   4.622 -0.5447  0.0617  0.4581
 9193SOL    HW239039   1.096   2.017   4.684 -0.6863  0.5047  0.0123
 9194SOL     OW39040   1.594   2.737   4.069 -0.2973 -0.5717 -0.4770
 9194SOL    HW139041   1.519   2.794   4.086  1.3117  0.7472  2.2754
 9194SOL    HW239042   1.637   2.732   4.154 -0.5851  1.0804 -0.2245
 9195SOL     OW39043   0.678   4.325   3.624  0.1979  0.4596 -0.4270
 9195SOL    HW139044   0.703   4.393   3.562  1.6486 -2.4874 -3.0438
 9195SOL    HW239045   0.719   4.357   3.705 -0.6431  5.1807 -1.8747
 9196SOL     OW39046   4.446   3.249   7.298  0.2204  0.6385  0.4652
 9196SOL    HW139047   4.514   3.237   7.366 -0.1178 -0.5523  0.5997
 9196SOL    HW239048   4.463   3.166   7.254 -2.2085  0.1224  0.5518
 9197SOL     OW39049   2.817   3.550   2.163 -0.4396 -0.2947  0.3346
 9197SOL    HW139050   2.868   3.576   2.240  4.0322 -0.0150 -2.6888
 9197SOL    HW239051   2.825   3.455   2.162  1.9207 -0.0749 -1.4116
 9198SOL     OW39052   1.091   0.708   1.802 -0.0123 -0.3338  0.1602
 9198SOL    HW139053   1.157   0.769   1.834 -1.8063  2.5812 -1.6865
 9198SOL    HW239054   1.074   0.655   1.880 -1.0278  0.6494  0.6143
 9199SOL     OW39055   3.345   1.249   1.537 -0.1647  0.2065 -0.2028
 9199SOL    HW139056   3.424   1.301   1.520  0.1654 -1.0625 -2.6574
 9199SOL    HW239057   3.282   1.307   1.495  0.4635  2.6578  2.2799
 9200SOL     OW39058   1.695   1.562   7.915  0.6061  0.3102 -0.2454
 9200SOL    HW139059   1.653   1.647   7.920 -0.2860 -0.0832 -0.9205
 9200SOL    HW239060   1.668   1.524   7.998 -0.0099  2.0045  0.3191
 9201SOL     OW39061   0.631   1.048  12.876  0.5141 -0.0142  0.3089
 9201SOL    HW139062   0.691   1.039  12.950  1.0486  2.0689  0.1129
 9201SOL    HW239063   0.554   1.028  12.930 -0.4411 -1.8078 -1.7350
 9202SOL     OW39064   3.984   2.425   8.277 -0.2791  0.0482 -0.0063
 9202SOL    HW139065   4.070   2.390   8.302 -0.5637  0.2690  1.2937
 9202SOL    HW239066   3.925   2.357   8.309  2.5201 -2.9044 -1.0308
 9203SOL     OW39067   2.713   1.124  16.591  0.2977 -0.1126 -0.1883
 9203SOL    HW139068   2.740   1.166  16.673 -1.7383  0.4941  0.1753
 9203SOL    HW239069   2.796   1.095  16.554 -0.1237 -0.0399 -1.2070
 9204SOL     OW39070   4.478   4.524  15.496  0.8338 -0.2261  0.4563
 9204SOL    HW139071   4.404   4.568  15.453 -1.9857 -3.3645  2.1259
 9204SOL    HW239072   4.526   4.601  15.528  0.3389 -0.0645  0.8056
 9205SOL     OW39073   1.497   0.719   4.991  0.3856 -0.2109 -0.3799
 9205SOL    HW139074   1.403   0.718   4.978  0.4102  0.6314 -0.6188
 9205SOL    HW239075   1.515   0.699   5.083  0.7014 -0.7761 -0.5648
 9206SOL     OW39076   1.774   1.854  17.079  0.3567 -0.1085  0.2782
 9206SOL    HW139077   1.829   1.922  17.118 -0.2653  0.0540  0.8828
 9206SOL    HW239078   1.839   1.847  17.009  1.2483 -0.4975  1.1513
 9207SOL     OW39079   4.522   3.237   0.727  0.1796  0.0256 -0.1361
 9207SOL    HW139080   4.557   3.179   0.659  1.0848 -0.2211  0.5382
 9207SOL    HW239081   4.561   3.321   0.702  0.9070 -0.4670 -0.6640
 9208SOL     OW39082   1.126   2.813   4.858  0.1539  0.6157 -0.5654
 9208SOL    HW139083   1.144   2.732   4.904 -0.2092  0.4112 -0.7868
 9208SOL    HW239084   1.128   2.879   4.927  1.4625 -2.2958  2.1754
 9209SOL     OW39085   2.164   1.125   4.568 -0.3646  0.2839 -0.4117
 9209SOL    HW139086   2.161   1.036   4.534 -1.1212  0.2990 -0.3831
 9209SOL    HW239087   2.252   1.150   4.538 -0.8304 -0.5352 -2.5177
 9210SOL     OW39088   0.048   0.932   2.168 -0.3796 -0.0133  0.0635
 9210SOL    HW139089   4.680   0.953   2.187 -0.9479 -0.5289 -2.0984
 9210SOL    HW239090   0.030   0.875   2.093  1.4743  2.4332 -2.2368
 9211SOL     OW39091   3.335   0.756  16.350  0.1416 -0.5582 -0.5958
 9211SOL    HW139092   3.287   0.799  16.279  1.2781  0.7520 -0.5650
 9211SOL    HW239093   3.270   0.700  16.393  1.1644 -1.5708 -0.3598
 9212SOL     OW39094   2.179   2.135   7.709 -0.0077 -0.0370 -0.4971
 9212SOL    HW139095   2.177   2.094   7.623  2.4583  0.8709 -0.9996
 9212SOL    HW239096   2.184   2.057   7.764 -0.7405 -0.7410 -1.4325
 9213SOL     OW39097   0.861   0.521  12.386  0.4697  0.5537  0.1834
 9213SOL    HW139098   0.843   0.427  12.386 -0.3093  0.7143  1.3252
 9213SOL    HW239099   0.896   0.531  12.474 -0.7870 -1.1222  0.8659
 9214SOL     OW39100   1.336   1.598   9.899 -0.1977  0.6432 -0.5530
 9214SOL    HW139101   1.370   1.580   9.811 -0.8925 -1.4477 -0.3931
 9214SOL    HW239102   1.275   1.526   9.916  1.0718 -0.3068 -0.0717
 9215SOL     OW39103   1.774   4.515  11.907  0.4429  0.7170  0.1582
 9215SOL    HW139104   1.761   4.437  11.961  0.7274  1.3586  1.1463
 9215SOL    HW239105   1.836   4.566  11.958 -1.0027  2.1122  0.4943
 9216SOL     OW39106   0.573   3.877  14.841  0.7019  0.1344 -0.5008
 9216SOL    HW139107   0.652   3.865  14.789 -0.0470  1.0608 -1.8790
 9216SOL    HW239108   0.558   3.970  14.824  1.0605  0.2620 -0.1124
 9217SOL     OW39109   1.914   1.824   6.504 -0.0755  0.0832  0.3722
 9217SOL    HW139110   1.951   1.912   6.496 -0.5606  0.1917 -0.6704
 9217SOL    HW239111   1.962   1.788   6.579 -0.7600  0.8593  1.1761
 9218SOL     OW39112   4.084   1.222   2.832 -0.4145 -0.0789  0.2651
 9218SOL    HW139113   4.019   1.153   2.846 -0.4632 -0.0751  0.0505
 9218SOL    HW239114   4.030   1.297   2.810  0.3746  0.3127 -0.3319
 9219SOL     OW39115   1.828   3.835  14.481  0.0954 -0.4258  0.1216
 9219SOL    HW139116   1.873   3.848  14.564 -0.1634  0.3302  0.1452
 9219SOL    HW239117   1.894   3.875  14.424 -1.5102 -0.6720 -1.9193
 9220SOL     OW39118   4.512   4.565  13.161  0.0053 -0.0560  0.5262
 9220SOL    HW139119   4.556   4.638  13.118 -2.6409  0.8993 -0.5975
 9220SOL    HW239120   4.452   4.613  13.218 -0.0302 -0.0821  0.5115
 9221SOL     OW39121   0.385   2.383   0.738 -0.0497 -0.1761  0.5915
 9221SOL    HW139122   0.413   2.472   0.715 -1.9894  0.2970  0.1017
 9221SOL    HW239123   0.467   2.341   0.765  0.8816  0.4071 -1.2912
 9222SOL     OW39124   2.122   1.869   2.082 -0.5923  0.5448  0.5911
 9222SOL    HW139125   2.055   1.800   2.087  1.2287 -1.5586 -3.7685
 9222SOL    HW239126   2.193   1.818   2.043 -2.4154 -0.2819 -1.6685
 9223SOL     OW39127   3.826   3.156   1.841  0.1032  0.1042 -0.3102
 9223SOL    HW139128   3.897   3.217   1.826  0.4357  0.2684  1.9835
 9223SOL    HW239129   3.859   3.068   1.824 -2.0667 -0.4167 -1.8309
 9224SOL     OW39130   1.845   2.408   5.379 -0.1058  0.1739  0.2598
 9224SOL    HW139131   1.883   2.438   5.461  2.5879 -2.5721  0.0370
 9224SOL    HW239132   1.922   2.382   5.328  0.6706 -1.6552  2.3864
 9225SOL     OW39133   1.012   3.132   6.433  0.0970  0.3084  0.5952
 9225SOL    HW139134   0.989   3.212   6.480 -0.0547  1.1711 -0.9649
 9225SOL    HW239135   0.932   3.130   6.381 -0.6589 -0.0588  1.7880
 9226SOL     OW39136   1.446   0.759  13.516  0.5421 -0.3101 -0.1964
 9226SOL    HW139137   1.455   0.841  13.468 -2.6056 -0.6700 -1.4497
 9226SOL    HW239138   1.362   0.730  13.478 -1.4429  1.6657  2.7235
 9227SOL     OW39139   1.169   0.510  12.259 -0.0513 -0.7964 -0.6565
 9227SOL    HW139140   1.174   0.473  12.347  2.5915  0.9693 -0.0902
 9227SOL    HW239141   1.076   0.533  12.255  0.8633  3.1537  1.2568
 9228SOL     OW39142   3.571   2.661   8.796 -0.2069 -0.3492 -0.1624
 9228SOL    HW139143   3.614   2.580   8.768  1.3472  0.3039  0.3638
 9228SOL    HW239144   3.481   2.657   8.765  0.7953 -0.4510 -3.1289
 9229SOL     OW39145   3.085   1.007   6.402 -0.2719 -0.4927 -0.4206
 9229SOL    HW139146   3.109   1.023   6.310 -0.3565  1.6679 -0.0784
 9229SOL    HW239147   3.160   1.054   6.440  0.2280 -0.9363 -0.8560
 9230SOL     OW39148   0.374   3.659   4.128  0.2418  0.4263 -0.1866
 9230SOL    HW139149   0.445   3.647   4.065  1.5597 -0.6824  1.4817
 9230SOL    HW239150   0.362   3.753   4.139 -2.4802  0.1270 -0.6252
 9231SOL     OW39151   3.254   3.230  13.784 -0.0016 -0.8362 -0.1756
 9231SOL    HW139152   3.304   3.289  13.729 -0.7356  0.2150  0.2954
 9231SOL    HW239153   3.229   3.167  13.717 -3.3055 -0.7448  0.9886
 9232SOL     OW39154   1.796   4.193   3.512 -0.5916 -0.8781 -0.6319
 9232SOL    HW139155   1.811   4.229   3.599  0.4277 -0.5321 -0.9524
 9232SOL    HW239156   1.710   4.151   3.520 -0.1342 -1.3740  1.5429
 9233SOL     OW39157   3.895   0.984   8.665 -0.3197 -0.0056 -0.1900
 9233SOL    HW139158   3.966   0.983   8.601  0.5187  0.8113  0.7116
 9233SOL    HW239159   3.912   0.894   8.694 -0.1925  0.4126  1.0455
 9234SOL     OW39160   1.597   3.879   3.640 -0.2788  0.9985 -0.2318
 9234SOL    HW139161   1.657   3.834   3.580  2.0540  0.2967  2.6352
 9234SOL    HW239162   1.652   3.882   3.718 -0.3519  0.3437 -0.1552
 9235SOL     OW39163   4.132   1.302   5.173  0.1712 -0.4778  0.1110
 9235SOL    HW139164   4.051   1.260   5.204 -0.6474  0.2107 -1.0883
 9235SOL    HW239165   4.199   1.247   5.214  0.9386  0.9599  0.7582
 9236SOL     OW39166   2.407   0.891   3.717 -0.0145 -0.4580 -0.2289
 9236SOL    HW139167   2.337   0.863   3.776  0.1174 -1.0780 -0.3640
 9236SOL    HW239168   2.478   0.870   3.778 -0.6168  2.2768  1.4006
 9237SOL     OW39169   2.494   2.832  17.630  0.0739  0.1361 -1.0347
 9237SOL    HW139170   2.559   2.825   0.006 -1.1301 -3.4606 -0.2699
 9237SOL    HW239171   2.432   2.894  17.668  2.2173  1.8829 -0.4236
 9238SOL     OW39172   4.432   1.015   3.577 -0.7510  0.4665  0.3935
 9238SOL    HW139173   4.511   0.995   3.527 -1.7045  2.6949 -1.9574
 9238SOL    HW239174   4.403   1.100   3.545 -0.5953  0.2175 -0.4022
 9239SOL     OW39175   3.165   2.941  13.023  0.0647  0.2266  0.1084
 9239SOL    HW139176   3.111   2.862  13.015  1.7306 -0.8736 -0.3171
 9239SOL    HW239177   3.205   2.936  12.936  1.8370 -0.9896  0.9721
 9240SOL     OW39178   4.154   3.881   9.483 -0.0769  0.2628 -0.4069
 9240SOL    HW139179   4.181   3.806   9.535  0.1627 -0.3296 -1.3772
 9240SOL    HW239180   4.212   3.946   9.522  0.9049 -2.1490  2.1689
 9241SOL     OW39181   0.612   1.492   6.129  0.1250 -0.5719 -0.5025
 9241SOL    HW139182   0.562   1.448   6.199 -1.6508  1.5273 -0.4504
 9241SOL    HW239183   0.699   1.455   6.135  0.1443 -0.6692 -1.4448
 9242SOL     OW39184   1.112   0.904   5.223 -0.9318 -0.6901 -0.2472
 9242SOL    HW139185   1.063   0.961   5.163  1.4415  0.5298 -1.0319
 9242SOL    HW239186   1.071   0.919   5.308 -0.6727 -1.0564 -0.0577
 9243SOL     OW39187   3.660   1.328   5.252  0.2746 -0.3084 -0.8749
 9243SOL    HW139188   3.663   1.424   5.247 -0.1735 -0.3134 -1.2775
 9243SOL    HW239189   3.616   1.326   5.337  0.1375  1.2937 -0.9101
 9244SOL     OW39190   3.309   0.276   4.469  1.0134  0.9787 -0.0570
 9244SOL    HW139191   3.355   0.248   4.390 -2.4791  0.4466 -1.9076
 9244SOL    HW239192   3.313   0.194   4.518  1.4056  0.3021 -1.2296
 9245SOL     OW39193   1.973   3.062  16.124  0.0912  0.0751  0.8149
 9245SOL    HW139194   1.959   3.075  16.217 -0.0404  1.8476  0.5601
 9245SOL    HW239195   1.899   3.006  16.103 -0.8634  1.2402  1.0554
 9246SOL     OW39196   2.015   4.311   8.831 -0.1665  0.5032  0.1084
 9246SOL    HW139197   2.031   4.258   8.910 -0.9690  1.0258  0.6302
 9246SOL    HW239198   2.096   4.358   8.815  0.5171 -0.7082 -0.0061
 9247SOL     OW39199   3.714   2.930   8.875 -0.0097  0.1267  0.3587
 9247SOL    HW139200   3.684   2.843   8.848 -1.0031  0.3575  0.7337
 9247SOL    HW239201   3.746   2.927   8.965 -1.3217  1.4397  0.8639
 9248SOL     OW39202   0.533   0.592   2.694 -0.3566 -0.4946 -0.3546
 9248SOL    HW139203   0.539   0.618   2.602 -1.4183  0.8267 -0.0476
 9248SOL    HW239204   0.449   0.546   2.693  0.8934 -2.8241  2.2180
 9249SOL     OW39205   2.721   4.668   7.436 -0.0757  0.0025 -0.4497
 9249SOL    HW139206   2.792   4.671   7.371  1.0262 -0.9234  0.7355
 9249SOL    HW239207   2.773   4.621   7.501  0.8654 -1.0765 -1.9730
 9250SOL     OW39208   0.664   1.638  10.672  0.5192 -0.0981 -0.5575
 9250SOL    HW139209   0.651   1.726  10.636  2.8301  0.2373 -0.5402
 9250SOL    HW239210   0.739   1.644  10.731 -0.1621  0.4927  0.2639
 9251SOL     OW39211   2.090   0.387   1.151 -0.6335  0.7591  0.4067
 9251SOL    HW139212   2.007   0.368   1.108 -0.7320  0.5436  0.6959
 9251SOL    HW239213   2.079   0.479   1.175 -1.2780  1.2686 -1.9040
 9252SOL     OW39214   2.012   3.871  17.410  0.1675 -0.3689  0.2091
 9252SOL    HW139215   1.930   3.840  17.450  0.4471 -0.7876  0.4623
 9252SOL    HW239216   2.071   3.799  17.432  1.7535  1.1948  1.0740
 9253SOL     OW39217   0.193   2.637   1.964  0.2377 -0.5829  0.2531
 9253SOL    HW139218   0.223   2.710   2.018 -0.0995  1.5167 -2.4254
 9253SOL    HW239219   0.251   2.564   1.983  1.4531 -0.0604 -1.4819
 9254SOL     OW39220   4.030   1.701  12.052 -0.3476 -0.2960  0.1831
 9254SOL    HW139221   4.008   1.612  12.025  2.2334 -1.1245  0.8863
 9254SOL    HW239222   3.952   1.720  12.105 -1.2912 -0.5352 -1.1123
 9255SOL     OW39223   0.502   0.879   7.995  0.2949 -0.0996 -0.2618
 9255SOL    HW139224   0.414   0.892   8.029  0.6333  1.5646 -0.0166
 9255SOL    HW239225   0.553   0.952   8.031  0.8621 -0.0286 -1.2036
 9256SOL     OW39226   3.729   2.512   6.030 -0.0412 -0.3943 -0.0895
 9256SOL    HW139227   3.768   2.584   6.081  2.3359 -0.5049 -1.7492
 9256SOL    HW239228   3.655   2.487   6.086  0.8008 -1.5780  0.5083
 9257SOL     OW39229   2.898   2.491   0.638  0.9560 -0.4744 -0.0568
 9257SOL    HW139230   2.937   2.418   0.685  1.4137  0.5364  1.1373
 9257SOL    HW239231   2.969   2.542   0.598  0.7572  0.7282  1.1098
 9258SOL     OW39232   1.488   3.670   8.135 -0.8526  0.0189 -0.2374
 9258SOL    HW139233   1.568   3.620   8.150  0.6343  2.5140  0.1523
 9258SOL    HW239234   1.431   3.594   8.129 -1.6267  0.5541  0.2583
 9259SOL     OW39235   2.101   3.436   7.534  0.3245  0.1415  0.4075
 9259SOL    HW139236   2.121   3.399   7.620 -0.9835  1.5997  1.3220
 9259SOL    HW239237   2.086   3.528   7.556  1.7361  0.5009 -0.0970
 9260SOL     OW39238   1.274   3.767  16.235 -0.3054  0.0532 -0.0949
 9260SOL    HW139239   1.310   3.826  16.301  0.2962 -1.3780  0.8498
 9260SOL    HW239240   1.308   3.682  16.264 -1.6298 -0.3171  0.3797
 9261SOL     OW39241   1.236   2.036   0.926  0.0258  0.4339 -0.1239
 9261SOL    HW139242   1.281   2.055   1.008  1.1826 -2.1208 -0.1921
 9261SOL    HW239243   1.306   2.056   0.865  0.4828 -0.1890  0.1990
 9262SOL     OW39244   3.922   1.830   7.782 -0.1430 -0.0223 -0.3389
 9262SOL    HW139245   3.946   1.915   7.819 -0.0063  1.2287 -3.2861
 9262SOL    HW239246   3.999   1.781   7.810  0.5438  2.2413  1.6694
 9263SOL     OW39247   4.461   2.758   1.384  0.1244 -0.0062  0.1291
 9263SOL    HW139248   4.390   2.725   1.439  1.0133 -2.7819 -0.3922
 9263SOL    HW239249   4.502   2.816   1.449  1.7915 -0.2935 -0.6643
 9264SOL     OW39250   3.903   1.818  12.988  0.2956 -0.4206  0.2530
 9264SOL    HW139251   3.808   1.810  12.995  0.4820 -2.4852  0.5930
 9264SOL    HW239252   3.925   1.745  12.930  0.4811 -0.5373  0.4688
 9265SOL     OW39253   0.255   1.467  16.720  0.1874  0.0314  0.1700
 9265SOL    HW139254   0.341   1.434  16.748 -0.0216  1.3562  2.3429
 9265SOL    HW239255   0.285   1.553  16.690 -2.2386  0.6094 -0.5425
 9266SOL     OW39256   1.479   3.761   5.634 -0.1385  0.7646  0.3657
 9266SOL    HW139257   1.558   3.790   5.588 -1.8905  2.2787 -1.6561
 9266SOL    HW239258   1.445   3.839   5.677 -0.1189  0.1773  1.4458
 9267SOL     OW39259   0.323   2.645  12.576 -0.0232  0.0101 -0.1574
 9267SOL    HW139260   0.345   2.735  12.551 -3.6416  0.5214 -1.3949
 9267SOL    HW239261   0.410   2.608  12.591 -0.0412  0.8776  2.0718
 9268SOL     OW39262   2.280   3.002  17.603 -0.4990 -0.4271 -0.0776
 9268SOL    HW139263   2.335   3.079  17.614  1.0160 -1.3000 -1.6056
 9268SOL    HW239264   2.224   3.030  17.531  0.3657 -2.3913 -1.4845
 9269SOL     OW39265   2.507   1.160   8.221  0.2133  0.0527 -0.8819
 9269SOL    HW139266   2.492   1.252   8.200  0.6003  0.7977  2.0387
 9269SOL    HW239267   2.450   1.148   8.297 -1.1957  0.3428 -1.8917
 9270SOL     OW39268   0.331   3.757   1.029  0.7447  0.1139 -0.1063
 9270SOL    HW139269   0.357   3.679   1.078  0.2607  0.4896  0.7286
 9270SOL    HW239270   0.362   3.816   1.097  0.8844 -1.7741  1.4436
 9271SOL     OW39271   1.463   1.664   7.430  0.5107  0.3525 -0.5033
 9271SOL    HW139272   1.546   1.689   7.388  1.2660 -2.8104 -0.8851
 9271SOL    HW239273   1.405   1.663   7.354 -0.2211  0.8318  0.0529
 9272SOL     OW39274   1.333   0.538  17.121  0.0671  0.3829  0.1919
 9272SOL    HW139275   1.316   0.510  17.031 -1.8749  0.9502  0.3671
 9272SOL    HW239276   1.253   0.585  17.144 -1.0754 -1.9449  0.9603
 9273SOL     OW39277   1.761   1.672   1.051  0.3748 -0.1336 -0.1077
 9273SOL    HW139278   1.671   1.705   1.055  0.4612 -0.0686  1.2024
 9273SOL    HW239279   1.813   1.731   1.106 -1.3685  2.4193 -1.1972
 9274SOL     OW39280   0.134   1.026  13.743  0.7296 -0.1969  0.3161
 9274SOL    HW139281   0.138   1.057  13.652  0.4909  0.3539  0.4983
 9274SOL    HW239282   0.086   1.103  13.774  1.4840  0.5935 -0.4777
 9275SOL     OW39283   3.899   3.445   4.544  0.0268  0.0272  0.1681
 9275SOL    HW139284   3.889   3.450   4.449 -0.4594 -2.0961  0.1081
 9275SOL    HW239285   3.921   3.535   4.567 -0.9746  0.0761  0.9507
 9276SOL     OW39286   4.141   3.815   2.233  0.3703  0.2026  0.0441
 9276SOL    HW139287   4.084   3.741   2.214 -0.7075  0.5785  1.7913
 9276SOL    HW239288   4.100   3.881   2.177  0.5554 -0.8319 -1.2983
 9277SOL     OW39289   3.667   1.284   8.331  0.2162 -0.0250  0.2383
 9277SOL    HW139290   3.632   1.360   8.377  1.6359 -0.3026  1.7376
 9277SOL    HW239291   3.676   1.229   8.409  0.3447 -2.1001 -1.2341
 9278SOL     OW39292   0.259   0.545  13.310  0.2817 -0.5854 -0.8461
 9278SOL    HW139293   0.281   0.491  13.386  0.6263  0.9112  0.1255
 9278SOL    HW239294   0.333   0.531  13.251 -0.5218  1.3885 -2.3268
 9279SOL     OW39295   1.763   2.834   1.524  0.3370  0.3870 -0.3992
 9279SOL    HW139296   1.761   2.926   1.551 -3.1471  0.6105 -1.4225
 9279SOL    HW239297   1.780   2.843   1.430  0.1815 -1.0674 -0.5661
 9280SOL     OW39298   1.309   1.155   4.429 -0.5063 -0.1659 -0.0259
 9280SOL    HW139299   1.388   1.188   4.388 -1.1426 -1.1950 -2.1133
 9280SOL    HW239300   1.315   1.059   4.432 -3.7836 -0.3618  0.2207
 9281SOL     OW39301   4.190   2.934   3.168 -0.4936 -0.2221 -0.0222
 9281SOL    HW139302   4.280   2.952   3.141 -0.3183 -3.7272 -1.7780
 9281SOL    HW239303   4.135   2.965   3.095 -0.0091  0.1546 -0.2277
 9282SOL     OW39304   0.153   2.441  13.618 -0.1910  0.4002  0.6564
 9282SOL    HW139305   0.149   2.391  13.537  0.7693  0.1135  0.7838
 9282SOL    HW239306   0.130   2.530  13.592  1.3115  0.1649 -1.5314
 9283SOL     OW39307   3.163   0.708   2.296  0.3785 -0.3664  0.0968
 9283SOL    HW139308   3.247   0.741   2.328  0.9731 -0.3200 -1.4984
 9283SOL    HW239309   3.200   0.630   2.254 -1.0739 -1.1681  0.3048
 9284SOL     OW39310   2.124   3.732   7.269  0.5457  0.2683 -0.1056
 9284SOL    HW139311   2.087   3.647   7.246 -1.6346  1.0797  0.4415
 9284SOL    HW239312   2.211   3.728   7.229 -0.2612 -2.0118 -1.6303
 9285SOL     OW39313   4.102   1.865   2.480 -0.2995  0.6023  0.0907
 9285SOL    HW139314   4.155   1.811   2.421  0.1353  1.7958 -0.6050
 9285SOL    HW239315   4.124   1.834   2.568  0.2850 -1.7667 -0.8762
 9286SOL     OW39316   3.064   3.702   3.974 -0.0716  0.2461  0.0367
 9286SOL    HW139317   3.102   3.616   3.954 -3.3897 -1.0215 -0.7429
 9286SOL    HW239318   3.051   3.743   3.889  0.9634 -0.8943 -0.6812
 9287SOL     OW39319   1.935   2.789  16.071  0.5609  0.3340 -0.3234
 9287SOL    HW139320   1.937   2.797  15.976  0.6995 -2.7623 -0.5978
 9287SOL    HW239321   1.937   2.693  16.067 -1.7348  0.2754 -0.2435
 9288SOL     OW39322   0.254   1.685   6.395 -0.0315 -0.2463  0.1668
 9288SOL    HW139323   0.336   1.729   6.372 -0.4077  0.2492 -0.2139
 9288SOL    HW239324   0.219   1.660   6.309 -0.5330  1.6136 -0.1608
 9289SOL     OW39325   2.750   0.535   7.788  0.2153  0.1054  0.0951
 9289SOL    HW139326   2.673   0.505   7.738  0.9300  0.1615 -1.0481
 9289SOL    HW239327   2.735   0.484   7.868 -3.0973 -1.9066 -1.7775
 9290SOL     OW39328   1.786   4.422   4.507 -0.0219 -0.6652 -0.0159
 9290SOL    HW139329   1.725   4.489   4.477  0.0657  0.1263  1.5843
 9290SOL    HW239330   1.868   4.470   4.517 -0.0158 -0.7113  0.1471
 9291SOL     OW39331   0.171   4.299  17.081  0.2071  0.4067  0.2377
 9291SOL    HW139332   0.172   4.394  17.070  0.7092  0.3465 -0.2487
 9291SOL    HW239333   0.140   4.287  17.171 -0.0059  1.9663  0.3775
 9292SOL     OW39334   4.462   2.322  11.077 -0.1724 -0.1562 -0.1220
 9292SOL    HW139335   4.524   2.265  11.033  0.1918  1.1324 -1.2984
 9292SOL    HW239336   4.414   2.360  11.003 -0.3187 -0.0193  0.0435
 9293SOL     OW39337   0.401   4.071  13.027 -0.3665  0.0689 -0.1847
 9293SOL    HW139338   0.327   4.125  12.998  1.0632 -0.4064 -4.8322
 9293SOL    HW239339   0.357   4.017  13.092 -1.4446  2.0412  0.7296
 9294SOL     OW39340   0.807   1.585   8.007  0.1699 -0.2883 -0.1571
 9294SOL    HW139341   0.819   1.494   8.034 -1.1169 -0.7660 -1.2240
 9294SOL    HW239342   0.758   1.611   8.085 -0.9534  1.4906 -1.4427
 9295SOL     OW39343   4.421   4.312  13.092  0.4988  0.1172 -0.2223
 9295SOL    HW139344   4.392   4.258  13.165  1.2927  0.6732  0.5022
 9295SOL    HW239345   4.446   4.394  13.136  1.6468 -0.3186 -0.0495
 9296SOL     OW39346   2.340   0.100   4.098  0.7678 -0.1703 -0.5953
 9296SOL    HW139347   2.265   0.159   4.098  2.0403  1.4625  0.6313
 9296SOL    HW239348   2.309   0.019   4.139  0.9520  0.1044  0.0999
 9297SOL     OW39349   0.231   2.662   4.103 -0.3480 -0.4373 -0.0715
 9297SOL    HW139350   0.160   2.703   4.054  0.2730 -1.6151 -1.9626
 9297SOL    HW239351   0.191   2.667   4.190 -1.0037  1.4229 -0.4772
 9298SOL     OW39352   3.810   4.633   8.665  0.2382  0.3044 -0.1959
 9298SOL    HW139353   3.846   4.552   8.700  0.7342 -0.2042 -1.8479
 9298SOL    HW239354   3.830   4.685   8.743  2.1227 -0.5921 -0.0735
 9299SOL     OW39355   4.516   4.165   7.054  0.4124 -0.0313  0.3746
 9299SOL    HW139356   4.475   4.145   7.138 -2.2321 -0.1878 -0.9447
 9299SOL    HW239357   4.571   4.088   7.040 -0.1937  0.2421 -3.6748
 9300SOL     OW39358   0.519   2.759   6.714 -0.1253 -0.0587 -0.6023
 9300SOL    HW139359   0.483   2.703   6.782 -1.3794 -0.3080 -1.4879
 9300SOL    HW239360   0.594   2.714   6.675 -0.2324 -1.0939  0.3962
 9301SOL     OW39361   2.104   4.451   5.015  0.4896 -0.6433  0.4117
 9301SOL    HW139362   2.131   4.360   5.004 -0.1616 -0.7997  0.0688
 9301SOL    HW239363   2.026   4.437   5.070  1.1140  1.1028  1.7229
 9302SOL     OW39364   4.670   2.147  11.007 -0.7227  0.0505 -0.1555
 9302SOL    HW139365   4.717   2.065  11.022 -3.0520 -1.4075 -0.7977
 9302SOL    HW239366   0.029   2.193  10.990 -1.2303  1.2409  0.6484
 9303SOL     OW39367   3.763   0.952   4.067  0.2147  0.1339 -0.1315
 9303SOL    HW139368   3.784   1.036   4.026 -0.3659 -0.3183 -1.3442
 9303SOL    HW239369   3.672   0.931   4.045 -0.0378 -1.1272  2.1604
 9304SOL     OW39370   0.383   2.340   8.762  0.2200 -0.2974  0.0519
 9304SOL    HW139371   0.288   2.342   8.760  0.2417  0.2158 -0.5439
 9304SOL    HW239372   0.397   2.296   8.845 -0.6446 -0.7038 -0.0210
 9305SOL     OW39373   1.125   1.795   4.903 -0.0059 -0.4762  0.0538
 9305SOL    HW139374   1.045   1.805   4.851 -0.0236  3.5259  0.8533
 9305SOL    HW239375   1.133   1.886   4.931  0.9342 -0.6097  0.2094
 9306SOL     OW39376   1.604   4.323   3.321 -0.1363  0.1169 -0.6985
 9306SOL    HW139377   1.568   4.349   3.406  0.1673 -0.3761 -0.4194
 9306SOL    HW239378   1.683   4.277   3.350 -1.0662 -1.3474 -0.5134
 9307SOL     OW39379   3.706   2.136   9.384  0.3455 -0.1674 -0.1365
 9307SOL    HW139380   3.747   2.118   9.300 -1.6066 -0.3670 -1.0512
 9307SOL    HW239381   3.765   2.104   9.452 -0.1601  0.5954  0.6537
 9308SOL     OW39382   0.184   3.751   7.236 -0.6626  0.7391 -0.7373
 9308SOL    HW139383   0.195   3.727   7.145 -3.0232 -0.0548 -0.8267
 9308SOL    HW239384   0.148   3.839   7.222 -1.0380  0.6474 -0.3524
 9309SOL     OW39385   2.300   2.688   6.616 -0.1526 -0.1710  0.0750
 9309SOL    HW139386   2.286   2.781   6.635  0.1967 -0.1505  0.2345
 9309SOL    HW239387   2.263   2.682   6.528 -1.0642 -1.9316  0.5742
 9310SOL     OW39388   2.484   4.669   4.603  0.1944 -0.3261  1.0341
 9310SOL    HW139389   2.454   4.622   4.525  0.5891 -0.0095  0.6957
 9310SOL    HW239390   2.409   4.722   4.633  0.0197  0.2704 -0.4837
 9311SOL     OW39391   1.506   3.966   8.588  0.3624 -0.4820 -0.0880
 9311SOL    HW139392   1.519   3.981   8.494  0.7743 -0.5970 -0.0460
 9311SOL    HW239393   1.413   3.988   8.595 -0.2000 -2.8486 -0.2735
 9312SOL     OW39394   3.027   2.087   6.260 -0.0350 -1.0728 -0.4006
 9312SOL    HW139395   2.946   2.096   6.211 -1.7797 -1.7449  2.3980
 9312SOL    HW239396   3.054   1.998   6.238  1.3127 -0.5124 -1.0304
 9313SOL     OW39397   3.133   1.055   5.361 -0.0556 -0.0000  0.0994
 9313SOL    HW139398   3.046   1.032   5.328 -0.7000  2.0773  0.3988
 9313SOL    HW239399   3.103   1.130   5.412  0.2629 -1.0502  1.8472
 9314SOL     OW39400   4.491   2.880  10.777 -0.1283  0.3142  0.1477
 9314SOL    HW139401   4.552   2.931  10.724  0.9400  0.0264  1.0895
 9314SOL    HW239402   4.440   2.953  10.811  1.5079  2.1005 -1.2285
 9315SOL     OW39403   1.882   0.022  11.152  0.3394  0.3140  0.2806
 9315SOL    HW139404   1.808   4.683  11.151  0.7460 -0.2238  3.0749
 9315SOL    HW239405   1.949   4.684  11.182 -0.4547  0.1899  1.8339
 9316SOL     OW39406   1.439   1.687   1.490  0.0872  0.0333 -0.2529
 9316SOL    HW139407   1.385   1.708   1.566 -0.6404 -1.7535 -0.2798
 9316SOL    HW239408   1.396   1.736   1.419  1.0669  0.6894 -0.3985
 9317SOL     OW39409   0.424   3.911   8.466  0.8150  0.5089 -0.1216
 9317SOL    HW139410   0.422   3.817   8.450 -2.3247  0.3607  1.1964
 9317SOL    HW239411   0.373   3.905   8.547  1.2546  1.5045  0.2277
 9318SOL     OW39412   1.586   4.333   5.793 -0.4533  0.9676 -0.5138
 9318SOL    HW139413   1.606   4.248   5.832 -1.0379  1.4782  0.9237
 9318SOL    HW239414   1.602   4.390   5.869 -0.3373 -0.0831  0.2519
 9319SOL     OW39415   1.422   3.892   4.021 -0.3180 -0.2718 -0.2322
 9319SOL    HW139416   1.399   3.938   4.102  0.9021  0.8491 -0.5262
 9319SOL    HW239417   1.334   3.894   3.983 -0.5924 -1.7797  0.3039
 9320SOL     OW39418   2.614   2.090   7.749  0.0403  0.2014 -0.0784
 9320SOL    HW139419   2.563   2.030   7.694  0.2917 -1.2627  1.3098
 9320SOL    HW239420   2.566   2.172   7.738  0.8924  0.6724 -0.3246
 9321SOL     OW39421   2.016   1.382   1.208 -0.3001 -0.1507 -0.1718
 9321SOL    HW139422   1.994   1.417   1.121  0.6690 -0.1399 -0.4079
 9321SOL    HW239423   2.002   1.457   1.265 -0.6443  0.0206 -0.4819
 9322SOL     OW39424   0.883   3.298  15.542 -0.1655 -0.5684  0.3271
 9322SOL    HW139425   0.796   3.269  15.569 -0.5768 -0.2869 -0.6729
 9322SOL    HW239426   0.941   3.236  15.587 -1.5793 -0.3731  2.3969
 9323SOL     OW39427   0.106   4.692   6.641  0.7938 -0.0349  0.0705
 9323SOL    HW139428   0.066   4.605   6.641  0.4023  0.1319 -2.5386
 9323SOL    HW239429   0.171   4.679   6.709  0.6706 -0.2748  0.1442
 9324SOL     OW39430   0.968   1.528  15.050  0.1519 -0.3666  0.2289
 9324SOL    HW139431   1.062   1.513  15.064  0.4864  1.2121 -0.2260
 9324SOL    HW239432   0.964   1.618  15.082 -2.1036 -0.5561  0.4747
 9325SOL     OW39433   3.096   1.770   7.354  0.5707  0.6177 -0.3668
 9325SOL    HW139434   3.089   1.722   7.271  1.4038  0.0389 -0.1047
 9325SOL    HW239435   3.159   1.839   7.336  0.2451  1.2727  0.9749
 9326SOL     OW39436   1.093   1.692  17.368  0.1882  0.0705 -0.4516
 9326SOL    HW139437   1.121   1.601  17.379  2.0404  1.0975  3.3970
 9326SOL    HW239438   0.998   1.679  17.361  0.3125 -0.8390 -0.4795
 9327SOL     OW39439   2.546   4.123   2.602 -0.4645  0.3273 -0.2892
 9327SOL    HW139440   2.483   4.051   2.602 -0.8741  0.6628  2.6501
 9327SOL    HW239441   2.528   4.162   2.688 -1.4538  0.5464 -0.6023
 9328SOL     OW39442   3.236   3.745   7.701 -0.2875  0.2836  0.7830
 9328SOL    HW139443   3.157   3.766   7.751 -0.4020 -0.9495  1.1176
 9328SOL    HW239444   3.300   3.779   7.764  0.8787 -1.1918  0.4039
 9329SOL     OW39445   2.244   3.588   6.839  0.6369  0.2207 -0.5472
 9329SOL    HW139446   2.166   3.642   6.824  2.0909  2.2754 -0.6093
 9329SOL    HW239447   2.238   3.539   6.756  0.7769  2.4370 -1.8629
 9330SOL     OW39448   4.068   1.195  11.058 -0.0142 -0.5789 -0.7460
 9330SOL    HW139449   4.104   1.165  11.141 -0.2629  0.5618 -0.2231
 9330SOL    HW239450   3.974   1.211  11.068 -0.0348 -1.6767  0.7846
 9331SOL     OW39451   3.763   1.829   2.769  0.6573  0.0459 -0.5088
 9331SOL    HW139452   3.740   1.922   2.762  2.4634  0.5721  0.3600
 9331SOL    HW239453   3.754   1.802   2.678  0.6791  0.5557 -0.6635
 9332SOL     OW39454   1.981   0.532   7.146 -0.0145  0.5054  0.3212
 9332SOL    HW139455   2.068   0.560   7.175  0.5104  1.2435 -1.9012
 9332SOL    HW239456   1.925   0.585   7.202  0.8919  0.6075  1.1243
 9333SOL     OW39457   2.097   2.744   9.001  0.1103 -0.0315  0.0531
 9333SOL    HW139458   2.094   2.697   9.084 -0.6057  0.6717  0.4285
 9333SOL    HW239459   2.086   2.838   9.018 -1.3450 -0.1309 -0.2965
 9334SOL     OW39460   1.081   2.354   1.717  0.1302 -0.4684 -0.1206
 9334SOL    HW139461   1.095   2.289   1.785 -1.1520  1.6573  2.1712
 9334SOL    HW239462   1.171   2.360   1.684 -0.0423  0.2345 -0.4673
 9335SOL     OW39463   2.980   3.838   5.561  0.3236 -0.0517  0.8152
 9335SOL    HW139464   2.938   3.906   5.508 -0.5913 -1.0477  0.2648
 9335SOL    HW239465   2.988   3.880   5.647  0.7425  0.4519  0.5304
 9336SOL     OW39466   2.967   4.523   6.654  0.3384 -0.3333 -0.3833
 9336SOL    HW139467   2.899   4.460   6.629  0.2755 -0.9830  1.4062
 9336SOL    HW239468   2.916   4.601   6.678  1.7512  1.4017 -3.0517
 9337SOL     OW39469   1.473   3.394   7.228 -0.3265  1.2867 -0.0690
 9337SOL    HW139470   1.537   3.463   7.244  0.4767  0.9620 -1.9046
 9337SOL    HW239471   1.510   3.323   7.281 -2.8636  0.0310  0.0088
 9338SOL     OW39472   3.844   4.015   5.132 -0.1694 -0.3096  0.1824
 9338SOL    HW139473   3.886   3.972   5.206 -1.5499  0.9065  1.6802
 9338SOL    HW239474   3.877   3.967   5.056 -0.3223 -1.9162  1.1243
 9339SOL     OW39475   3.065   3.584  17.011  0.3140  0.7439  0.1432
 9339SOL    HW139476   3.150   3.618  17.039 -0.6383  2.2919  1.1634
 9339SOL    HW239477   3.075   3.623  16.924 -0.2099 -0.7867 -0.5951
 9340SOL     OW39478   3.506   3.060   3.731 -0.2970  0.3392  0.1207
 9340SOL    HW139479   3.533   3.085   3.643  0.9445  2.6926  1.1432
 9340SOL    HW239480   3.559   3.115   3.790  1.7285 -0.4761 -0.9492
 9341SOL     OW39481   4.475   0.458   4.099 -0.0056  0.7130 -0.3851
 9341SOL    HW139482   4.516   0.375   4.124 -1.2121  0.1952 -0.1340
 9341SOL    HW239483   4.499   0.504   4.179 -0.6316 -0.9702  0.7569
 9342SOL     OW39484   4.678   1.051  17.402 -0.1646  0.1943 -0.7187
 9342SOL    HW139485   0.031   1.107  17.383 -0.5754  0.2369 -2.2590
 9342SOL    HW239486   4.688   1.045  17.497  0.3598  2.4458 -0.6217
 9343SOL     OW39487   2.296   0.172   6.508 -0.1427 -0.2237 -0.3635
 9343SOL    HW139488   2.373   0.166   6.452  0.6435 -0.1939  0.7068
 9343SOL    HW239489   2.230   0.130   6.453  1.1807 -3.0169  0.1803
 9344SOL     OW39490   0.372   1.199   5.105 -0.1264  0.1176 -0.4086
 9344SOL    HW139491   0.398   1.271   5.162 -0.6655  0.3515 -0.4651
 9344SOL    HW239492   0.330   1.135   5.163  0.6064  1.2037  1.3061
 9345SOL     OW39493   2.678   1.693   3.936  0.2606 -0.3049  0.2250
 9345SOL    HW139494   2.626   1.661   3.862 -0.2993  0.2919  0.3627
 9345SOL    HW239495   2.715   1.775   3.904  2.7206 -1.2612  0.6191
 9346SOL     OW39496   2.449   1.616  14.361 -0.6727  0.0994  0.1249
 9346SOL    HW139497   2.448   1.702  14.402 -0.8323  1.2989 -2.3694
 9346SOL    HW239498   2.494   1.637  14.278  2.1731 -4.1768  0.6085
 9347SOL     OW39499   1.590   4.657   0.403  0.0553  0.1287 -0.1626
 9347SOL    HW139500   1.678   4.688   0.424  0.2033 -0.6858  0.3919
 9347SOL    HW239501   1.606   4.589   0.338  1.3793 -0.4882  0.8214
 9348SOL     OW39502   0.638   0.557   6.188  0.2971 -0.5634  0.5653
 9348SOL    HW139503   0.692   0.479   6.177  0.9561  0.0944 -0.8537
 9348SOL    HW239504   0.706   0.624   6.193  0.3559 -0.7087  1.6745
 9349SOL     OW39505   3.076   0.166   6.935 -0.4989  0.0816  0.2362
 9349SOL    HW139506   3.015   0.102   6.970 -1.9770  1.4501  0.1831
 9349SOL    HW239507   3.067   0.235   7.001 -0.4990 -1.9841  2.3755
 9350SOL     OW39508   2.936   0.128  12.645 -0.2413 -0.2828 -0.2718
 9350SOL    HW139509   2.891   0.067  12.704  0.7005  0.0404  0.7810
 9350SOL    HW239510   2.925   0.211  12.690  0.0057 -0.3229 -0.1336
 9351SOL     OW39511   4.109   4.340   4.903 -0.0211  0.0271 -0.2794
 9351SOL    HW139512   4.156   4.393   4.840  0.1188 -2.3804 -2.2011
 9351SOL    HW239513   4.084   4.410   4.964  1.5387 -0.5586  1.0406
 9352SOL     OW39514   3.254   3.985  13.303  0.8284  0.5481 -0.5224
 9352SOL    HW139515   3.292   3.899  13.287 -0.9656 -0.5207  1.0414
 9352SOL    HW239516   3.266   4.032  13.220  2.7692 -0.0360 -0.5830
 9353SOL     OW39517   3.389   3.110  16.483 -0.1670 -0.3444 -0.2736
 9353SOL    HW139518   3.382   3.019  16.455  1.8354 -0.6116  0.0914
 9353SOL    HW239519   3.307   3.142  16.445  0.8971 -0.3168 -2.5554
 9354SOL     OW39520   1.880   3.338   2.997  0.1009 -0.4480  0.6122
 9354SOL    HW139521   1.945   3.405   2.975 -0.8810  0.1066 -0.5825
 9354SOL    HW239522   1.934   3.285   3.055  1.2351 -2.0182 -1.8750
 9355SOL     OW39523   3.821   3.654   3.148  0.3481 -0.0747 -0.8676
 9355SOL    HW139524   3.802   3.658   3.242  0.9222 -3.1845 -0.6016
 9355SOL    HW239525   3.754   3.601   3.106 -1.1831  0.8757  0.3938
 9356SOL     OW39526   1.347   0.313  13.862  0.2031  0.2698 -0.1454
 9356SOL    HW139527   1.372   0.222  13.852 -1.9401 -0.4381  0.8348
 9356SOL    HW239528   1.371   0.340  13.773  1.5420 -0.1952  0.0847
 9357SOL     OW39529   0.678   0.722  11.074  0.0784 -0.0589 -0.0190
 9357SOL    HW139530   0.628   0.757  11.148 -1.1975 -1.4817 -0.2114
 9357SOL    HW239531   0.764   0.755  11.101 -0.0149 -0.6889  1.0319
 9358SOL     OW39532   4.309   0.139  11.078  0.6753  0.3309 -0.1936
 9358SOL    HW139533   4.245   0.071  11.097 -2.9334  3.7617  0.1475
 9358SOL    HW239534   4.362   0.088  11.017  2.5024 -0.4199  2.0267
 9359SOL     OW39535   3.090   4.093   1.409 -0.5545  0.2967  0.1501
 9359SOL    HW139536   3.107   4.163   1.346  0.6217  0.1111  0.2497
 9359SOL    HW239537   3.132   4.018   1.367  0.9127  1.4533 -0.4634
 9360SOL     OW39538   2.709   2.992   8.818 -0.7828  0.1416 -0.0230
 9360SOL    HW139539   2.651   2.922   8.847  1.4993 -2.0420 -0.8182
 9360SOL    HW239540   2.678   3.056   8.883  1.4584  1.1843  0.0028
 9361SOL     OW39541   1.535   0.987   6.037  0.0225  0.2297  0.4052
 9361SOL    HW139542   1.540   1.081   6.052 -1.0098  0.3690 -0.1279
 9361SOL    HW239543   1.563   0.953   6.122 -2.3114  0.4659  1.2751
 9362SOL     OW39544   2.386   2.622   2.748 -0.4721 -0.2895  0.1348
 9362SOL    HW139545   2.315   2.650   2.690  0.0925  0.6400 -0.0996
 9362SOL    HW239546   2.359   2.533   2.771  1.1568 -1.0857 -1.0384
 9363SOL     OW39547   0.513   1.147  11.006 -0.1247 -0.6493  0.1767
 9363SOL    HW139548   0.478   1.096  11.079 -1.2362 -0.5792 -0.3070
 9363SOL    HW239549   0.591   1.093  10.993  0.7606  0.8618 -0.7455
 9364SOL     OW39550   3.518   2.091  13.612  0.1733  0.3285  0.2936
 9364SOL    HW139551   3.544   2.157  13.549 -0.5475  0.6351  0.3156
 9364SOL    HW239552   3.461   2.039  13.555 -0.2432  2.1724 -0.9595
 9365SOL     OW39553   1.097   0.012  13.517 -0.4241 -0.2020  0.2768
 9365SOL    HW139554   1.101   4.704  13.607  3.5946  0.8508  0.4834
 9365SOL    HW239555   1.042   4.669  13.476  1.2743 -2.5168  1.7292
 9366SOL     OW39556   0.729   4.007   5.426  0.1034  0.0864 -0.4064
 9366SOL    HW139557   0.753   4.088   5.472  1.0603 -0.8265  0.7156
 9366SOL    HW239558   0.736   4.026   5.333  1.2061 -1.8864 -0.7128
 9367SOL     OW39559   4.401   2.710   5.495 -0.8420 -0.2508 -0.4273
 9367SOL    HW139560   4.491   2.684   5.515 -0.7512  1.1946  1.0397
 9367SOL    HW239561   4.354   2.627   5.494 -0.5799 -0.4543  4.2724
 9368SOL     OW39562   1.112   4.589  15.901  0.6644  0.0609  0.5266
 9368SOL    HW139563   1.177   4.642  15.854  1.6059  0.1691  1.9477
 9368SOL    HW239564   1.038   4.648  15.917  1.8008  1.9427 -1.1880
 9369SOL     OW39565   2.510   3.461   8.278 -0.4546  0.0312 -0.0036
 9369SOL    HW139566   2.596   3.500   8.295  0.1602 -0.3366 -2.2620
 9369SOL    HW239567   2.456   3.539   8.293 -1.8663 -0.6665 -1.5679
 9370SOL     OW39568   0.800   3.057   9.024 -0.0923 -0.1308 -0.1956
 9370SOL    HW139569   0.805   3.016   9.110  1.2163  2.0148  0.7429
 9370SOL    HW239570   0.808   2.973   8.977  0.4477  0.2749 -0.8225
 9371SOL     OW39571   3.934   1.766  16.918  0.0349 -0.0568 -0.1694
 9371SOL    HW139572   3.951   1.860  16.908 -0.2513 -0.0582 -0.6765
 9371SOL    HW239573   3.976   1.744  17.001 -0.4353  1.2131  0.4201
 9372SOL     OW39574   1.962   3.090   2.521  0.1090  0.0633 -0.0757
 9372SOL    HW139575   2.032   3.026   2.504  0.3121  0.4148 -0.5574
 9372SOL    HW239576   1.968   3.094   2.617  2.2785  0.6368 -0.2336
 9373SOL     OW39577   4.438   0.772  16.727  0.3649  0.4710  0.3826
 9373SOL    HW139578   4.451   0.836  16.657  1.8617 -0.7303 -0.4443
 9373SOL    HW239579   4.381   0.702  16.694  0.9067  1.4409 -2.5211
 9374SOL     OW39580   3.240   4.413   1.643  0.4519  0.2018  0.4513
 9374SOL    HW139581   3.197   4.471   1.579  0.0134  0.9896  1.4521
 9374SOL    HW239582   3.167   4.394   1.702 -0.8271  0.5828 -1.0063
 9375SOL     OW39583   3.823   1.951   9.551 -0.0090 -0.1802  0.0319
 9375SOL    HW139584   3.804   1.871   9.502 -0.4620  0.6078 -1.0876
 9375SOL    HW239585   3.778   1.940   9.634  0.5556  2.0871  0.6391
 9376SOL     OW39586   2.605   3.902   7.010  0.1707  0.3798 -0.2132
 9376SOL    HW139587   2.699   3.919   6.998 -0.2215  1.2540 -2.1192
 9376SOL    HW239588   2.584   3.979   6.957  0.1272  0.1488 -0.5349
 9377SOL     OW39589   3.253   2.339  14.017 -0.4183 -0.5884 -0.4363
 9377SOL    HW139590   3.172   2.390  14.008 -1.2433 -1.9985 -1.0213
 9377SOL    HW239591   3.265   2.349  14.112  1.5190 -0.4519 -0.7096
 9378SOL     OW39592   0.195   0.127  15.150  0.0245  0.1822  0.7340
 9378SOL    HW139593   0.217   0.201  15.207  1.2755  0.1744  0.2607
 9378SOL    HW239594   0.173   0.170  15.067 -0.7801 -1.4561  0.0929
 9379SOL     OW39595   3.014   3.460  14.266 -0.8986 -0.0281 -0.0081
 9379SOL    HW139596   2.996   3.366  14.259  0.9155 -0.3552 -0.2699
 9379SOL    HW239597   3.104   3.440  14.290 -0.9340 -0.7728 -0.4890
 9380SOL     OW39598   0.710   2.260  14.533 -0.6187 -0.4809 -0.4049
 9380SOL    HW139599   0.757   2.283  14.453  0.2635 -0.9133 -0.0168
 9380SOL    HW239600   0.621   2.291  14.516 -0.4359 -0.4013 -1.2111
 9381SOL     OW39601   3.022   4.050   7.194  0.0640 -0.0849 -0.1426
 9381SOL    HW139602   3.111   4.027   7.221  0.1768  2.7618  1.8979
 9381SOL    HW239603   3.030   4.127   7.137 -0.0056  0.3199  0.3954
 9382SOL     OW39604   2.149   4.436   2.052 -0.1335  0.0495  0.4673
 9382SOL    HW139605   2.078   4.373   2.055 -1.5164  1.7505  2.9294
 9382SOL    HW239606   2.166   4.449   2.145  0.8315  0.4613  0.2430
 9383SOL     OW39607   2.848   4.297   7.698 -0.0415 -0.0145  0.2593
 9383SOL    HW139608   2.770   4.301   7.644  0.7391 -1.4035 -0.9807
 9383SOL    HW239609   2.888   4.210   7.690  0.2137  0.2339 -1.1501
 9384SOL     OW39610   0.031   2.092   3.928  0.1351  0.6084  0.2613
 9384SOL    HW139611   0.110   2.096   3.983  1.4970  1.3222 -1.7610
 9384SOL    HW239612   4.711   2.175   3.947  2.0067  1.3254  1.3649
 9385SOL     OW39613   0.486   3.270  14.522  0.6044  0.2058 -0.0970
 9385SOL    HW139614   0.415   3.234  14.576  0.0690 -0.4892 -1.2655
 9385SOL    HW239615   0.498   3.205  14.453 -2.1562  1.8159 -2.0623
 9386SOL     OW39616   1.727   0.460   3.336 -0.1745 -0.4406  0.5910
 9386SOL    HW139617   1.810   0.463   3.288 -0.8420  1.6136 -0.4127
 9386SOL    HW239618   1.752   0.525   3.402  2.0646  0.0865 -0.7650
 9387SOL     OW39619   3.244   0.783   7.421 -0.2944  0.5060  0.1867
 9387SOL    HW139620   3.334   0.801   7.393 -0.9392  1.1835 -1.4434
 9387SOL    HW239621   3.262   0.724   7.494 -2.5893  0.1237  0.4489
 9388SOL     OW39622   3.424   1.083   7.657  0.4258 -0.0688 -0.0498
 9388SOL    HW139623   3.350   1.092   7.716 -0.8169 -0.1608 -1.5835
 9388SOL    HW239624   3.471   1.166   7.664  0.1841  0.2813 -2.4246
 9389SOL     OW39625   1.393   4.110   7.224  0.2306  0.2970  0.1640
 9389SOL    HW139626   1.382   4.045   7.293 -3.6305 -0.3488 -1.0552
 9389SOL    HW239627   1.304   4.144   7.214  0.1010  0.2164  1.1219
 9390SOL     OW39628   0.642   3.740   6.015  0.1849  0.0629 -0.2635
 9390SOL    HW139629   0.578   3.810   6.029 -1.6255 -1.7748  0.7658
 9390SOL    HW239630   0.719   3.777   6.058  0.7584 -0.5959 -0.7247
 9391SOL     OW39631   2.460   0.081  11.989 -0.3796 -0.1188 -0.7009
 9391SOL    HW139632   2.476   4.720  12.032 -0.5815  0.8060  1.1973
 9391SOL    HW239633   2.404   0.066  11.913 -0.5679 -0.4526 -0.4945
 9392SOL     OW39634   3.744   1.860   4.496  0.2854  0.1317  0.0656
 9392SOL    HW139635   3.745   1.811   4.578 -2.6993  0.4042  0.2555
 9392SOL    HW239636   3.695   1.804   4.436 -1.2879  1.1414  0.4193
 9393SOL     OW39637   1.156   2.035   9.722 -0.2000 -0.5855  0.0027
 9393SOL    HW139638   1.151   2.051   9.627  0.8741 -0.5525 -0.0539
 9393SOL    HW239639   1.080   2.087   9.747 -0.6103 -0.0549 -2.2801
 9394SOL     OW39640   3.284   0.600  16.866  0.0836  0.6683 -0.3138
 9394SOL    HW139641   3.216   0.613  16.799 -0.8221  0.4604  0.5575
 9394SOL    HW239642   3.317   0.515  16.838 -0.2087  0.9923 -1.6639
 9395SOL     OW39643   1.306   3.698  12.006 -0.0463  0.3678 -0.0346
 9395SOL    HW139644   1.327   3.779  11.960  0.1629  1.4664  2.0051
 9395SOL    HW239645   1.358   3.708  12.086  1.7477 -0.9722 -1.0547
 9396SOL     OW39646   2.474   1.197   8.666  0.2735 -0.6375  0.2312
 9396SOL    HW139647   2.497   1.105   8.660  1.7557 -0.3954  2.4599
 9396SOL    HW239648   2.539   1.237   8.723  0.5353  0.1073 -0.5781
 9397SOL     OW39649   0.774   4.599   5.948 -0.3421  0.0132 -0.1502
 9397SOL    HW139650   0.732   4.520   5.981  0.5032 -0.4846 -0.2664
 9397SOL    HW239651   0.748   4.614   5.857 -2.6020  0.5079  0.5880
 9398SOL     OW39652   3.095   3.236   8.960  0.3476 -0.2659  0.4056
 9398SOL    HW139653   3.117   3.156   9.008 -0.7950  0.3245  1.9396
 9398SOL    HW239654   3.033   3.209   8.893  1.1224  0.0179 -0.4211
 9399SOL     OW39655   3.475   0.023  11.979  0.2255 -0.6942 -0.0477
 9399SOL    HW139656   3.439   4.666  12.015  0.1102  0.2547  1.9127
 9399SOL    HW239657   3.435   0.029  11.892 -0.5266  2.7025  0.5204
 9400SOL     OW39658   4.107   0.242   1.084  0.6250 -0.9503  0.6202
 9400SOL    HW139659   4.030   0.220   1.138  0.5411 -2.1809  0.0002
 9400SOL    HW239660   4.178   0.238   1.148  0.3552  2.2703  1.1003
 9401SOL     OW39661   2.373   4.393   5.094 -0.2786  0.0511  0.0355
 9401SOL    HW139662   2.289   4.440   5.095  0.0918  0.8449 -3.4614
 9401SOL    HW239663   2.432   4.468   5.084 -2.1717  1.6888  0.9544
 9402SOL     OW39664   4.646   2.425   7.494  0.1952  0.1959 -0.0821
 9402SOL    HW139665   4.632   2.454   7.584  2.8231 -0.7581  0.6371
 9402SOL    HW239666   4.586   2.350   7.495  1.0720 -0.5090  0.3143
 9403SOL     OW39667   4.584   2.441   3.132 -0.8436  0.3178 -0.1709
 9403SOL    HW139668   4.540   2.499   3.194 -2.9456 -1.0949 -0.3162
 9403SOL    HW239669   4.673   2.469   3.151  0.3217 -3.1218 -0.5069
 9404SOL     OW39670   3.317   0.552   4.505  0.2509 -0.3283 -0.4054
 9404SOL    HW139671   3.342   0.568   4.596  2.9942 -0.8737 -1.0880
 9404SOL    HW239672   3.326   0.458   4.491  1.4487  0.1230 -2.6316
 9405SOL     OW39673   2.750   1.894   1.417 -0.0779  0.2053 -0.5553
 9405SOL    HW139674   2.717   1.842   1.490 -3.7182  2.0818 -0.8737
 9405SOL    HW239675   2.686   1.862   1.354 -1.3535 -0.0482  0.8664
 9406SOL     OW39676   0.844   2.797  12.019  0.2532 -0.3128 -0.2138
 9406SOL    HW139677   0.750   2.811  12.004  0.1837 -1.1238 -0.5399
 9406SOL    HW239678   0.852   2.859  12.091  2.6866 -2.1065  1.0491
 9407SOL     OW39679   1.349   2.204   0.127 -0.2152 -0.2803  0.0236
 9407SOL    HW139680   1.269   2.170   0.167  0.3465 -0.7133  0.7818
 9407SOL    HW239681   1.317   2.278   0.074 -1.3801  0.2144  1.4223
 9408SOL     OW39682   1.346   2.240   8.994 -0.6986  0.3909 -0.5488
 9408SOL    HW139683   1.383   2.321   8.957 -2.6751 -0.3790 -4.1903
 9408SOL    HW239684   1.298   2.281   9.066 -1.0981 -1.5105  0.2665
 9409SOL     OW39685   1.013   3.822   9.470  0.5329 -0.0850 -0.4955
 9409SOL    HW139686   1.049   3.868   9.546  0.7683 -1.3993  0.2051
 9409SOL    HW239687   1.033   3.734   9.504 -0.6881 -0.1769 -0.0313
 9410SOL     OW39688   2.001   2.071   1.634 -0.0277 -0.3171  0.1987
 9410SOL    HW139689   1.910   2.056   1.607 -1.1782  3.7740  1.8283
 9410SOL    HW239690   2.048   2.035   1.560 -1.5103 -1.3939 -0.2258
 9411SOL     OW39691   0.405   4.302   3.897  0.2695 -0.2977  0.3399
 9411SOL    HW139692   0.386   4.348   3.816 -0.0426 -0.1847  0.4798
 9411SOL    HW239693   0.401   4.208   3.877  4.4961 -0.0505 -1.7720
 9412SOL     OW39694   0.426   0.985   5.634  0.0864 -0.4948 -0.2115
 9412SOL    HW139695   0.466   0.963   5.550  1.2432  1.5247 -0.1743
 9412SOL    HW239696   0.504   1.007   5.685 -0.2758  1.5408 -0.5639
 9413SOL     OW39697   1.041   2.465   8.109  0.0649  0.3649  0.2507
 9413SOL    HW139698   1.114   2.484   8.168 -0.1118  2.3940 -0.1805
 9413SOL    HW239699   0.989   2.413   8.171 -0.8754  0.3869 -0.5290
 9414SOL     OW39700   0.302   1.928   0.296  0.0873 -0.0858 -0.0407
 9414SOL    HW139701   0.238   1.909   0.228  0.2805 -0.2177 -0.1849
 9414SOL    HW239702   0.251   1.910   0.376 -0.1686 -1.2131 -0.4629
 9415SOL     OW39703   2.006   4.201   4.713  0.3699  0.5970  0.0051
 9415SOL    HW139704   2.049   4.148   4.646  1.7514  0.1149  1.2581
 9415SOL    HW239705   1.916   4.167   4.709 -0.0539  1.5174  1.5682
 9416SOL     OW39706   1.660   2.077  13.763  0.2052  0.2607 -0.2248
 9416SOL    HW139707   1.592   2.073  13.696 -1.9795 -1.1322  2.0532
 9416SOL    HW239708   1.635   2.008  13.824  0.2520 -0.8428 -1.4606
 9417SOL     OW39709   4.187   4.532  13.144  0.2692 -0.2436  0.3652
 9417SOL    HW139710   4.193   4.505  13.052 -1.6337 -2.5058  0.9002
 9417SOL    HW239711   4.233   4.454  13.176 -0.0307 -0.1265  1.0837
 9418SOL     OW39712   2.871   2.324   1.034 -0.1507  0.0498  1.1329
 9418SOL    HW139713   2.823   2.338   1.116 -2.1105 -0.9879  0.1631
 9418SOL    HW239714   2.822   2.376   0.971  2.4885 -0.1431 -1.0733
 9419SOL     OW39715   2.939   2.979   7.217 -0.3626 -0.5090  0.4232
 9419SOL    HW139716   2.958   2.901   7.165  1.9887  0.1132  0.3651
 9419SOL    HW239717   2.857   2.953   7.260 -0.5930 -2.5809 -1.2447
 9420SOL     OW39718   3.546   2.375   3.567  0.7435  0.6408  0.0306
 9420SOL    HW139719   3.518   2.306   3.508  0.6086  1.4935 -0.9007
 9420SOL    HW239720   3.641   2.362   3.565  0.6186 -0.4275  0.8261
 9421SOL     OW39721   0.900   3.823   9.125  0.2930  0.0856  0.3458
 9421SOL    HW139722   0.878   3.916   9.119 -0.7606 -0.0906  1.4202
 9421SOL    HW239723   0.851   3.793   9.202  1.1918  1.7123  1.5363
 9422SOL     OW39724   1.743   2.804   8.428  0.3331  0.8803  0.0733
 9422SOL    HW139725   1.824   2.765   8.461 -1.2844 -2.9233 -0.4314
 9422SOL    HW239726   1.720   2.868   8.495 -0.2575  1.0785 -0.3148
 9423SOL     OW39727   3.240   1.123   7.144 -0.6438  0.1101 -0.5267
 9423SOL    HW139728   3.222   1.204   7.097 -1.9417  1.6414  2.6453
 9423SOL    HW239729   3.275   1.148   7.230  2.0364  1.8682 -2.1425
 9424SOL     OW39730   1.449   0.829  11.217  0.3006 -0.5116 -0.3598
 9424SOL    HW139731   1.398   0.904  11.184  0.0466 -0.2328  0.6681
 9424SOL    HW239732   1.517   0.883  11.256  0.8037 -1.6113  0.2592
 9425SOL     OW39733   4.436   0.414   0.373 -0.5350  0.2496 -0.5388
 9425SOL    HW139734   4.486   0.426   0.292 -0.4503  1.1099 -0.3597
 9425SOL    HW239735   4.510   0.414   0.433 -0.0326  1.2585 -1.1505
 9426SOL     OW39736   0.786   0.458   2.294 -0.4309  0.0956 -0.7082
 9426SOL    HW139737   0.804   0.422   2.380 -0.1368 -0.2442 -0.9133
 9426SOL    HW239738   0.863   0.514   2.280 -1.4247  1.6931  0.1957
 9427SOL     OW39739   1.789   0.511   2.493  0.3128 -0.4263 -0.5774
 9427SOL    HW139740   1.763   0.469   2.575 -0.0602  1.5292  0.2867
 9427SOL    HW239741   1.861   0.455   2.466  0.3752 -0.4365 -0.3852
 9428SOL     OW39742   3.656   3.557  16.862 -0.1711 -0.4885  0.1939
 9428SOL    HW139743   3.732   3.515  16.823 -0.8073 -0.5697 -0.9489
 9428SOL    HW239744   3.694   3.588  16.944 -0.8199  2.8027 -0.7191
 9429SOL     OW39745   0.088   2.320   8.741 -0.1872  0.1436  0.0936
 9429SOL    HW139746   0.017   2.320   8.805  0.3610  2.2894  0.6828
 9429SOL    HW239747   0.056   2.264   8.670  1.6825  0.8253 -1.2923
 9430SOL     OW39748   1.318   1.551   0.169  0.4501 -0.0364 -0.0072
 9430SOL    HW139749   1.302   1.631   0.120  1.9615  0.2323 -0.0480
 9430SOL    HW239750   1.369   1.508   0.100 -0.7084  0.3816 -1.1375
 9431SOL     OW39751   2.909   1.733   2.989  0.4881  0.1795  0.0112
 9431SOL    HW139752   2.998   1.765   2.973 -0.5209  3.1531  0.1917
 9431SOL    HW239753   2.914   1.649   2.944  1.2573  1.0946 -1.6324
 9432SOL     OW39754   3.583   1.597   6.716 -0.6832 -0.0021  0.0226
 9432SOL    HW139755   3.644   1.560   6.652  0.7283 -1.2344  2.0794
 9432SOL    HW239756   3.570   1.513   6.761 -0.6098 -0.3926 -0.6825
 9433SOL     OW39757   2.623   3.550   3.344 -0.2419 -0.1043 -0.1083
 9433SOL    HW139758   2.700   3.603   3.363  0.1361 -0.0518 -1.8539
 9433SOL    HW239759   2.579   3.622   3.298  0.9034 -0.0339 -1.0725
 9434SOL     OW39760   3.203   2.374   9.077 -0.8160 -0.3749 -0.7421
 9434SOL    HW139761   3.166   2.315   9.143  0.3083 -1.3346 -0.9740
 9434SOL    HW239762   3.207   2.458   9.123  1.2488  0.0306 -1.6690
 9435SOL     OW39763   4.554   2.036   5.760 -0.6483  0.7271 -0.1001
 9435SOL    HW139764   4.597   2.093   5.823 -2.1152  1.4695  0.1981
 9435SOL    HW239765   4.465   2.042   5.792 -0.0255  3.1945  1.1094
 9436SOL     OW39766   0.931   3.536  15.097  0.5907 -0.3420 -0.3310
 9436SOL    HW139767   0.977   3.613  15.131  2.1663 -2.1585  1.6629
 9436SOL    HW239768   0.994   3.465  15.092  1.0437  0.1144 -1.1152
 9437SOL     OW39769   1.750   2.343   5.078  0.3763  0.2199  0.0686
 9437SOL    HW139770   1.732   2.395   5.156  1.4634  1.3954 -0.4781
 9437SOL    HW239771   1.683   2.362   5.013 -0.4047 -0.5493  0.6435
 9438SOL     OW39772   2.482   3.595  11.959  0.1202  0.7399 -0.1869
 9438SOL    HW139773   2.549   3.626  12.020  0.1229  1.8391 -0.7562
 9438SOL    HW239774   2.509   3.503  11.963  1.0827  1.0443  0.2550
 9439SOL     OW39775   2.974   2.931   8.576 -0.0353 -0.0481 -0.2904
 9439SOL    HW139776   3.025   2.852   8.595  0.4060  0.2866 -0.0605
 9439SOL    HW239777   3.007   2.953   8.489 -0.9510 -0.8331 -0.8311
 9440SOL     OW39778   4.450   1.642   5.766  0.1052  0.4814  0.1126
 9440SOL    HW139779   4.389   1.675   5.832 -1.0297  2.8715 -2.1565
 9440SOL    HW239780   4.529   1.693   5.782  0.3788 -0.5522  2.1471
 9441SOL     OW39781   4.130   2.683   8.244  0.5874 -0.2384 -0.3936
 9441SOL    HW139782   4.095   2.594   8.246  0.1878 -0.0345  1.5249
 9441SOL    HW239783   4.067   2.717   8.181  1.1033 -0.0600 -0.8159
 9442SOL     OW39784   0.376   2.661   4.967  0.0734  0.8572  0.2481
 9442SOL    HW139785   0.378   2.568   4.989 -1.9727  0.9259  0.7869
 9442SOL    HW239786   0.450   2.695   5.016  0.1001  0.2273  0.6525
 9443SOL     OW39787   0.804   0.463  12.805 -0.0322 -0.0844  0.0210
 9443SOL    HW139788   0.846   0.381  12.828 -2.6143 -1.1164  1.0976
 9443SOL    HW239789   0.736   0.423  12.751 -2.5233  0.6437  2.5493
 9444SOL     OW39790   2.607   1.514   4.850  0.0079  0.3151 -0.1988
 9444SOL    HW139791   2.626   1.544   4.760  0.1706 -1.8026 -0.8639
 9444SOL    HW239792   2.633   1.584   4.909  1.0929 -2.1216  2.1654
 9445SOL     OW39793   3.819   0.296  12.275 -0.5967  0.1008 -0.4835
 9445SOL    HW139794   3.768   0.238  12.333  0.0498  0.2164  0.2047
 9445SOL    HW239795   3.754   0.301  12.205  0.2939 -0.5203 -1.3656
 9446SOL     OW39796   4.710   0.012  17.618 -0.2415 -0.1335  0.0892
 9446SOL    HW139797   0.058   4.721  17.681 -0.3263  1.2134  0.4866
 9446SOL    HW239798   4.669   4.651  17.636 -0.1502 -0.3121 -0.5394
 9447SOL     OW39799   3.321   3.440   2.251  0.3081  0.1580 -0.6634
 9447SOL    HW139800   3.417   3.443   2.247  0.4268 -1.8010  0.2638
 9447SOL    HW239801   3.301   3.433   2.158 -1.2113 -1.0448 -0.2384
 9448SOL     OW39802   4.245   4.201  14.505  0.0542  0.2245  0.3189
 9448SOL    HW139803   4.154   4.195  14.534  0.1392  0.1443  0.5696
 9448SOL    HW239804   4.278   4.129  14.559 -1.5571 -1.1748 -0.5514
 9449SOL     OW39805   1.835   1.739   5.743 -0.6074  0.5071 -0.6521
 9449SOL    HW139806   1.816   1.658   5.696  0.0878 -0.4699  0.7604
 9449SOL    HW239807   1.930   1.748   5.735 -0.3101 -1.1016  1.0191
 9450SOL     OW39808   1.946   2.316  17.304 -0.1561 -0.4375  0.1724
 9450SOL    HW139809   1.896   2.397  17.316  0.0558 -0.5754  2.1163
 9450SOL    HW239810   2.030   2.350  17.335  0.1632 -0.3596 -0.7886
 9451SOL     OW39811   1.725   1.021   3.704  0.4044  0.7742  0.4295
 9451SOL    HW139812   1.803   1.010   3.649 -1.7033  0.6202 -2.5339
 9451SOL    HW239813   1.742   1.103   3.750 -0.9520  2.0714 -1.3727
 9452SOL     OW39814   0.921   1.241  12.986 -0.0456  0.0930 -0.0552
 9452SOL    HW139815   0.867   1.163  12.980  1.3149 -1.0140  1.9815
 9452SOL    HW239816   0.906   1.273  13.075  1.9577 -0.1927  0.4065
 9453SOL     OW39817   2.792   3.529  12.275 -0.6508  0.1936  0.0233
 9453SOL    HW139818   2.808   3.619  12.245 -1.1297 -0.1174 -1.1341
 9453SOL    HW239819   2.875   3.496  12.243 -1.2012 -0.1069 -1.0740
 9454SOL     OW39820   2.343   1.849   5.519  0.6069  0.5933 -0.0450
 9454SOL    HW139821   2.329   1.925   5.576 -2.3536 -0.6576  0.8936
 9454SOL    HW239822   2.256   1.810   5.520  1.0231 -0.3309 -0.0917
 9455SOL     OW39823   2.494   0.562   8.009  0.0511  0.7661  0.6688
 9455SOL    HW139824   2.525   0.646   7.974  2.9520  0.1726  1.8249
 9455SOL    HW239825   2.483   0.513   7.928  3.0930  1.9584 -0.4859
 9456SOL     OW39826   0.231   2.560  10.970 -0.0536  0.2604 -0.0396
 9456SOL    HW139827   0.325   2.556  10.955  0.0698  0.7186  0.5792
 9456SOL    HW239828   0.218   2.646  11.009 -1.4948  0.2624 -0.5211
 9457SOL     OW39829   3.572   0.019   8.548  0.1157 -0.0360  0.0768
 9457SOL    HW139830   3.501   0.052   8.603  1.7647 -0.0662  2.2208
 9457SOL    HW239831   3.636   4.710   8.612  0.6210  0.9693  0.0708
 9458SOL     OW39832   3.372   3.854  15.946  0.4356 -0.1955 -0.2715
 9458SOL    HW139833   3.455   3.896  15.922  0.1550 -0.1125 -1.1025
 9458SOL    HW239834   3.387   3.815  16.032  1.0127  2.2109  0.7137
 9459SOL     OW39835   0.158   2.302   9.027  0.0869 -0.8381  0.0808
 9459SOL    HW139836   0.133   2.245   9.099 -0.4740  0.1247  0.6479
 9459SOL    HW239837   0.236   2.261   8.989  0.7439 -0.0394  0.5515
 9460SOL     OW39838   4.382   2.214  17.494 -0.8120 -0.0881 -0.1503
 9460SOL    HW139839   4.325   2.142  17.523 -1.1312 -0.5746 -2.0019
 9460SOL    HW239840   4.336   2.253  17.420 -0.3756  1.6804  0.5186
 9461SOL     OW39841   1.610   3.851   6.084 -0.1707 -0.2580 -0.3857
 9461SOL    HW139842   1.633   3.769   6.039  0.7869 -1.4663  2.3185
 9461SOL    HW239843   1.588   3.823   6.172  3.2524 -1.4598  0.0832
 9462SOL     OW39844   3.186   3.604  13.737 -0.3188 -0.2639  0.0058
 9462SOL    HW139845   3.092   3.594  13.755 -0.0238 -1.1416  1.0399
 9462SOL    HW239846   3.185   3.605  13.642  0.1467  0.2869  0.0099
 9463SOL     OW39847   1.547   4.690   2.718  0.3049  0.5353 -0.2277
 9463SOL    HW139848   1.549   4.682   2.813  0.3102  0.4470 -0.2353
 9463SOL    HW239849   1.575   4.604   2.687  0.7818  1.3848 -2.1542
 9464SOL     OW39850   2.609   1.658  16.109 -0.5655 -0.1013 -0.7160
 9464SOL    HW139851   2.575   1.714  16.178  1.2726  0.5141 -0.3125
 9464SOL    HW239852   2.586   1.715  16.036  0.1800  0.4900 -0.4974
 9465SOL     OW39853   1.537   3.737  16.155  0.3933  0.9084 -0.3001
 9465SOL    HW139854   1.582   3.816  16.125  0.2343  0.6259 -1.2844
 9465SOL    HW239855   1.446   3.756  16.136  0.3987  0.2747 -0.9463
 9466SOL     OW39856   3.693   4.177   2.042 -0.3465  0.1607  0.4049
 9466SOL    HW139857   3.711   4.155   2.133  0.9174 -0.8901 -0.1075
 9466SOL    HW239858   3.614   4.225   2.068 -0.9770 -0.1452 -0.9394
 9467SOL     OW39859   1.771   2.435   5.964  0.4161  0.2472 -0.0963
 9467SOL    HW139860   1.690   2.445   5.915  0.3220  0.3618  0.0852
 9467SOL    HW239861   1.764   2.346   6.001  1.9334 -0.3096 -1.1447
 9468SOL     OW39862   1.369   1.230   7.063  0.3436  0.5506  0.1148
 9468SOL    HW139863   1.415   1.152   7.094 -0.9068 -0.4908 -0.6250
 9468SOL    HW239864   1.344   1.274   7.145 -0.4905  0.7432 -0.2472
 9469SOL     OW39865   1.481   3.594   1.727 -0.3717  0.5641  0.3625
 9469SOL    HW139866   1.439   3.680   1.719 -1.2431 -0.0631 -1.7528
 9469SOL    HW239867   1.496   3.595   1.822 -0.7048  1.1719  0.4108
 9470SOL     OW39868   3.807   0.013   2.415  0.4717  0.2337  0.0332
 9470SOL    HW139869   3.858   0.059   2.348  1.0474  0.8003  0.8591
 9470SOL    HW239870   3.740   4.699   2.357  0.6287  0.8647 -0.5533
 9471SOL     OW39871   3.442   3.889   9.670  0.0452  0.1364  0.0495
 9471SOL    HW139872   3.364   3.834   9.663 -1.6303  2.2964  2.0974
 9471SOL    HW239873   3.458   3.895   9.764 -0.9196 -0.8898  0.2751
 9472SOL     OW39874   0.404   4.005  15.108  0.4238  0.1048 -0.1391
 9472SOL    HW139875   0.384   4.041  15.022  1.2373  1.4115  0.2178
 9472SOL    HW239876   0.325   4.017  15.160 -0.0943 -0.0162 -0.9002
 9473SOL     OW39877   1.129   0.254   2.381  0.3431  0.0943 -0.3436
 9473SOL    HW139878   1.220   0.248   2.349  0.5833 -2.9299  0.9536
 9473SOL    HW239879   1.121   0.179   2.440  2.2550  1.1640  1.2786
 9474SOL     OW39880   2.926   1.167  12.562 -0.3663  0.1461 -0.1572
 9474SOL    HW139881   2.929   1.115  12.482 -2.2181  1.1740 -0.8748
 9474SOL    HW239882   3.019   1.189  12.567 -0.4960  0.4454  0.9178
 9475SOL     OW39883   0.426   1.898   6.703 -0.1588 -0.3411  0.6688
 9475SOL    HW139884   0.451   1.872   6.615  0.7167  0.3220  0.7242
 9475SOL    HW239885   0.491   1.847   6.751  0.6853 -0.7949 -0.9711
 9476SOL     OW39886   2.646   0.538   4.360  0.2398  0.7197 -0.3843
 9476SOL    HW139887   2.607   0.458   4.393 -1.2238  0.0203 -3.7884
 9476SOL    HW239888   2.724   0.540   4.415  0.0825 -2.2081 -0.0572
 9477SOL     OW39889   2.686   2.439  12.673 -0.0387  0.9033  0.1754
 9477SOL    HW139890   2.676   2.495  12.596  0.6987 -0.1456 -0.6736
 9477SOL    HW239891   2.664   2.355  12.634 -1.2326  1.3235 -0.0624
 9478SOL     OW39892   3.163   3.488   8.969  0.0079 -0.1010 -0.2636
 9478SOL    HW139893   3.121   3.509   9.052 -0.9039 -2.1359 -0.2029
 9478SOL    HW239894   3.153   3.393   8.961  1.7077 -0.3242  0.2991
 9479SOL     OW39895   1.706   0.554   0.777 -0.5115  0.7327 -0.3200
 9479SOL    HW139896   1.652   0.565   0.699 -1.3895 -1.0972  0.0045
 9479SOL    HW239897   1.642   0.524   0.843  0.2516  1.8734  0.9360
 9480SOL     OW39898   0.393   4.474   8.434  0.3196 -0.1839 -0.0847
 9480SOL    HW139899   0.345   4.478   8.516 -2.1773 -0.2553 -1.5436
 9480SOL    HW239900   0.454   4.547   8.446 -1.9497  1.2914  2.4871
 9481SOL     OW39901   0.073   2.824  16.722 -0.4299 -0.4060  0.0647
 9481SOL    HW139902   0.087   2.738  16.760 -1.1545 -1.7987 -2.7943
 9481SOL    HW239903   0.150   2.872  16.752  0.1987 -1.3462 -0.0552
 9482SOL     OW39904   0.252   0.845   8.139  0.6091 -0.4351 -0.0341
 9482SOL    HW139905   0.183   0.834   8.204  0.4873  0.2010 -0.0582
 9482SOL    HW239906   0.200   0.826   8.061 -0.4162  0.0981  0.5140
 9483SOL     OW39907   4.527   4.554   1.579 -0.0815 -0.4664  0.4574
 9483SOL    HW139908   4.493   4.527   1.494  0.6849 -0.7935  0.2635
 9483SOL    HW239909   4.614   4.516   1.572 -0.0572 -0.5249  1.0278
 9484SOL     OW39910   1.996   3.081   2.820 -0.4367 -0.0359  0.2292
 9484SOL    HW139911   2.037   3.064   2.905  1.8017 -0.2174 -0.8860
 9484SOL    HW239912   1.904   3.100   2.839 -0.5863  1.2757 -1.8110
 9485SOL     OW39913   1.991   2.636  15.816  0.2067 -0.6229  0.0510
 9485SOL    HW139914   2.020   2.628  15.725  2.2603 -1.0341  0.7409
 9485SOL    HW239915   1.951   2.549  15.823 -1.6274  0.2155  0.0387
 9486SOL     OW39916   1.235   4.066   3.394  0.1387 -0.2967  0.3251
 9486SOL    HW139917   1.160   4.117   3.423  0.1651  0.1021 -0.3365
 9486SOL    HW239918   1.213   4.036   3.306  1.9609 -0.0872 -0.2023
 9487SOL     OW39919   2.355   4.657   0.620  0.4404 -0.0740 -0.3865
 9487SOL    HW139920   2.425   4.722   0.616  0.7700 -0.3508  1.0715
 9487SOL    HW239921   2.376   4.602   0.695  0.1363  1.1107  0.5664
 9488SOL     OW39922   2.588   0.677  16.569 -0.0120  0.0457 -0.0952
 9488SOL    HW139923   2.563   0.728  16.646 -1.1093 -0.0109 -0.4158
 9488SOL    HW239924   2.556   0.590  16.593 -0.6043  0.3817  0.3335
 9489SOL     OW39925   0.964   2.302   4.507  0.2182 -0.2937  0.1321
 9489SOL    HW139926   0.992   2.363   4.574  4.6284 -1.4485 -0.6554
 9489SOL    HW239927   1.013   2.335   4.432  1.3525  0.3769  1.1707
 9490SOL     OW39928   4.084   0.303   4.920  0.0483  0.9284 -0.4508
 9490SOL    HW139929   4.131   0.322   5.001  1.9493  1.3822 -1.6508
 9490SOL    HW239930   4.165   0.315   4.870  0.7231  1.0081  0.6633
 9491SOL     OW39931   4.193   0.084   2.144 -0.0838  0.3188 -0.7990
 9491SOL    HW139932   4.162   0.040   2.065  2.1485 -0.8229 -1.0582
 9491SOL    HW239933   4.117   0.092   2.200  0.5594 -1.5083  0.3215
 9492SOL     OW39934   1.684   0.077   7.740  0.4126  0.2929  0.6742
 9492SOL    HW139935   1.679   0.119   7.826 -0.9261  1.6991 -0.1107
 9492SOL    HW239936   1.689   0.152   7.680  0.0632  0.0940  0.3992
 9493SOL     OW39937   1.813   2.744   3.586  0.0511 -0.1812 -0.4022
 9493SOL    HW139938   1.854   2.812   3.533 -1.4123  1.2703  0.3412
 9493SOL    HW239939   1.800   2.674   3.522  3.4549  0.6269 -1.9812
 9494SOL     OW39940   3.105   1.344  11.675  0.2340  0.2561  0.3620
 9494SOL    HW139941   3.057   1.310  11.599 -1.2670 -2.5101  2.5584
 9494SOL    HW239942   3.056   1.413  11.720 -0.9811 -0.5479  0.2831
 9495SOL     OW39943   3.926   1.589  16.405 -0.3009  0.0857  0.2936
 9495SOL    HW139944   3.954   1.603  16.496 -1.5909  0.2669  0.6531
 9495SOL    HW239945   3.989   1.632  16.347 -0.6378 -1.8241 -1.4897
 9496SOL     OW39946   0.014   2.546  11.458 -0.3630 -0.8408  0.0659
 9496SOL    HW139947   4.687   2.581  11.384 -0.9923 -1.2805  0.2883
 9496SOL    HW239948   0.103   2.544  11.423  0.4395  2.4723  1.9280
 9497SOL     OW39949   1.703   1.256   4.693  0.0547 -0.2121  0.3778
 9497SOL    HW139950   1.615   1.270   4.728  2.3290  3.6319  4.5486
 9497SOL    HW239951   1.743   1.341   4.710 -2.1906  0.8199  0.5849
 9498SOL     OW39952   3.323   1.141   6.569 -0.5018  0.6659  0.4426
 9498SOL    HW139953   3.235   1.168   6.594 -0.6350  2.2352 -1.7641
 9498SOL    HW239954   3.333   1.074   6.637 -2.3566  0.6399  0.6753
 9499SOL     OW39955   1.501   1.608  13.040 -0.0271  0.2727  0.0300
 9499SOL    HW139956   1.530   1.671  12.974  1.6627 -0.7225 -0.1885
 9499SOL    HW239957   1.406   1.613  13.029  0.2757  0.3315 -2.5247
 9500SOL     OW39958   0.008   1.885  10.735 -0.7520 -0.2624 -0.0023
 9500SOL    HW139959   0.040   1.892  10.825 -0.3590  2.5959 -0.3781
 9500SOL    HW239960   4.638   1.885  10.761 -1.4864 -0.9254 -2.6216
 9501SOL     OW39961   3.262   2.488   6.021  0.0548  0.2517 -0.2969
 9501SOL    HW139962   3.241   2.555   5.956  2.1114  0.1191 -1.0989
 9501SOL    HW239963   3.220   2.516   6.102  0.5754  0.9221 -0.2553
 9502SOL     OW39964   0.339   2.415  15.417 -0.4264 -0.2412  0.2268
 9502SOL    HW139965   0.324   2.502  15.454  4.2052 -0.5646  2.8220
 9502SOL    HW239966   0.341   2.364  15.498 -0.6754 -1.9167 -0.8205
 9503SOL     OW39967   4.247   0.966   3.892 -0.4160  0.5526 -0.6872
 9503SOL    HW139968   4.200   1.049   3.884  1.1393  1.5428  0.4496
 9503SOL    HW239969   4.208   0.916   3.821  2.2971 -2.7338  0.1766
 9504SOL     OW39970   0.975   2.399   4.871 -0.3761 -0.3613 -0.0967
 9504SOL    HW139971   0.894   2.438   4.839  0.3809  0.2094 -1.3783
 9504SOL    HW239972   0.958   2.398   4.965 -0.2881  0.9532 -0.0624
 9505SOL     OW39973   2.714   0.898   4.462  0.4113  0.1086  0.0842
 9505SOL    HW139974   2.672   0.968   4.512 -2.3182 -1.7328  0.3847
 9505SOL    HW239975   2.796   0.905   4.511  0.0462 -0.1812  0.7427
 9506SOL     OW39976   1.151   0.077   6.624  0.0265 -0.0016 -0.7678
 9506SOL    HW139977   1.243   0.067   6.600 -0.5835 -1.5308 -2.4168
 9506SOL    HW239978   1.132   0.157   6.573  0.0990  0.4426 -0.0989
 9507SOL     OW39979   4.697   0.152   3.235  0.4182 -0.2548 -0.0671
 9507SOL    HW139980   4.715   0.131   3.144  0.9980 -2.3362  0.5235
 9507SOL    HW239981   0.058   0.191   3.261 -0.3874  2.3156 -1.3299
 9508SOL     OW39982   1.794   4.492   0.593 -0.3749  0.2789  0.0014
 9508SOL    HW139983   1.813   4.440   0.671 -2.4990  0.0663  0.3792
 9508SOL    HW239984   1.750   4.429   0.536  1.3593 -0.5820 -0.3831
 9509SOL     OW39985   1.698   2.151   7.114 -0.3180 -0.0069 -0.0411
 9509SOL    HW139986   1.738   2.101   7.186 -1.1827 -0.8062 -0.1176
 9509SOL    HW239987   1.781   2.173   7.071  0.0087 -0.1054  0.5341
 9510SOL     OW39988   1.308   1.358   8.818  0.6699 -0.2096 -0.3201
 9510SOL    HW139989   1.221   1.325   8.844  0.3765 -0.7304 -1.9860
 9510SOL    HW239990   1.358   1.279   8.802  0.1089 -1.0650  2.0533
 9511SOL     OW39991   1.633   4.218   0.355  0.7306 -0.4349 -1.0399
 9511SOL    HW139992   1.703   4.182   0.301 -0.7640 -0.8505 -2.7207
 9511SOL    HW239993   1.561   4.173   0.311 -2.7360  0.3027  3.9554
 9512SOL     OW39994   4.118   1.262   4.732 -0.2658 -0.3708 -0.0365
 9512SOL    HW139995   4.202   1.221   4.749  0.1683  0.0459 -1.1431
 9512SOL    HW239996   4.086   1.209   4.659  0.6236 -2.2909  0.9703
 9513SOL     OW39997   0.334   1.522   7.346 -0.2661  0.1812 -0.6605
 9513SOL    HW139998   0.397   1.594   7.344 -2.0038  1.5665 -4.3893
 9513SOL    HW239999   0.383   1.446   7.317 -1.2287 -1.2232  1.3240
 9514SOL     OW40000   4.627   0.550   2.627  0.0420  0.0694  0.1720
 9514SOL    HW140001   4.717   0.539   2.599  0.4099 -1.8608  2.0657
 9514SOL    HW240002   4.617   0.467   2.675 -0.5195  1.2152  2.0242
 9515SOL     OW40003   3.186   4.127  15.276 -0.2893  0.4976  0.7154
 9515SOL    HW140004   3.194   4.060  15.208 -1.6075  1.0957 -0.0219
 9515SOL    HW240005   3.106   4.168  15.244 -0.7023  0.0356  1.1616
 9516SOL     OW40006   1.414   3.420   2.704 -0.4235 -0.3665 -0.2856
 9516SOL    HW140007   1.370   3.353   2.758  2.0932 -1.7799 -0.0110
 9516SOL    HW240008   1.443   3.471   2.780 -0.3023 -1.8706  0.6921
 9517SOL     OW40009   0.945   3.873   8.589 -0.2585 -0.5375 -0.0454
 9517SOL    HW140010   0.871   3.930   8.570  1.4519  2.0953  1.1668
 9517SOL    HW240011   0.925   3.848   8.680 -0.9514 -1.2330 -0.3915
 9518SOL     OW40012   1.369   3.031   2.980 -0.4085  0.4056  0.3754
 9518SOL    HW140013   1.313   2.990   3.046  0.3042  0.1431  0.8166
 9518SOL    HW240014   1.421   2.952   2.965  1.0217  1.5572 -0.7342
 9519SOL     OW40015   0.160   1.863  15.747  0.1985  0.0183 -0.2922
 9519SOL    HW140016   0.242   1.827  15.716  0.1351 -0.3559 -0.0176
 9519SOL    HW240017   0.196   1.928  15.809 -2.0945 -0.0984  1.1921
 9520SOL     OW40018   1.825   4.129   5.569  0.0419  0.1321  0.2051
 9520SOL    HW140019   1.785   4.148   5.484  1.4059  0.7897 -0.2876
 9520SOL    HW240020   1.834   4.213   5.613  0.8085  0.8647 -1.3727
 9521SOL     OW40021   2.906   1.251   9.885 -0.1585  0.3943  0.4309
 9521SOL    HW140022   2.988   1.301   9.887  0.9893 -1.5666  2.8502
 9521SOL    HW240023   2.857   1.299   9.818  2.4018  0.7152 -1.1934
 9522SOL     OW40024   2.074   1.632   0.764  0.1114  0.0529 -0.0725
 9522SOL    HW140025   2.013   1.635   0.690  1.4994 -0.0954 -1.2262
 9522SOL    HW240026   2.034   1.563   0.817 -0.4294  1.4112  1.2836
 9523SOL     OW40027   0.266   1.009   3.370 -0.6040 -0.1055 -0.2181
 9523SOL    HW140028   0.251   1.007   3.275 -1.3531 -0.6450 -0.0852
 9523SOL    HW240029   0.247   1.099   3.399 -2.2691 -0.5968  0.2228
 9524SOL     OW40030   3.803   0.382  13.107  0.1514 -0.9208 -0.6596
 9524SOL    HW140031   3.824   0.328  13.031  1.1142 -3.7478  1.5827
 9524SOL    HW240032   3.744   0.330  13.161 -0.6099  0.1964 -0.4286
 9525SOL     OW40033   3.095   1.160   4.591  0.1832 -0.1415  0.6241
 9525SOL    HW140034   3.045   1.217   4.650 -0.3841 -0.4094  0.4078
 9525SOL    HW240035   3.060   1.193   4.508  1.0360  1.6774  0.9863
 9526SOL     OW40036   3.043   1.229  10.940 -0.1824 -0.0349  0.2179
 9526SOL    HW140037   3.078   1.263  10.858  1.2520 -0.8242  0.4989
 9526SOL    HW240038   3.048   1.301  11.003 -0.4507  0.0854  0.0996
 9527SOL     OW40039   2.787   0.821   2.669 -0.3351  0.4958 -0.4703
 9527SOL    HW140040   2.879   0.835   2.692  0.3839 -2.5318 -1.4009
 9527SOL    HW240041   2.797   0.738   2.621 -0.8460  0.7879 -1.0664
 9528SOL     OW40042   1.327   2.368   1.118  0.1135  0.5288 -0.1192
 9528SOL    HW140043   1.327   2.428   1.193  1.4236 -1.4196  1.4468
 9528SOL    HW240044   1.320   2.428   1.043 -1.3920  1.5419  0.8335
 9529SOL     OW40045   3.836   2.038   8.842 -0.6061 -0.4989  0.0252
 9529SOL    HW140046   3.781   2.075   8.773 -0.4144 -1.3763 -0.5901
 9529SOL    HW240047   3.920   2.073   8.811  0.8450 -3.9025  0.0718
 9530SOL     OW40048   1.935   1.903  11.811 -0.1354  0.4441  0.0554
 9530SOL    HW140049   1.863   1.841  11.824  1.1365 -1.1321 -0.5046
 9530SOL    HW240050   2.011   1.846  11.824 -1.9904 -1.6359  1.6993
 9531SOL     OW40051   1.245   1.133   5.684  0.1598 -0.2327 -0.5279
 9531SOL    HW140052   1.338   1.149   5.666  0.2866  0.4293  0.7476
 9531SOL    HW240053   1.249   1.070   5.755 -2.3266  0.5368  0.2807
 9532SOL     OW40054   4.136   0.851  12.873  0.7677  0.0572  0.3297
 9532SOL    HW140055   4.062   0.868  12.815  1.1874  0.6806 -0.0342
 9532SOL    HW240056   4.203   0.899  12.822  1.1312 -0.8641 -0.0605
 9533SOL     OW40057   2.241   4.057   4.605 -0.3816 -0.1248  0.0909
 9533SOL    HW140058   2.261   4.079   4.514  0.2805  0.6620  0.4281
 9533SOL    HW240059   2.312   4.100   4.653  0.9211 -2.1788  0.0025
 9534SOL     OW40060   0.274   3.876   6.585 -0.2832 -0.4717  0.0443
 9534SOL    HW140061   0.331   3.859   6.661 -0.5671  0.4689  0.4791
 9534SOL    HW240062   0.214   3.946   6.612 -0.4115 -0.1154 -1.1602
 9535SOL     OW40063   3.901   1.263   7.303  0.2291  0.2084  0.0220
 9535SOL    HW140064   3.820   1.219   7.275 -0.7420  1.0579  1.4590
 9535SOL    HW240065   3.876   1.310   7.383 -1.8274  0.0445 -0.5234
 9536SOL     OW40066   1.006   1.757   7.758 -0.2181 -0.4578 -0.0795
 9536SOL    HW140067   1.078   1.755   7.695  0.4326 -0.8903  0.6874
 9536SOL    HW240068   0.952   1.684   7.728 -1.2404  0.7409 -1.1914
 9537SOL     OW40069   1.885   2.766  14.856  0.0727  0.0876  0.5422
 9537SOL    HW140070   1.918   2.855  14.842 -3.4698  1.1417 -1.0556
 9537SOL    HW240071   1.948   2.730  14.919  1.4076 -0.1446 -0.9180
 9538SOL     OW40072   0.954   2.327   8.335  0.4340  0.0897 -0.5571
 9538SOL    HW140073   1.036   2.339   8.383 -0.3430  1.0932  0.5425
 9538SOL    HW240074   0.928   2.236   8.343  2.1103 -0.3558 -0.2042
 9539SOL     OW40075   3.333   0.409   4.793 -0.1517 -0.5953  0.5742
 9539SOL    HW140076   3.349   0.421   4.887  2.0077 -0.3712  0.1793
 9539SOL    HW240077   3.243   0.439   4.780 -0.1125 -1.0044 -0.6691
 9540SOL     OW40078   1.260   4.656   8.898  0.2677 -0.5199 -0.4951
 9540SOL    HW140079   1.351   4.644   8.872  0.4803 -1.9299  0.8770
 9540SOL    HW240080   1.220   4.710   8.830 -2.7472  0.1638  1.8153
 9541SOL     OW40081   4.089   4.302   8.216  0.8725  0.7990 -0.0216
 9541SOL    HW140082   4.032   4.311   8.140  0.4010 -1.0602  0.1123
 9541SOL    HW240083   4.175   4.278   8.181  0.4831 -1.3694  0.5383
 9542SOL     OW40084   0.807   1.076  12.216  0.1167  1.0774 -0.3235
 9542SOL    HW140085   0.771   1.043  12.297  0.4094 -0.2274 -0.7273
 9542SOL    HW240086   0.875   1.136  12.248  0.0701  2.0610 -2.0407
 9543SOL     OW40087   0.805   1.185   6.323 -0.1758 -0.9839 -0.1375
 9543SOL    HW140088   0.858   1.264   6.331  0.1711 -0.9170 -3.0895
 9543SOL    HW240089   0.866   1.134   6.270 -2.6480 -1.3224 -2.6381
 9544SOL     OW40090   2.703   1.740  11.659 -0.3031 -0.1843  0.1362
 9544SOL    HW140091   2.721   1.669  11.598 -1.6124 -1.5758  1.3679
 9544SOL    HW240092   2.701   1.818  11.603  1.0567 -0.0992  0.2061
 9545SOL     OW40093   4.355   0.659   0.482 -0.2541  0.4269  0.3137
 9545SOL    HW140094   4.329   0.599   0.552 -1.6202 -0.7895 -1.2472
 9545SOL    HW240095   4.407   0.599   0.428 -2.1134 -3.7842  3.1717
 9546SOL     OW40096   4.430   0.365  11.277  0.1342  0.1756 -0.1126
 9546SOL    HW140097   4.435   0.436  11.341 -1.4900 -0.0225  0.2364
 9546SOL    HW240098   4.443   0.290  11.334 -0.2794  0.0035 -0.2431
 9547SOL     OW40099   0.481   1.024   3.058  0.6515  0.5693  0.5385
 9547SOL    HW140100   0.388   1.040   3.041  0.4713 -2.2354 -1.0183
 9547SOL    HW240101   0.510   0.991   2.974 -1.5649  0.8921 -0.3583
 9548SOL     OW40102   2.280   2.427   0.368 -0.2699  0.1791  0.3776
 9548SOL    HW140103   2.350   2.485   0.338 -0.1107 -0.2031 -0.0095
 9548SOL    HW240104   2.315   2.418   0.456 -2.7664 -1.4583  1.2139
 9549SOL     OW40105   0.109   0.297   2.729 -0.0768  0.1193  0.0824
 9549SOL    HW140106   0.088   0.218   2.679  1.2890  0.8238 -1.6100
 9549SOL    HW240107   0.128   0.271   2.819  0.6087  0.0402 -0.0866
 9550SOL     OW40108   4.007   1.702  16.643 -0.0695  0.4292  0.0822
 9550SOL    HW140109   4.067   1.632  16.667 -0.2215 -0.1719 -1.2905
 9550SOL    HW240110   3.980   1.733  16.729 -1.9919  1.5123 -0.8991
 9551SOL     OW40111   3.742   0.635  13.109  0.1179 -0.0753  0.3324
 9551SOL    HW140112   3.754   0.541  13.095 -0.2154  0.0640 -0.9035
 9551SOL    HW240113   3.663   0.626  13.162 -2.1800  1.1940 -2.8468
 9552SOL     OW40114   3.525   1.550  16.111 -0.4522  0.1392 -0.0061
 9552SOL    HW140115   3.497   1.634  16.075 -0.1915 -0.1489 -0.8956
 9552SOL    HW240116   3.463   1.531  16.181  1.4848  1.3293  2.0308
 9553SOL     OW40117   2.631   1.071  12.305  0.3456  0.7116 -0.2003
 9553SOL    HW140118   2.561   1.006  12.307 -0.3052  1.4056 -0.1385
 9553SOL    HW240119   2.641   1.093  12.398 -1.7407 -0.0072  0.1952
 9554SOL     OW40120   2.881   3.277   9.247 -0.0525 -0.1144 -0.6092
 9554SOL    HW140121   2.951   3.338   9.224  1.9435 -1.9147  0.7210
 9554SOL    HW240122   2.802   3.330   9.236  0.8237  0.8886 -2.1639
 9555SOL     OW40123   1.128   0.303  15.993  0.0528  0.7374 -0.6850
 9555SOL    HW140124   1.117   0.232  15.929 -0.7896 -1.4394  1.8718
 9555SOL    HW240125   1.058   0.291  16.058 -0.4595 -1.3166 -1.6167
 9556SOL     OW40126   2.491   4.602   8.071  0.1866  0.1416  0.2101
 9556SOL    HW140127   2.524   4.678   8.024  0.4353 -0.7086 -0.9743
 9556SOL    HW240128   2.564   4.541   8.085  0.4019  0.5431  0.8727
 9557SOL     OW40129   3.746   2.743   1.241 -0.1619  0.3700 -0.0607
 9557SOL    HW140130   3.783   2.732   1.153  0.7068 -1.8595  0.6042
 9557SOL    HW240131   3.675   2.680   1.239  1.6662 -1.7474  1.8088
 9558SOL     OW40132   2.468   3.691   5.374 -0.4911 -0.3573  0.8676
 9558SOL    HW140133   2.537   3.703   5.439  0.1961  0.1962  0.0300
 9558SOL    HW240134   2.406   3.753   5.411 -0.9046 -1.6062  2.2956
 9559SOL     OW40135   1.774   0.186   4.701  0.1350 -0.2962 -0.0768
 9559SOL    HW140136   1.721   0.135   4.762  2.4780 -1.0181  1.3751
 9559SOL    HW240137   1.852   0.131   4.713  1.1602  0.9659 -0.9398
 9560SOL     OW40138   2.768   4.660   9.577  0.0074  0.0935 -0.1036
 9560SOL    HW140139   2.846   4.695   9.532  0.3835  0.1575  0.5991
 9560SOL    HW240140   2.748   4.582   9.526  1.5091 -1.4147  1.6408
 9561SOL     OW40141   0.194   1.082   9.232  0.1261  0.0001  0.3465
 9561SOL    HW140142   0.157   1.152   9.286 -1.5993 -0.7544  0.1603
 9561SOL    HW240143   0.204   1.133   9.152 -0.4961 -1.7092 -0.8208
 9562SOL     OW40144   1.511   3.862   3.242 -0.2157 -0.1619 -0.5943
 9562SOL    HW140145   1.539   3.785   3.291 -1.0251 -1.1550 -1.6904
 9562SOL    HW240146   1.417   3.855   3.258 -0.1363  1.4802  0.5674
 9563SOL     OW40147   3.507   2.861   6.578  0.3668 -0.6440  0.1089
 9563SOL    HW140148   3.439   2.882   6.515  0.0350  2.8308  1.5847
 9563SOL    HW240149   3.515   2.934   6.641 -1.6630 -1.5370  1.3865
 9564SOL     OW40150   2.854   3.992   4.645  0.4520  0.2461 -0.0115
 9564SOL    HW140151   2.903   3.910   4.635  0.9406  0.1254  3.4129
 9564SOL    HW240152   2.847   4.033   4.559  1.0019  0.7137  0.1651
 9565SOL     OW40153   2.803   4.078  15.750 -0.0586  0.6997  0.2854
 9565SOL    HW140154   2.776   4.146  15.813 -0.9006  0.1240  0.5534
 9565SOL    HW240155   2.845   4.137  15.688 -0.5083  0.1115 -0.5692
   4.72306   4.72306  17.69414
